                         Program Version 4.2.0 -  RELEASE  -
|  1> # 12h2o.su.etal.mol0,1,4,5,6,7,9,11
|  2> ! MP2 def2-TZVP EnGrad TightSCF
|  3>
|  4> %pal
|  5>     nprocs 6
|  6> end
|  7>
|  8> %maxcore 8000
|  9>
| 10> %scf
| 11>     ConvForced true
| 12> end
| 13>
| 14> *xyz 0 1
| 15> O   1.794470000   0.923410000   2.768350000
| 16> H   2.338250000   1.359750000   3.430940000
| 17> H   0.879480000   1.303000000   2.865760000
| 18> O  -1.794470000  -0.923410000   2.768350000
| 19> H  -2.338250000  -1.359750000   3.430940000
| 20> H  -0.879480000  -1.303000000   2.865760000
| 21> O  -0.885520000   1.737840000   0.052730000
| 22> H  -1.032320000   2.090180000  -0.841890000
| 23> H  -1.284090000   0.839590000   0.017130000
| 24> O   0.885520000  -1.737840000   0.052730000
| 25> H   1.284090000  -0.839590000   0.017130000
| 26> H   1.032320000  -2.090180000  -0.841890000
| 27> O   1.737840000   0.885520000  -0.052730000
| 28> H   2.090180000   1.032320000   0.841890000
| 29> H   0.839590000   1.284090000  -0.017130000
| 30> O  -1.737840000  -0.885520000  -0.052730000
| 31> H  -2.090180000  -1.032320000   0.841890000
| 32> H  -0.839590000  -1.284090000  -0.017130000
| 33> O   0.741530000  -1.752130000   2.896280000
| 34> H   0.920500000  -2.036450000   1.984040000
| 35> H   1.242140000  -0.921210000   2.984230000
| 36> O  -0.741530000   1.752130000   2.896280000
| 37> H  -0.920500000   2.036450000   1.984040000
| 38> H  -1.242140000   0.921210000   2.984230000
| 39> *
| 40>
| 41>                          ****END OF INPUT****

CARTESIAN COORDINATES (ANGSTROEM)
---------------------------------
  O      1.794470    0.923410    2.768350
  H      2.338250    1.359750    3.430940
  H      0.879480    1.303000    2.865760
  O     -1.794470   -0.923410    2.768350
  H     -2.338250   -1.359750    3.430940
  H     -0.879480   -1.303000    2.865760
  O     -0.885520    1.737840    0.052730
  H     -1.032320    2.090180   -0.841890
  H     -1.284090    0.839590    0.017130
  O      0.885520   -1.737840    0.052730
  H      1.284090   -0.839590    0.017130
  H      1.032320   -2.090180   -0.841890
  O      1.737840    0.885520   -0.052730
  H      2.090180    1.032320    0.841890
  H      0.839590    1.284090   -0.017130
  O     -1.737840   -0.885520   -0.052730
  H     -2.090180   -1.032320    0.841890
  H     -0.839590   -1.284090   -0.017130
  O      0.741530   -1.752130    2.896280
  H      0.920500   -2.036450    1.984040
  H      1.242140   -0.921210    2.984230
  O     -0.741530    1.752130    2.896280
  H     -0.920500    2.036450    1.984040
  H     -1.242140    0.921210    2.984230

 Total Charge           Charge          ....    0
 Multiplicity           Mult            ....    1
 Number of Electrons    NEL             ....   80
 Basis Dimension        Dim             ....  344

ORBITAL ENERGIES
----------------

  NO   OCC          E(Eh)            E(eV)
   0   2.0000     -20.578369      -559.9659
   1   2.0000     -20.578369      -559.9659
   2   2.0000     -20.567317      -559.6652
   3   2.0000     -20.567317      -559.6652
   4   2.0000     -20.556341      -559.3665
   5   2.0000     -20.556340      -559.3665
   6   2.0000     -20.544154      -559.0348
   7   2.0000     -20.544154      -559.0348
   8   2.0000      -1.375907       -37.4403
   9   2.0000      -1.367665       -37.2161
  10   2.0000      -1.364330       -37.1253
  11   2.0000      -1.357532       -36.9403
  12   2.0000      -1.343968       -36.5712
  13   2.0000      -1.336913       -36.3792
  14   2.0000      -1.331427       -36.2300
  15   2.0000      -1.324098       -36.0306
  16   2.0000      -0.735592       -20.0165
  17   2.0000      -0.733213       -19.9517
  18   2.0000      -0.732465       -19.9314
  19   2.0000      -0.730955       -19.8903
  20   2.0000      -0.715186       -19.4612
  21   2.0000      -0.709463       -19.3055
  22   2.0000      -0.708727       -19.2854
  23   2.0000      -0.703665       -19.1477
  24   2.0000      -0.645915       -17.5762
  25   2.0000      -0.619622       -16.8608
  26   2.0000      -0.610274       -16.6064
  27   2.0000      -0.608415       -16.5558
  28   2.0000      -0.588261       -16.0074
  29   2.0000      -0.579703       -15.7745
  30   2.0000      -0.577210       -15.7067
  31   2.0000      -0.548908       -14.9365
  32   2.0000      -0.521827       -14.1996
  33   2.0000      -0.519998       -14.1499
  34   2.0000      -0.514797       -14.0083
  35   2.0000      -0.512801       -13.9540
  36   2.0000      -0.503525       -13.7016
  37   2.0000      -0.502450       -13.6724
  38   2.0000      -0.494519       -13.4566
  39   2.0000      -0.492421       -13.3995
  40   0.0000       0.114212         3.1079
  41   0.0000       0.144410         3.9296
  42   0.0000       0.145851         3.9688
  43   0.0000       0.147730         4.0199
  44   0.0000       0.223153         6.0723

MULLIKEN ATOMIC CHARGES
-----------------------
   0 O :   -0.761666
   1 H :    0.351870
   2 H :    0.384328
   3 O :   -0.761666
   4 H :    0.351870
   5 H :    0.384328
   6 O :   -0.746556
   7 H :    0.359939
   8 H :    0.374201
   9 O :   -0.746556
  10 H :    0.374201
  11 H :    0.359939
  12 O :   -0.731567
  13 H :    0.377406
  14 H :    0.357923
  15 O :   -0.731567
  16 H :    0.377406
  17 H :    0.357923
  18 O :   -0.724083
  19 H :    0.386914
  20 H :    0.371292
  21 O :   -0.724083
  22 H :    0.386914
  23 H :    0.371292
Sum of atomic charges:    0.0000000

LOEWDIN ATOMIC CHARGES
----------------------
   0 O :   -0.317357
   1 H :    0.159622
   2 H :    0.146358
   3 O :   -0.317357
   4 H :    0.159622
   5 H :    0.146358
   6 O :   -0.299876
   7 H :    0.171859
   8 H :    0.146710
   9 O :   -0.299876
  10 H :    0.146710
  11 H :    0.171859
  12 O :   -0.316444
  13 H :    0.148989
  14 H :    0.139008
  15 O :   -0.316444
  16 H :    0.148989
  17 H :    0.139008
  18 O :   -0.285764
  19 H :    0.156592
  20 H :    0.150303
  21 O :   -0.285764
  22 H :    0.156592
  23 H :    0.150303

  Mayer bond orders larger than 0.100000
B(  0-O ,  1-H ) :   0.8396 B(  0-O ,  2-H ) :   0.7244 B(  2-H , 21-O ) :   0.1249
B(  3-O ,  4-H ) :   0.8396 B(  3-O ,  5-H ) :   0.7244 B(  5-H , 18-O ) :   0.1249
B(  6-O ,  7-H ) :   0.8345 B(  6-O ,  8-H ) :   0.7387 B(  8-H , 15-O ) :   0.1291
B(  9-O , 10-H ) :   0.7387 B(  9-O , 11-H ) :   0.8345 B( 10-H , 12-O ) :   0.1291
B( 12-O , 13-H ) :   0.8030 B( 12-O , 14-H ) :   0.7832 B( 15-O , 16-H ) :   0.8030
B( 15-O , 17-H ) :   0.7832 B( 18-O , 19-H ) :   0.8036 B( 18-O , 20-H ) :   0.7955
B( 21-O , 22-H ) :   0.8036 B( 21-O , 23-H ) :   0.7955

MP2 TOTAL ENERGY:     -610.627644985 Eh
FINAL SINGLE POINT ENERGY      -610.627644985226

DIPOLE MOMENT
-------------
                                X             Y             Z
Electronic contribution:     -0.00000      -0.00000       0.07219
Nuclear contribution   :     -0.00000      -0.00000      -0.10702
                        -----------------------------------------
Total Dipole Moment    :     -0.00000      -0.00000      -0.03484
                        -----------------------------------------
Magnitude (a.u.)       :      0.03484
Magnitude (Debye)      :      0.08855

Rotational constants in cm-1:     0.030340     0.030226     0.028754
Rotational constants in MHz :   909.562429   906.146770   862.012864

                             ****ORCA TERMINATED NORMALLY****
TOTAL RUN TIME: 0 days 0 hours 4 minutes 3 seconds 679 msec
