                         Program Version 4.2.0 -  RELEASE  -
|  1> # 12h2o.su.etal.mol0,1,5,7,10,11
|  2> ! MP2 def2-TZVP EnGrad TightSCF
|  3>
|  4> %pal
|  5>     nprocs 6
|  6> end
|  7>
|  8> %maxcore 8000
|  9>
| 10> %scf
| 11>     ConvForced true
| 12> end
| 13>
| 14> *xyz 0 1
| 15> O   1.794470000   0.923410000   2.768350000
| 16> H   2.338250000   1.359750000   3.430940000
| 17> H   0.879480000   1.303000000   2.865760000
| 18> O  -1.794470000  -0.923410000   2.768350000
| 19> H  -2.338250000  -1.359750000   3.430940000
| 20> H  -0.879480000  -1.303000000   2.865760000
| 21> O   0.885520000  -1.737840000   0.052730000
| 22> H   1.284090000  -0.839590000   0.017130000
| 23> H   1.032320000  -2.090180000  -0.841890000
| 24> O  -1.737840000  -0.885520000  -0.052730000
| 25> H  -2.090180000  -1.032320000   0.841890000
| 26> H  -0.839590000  -1.284090000  -0.017130000
| 27> O  -0.923410000   1.794470000  -2.768350000
| 28> H  -1.359750000   2.338250000  -3.430940000
| 29> H  -1.303000000   0.879480000  -2.865760000
| 30> O  -0.741530000   1.752130000   2.896280000
| 31> H  -0.920500000   2.036450000   1.984040000
| 32> H  -1.242140000   0.921210000   2.984230000
| 33> *
| 34>
| 35>                          ****END OF INPUT****

CARTESIAN COORDINATES (ANGSTROEM)
---------------------------------
  O      1.794470    0.923410    2.768350
  H      2.338250    1.359750    3.430940
  H      0.879480    1.303000    2.865760
  O     -1.794470   -0.923410    2.768350
  H     -2.338250   -1.359750    3.430940
  H     -0.879480   -1.303000    2.865760
  O      0.885520   -1.737840    0.052730
  H      1.284090   -0.839590    0.017130
  H      1.032320   -2.090180   -0.841890
  O     -1.737840   -0.885520   -0.052730
  H     -2.090180   -1.032320    0.841890
  H     -0.839590   -1.284090   -0.017130
  O     -0.923410    1.794470   -2.768350
  H     -1.359750    2.338250   -3.430940
  H     -1.303000    0.879480   -2.865760
  O     -0.741530    1.752130    2.896280
  H     -0.920500    2.036450    1.984040
  H     -1.242140    0.921210    2.984230

 Total Charge           Charge          ....    0
 Multiplicity           Mult            ....    1
 Number of Electrons    NEL             ....   60
 Basis Dimension        Dim             ....  258

ORBITAL ENERGIES
----------------

  NO   OCC          E(Eh)            E(eV)
   0   2.0000     -20.607281      -560.7526
   1   2.0000     -20.584049      -560.1204
   2   2.0000     -20.564428      -559.5865
   3   2.0000     -20.551849      -559.2442
   4   2.0000     -20.517461      -558.3085
   5   2.0000     -20.508665      -558.0691
   6   2.0000      -1.387850       -37.7653
   7   2.0000      -1.364686       -37.1350
   8   2.0000      -1.353097       -36.8197
   9   2.0000      -1.327241       -36.1161
  10   2.0000      -1.299146       -35.3516
  11   2.0000      -1.293054       -35.1858
  12   2.0000      -0.753381       -20.5005
  13   2.0000      -0.722294       -19.6546
  14   2.0000      -0.715436       -19.4680
  15   2.0000      -0.695437       -18.9238
  16   2.0000      -0.686365       -18.6769
  17   2.0000      -0.678406       -18.4604
  18   2.0000      -0.628750       -17.1092
  19   2.0000      -0.605875       -16.4867
  20   2.0000      -0.593211       -16.1421
  21   2.0000      -0.563948       -15.3458
  22   2.0000      -0.563530       -15.3344
  23   2.0000      -0.545190       -14.8354
  24   2.0000      -0.533007       -14.5039
  25   2.0000      -0.506251       -13.7758
  26   2.0000      -0.498104       -13.5541
  27   2.0000      -0.495085       -13.4720
  28   2.0000      -0.468239       -12.7414
  29   2.0000      -0.459297       -12.4981
  30   0.0000       0.099393         2.7046
  31   0.0000       0.124435         3.3861
  32   0.0000       0.144870         3.9421
  33   0.0000       0.156665         4.2631
  34   0.0000       0.182237         4.9589

MULLIKEN ATOMIC CHARGES
-----------------------
   0 O :   -0.740691
   1 H :    0.326002
   2 H :    0.366153
   3 O :   -0.720181
   4 H :    0.361592
   5 H :    0.381953
   6 O :   -0.690998
   7 H :    0.374561
   8 H :    0.352907
   9 O :   -0.732360
  10 H :    0.354131
  11 H :    0.338885
  12 O :   -0.688024
  13 H :    0.334437
  14 H :    0.351411
  15 O :   -0.705068
  16 H :    0.362747
  17 H :    0.372544
Sum of atomic charges:   -0.0000000

LOEWDIN ATOMIC CHARGES
----------------------
   0 O :   -0.377137
   1 H :    0.149123
   2 H :    0.141238
   3 O :   -0.287502
   4 H :    0.166812
   5 H :    0.195722
   6 O :   -0.293794
   7 H :    0.186267
   8 H :    0.171417
   9 O :   -0.370426
  10 H :    0.141270
  11 H :    0.135284
  12 O :   -0.341552
  13 H :    0.155895
  14 H :    0.183396
  15 O :   -0.283301
  16 H :    0.174993
  17 H :    0.152296

  Mayer bond orders larger than 0.100000
B(  0-O ,  1-H ) :   0.8600 B(  0-O ,  2-H ) :   0.7733 B(  3-O ,  4-H ) :   0.8332
B(  3-O ,  5-H ) :   0.8111 B(  6-O ,  7-H ) :   0.8211 B(  6-O ,  8-H ) :   0.8405
B(  9-O , 10-H ) :   0.8352 B(  9-O , 11-H ) :   0.8071 B( 12-O , 13-H ) :   0.8555
B( 12-O , 14-H ) :   0.8382 B( 15-O , 16-H ) :   0.8331 B( 15-O , 17-H ) :   0.8044

MP2 TOTAL ENERGY:     -457.913879819 Eh
FINAL SINGLE POINT ENERGY      -457.913879819201

DIPOLE MOMENT
-------------
                                X             Y             Z
Electronic contribution:     -0.09633      -0.02346       0.15753
Nuclear contribution   :     -0.33647      -0.76350      -0.05351
                        -----------------------------------------
Total Dipole Moment    :     -0.43280      -0.78696       0.10402
                        -----------------------------------------
Magnitude (a.u.)       :      0.90412
Magnitude (Debye)      :      2.29809

Rotational constants in cm-1:     0.042536     0.025263     0.023734
Rotational constants in MHz :  1275.206419   757.380131   711.519880

                             ****ORCA TERMINATED NORMALLY****
TOTAL RUN TIME: 0 days 0 hours 0 minutes 57 seconds 240 msec
