                         Program Version 4.2.0 -  RELEASE  -
|  1> # 12h2o.su.etal.mol0,2,4,7,9,10
|  2> ! MP2 def2-TZVP EnGrad TightSCF
|  3>
|  4> %pal
|  5>     nprocs 6
|  6> end
|  7>
|  8> %maxcore 8000
|  9>
| 10> %scf
| 11>     ConvForced true
| 12> end
| 13>
| 14> *xyz 0 1
| 15> O   1.794470000   0.923410000   2.768350000
| 16> H   2.338250000   1.359750000   3.430940000
| 17> H   0.879480000   1.303000000   2.865760000
| 18> O   0.923410000  -1.794470000  -2.768350000
| 19> H   1.359750000  -2.338250000  -3.430940000
| 20> H   1.303000000  -0.879480000  -2.865760000
| 21> O  -0.885520000   1.737840000   0.052730000
| 22> H  -1.032320000   2.090180000  -0.841890000
| 23> H  -1.284090000   0.839590000   0.017130000
| 24> O  -1.737840000  -0.885520000  -0.052730000
| 25> H  -2.090180000  -1.032320000   0.841890000
| 26> H  -0.839590000  -1.284090000  -0.017130000
| 27> O   0.741530000  -1.752130000   2.896280000
| 28> H   0.920500000  -2.036450000   1.984040000
| 29> H   1.242140000  -0.921210000   2.984230000
| 30> O  -0.923410000   1.794470000  -2.768350000
| 31> H  -1.359750000   2.338250000  -3.430940000
| 32> H  -1.303000000   0.879480000  -2.865760000
| 33> *
| 34>
| 35>                          ****END OF INPUT****

CARTESIAN COORDINATES (ANGSTROEM)
---------------------------------
  O      1.794470    0.923410    2.768350
  H      2.338250    1.359750    3.430940
  H      0.879480    1.303000    2.865760
  O      0.923410   -1.794470   -2.768350
  H      1.359750   -2.338250   -3.430940
  H      1.303000   -0.879480   -2.865760
  O     -0.885520    1.737840    0.052730
  H     -1.032320    2.090180   -0.841890
  H     -1.284090    0.839590    0.017130
  O     -1.737840   -0.885520   -0.052730
  H     -2.090180   -1.032320    0.841890
  H     -0.839590   -1.284090   -0.017130
  O      0.741530   -1.752130    2.896280
  H      0.920500   -2.036450    1.984040
  H      1.242140   -0.921210    2.984230
  O     -0.923410    1.794470   -2.768350
  H     -1.359750    2.338250   -3.430940
  H     -1.303000    0.879480   -2.865760

 Total Charge           Charge          ....    0
 Multiplicity           Mult            ....    1
 Number of Electrons    NEL             ....   60
 Basis Dimension        Dim             ....  258

ORBITAL ENERGIES
----------------

  NO   OCC          E(Eh)            E(eV)
   0   2.0000     -20.579789      -560.0045
   1   2.0000     -20.579267      -559.9903
   2   2.0000     -20.575395      -559.8850
   3   2.0000     -20.570948      -559.7639
   4   2.0000     -20.535817      -558.8080
   5   2.0000     -20.496635      -557.7418
   6   2.0000      -1.360480       -37.0205
   7   2.0000      -1.356975       -36.9252
   8   2.0000      -1.353286       -36.8248
   9   2.0000      -1.346221       -36.6325
  10   2.0000      -1.317613       -35.8541
  11   2.0000      -1.281132       -34.8614
  12   2.0000      -0.724226       -19.7072
  13   2.0000      -0.720404       -19.6032
  14   2.0000      -0.718387       -19.5483
  15   2.0000      -0.714037       -19.4299
  16   2.0000      -0.685766       -18.6606
  17   2.0000      -0.665559       -18.1108
  18   2.0000      -0.605232       -16.4692
  19   2.0000      -0.595243       -16.1974
  20   2.0000      -0.590456       -16.0671
  21   2.0000      -0.583206       -15.8699
  22   2.0000      -0.556186       -15.1346
  23   2.0000      -0.547956       -14.9106
  24   2.0000      -0.517408       -14.0794
  25   2.0000      -0.514923       -14.0118
  26   2.0000      -0.514232       -13.9930
  27   2.0000      -0.496442       -13.5089
  28   2.0000      -0.483034       -13.1440
  29   2.0000      -0.447676       -12.1819
  30   0.0000       0.097403         2.6505
  31   0.0000       0.120357         3.2751
  32   0.0000       0.135911         3.6983
  33   0.0000       0.143126         3.8947
  34   0.0000       0.177530         4.8308

MULLIKEN ATOMIC CHARGES
-----------------------
   0 O :   -0.696306
   1 H :    0.347603
   2 H :    0.370856
   3 O :   -0.694145
   4 H :    0.342443
   5 H :    0.353856
   6 O :   -0.738541
   7 H :    0.358264
   8 H :    0.336838
   9 O :   -0.686628
  10 H :    0.359231
  11 H :    0.358260
  12 O :   -0.704704
  13 H :    0.322593
  14 H :    0.361855
  15 O :   -0.698949
  16 H :    0.345581
  17 H :    0.361892
Sum of atomic charges:   -0.0000000

LOEWDIN ATOMIC CHARGES
----------------------
   0 O :   -0.310216
   1 H :    0.161589
   2 H :    0.191975
   3 O :   -0.342242
   4 H :    0.159908
   5 H :    0.184372
   6 O :   -0.374575
   7 H :    0.143783
   8 H :    0.134315
   9 O :   -0.291929
  10 H :    0.173362
  11 H :    0.177691
  12 O :   -0.347011
  13 H :    0.155451
  14 H :    0.149146
  15 O :   -0.312751
  16 H :    0.160380
  17 H :    0.186753

  Mayer bond orders larger than 0.100000
B(  0-O ,  1-H ) :   0.8442 B(  0-O ,  2-H ) :   0.8216 B(  3-O ,  4-H ) :   0.8506
B(  3-O ,  5-H ) :   0.8361 B(  6-O ,  7-H ) :   0.8298 B(  6-O ,  8-H ) :   0.8112
B(  9-O , 10-H ) :   0.8358 B(  9-O , 11-H ) :   0.8300 B( 12-O , 13-H ) :   0.8605
B( 12-O , 14-H ) :   0.8102 B( 15-O , 16-H ) :   0.8450 B( 15-O , 17-H ) :   0.8273

MP2 TOTAL ENERGY:     -457.905239349 Eh
FINAL SINGLE POINT ENERGY      -457.905239348625

DIPOLE MOMENT
-------------
                                X             Y             Z
Electronic contribution:     -0.00517      -0.04237       0.04672
Nuclear contribution   :      0.25712       0.22578      -1.31870
                        -----------------------------------------
Total Dipole Moment    :      0.25195       0.18340      -1.27198
                        -----------------------------------------
Magnitude (a.u.)       :      1.30960
Magnitude (Debye)      :      3.32875

Rotational constants in cm-1:     0.044122     0.022674     0.019069
Rotational constants in MHz :  1322.729801   679.762069   571.678183

                             ****ORCA TERMINATED NORMALLY****
TOTAL RUN TIME: 0 days 0 hours 0 minutes 50 seconds 302 msec
