                         Program Version 4.2.0 -  RELEASE  -
|  1> # 12h2o.su.etal.mol1,2,4,5,7,8,10
|  2> ! MP2 def2-TZVP EnGrad TightSCF
|  3>
|  4> %pal
|  5>     nprocs 6
|  6> end
|  7>
|  8> %maxcore 8000
|  9>
| 10> %scf
| 11>     ConvForced true
| 12> end
| 13>
| 14> *xyz 0 1
| 15> O  -1.794470000  -0.923410000   2.768350000
| 16> H  -2.338250000  -1.359750000   3.430940000
| 17> H  -0.879480000  -1.303000000   2.865760000
| 18> O   0.923410000  -1.794470000  -2.768350000
| 19> H   1.359750000  -2.338250000  -3.430940000
| 20> H   1.303000000  -0.879480000  -2.865760000
| 21> O  -0.885520000   1.737840000   0.052730000
| 22> H  -1.032320000   2.090180000  -0.841890000
| 23> H  -1.284090000   0.839590000   0.017130000
| 24> O   0.885520000  -1.737840000   0.052730000
| 25> H   1.284090000  -0.839590000   0.017130000
| 26> H   1.032320000  -2.090180000  -0.841890000
| 27> O  -1.737840000  -0.885520000  -0.052730000
| 28> H  -2.090180000  -1.032320000   0.841890000
| 29> H  -0.839590000  -1.284090000  -0.017130000
| 30> O   1.752130000   0.741530000  -2.896280000
| 31> H   2.036450000   0.920500000  -1.984040000
| 32> H   0.921210000   1.242140000  -2.984230000
| 33> O  -0.923410000   1.794470000  -2.768350000
| 34> H  -1.359750000   2.338250000  -3.430940000
| 35> H  -1.303000000   0.879480000  -2.865760000
| 36> *
| 37>
| 38>                          ****END OF INPUT****

CARTESIAN COORDINATES (ANGSTROEM)
---------------------------------
  O     -1.794470   -0.923410    2.768350
  H     -2.338250   -1.359750    3.430940
  H     -0.879480   -1.303000    2.865760
  O      0.923410   -1.794470   -2.768350
  H      1.359750   -2.338250   -3.430940
  H      1.303000   -0.879480   -2.865760
  O     -0.885520    1.737840    0.052730
  H     -1.032320    2.090180   -0.841890
  H     -1.284090    0.839590    0.017130
  O      0.885520   -1.737840    0.052730
  H      1.284090   -0.839590    0.017130
  H      1.032320   -2.090180   -0.841890
  O     -1.737840   -0.885520   -0.052730
  H     -2.090180   -1.032320    0.841890
  H     -0.839590   -1.284090   -0.017130
  O      1.752130    0.741530   -2.896280
  H      2.036450    0.920500   -1.984040
  H      0.921210    1.242140   -2.984230
  O     -0.923410    1.794470   -2.768350
  H     -1.359750    2.338250   -3.430940
  H     -1.303000    0.879480   -2.865760

 Total Charge           Charge          ....    0
 Multiplicity           Mult            ....    1
 Number of Electrons    NEL             ....   70
 Basis Dimension        Dim             ....  301

ORBITAL ENERGIES
----------------

  NO   OCC          E(Eh)            E(eV)
   0   2.0000     -20.606397      -560.7286
   1   2.0000     -20.582794      -560.0863
   2   2.0000     -20.575205      -559.8798
   3   2.0000     -20.561663      -559.5113
   4   2.0000     -20.550912      -559.2187
   5   2.0000     -20.517719      -558.3155
   6   2.0000     -20.492675      -557.6340
   7   2.0000      -1.387900       -37.7667
   8   2.0000      -1.371206       -37.3124
   9   2.0000      -1.353454       -36.8293
  10   2.0000      -1.348223       -36.6870
  11   2.0000      -1.331524       -36.2326
  12   2.0000      -1.306792       -35.5596
  13   2.0000      -1.275886       -34.7186
  14   2.0000      -0.753567       -20.5056
  15   2.0000      -0.731698       -19.9105
  16   2.0000      -0.719974       -19.5915
  17   2.0000      -0.718410       -19.5489
  18   2.0000      -0.707535       -19.2530
  19   2.0000      -0.681376       -18.5412
  20   2.0000      -0.662777       -18.0351
  21   2.0000      -0.631021       -17.1709
  22   2.0000      -0.610233       -16.6053
  23   2.0000      -0.602493       -16.3947
  24   2.0000      -0.589214       -16.0333
  25   2.0000      -0.570448       -15.5227
  26   2.0000      -0.562671       -15.3111
  27   2.0000      -0.548297       -14.9199
  28   2.0000      -0.520721       -14.1695
  29   2.0000      -0.518127       -14.0990
  30   2.0000      -0.511169       -13.9096
  31   2.0000      -0.500486       -13.6189
  32   2.0000      -0.495610       -13.4862
  33   2.0000      -0.461726       -12.5642
  34   2.0000      -0.443574       -12.0703
  35   0.0000       0.098107         2.6696
  36   0.0000       0.122340         3.3290
  37   0.0000       0.131693         3.5835
  38   0.0000       0.156035         4.2459
  39   0.0000       0.190307         5.1785

MULLIKEN ATOMIC CHARGES
-----------------------
   0 O :   -0.691266
   1 H :    0.345843
   2 H :    0.359576
   3 O :   -0.740266
   4 H :    0.339346
   5 H :    0.368281
   6 O :   -0.741528
   7 H :    0.345806
   8 H :    0.349960
   9 O :   -0.706224
  10 H :    0.336109
  11 H :    0.383182
  12 O :   -0.737168
  13 H :    0.370583
  14 H :    0.360506
  15 O :   -0.700147
  16 H :    0.352363
  17 H :    0.381001
  18 O :   -0.721558
  19 H :    0.361572
  20 H :    0.384028
Sum of atomic charges:    0.0000000

LOEWDIN ATOMIC CHARGES
----------------------
   0 O :   -0.308612
   1 H :    0.160569
   2 H :    0.187245
   3 O :   -0.341594
   4 H :    0.154922
   5 H :    0.142434
   6 O :   -0.374282
   7 H :    0.137012
   8 H :    0.136399
   9 O :   -0.301780
  10 H :    0.166800
  11 H :    0.154525
  12 O :   -0.322964
  13 H :    0.147967
  14 H :    0.139971
  15 O :   -0.278957
  16 H :    0.169084
  17 H :    0.155738
  18 O :   -0.287872
  19 H :    0.166854
  20 H :    0.196538

  Mayer bond orders larger than 0.100000
B(  0-O ,  1-H ) :   0.8453 B(  0-O ,  2-H ) :   0.8309 B(  3-O ,  4-H ) :   0.8493
B(  3-O ,  5-H ) :   0.7568 B(  5-H , 15-O ) :   0.1027 B(  6-O ,  7-H ) :   0.8418
B(  6-O ,  8-H ) :   0.7873 B(  8-H , 12-O ) :   0.1032 B(  9-O , 10-H ) :   0.8438
B(  9-O , 11-H ) :   0.7913 B( 12-O , 13-H ) :   0.8131 B( 12-O , 14-H ) :   0.7844
B( 15-O , 16-H ) :   0.8391 B( 15-O , 17-H ) :   0.7939 B( 18-O , 19-H ) :   0.8329
B( 18-O , 20-H ) :   0.8095

MP2 TOTAL ENERGY:     -534.252864066 Eh
FINAL SINGLE POINT ENERGY      -534.252864066343

DIPOLE MOMENT
-------------
                                X             Y             Z
Electronic contribution:     -0.04637       0.12714      -0.05150
Nuclear contribution   :      0.30841      -0.56744      -0.72077
                        -----------------------------------------
Total Dipole Moment    :      0.26204      -0.44030      -0.77226
                        -----------------------------------------
Magnitude (a.u.)       :      0.92678
Magnitude (Debye)      :      2.35568

Rotational constants in cm-1:     0.046780     0.024307     0.018575
Rotational constants in MHz :  1402.442566   728.704912   556.869334

                             ****ORCA TERMINATED NORMALLY****
TOTAL RUN TIME: 0 days 0 hours 2 minutes 1 seconds 809 msec
