                         Program Version 4.2.0 -  RELEASE  -
|  1> # 12h2o.su.etal.mol1,2,3,5,6,7,8,10,11
|  2> ! MP2 def2-TZVP EnGrad TightSCF
|  3>
|  4> %pal
|  5>     nprocs 6
|  6> end
|  7>
|  8> %maxcore 8000
|  9>
| 10> %scf
| 11>     ConvForced true
| 12> end
| 13>
| 14> *xyz 0 1
| 15> O  -1.794470000  -0.923410000   2.768350000
| 16> H  -2.338250000  -1.359750000   3.430940000
| 17> H  -0.879480000  -1.303000000   2.865760000
| 18> O   0.923410000  -1.794470000  -2.768350000
| 19> H   1.359750000  -2.338250000  -3.430940000
| 20> H   1.303000000  -0.879480000  -2.865760000
| 21> O  -1.752130000  -0.741530000  -2.896280000
| 22> H  -2.036450000  -0.920500000  -1.984040000
| 23> H  -0.921210000  -1.242140000  -2.984230000
| 24> O   0.885520000  -1.737840000   0.052730000
| 25> H   1.284090000  -0.839590000   0.017130000
| 26> H   1.032320000  -2.090180000  -0.841890000
| 27> O   1.737840000   0.885520000  -0.052730000
| 28> H   2.090180000   1.032320000   0.841890000
| 29> H   0.839590000   1.284090000  -0.017130000
| 30> O  -1.737840000  -0.885520000  -0.052730000
| 31> H  -2.090180000  -1.032320000   0.841890000
| 32> H  -0.839590000  -1.284090000  -0.017130000
| 33> O   1.752130000   0.741530000  -2.896280000
| 34> H   2.036450000   0.920500000  -1.984040000
| 35> H   0.921210000   1.242140000  -2.984230000
| 36> O  -0.923410000   1.794470000  -2.768350000
| 37> H  -1.359750000   2.338250000  -3.430940000
| 38> H  -1.303000000   0.879480000  -2.865760000
| 39> O  -0.741530000   1.752130000   2.896280000
| 40> H  -0.920500000   2.036450000   1.984040000
| 41> H  -1.242140000   0.921210000   2.984230000
| 42> *
| 43>
| 44>                          ****END OF INPUT****

CARTESIAN COORDINATES (ANGSTROEM)
---------------------------------
  O     -1.794470   -0.923410    2.768350
  H     -2.338250   -1.359750    3.430940
  H     -0.879480   -1.303000    2.865760
  O      0.923410   -1.794470   -2.768350
  H      1.359750   -2.338250   -3.430940
  H      1.303000   -0.879480   -2.865760
  O     -1.752130   -0.741530   -2.896280
  H     -2.036450   -0.920500   -1.984040
  H     -0.921210   -1.242140   -2.984230
  O      0.885520   -1.737840    0.052730
  H      1.284090   -0.839590    0.017130
  H      1.032320   -2.090180   -0.841890
  O      1.737840    0.885520   -0.052730
  H      2.090180    1.032320    0.841890
  H      0.839590    1.284090   -0.017130
  O     -1.737840   -0.885520   -0.052730
  H     -2.090180   -1.032320    0.841890
  H     -0.839590   -1.284090   -0.017130
  O      1.752130    0.741530   -2.896280
  H      2.036450    0.920500   -1.984040
  H      0.921210    1.242140   -2.984230
  O     -0.923410    1.794470   -2.768350
  H     -1.359750    2.338250   -3.430940
  H     -1.303000    0.879480   -2.865760
  O     -0.741530    1.752130    2.896280
  H     -0.920500    2.036450    1.984040
  H     -1.242140    0.921210    2.984230

 Total Charge           Charge          ....    0
 Multiplicity           Mult            ....    1
 Number of Electrons    NEL             ....   90
 Basis Dimension        Dim             ....  387

ORBITAL ENERGIES
----------------

  NO   OCC          E(Eh)            E(eV)
   0   2.0000     -20.615257      -560.9697
   1   2.0000     -20.613082      -560.9105
   2   2.0000     -20.561783      -559.5146
   3   2.0000     -20.553671      -559.2938
   4   2.0000     -20.550239      -559.2004
   5   2.0000     -20.544543      -559.0454
   6   2.0000     -20.538053      -558.8688
   7   2.0000     -20.534900      -558.7830
   8   2.0000     -20.528542      -558.6100
   9   2.0000      -1.398650       -38.0592
  10   2.0000      -1.393308       -37.9138
  11   2.0000      -1.358757       -36.9737
  12   2.0000      -1.340377       -36.4735
  13   2.0000      -1.334279       -36.3076
  14   2.0000      -1.332348       -36.2550
  15   2.0000      -1.331909       -36.2431
  16   2.0000      -1.315848       -35.8060
  17   2.0000      -1.308886       -35.6166
  18   2.0000      -0.758962       -20.6524
  19   2.0000      -0.756605       -20.5883
  20   2.0000      -0.726984       -19.7822
  21   2.0000      -0.715695       -19.4751
  22   2.0000      -0.709372       -19.3030
  23   2.0000      -0.702361       -19.1122
  24   2.0000      -0.699773       -19.0418
  25   2.0000      -0.699072       -19.0227
  26   2.0000      -0.687232       -18.7005
  27   2.0000      -0.645993       -17.5784
  28   2.0000      -0.631848       -17.1934
  29   2.0000      -0.613789       -16.7020
  30   2.0000      -0.598964       -16.2986
  31   2.0000      -0.589806       -16.0494
  32   2.0000      -0.578271       -15.7356
  33   2.0000      -0.571300       -15.5459
  34   2.0000      -0.562687       -15.3115
  35   2.0000      -0.546705       -14.8766
  36   2.0000      -0.543384       -14.7862
  37   2.0000      -0.530119       -14.4253
  38   2.0000      -0.507799       -13.8179
  39   2.0000      -0.500583       -13.6216
  40   2.0000      -0.497491       -13.5374
  41   2.0000      -0.491051       -13.3622
  42   2.0000      -0.488336       -13.2883
  43   2.0000      -0.482540       -13.1306
  44   2.0000      -0.477934       -13.0052
  45   0.0000       0.088176         2.3994
  46   0.0000       0.115011         3.1296
  47   0.0000       0.140305         3.8179
  48   0.0000       0.153881         4.1873
  49   0.0000       0.166009         4.5173

MULLIKEN ATOMIC CHARGES
-----------------------
   0 O :   -0.716386
   1 H :    0.364004
   2 H :    0.376837
   3 O :   -0.758123
   4 H :    0.349396
   5 H :    0.382647
   6 O :   -0.728072
   7 H :    0.388299
   8 H :    0.363910
   9 O :   -0.732650
  10 H :    0.354671
  11 H :    0.379209
  12 O :   -0.721329
  13 H :    0.374330
  14 H :    0.375433
  15 O :   -0.753229
  16 H :    0.362289
  17 H :    0.349303
  18 O :   -0.722847
  19 H :    0.380255
  20 H :    0.372159
  21 O :   -0.752170
  22 H :    0.339009
  23 H :    0.386107
  24 O :   -0.704955
  25 H :    0.330319
  26 H :    0.361582
Sum of atomic charges:    0.0000000

LOEWDIN ATOMIC CHARGES
----------------------
   0 O :   -0.287276
   1 H :    0.167900
   2 H :    0.193992
   3 O :   -0.316454
   4 H :    0.158457
   5 H :    0.146166
   6 O :   -0.290941
   7 H :    0.157489
   8 H :    0.147315
   9 O :   -0.320493
  10 H :    0.138213
  11 H :    0.150224
  12 O :   -0.276466
  13 H :    0.179639
  14 H :    0.184118
  15 O :   -0.351093
  16 H :    0.145437
  17 H :    0.137904
  18 O :   -0.286197
  19 H :    0.154133
  20 H :    0.151396
  21 O :   -0.345970
  22 H :    0.154631
  23 H :    0.146160
  24 O :   -0.344730
  25 H :    0.158359
  26 H :    0.148085

  Mayer bond orders larger than 0.100000
B(  0-O ,  1-H ) :   0.8321 B(  0-O ,  2-H ) :   0.8159 B(  3-O ,  4-H ) :   0.8411
B(  3-O ,  5-H ) :   0.7267 B(  5-H , 18-O ) :   0.1235 B(  6-O ,  7-H ) :   0.7950
B(  6-O ,  8-H ) :   0.8044 B(  6-O , 23-H ) :   0.1208 B(  9-O , 10-H ) :   0.7973
B(  9-O , 11-H ) :   0.8011 B(  9-O , 17-H ) :   0.1078 B( 12-O , 13-H ) :   0.8242
B( 12-O , 14-H ) :   0.8120 B( 15-O , 16-H ) :   0.8241 B( 15-O , 17-H ) :   0.7703
B( 18-O , 19-H ) :   0.8143 B( 18-O , 20-H ) :   0.7842 B( 21-O , 22-H ) :   0.8495
B( 21-O , 23-H ) :   0.7355 B( 24-O , 25-H ) :   0.8553 B( 24-O , 26-H ) :   0.8182

MP2 TOTAL ENERGY:     -686.924488454 Eh
FINAL SINGLE POINT ENERGY      -686.924488454426

DIPOLE MOMENT
-------------
                                X             Y             Z
Electronic contribution:      0.13453       0.07393       0.18196
Nuclear contribution   :      0.19727      -0.67972       0.82779
                        -----------------------------------------
Total Dipole Moment    :      0.33180      -0.60579       1.00976
                        -----------------------------------------
Magnitude (a.u.)       :      1.22339
Magnitude (Debye)      :      3.10960

Rotational constants in cm-1:     0.029224     0.015123     0.014478
Rotational constants in MHz :   876.118706   453.379101   434.040446

                             ****ORCA TERMINATED NORMALLY****
TOTAL RUN TIME: 0 days 0 hours 4 minutes 48 seconds 127 msec
