                         Program Version 4.2.0 -  RELEASE  -
|  1> # 12mecn.remya.etal.2.mol3
|  2> ! MP2 def2-TZVP EnGrad TightSCF
|  3>
|  4> %pal
|  5>     nprocs 6
|  6> end
|  7>
|  8> %maxcore 8000
|  9>
| 10> %scf
| 11>     ConvForced true
| 12> end
| 13>
| 14> *xyz 0 1
| 15> C  -5.181310000   2.853865000  -1.626100000
| 16> H  -5.488260000   3.811434000  -2.053310000
| 17> H  -5.857590000   2.068112000  -1.968630000
| 18> H  -4.170750000   2.611402000  -1.966640000
| 19> C  -5.187260000   2.919160000  -0.181450000
| 20> N  -5.181700000   2.970641000   0.983640000
| 21> *
| 22>
| 23>                          ****END OF INPUT****

CARTESIAN COORDINATES (ANGSTROEM)
---------------------------------
  C     -5.181310    2.853865   -1.626100
  H     -5.488260    3.811434   -2.053310
  H     -5.857590    2.068112   -1.968630
  H     -4.170750    2.611402   -1.966640
  C     -5.187260    2.919160   -0.181450
  N     -5.181700    2.970641    0.983640

 Total Charge           Charge          ....    0
 Multiplicity           Mult            ....    1
 Number of Electrons    NEL             ....   22
 Basis Dimension        Dim             ....  111

ORBITAL ENERGIES
----------------

  NO   OCC          E(Eh)            E(eV)
   0   2.0000     -15.573512      -423.7768
   1   2.0000     -11.285300      -307.0886
   2   2.0000     -11.280464      -306.9570
   3   2.0000      -1.215110       -33.0648
   4   2.0000      -1.044134       -28.4123
   5   2.0000      -0.701545       -19.0900
   6   2.0000      -0.632903       -17.2222
   7   2.0000      -0.630633       -17.1604
   8   2.0000      -0.556334       -15.1386
   9   2.0000      -0.458456       -12.4752
  10   2.0000      -0.457936       -12.4611
  11   0.0000       0.118722         3.2306
  12   0.0000       0.170875         4.6497
  13   0.0000       0.171150         4.6572
  14   0.0000       0.201908         5.4942
  15   0.0000       0.224088         6.0977

MULLIKEN ATOMIC CHARGES
-----------------------
   0 C :   -0.280843
   1 H :    0.172465
   2 H :    0.172197
   3 H :    0.172128
   4 C :   -0.145594
   5 N :   -0.090353
Sum of atomic charges:    0.0000000

LOEWDIN ATOMIC CHARGES
----------------------
   0 C :   -0.283986
   1 H :    0.151478
   2 H :    0.151563
   3 H :    0.153069
   4 C :   -0.218893
   5 N :    0.046769

  Mayer bond orders larger than 0.100000
B(  0-C ,  1-H ) :   0.9162 B(  0-C ,  2-H ) :   0.9168 B(  0-C ,  3-H ) :   0.9167
B(  0-C ,  4-C ) :   0.9026 B(  4-C ,  5-N ) :   2.8369

MP2 TOTAL ENERGY:     -132.483158397 Eh
FINAL SINGLE POINT ENERGY      -132.483158397297

DIPOLE MOMENT
-------------
                                X             Y             Z
Electronic contribution:     -0.02631       0.15519       3.12234
Nuclear contribution   :      0.02903      -0.22698      -4.65335
                        -----------------------------------------
Total Dipole Moment    :      0.00272      -0.07178      -1.53102
                        -----------------------------------------
Magnitude (a.u.)       :      1.53270
Magnitude (Debye)      :      3.89582

Rotational constants in cm-1:     5.277261     0.308200     0.308040
Rotational constants in MHz : 158208.291708  9239.611447  9234.791947

                             ****ORCA TERMINATED NORMALLY****
TOTAL RUN TIME: 0 days 0 hours 0 minutes 17 seconds 842 msec
