                         Program Version 4.2.0 -  RELEASE  -
|  1> # 12h2o.su.etal.mol0,2,3,7,10,11
|  2> ! MP2 def2-TZVP EnGrad TightSCF
|  3>
|  4> %pal
|  5>     nprocs 6
|  6> end
|  7>
|  8> %maxcore 8000
|  9>
| 10> %scf
| 11>     ConvForced true
| 12> end
| 13>
| 14> *xyz 0 1
| 15> O   1.794470000   0.923410000   2.768350000
| 16> H   2.338250000   1.359750000   3.430940000
| 17> H   0.879480000   1.303000000   2.865760000
| 18> O   0.923410000  -1.794470000  -2.768350000
| 19> H   1.359750000  -2.338250000  -3.430940000
| 20> H   1.303000000  -0.879480000  -2.865760000
| 21> O  -1.752130000  -0.741530000  -2.896280000
| 22> H  -2.036450000  -0.920500000  -1.984040000
| 23> H  -0.921210000  -1.242140000  -2.984230000
| 24> O  -1.737840000  -0.885520000  -0.052730000
| 25> H  -2.090180000  -1.032320000   0.841890000
| 26> H  -0.839590000  -1.284090000  -0.017130000
| 27> O  -0.923410000   1.794470000  -2.768350000
| 28> H  -1.359750000   2.338250000  -3.430940000
| 29> H  -1.303000000   0.879480000  -2.865760000
| 30> O  -0.741530000   1.752130000   2.896280000
| 31> H  -0.920500000   2.036450000   1.984040000
| 32> H  -1.242140000   0.921210000   2.984230000
| 33> *
| 34>
| 35>                          ****END OF INPUT****

CARTESIAN COORDINATES (ANGSTROEM)
---------------------------------
  O      1.794470    0.923410    2.768350
  H      2.338250    1.359750    3.430940
  H      0.879480    1.303000    2.865760
  O      0.923410   -1.794470   -2.768350
  H      1.359750   -2.338250   -3.430940
  H      1.303000   -0.879480   -2.865760
  O     -1.752130   -0.741530   -2.896280
  H     -2.036450   -0.920500   -1.984040
  H     -0.921210   -1.242140   -2.984230
  O     -1.737840   -0.885520   -0.052730
  H     -2.090180   -1.032320    0.841890
  H     -0.839590   -1.284090   -0.017130
  O     -0.923410    1.794470   -2.768350
  H     -1.359750    2.338250   -3.430940
  H     -1.303000    0.879480   -2.865760
  O     -0.741530    1.752130    2.896280
  H     -0.920500    2.036450    1.984040
  H     -1.242140    0.921210    2.984230

 Total Charge           Charge          ....    0
 Multiplicity           Mult            ....    1
 Number of Electrons    NEL             ....   60
 Basis Dimension        Dim             ....  258

ORBITAL ENERGIES
----------------

  NO   OCC          E(Eh)            E(eV)
   0   2.0000     -20.597420      -560.4843
   1   2.0000     -20.593112      -560.3671
   2   2.0000     -20.592910      -560.3616
   3   2.0000     -20.542304      -558.9845
   4   2.0000     -20.518054      -558.3246
   5   2.0000     -20.505907      -557.9941
   6   2.0000      -1.382663       -37.6242
   7   2.0000      -1.372197       -37.3394
   8   2.0000      -1.370255       -37.2865
   9   2.0000      -1.333751       -36.2932
  10   2.0000      -1.300471       -35.3876
  11   2.0000      -1.287411       -35.0322
  12   2.0000      -0.740171       -20.1411
  13   2.0000      -0.737969       -20.0812
  14   2.0000      -0.734214       -19.9790
  15   2.0000      -0.700644       -19.0655
  16   2.0000      -0.691495       -18.8165
  17   2.0000      -0.673881       -18.3372
  18   2.0000      -0.622842       -16.9484
  19   2.0000      -0.617556       -16.8046
  20   2.0000      -0.604865       -16.4592
  21   2.0000      -0.572166       -15.5694
  22   2.0000      -0.558239       -15.1905
  23   2.0000      -0.539031       -14.6678
  24   2.0000      -0.536527       -14.5997
  25   2.0000      -0.524337       -14.2679
  26   2.0000      -0.514701       -14.0057
  27   2.0000      -0.480531       -13.0759
  28   2.0000      -0.468435       -12.7468
  29   2.0000      -0.456845       -12.4314
  30   0.0000       0.082561         2.2466
  31   0.0000       0.112573         3.0633
  32   0.0000       0.152501         4.1498
  33   0.0000       0.166632         4.5343
  34   0.0000       0.174653         4.7526

MULLIKEN ATOMIC CHARGES
-----------------------
   0 O :   -0.733097
   1 H :    0.325946
   2 H :    0.364178
   3 O :   -0.707138
   4 H :    0.356261
   5 H :    0.373343
   6 O :   -0.715737
   7 H :    0.379601
   8 H :    0.359483
   9 O :   -0.694378
  10 H :    0.339697
  11 H :    0.364152
  12 O :   -0.742186
  13 H :    0.320422
  14 H :    0.368450
  15 O :   -0.676462
  16 H :    0.370816
  17 H :    0.346649
Sum of atomic charges:    0.0000000

LOEWDIN ATOMIC CHARGES
----------------------
   0 O :   -0.372982
   1 H :    0.148867
   2 H :    0.141411
   3 O :   -0.313357
   4 H :    0.165501
   5 H :    0.193330
   6 O :   -0.288034
   7 H :    0.155962
   8 H :    0.147421
   9 O :   -0.315871
  10 H :    0.165512
  11 H :    0.182669
  12 O :   -0.378618
  13 H :    0.145882
  14 H :    0.141345
  15 O :   -0.269015
  16 H :    0.179622
  17 H :    0.170354

  Mayer bond orders larger than 0.100000
B(  0-O ,  1-H ) :   0.8604 B(  0-O ,  2-H ) :   0.7893 B(  3-O ,  4-H ) :   0.8397
B(  3-O ,  5-H ) :   0.8205 B(  6-O ,  7-H ) :   0.8113 B(  6-O ,  8-H ) :   0.8103
B(  6-O , 14-H ) :   0.1028 B(  9-O , 10-H ) :   0.8476 B(  9-O , 11-H ) :   0.8295
B( 12-O , 13-H ) :   0.8629 B( 12-O , 14-H ) :   0.7701 B( 15-O , 16-H ) :   0.8285
B( 15-O , 17-H ) :   0.8430

MP2 TOTAL ENERGY:     -457.912773717 Eh
FINAL SINGLE POINT ENERGY      -457.912773717043

DIPOLE MOMENT
-------------
                                X             Y             Z
Electronic contribution:     -0.19295      -0.18198       0.08446
Nuclear contribution   :      0.03473      -0.79542       0.14168
                        -----------------------------------------
Total Dipole Moment    :     -0.15822      -0.97740       0.22614
                        -----------------------------------------
Magnitude (a.u.)       :      1.01562
Magnitude (Debye)      :      2.58150

Rotational constants in cm-1:     0.052724     0.018553     0.017231
Rotational constants in MHz :  1580.637454   556.216592   516.566660

                             ****ORCA TERMINATED NORMALLY****
TOTAL RUN TIME: 0 days 0 hours 0 minutes 52 seconds 174 msec
