                         Program Version 4.2.0 -  RELEASE  -
|  1> # 12h2o.su.etal.mol1,6,9,10,11
|  2> ! MP2 def2-TZVP EnGrad TightSCF
|  3>
|  4> %pal
|  5>     nprocs 6
|  6> end
|  7>
|  8> %maxcore 8000
|  9>
| 10> %scf
| 11>     ConvForced true
| 12> end
| 13>
| 14> *xyz 0 1
| 15> O  -1.794470000  -0.923410000   2.768350000
| 16> H  -2.338250000  -1.359750000   3.430940000
| 17> H  -0.879480000  -1.303000000   2.865760000
| 18> O   1.737840000   0.885520000  -0.052730000
| 19> H   2.090180000   1.032320000   0.841890000
| 20> H   0.839590000   1.284090000  -0.017130000
| 21> O   0.741530000  -1.752130000   2.896280000
| 22> H   0.920500000  -2.036450000   1.984040000
| 23> H   1.242140000  -0.921210000   2.984230000
| 24> O  -0.923410000   1.794470000  -2.768350000
| 25> H  -1.359750000   2.338250000  -3.430940000
| 26> H  -1.303000000   0.879480000  -2.865760000
| 27> O  -0.741530000   1.752130000   2.896280000
| 28> H  -0.920500000   2.036450000   1.984040000
| 29> H  -1.242140000   0.921210000   2.984230000
| 30> *
| 31>
| 32>                          ****END OF INPUT****

CARTESIAN COORDINATES (ANGSTROEM)
---------------------------------
  O     -1.794470   -0.923410    2.768350
  H     -2.338250   -1.359750    3.430940
  H     -0.879480   -1.303000    2.865760
  O      1.737840    0.885520   -0.052730
  H      2.090180    1.032320    0.841890
  H      0.839590    1.284090   -0.017130
  O      0.741530   -1.752130    2.896280
  H      0.920500   -2.036450    1.984040
  H      1.242140   -0.921210    2.984230
  O     -0.923410    1.794470   -2.768350
  H     -1.359750    2.338250   -3.430940
  H     -1.303000    0.879480   -2.865760
  O     -0.741530    1.752130    2.896280
  H     -0.920500    2.036450    1.984040
  H     -1.242140    0.921210    2.984230

 Total Charge           Charge          ....    0
 Multiplicity           Mult            ....    1
 Number of Electrons    NEL             ....   50
 Basis Dimension        Dim             ....  215

ORBITAL ENERGIES
----------------

  NO   OCC          E(Eh)            E(eV)
   0   2.0000     -20.602471      -560.6217
   1   2.0000     -20.567458      -559.6690
   2   2.0000     -20.563077      -559.5498
   3   2.0000     -20.549147      -559.1707
   4   2.0000     -20.538545      -558.8822
   5   2.0000      -1.388224       -37.7755
   6   2.0000      -1.342710       -36.5370
   7   2.0000      -1.338762       -36.4296
   8   2.0000      -1.334619       -36.3168
   9   2.0000      -1.319063       -35.8935
  10   2.0000      -0.744903       -20.2698
  11   2.0000      -0.718760       -19.5584
  12   2.0000      -0.711200       -19.3527
  13   2.0000      -0.700692       -19.0668
  14   2.0000      -0.688376       -18.7317
  15   2.0000      -0.627817       -17.0838
  16   2.0000      -0.585647       -15.9363
  17   2.0000      -0.579148       -15.7594
  18   2.0000      -0.578124       -15.7315
  19   2.0000      -0.558403       -15.1949
  20   2.0000      -0.530793       -14.4436
  21   2.0000      -0.510617       -13.8946
  22   2.0000      -0.505792       -13.7633
  23   2.0000      -0.498212       -13.5570
  24   2.0000      -0.485556       -13.2126
  25   0.0000       0.090997         2.4762
  26   0.0000       0.119447         3.2503
  27   0.0000       0.148447         4.0395
  28   0.0000       0.152560         4.1514
  29   0.0000       0.176256         4.7962

MULLIKEN ATOMIC CHARGES
-----------------------
   0 O :   -0.737756
   1 H :    0.340826
   2 H :    0.378194
   3 O :   -0.676266
   4 H :    0.329563
   5 H :    0.344435
   6 O :   -0.684313
   7 H :    0.365469
   8 H :    0.362075
   9 O :   -0.684334
  10 H :    0.341265
  11 H :    0.345211
  12 O :   -0.712645
  13 H :    0.324130
  14 H :    0.364146
Sum of atomic charges:   -0.0000000

LOEWDIN ATOMIC CHARGES
----------------------
   0 O :   -0.339430
   1 H :    0.155569
   2 H :    0.144957
   3 O :   -0.334365
   4 H :    0.159709
   5 H :    0.172424
   6 O :   -0.268742
   7 H :    0.177376
   8 H :    0.175673
   9 O :   -0.339180
  10 H :    0.159227
  11 H :    0.181958
  12 O :   -0.349240
  13 H :    0.155852
  14 H :    0.148212

  Mayer bond orders larger than 0.100000
B(  0-O ,  1-H ) :   0.8486 B(  0-O ,  2-H ) :   0.7656 B(  3-O ,  4-H ) :   0.8553
B(  3-O ,  5-H ) :   0.8426 B(  6-O ,  7-H ) :   0.8317 B(  6-O ,  8-H ) :   0.8305
B(  9-O , 10-H ) :   0.8515 B(  9-O , 11-H ) :   0.8438 B( 12-O , 13-H ) :   0.8590
B( 12-O , 14-H ) :   0.8020

MP2 TOTAL ENERGY:     -381.588275919 Eh
FINAL SINGLE POINT ENERGY      -381.588275918640

DIPOLE MOMENT
-------------
                                X             Y             Z
Electronic contribution:      0.33559      -0.18677       0.05994
Nuclear contribution   :     -0.82456      -0.53418      -0.59793
                        -----------------------------------------
Total Dipole Moment    :     -0.48897      -0.72096      -0.53800
                        -----------------------------------------
Magnitude (a.u.)       :      1.02387
Magnitude (Debye)      :      2.60248

Rotational constants in cm-1:     0.067452     0.026187     0.023969
Rotational constants in MHz :  2022.165210   785.073298   718.571944

                             ****ORCA TERMINATED NORMALLY****
TOTAL RUN TIME: 0 days 0 hours 0 minutes 26 seconds 594 msec
