                         Program Version 4.2.0 -  RELEASE  -
|  1> # 12mecn.remya.etal.2.mol4,6,11
|  2> ! MP2 def2-TZVP EnGrad TightSCF
|  3>
|  4> %pal
|  5>     nprocs 6
|  6> end
|  7>
|  8> %maxcore 8000
|  9>
| 10> %scf
| 11>     ConvForced true
| 12> end
| 13>
| 14> *xyz 0 1
| 15> C  -1.509690000  -0.693960000  -1.610140000
| 16> H  -1.327010000  -1.692700000  -2.017370000
| 17> H  -0.742170000  -0.000650000  -1.964400000
| 18> H  -2.491920000  -0.334310000  -1.929350000
| 19> C  -1.473570000  -0.748120000  -0.167200000
| 20> N  -1.447490000  -0.793720000   0.998938000
| 21> C   5.300864000  -2.920090000   1.401103000
| 22> H   5.986071000  -2.139770000   1.737487000
| 23> H   5.636642000  -3.888750000   1.778233000
| 24> H   4.307359000  -2.697240000   1.799307000
| 25> C   5.234791000  -2.933140000  -0.043290000
| 26> N   5.170868000  -2.941760000  -1.207750000
| 27> C   4.214163000   3.378139000   1.593627000
| 28> H   3.242643000   3.657109000   2.012358000
| 29> H   4.969258000   4.086643000   1.941290000
| 30> H   4.482966000   2.372549000   1.931698000
| 31> C   4.130759000   3.388436000   0.150192000
| 32> N   4.050180000   3.381449000  -1.013420000
| 33> *
| 34>
| 35>                          ****END OF INPUT****

CARTESIAN COORDINATES (ANGSTROEM)
---------------------------------
  C     -1.509690   -0.693960   -1.610140
  H     -1.327010   -1.692700   -2.017370
  H     -0.742170   -0.000650   -1.964400
  H     -2.491920   -0.334310   -1.929350
  C     -1.473570   -0.748120   -0.167200
  N     -1.447490   -0.793720    0.998938
  C      5.300864   -2.920090    1.401103
  H      5.986071   -2.139770    1.737487
  H      5.636642   -3.888750    1.778233
  H      4.307359   -2.697240    1.799307
  C      5.234791   -2.933140   -0.043290
  N      5.170868   -2.941760   -1.207750
  C      4.214163    3.378139    1.593627
  H      3.242643    3.657109    2.012358
  H      4.969258    4.086643    1.941290
  H      4.482966    2.372549    1.931698
  C      4.130759    3.388436    0.150192
  N      4.050180    3.381449   -1.013420

 Total Charge           Charge          ....    0
 Multiplicity           Mult            ....    1
 Number of Electrons    NEL             ....   66
 Basis Dimension        Dim             ....  333

ORBITAL ENERGIES
----------------

  NO   OCC          E(Eh)            E(eV)
   0   2.0000     -15.573789      -423.7843
   1   2.0000     -15.573199      -423.7683
   2   2.0000     -15.572283      -423.7434
   3   2.0000     -11.286267      -307.1149
   4   2.0000     -11.285341      -307.0897
   5   2.0000     -11.281897      -306.9960
   6   2.0000     -11.280662      -306.9624
   7   2.0000     -11.280043      -306.9456
   8   2.0000     -11.279997      -306.9443
   9   2.0000      -1.215248       -33.0686
  10   2.0000      -1.214722       -33.0543
  11   2.0000      -1.213822       -33.0298
  12   2.0000      -1.044587       -28.4247
  13   2.0000      -1.044278       -28.4163
  14   2.0000      -1.041754       -28.3476
  15   2.0000      -0.701615       -19.0919
  16   2.0000      -0.701470       -19.0880
  17   2.0000      -0.696760       -18.9598
  18   2.0000      -0.633392       -17.2355
  19   2.0000      -0.632979       -17.2242
  20   2.0000      -0.631905       -17.1950
  21   2.0000      -0.630555       -17.1583
  22   2.0000      -0.630402       -17.1541
  23   2.0000      -0.628589       -17.1048
  24   2.0000      -0.556472       -15.1424
  25   2.0000      -0.555929       -15.1276
  26   2.0000      -0.555736       -15.1224
  27   2.0000      -0.458416       -12.4741
  28   2.0000      -0.458271       -12.4702
  29   2.0000      -0.458066       -12.4646
  30   2.0000      -0.457552       -12.4506
  31   2.0000      -0.456975       -12.4349
  32   2.0000      -0.456691       -12.4272
  33   0.0000       0.105073         2.8592
  34   0.0000       0.123032         3.3479
  35   0.0000       0.126684         3.4472
  36   0.0000       0.166291         4.5250
  37   0.0000       0.170829         4.6485

MULLIKEN ATOMIC CHARGES
-----------------------
   0 C :   -0.276979
   1 H :    0.173447
   2 H :    0.178591
   3 H :    0.170738
   4 C :   -0.145844
   5 N :   -0.099956
   6 C :   -0.283589
   7 H :    0.168790
   8 H :    0.173026
   9 H :    0.175748
  10 C :   -0.144486
  11 N :   -0.089499
  12 C :   -0.278431
  13 H :    0.174907
  14 H :    0.172242
  15 H :    0.167123
  16 C :   -0.145584
  17 N :   -0.090242
Sum of atomic charges:   -0.0000000

LOEWDIN ATOMIC CHARGES
----------------------
   0 C :   -0.282064
   1 H :    0.153606
   2 H :    0.155018
   3 H :    0.152899
   4 C :   -0.219302
   5 N :    0.039841
   6 C :   -0.284409
   7 H :    0.150363
   8 H :    0.151619
   9 H :    0.153774
  10 C :   -0.218955
  11 N :    0.047604
  12 C :   -0.284057
  13 H :    0.153755
  14 H :    0.150954
  15 H :    0.151705
  16 C :   -0.219461
  17 N :    0.047109

  Mayer bond orders larger than 0.100000
B(  0-C ,  1-H ) :   0.9152 B(  0-C ,  2-H ) :   0.9145 B(  0-C ,  3-H ) :   0.9165
B(  0-C ,  4-C ) :   0.9009 B(  4-C ,  5-N ) :   2.8416 B(  6-C ,  7-H ) :   0.9179
B(  6-C ,  8-H ) :   0.9158 B(  6-C ,  9-H ) :   0.9164 B(  6-C , 10-C ) :   0.9020
B( 10-C , 11-N ) :   2.8364 B( 12-C , 13-H ) :   0.9158 B( 12-C , 14-H ) :   0.9168
B( 12-C , 15-H ) :   0.9173 B( 12-C , 16-C ) :   0.9027 B( 16-C , 17-N ) :   2.8361

MP2 TOTAL ENERGY:     -397.450290050 Eh
FINAL SINGLE POINT ENERGY      -397.450290050050

DIPOLE MOMENT
-------------
                                X             Y             Z
Electronic contribution:     -0.22691      -0.14207      -3.19396
Nuclear contribution   :      0.35682       0.22132       4.67266
                        -----------------------------------------
Total Dipole Moment    :      0.12992       0.07925       1.47870
                        -----------------------------------------
Magnitude (a.u.)       :      1.48651
Magnitude (Debye)      :      3.77841

Rotational constants in cm-1:     0.016793     0.013612     0.008734
Rotational constants in MHz :   503.454597   408.074645   261.836503

                             ****ORCA TERMINATED NORMALLY****
TOTAL RUN TIME: 0 days 0 hours 2 minutes 36 seconds 680 msec
