                         Program Version 4.2.0 -  RELEASE  -
|  1> # 12h2o.su.etal.mol1,3,4,5,7,11
|  2> ! MP2 def2-TZVP EnGrad TightSCF
|  3>
|  4> %pal
|  5>     nprocs 6
|  6> end
|  7>
|  8> %maxcore 8000
|  9>
| 10> %scf
| 11>     ConvForced true
| 12> end
| 13>
| 14> *xyz 0 1
| 15> O  -1.794470000  -0.923410000   2.768350000
| 16> H  -2.338250000  -1.359750000   3.430940000
| 17> H  -0.879480000  -1.303000000   2.865760000
| 18> O  -1.752130000  -0.741530000  -2.896280000
| 19> H  -2.036450000  -0.920500000  -1.984040000
| 20> H  -0.921210000  -1.242140000  -2.984230000
| 21> O  -0.885520000   1.737840000   0.052730000
| 22> H  -1.032320000   2.090180000  -0.841890000
| 23> H  -1.284090000   0.839590000   0.017130000
| 24> O   0.885520000  -1.737840000   0.052730000
| 25> H   1.284090000  -0.839590000   0.017130000
| 26> H   1.032320000  -2.090180000  -0.841890000
| 27> O  -1.737840000  -0.885520000  -0.052730000
| 28> H  -2.090180000  -1.032320000   0.841890000
| 29> H  -0.839590000  -1.284090000  -0.017130000
| 30> O  -0.741530000   1.752130000   2.896280000
| 31> H  -0.920500000   2.036450000   1.984040000
| 32> H  -1.242140000   0.921210000   2.984230000
| 33> *
| 34>
| 35>                          ****END OF INPUT****

CARTESIAN COORDINATES (ANGSTROEM)
---------------------------------
  O     -1.794470   -0.923410    2.768350
  H     -2.338250   -1.359750    3.430940
  H     -0.879480   -1.303000    2.865760
  O     -1.752130   -0.741530   -2.896280
  H     -2.036450   -0.920500   -1.984040
  H     -0.921210   -1.242140   -2.984230
  O     -0.885520    1.737840    0.052730
  H     -1.032320    2.090180   -0.841890
  H     -1.284090    0.839590    0.017130
  O      0.885520   -1.737840    0.052730
  H      1.284090   -0.839590    0.017130
  H      1.032320   -2.090180   -0.841890
  O     -1.737840   -0.885520   -0.052730
  H     -2.090180   -1.032320    0.841890
  H     -0.839590   -1.284090   -0.017130
  O     -0.741530    1.752130    2.896280
  H     -0.920500    2.036450    1.984040
  H     -1.242140    0.921210    2.984230

 Total Charge           Charge          ....    0
 Multiplicity           Mult            ....    1
 Number of Electrons    NEL             ....   60
 Basis Dimension        Dim             ....  258

ORBITAL ENERGIES
----------------

  NO   OCC          E(Eh)            E(eV)
   0   2.0000     -20.618764      -561.0651
   1   2.0000     -20.615251      -560.9695
   2   2.0000     -20.569790      -559.7324
   3   2.0000     -20.546122      -559.0884
   4   2.0000     -20.541949      -558.9749
   5   2.0000     -20.503592      -557.9311
   6   2.0000      -1.400410       -38.1071
   7   2.0000      -1.395420       -37.9713
   8   2.0000      -1.361078       -37.0368
   9   2.0000      -1.327906       -36.1342
  10   2.0000      -1.324630       -36.0450
  11   2.0000      -1.288646       -35.0658
  12   2.0000      -0.761390       -20.7185
  13   2.0000      -0.756597       -20.5881
  14   2.0000      -0.735517       -20.0144
  15   2.0000      -0.700073       -19.0500
  16   2.0000      -0.695958       -18.9380
  17   2.0000      -0.669495       -18.2179
  18   2.0000      -0.649373       -17.6703
  19   2.0000      -0.631317       -17.1790
  20   2.0000      -0.604814       -16.4578
  21   2.0000      -0.585277       -15.9262
  22   2.0000      -0.568016       -15.4565
  23   2.0000      -0.556782       -15.1508
  24   2.0000      -0.542105       -14.7514
  25   2.0000      -0.521278       -14.1847
  26   2.0000      -0.512171       -13.9369
  27   2.0000      -0.492529       -13.4024
  28   2.0000      -0.489817       -13.3286
  29   2.0000      -0.453413       -12.3380
  30   0.0000       0.077717         2.1148
  31   0.0000       0.105803         2.8790
  32   0.0000       0.152095         4.1387
  33   0.0000       0.159809         4.3486
  34   0.0000       0.183884         5.0037

MULLIKEN ATOMIC CHARGES
-----------------------
   0 O :   -0.715887
   1 H :    0.365591
   2 H :    0.374978
   3 O :   -0.688460
   4 H :    0.375269
   5 H :    0.308045
   6 O :   -0.734452
   7 H :    0.342041
   8 H :    0.358435
   9 O :   -0.690526
  10 H :    0.376403
  11 H :    0.356543
  12 O :   -0.744987
  13 H :    0.383670
  14 H :    0.351751
  15 O :   -0.725950
  16 H :    0.371280
  17 H :    0.336256
Sum of atomic charges:   -0.0000000

LOEWDIN ATOMIC CHARGES
----------------------
   0 O :   -0.287087
   1 H :    0.168611
   2 H :    0.193309
   3 O :   -0.337024
   4 H :    0.151784
   5 H :    0.152496
   6 O :   -0.343428
   7 H :    0.163946
   8 H :    0.141300
   9 O :   -0.289227
  10 H :    0.187343
  11 H :    0.172198
  12 O :   -0.299779
  13 H :    0.152795
  14 H :    0.139611
  15 O :   -0.355929
  16 H :    0.151701
  17 H :    0.137379

  Mayer bond orders larger than 0.100000
B(  0-O ,  1-H ) :   0.8314 B(  0-O ,  2-H ) :   0.8175 B(  3-O ,  4-H ) :   0.8145
B(  3-O ,  5-H ) :   0.8682 B(  6-O ,  7-H ) :   0.8458 B(  6-O ,  8-H ) :   0.7783
B(  9-O , 10-H ) :   0.8197 B(  9-O , 11-H ) :   0.8378 B( 12-O , 13-H ) :   0.8019
B( 12-O , 14-H ) :   0.7773 B( 15-O , 16-H ) :   0.8185 B( 15-O , 17-H ) :   0.8421

MP2 TOTAL ENERGY:     -457.924655514 Eh
FINAL SINGLE POINT ENERGY      -457.924655513840

DIPOLE MOMENT
-------------
                                X             Y             Z
Electronic contribution:     -0.02062      -0.07971       0.21809
Nuclear contribution   :      0.65269      -2.15372      -0.14168
                        -----------------------------------------
Total Dipole Moment    :      0.63206      -2.23343       0.07641
                        -----------------------------------------
Magnitude (a.u.)       :      2.32240
Magnitude (Debye)      :      5.90307

Rotational constants in cm-1:     0.062176     0.031070     0.027144
Rotational constants in MHz :  1863.989729   931.441688   813.760015

                             ****ORCA TERMINATED NORMALLY****
TOTAL RUN TIME: 0 days 0 hours 1 minutes 10 seconds 720 msec
