                         Program Version 4.2.0 -  RELEASE  -
|  1> # 12mecn.remya.etal.2.mol0,8
|  2> ! MP2 def2-TZVP EnGrad TightSCF
|  3>
|  4> %pal
|  5>     nprocs 6
|  6> end
|  7>
|  8> %maxcore 8000
|  9>
| 10> %scf
| 11>     ConvForced true
| 12> end
| 13>
| 14> *xyz 0 1
| 15> C  -0.869520000  -3.929380000   1.700199000
| 16> H  -0.057420000  -3.268850000   2.015352000
| 17> H  -0.697530000  -4.930670000   2.101524000
| 18> H  -1.821490000  -3.546590000   2.077146000
| 19> C  -0.916080000  -3.969960000   0.256749000
| 20> N  -0.955390000  -3.995980000  -0.909290000
| 21> C   1.912641000  -2.468050000  -1.750510000
| 22> H   2.876947000  -2.793500000  -2.151200000
| 23> H   1.688016000  -1.463720000  -2.122170000
| 24> H   1.123460000  -3.154780000  -2.069590000
| 25> C   1.977850000  -2.444240000  -0.306900000
| 26> N   2.036566000  -2.426130000   0.858249000
| 27> *
| 28>
| 29>                          ****END OF INPUT****

CARTESIAN COORDINATES (ANGSTROEM)
---------------------------------
  C     -0.869520   -3.929380    1.700199
  H     -0.057420   -3.268850    2.015352
  H     -0.697530   -4.930670    2.101524
  H     -1.821490   -3.546590    2.077146
  C     -0.916080   -3.969960    0.256749
  N     -0.955390   -3.995980   -0.909290
  C      1.912641   -2.468050   -1.750510
  H      2.876947   -2.793500   -2.151200
  H      1.688016   -1.463720   -2.122170
  H      1.123460   -3.154780   -2.069590
  C      1.977850   -2.444240   -0.306900
  N      2.036566   -2.426130    0.858249

 Total Charge           Charge          ....    0
 Multiplicity           Mult            ....    1
 Number of Electrons    NEL             ....   44
 Basis Dimension        Dim             ....  222

ORBITAL ENERGIES
----------------

  NO   OCC          E(Eh)            E(eV)
   0   2.0000     -15.571573      -423.7240
   1   2.0000     -15.571157      -423.7127
   2   2.0000     -11.283384      -307.0365
   3   2.0000     -11.282944      -307.0245
   4   2.0000     -11.272282      -306.7344
   5   2.0000     -11.272260      -306.7338
   6   2.0000      -1.218078       -33.1456
   7   2.0000      -1.214085       -33.0369
   8   2.0000      -1.036880       -28.2149
   9   2.0000      -1.034137       -28.1403
  10   2.0000      -0.694968       -18.9110
  11   2.0000      -0.690686       -18.7945
  12   2.0000      -0.631062       -17.1721
  13   2.0000      -0.623492       -16.9661
  14   2.0000      -0.621295       -16.9063
  15   2.0000      -0.615363       -16.7449
  16   2.0000      -0.559348       -15.2206
  17   2.0000      -0.556213       -15.1353
  18   2.0000      -0.459973       -12.5165
  19   2.0000      -0.459827       -12.5125
  20   2.0000      -0.456902       -12.4329
  21   2.0000      -0.455702       -12.4003
  22   0.0000       0.127695         3.4748
  23   0.0000       0.142442         3.8760
  24   0.0000       0.170152         4.6301
  25   0.0000       0.173480         4.7206
  26   0.0000       0.178118         4.8469

MULLIKEN ATOMIC CHARGES
-----------------------
   0 C :   -0.284276
   1 H :    0.204311
   2 H :    0.167184
   3 H :    0.166746
   4 C :   -0.103752
   5 N :   -0.149998
   6 C :   -0.284195
   7 H :    0.167124
   8 H :    0.166916
   9 H :    0.204354
  10 C :   -0.105313
  11 N :   -0.149100
Sum of atomic charges:   -0.0000000

LOEWDIN ATOMIC CHARGES
----------------------
   0 C :   -0.281732
   1 H :    0.157181
   2 H :    0.152067
   3 H :    0.151477
   4 C :   -0.208069
   5 N :    0.029684
   6 C :   -0.282359
   7 H :    0.151165
   8 H :    0.153146
   9 H :    0.156871
  10 C :   -0.208765
  11 N :    0.029333

  Mayer bond orders larger than 0.100000
B(  0-C ,  1-H ) :   0.9021 B(  0-C ,  2-H ) :   0.9147 B(  0-C ,  3-H ) :   0.9164
B(  0-C ,  4-C ) :   0.9014 B(  4-C ,  5-N ) :   2.7738 B(  6-C ,  7-H ) :   0.9164
B(  6-C ,  8-H ) :   0.9146 B(  6-C ,  9-H ) :   0.9017 B(  6-C , 10-C ) :   0.9014
B( 10-C , 11-N ) :   2.7755

MP2 TOTAL ENERGY:     -264.976147239 Eh
FINAL SINGLE POINT ENERGY      -264.976147239351

DIPOLE MOMENT
-------------
                                X             Y             Z
Electronic contribution:      0.04231      -0.05252      -0.00119
Nuclear contribution   :     -0.06689       0.06715       0.00230
                        -----------------------------------------
Total Dipole Moment    :     -0.02458       0.01463       0.00111
                        -----------------------------------------
Magnitude (a.u.)       :      0.02863
Magnitude (Debye)      :      0.07277

Rotational constants in cm-1:     0.166667     0.067873     0.049133
Rotational constants in MHz :  4996.547979  2034.781566  1472.975996

                             ****ORCA TERMINATED NORMALLY****
TOTAL RUN TIME: 0 days 0 hours 1 minutes 13 seconds 223 msec
