                         Program Version 4.2.0 -  RELEASE  -
|  1> # 12h2o.su.etal.mol2,3,5,11
|  2> ! MP2 def2-TZVP EnGrad TightSCF
|  3>
|  4> %pal
|  5>     nprocs 6
|  6> end
|  7>
|  8> %maxcore 8000
|  9>
| 10> %scf
| 11>     ConvForced true
| 12> end
| 13>
| 14> *xyz 0 1
| 15> O   0.923410000  -1.794470000  -2.768350000
| 16> H   1.359750000  -2.338250000  -3.430940000
| 17> H   1.303000000  -0.879480000  -2.865760000
| 18> O  -1.752130000  -0.741530000  -2.896280000
| 19> H  -2.036450000  -0.920500000  -1.984040000
| 20> H  -0.921210000  -1.242140000  -2.984230000
| 21> O   0.885520000  -1.737840000   0.052730000
| 22> H   1.284090000  -0.839590000   0.017130000
| 23> H   1.032320000  -2.090180000  -0.841890000
| 24> O  -0.741530000   1.752130000   2.896280000
| 25> H  -0.920500000   2.036450000   1.984040000
| 26> H  -1.242140000   0.921210000   2.984230000
| 27> *
| 28>
| 29>                          ****END OF INPUT****

CARTESIAN COORDINATES (ANGSTROEM)
---------------------------------
  O      0.923410   -1.794470   -2.768350
  H      1.359750   -2.338250   -3.430940
  H      1.303000   -0.879480   -2.865760
  O     -1.752130   -0.741530   -2.896280
  H     -2.036450   -0.920500   -1.984040
  H     -0.921210   -1.242140   -2.984230
  O      0.885520   -1.737840    0.052730
  H      1.284090   -0.839590    0.017130
  H      1.032320   -2.090180   -0.841890
  O     -0.741530    1.752130    2.896280
  H     -0.920500    2.036450    1.984040
  H     -1.242140    0.921210    2.984230

 Total Charge           Charge          ....    0
 Multiplicity           Mult            ....    1
 Number of Electrons    NEL             ....   40
 Basis Dimension        Dim             ....  172

ORBITAL ENERGIES
----------------

  NO   OCC          E(Eh)            E(eV)
   0   2.0000     -20.621598      -561.1422
   1   2.0000     -20.559561      -559.4541
   2   2.0000     -20.549289      -559.1746
   3   2.0000     -20.540273      -558.9292
   4   2.0000      -1.401714       -38.1426
   5   2.0000      -1.338781       -36.4301
   6   2.0000      -1.328296       -36.1448
   7   2.0000      -1.322776       -35.9946
   8   2.0000      -0.767391       -20.8818
   9   2.0000      -0.701618       -19.0920
  10   2.0000      -0.699845       -19.0438
  11   2.0000      -0.693915       -18.8824
  12   2.0000      -0.636797       -17.3281
  13   2.0000      -0.588392       -16.0110
  14   2.0000      -0.576361       -15.6836
  15   2.0000      -0.559428       -15.2228
  16   2.0000      -0.543514       -14.7898
  17   2.0000      -0.503659       -13.7053
  18   2.0000      -0.494720       -13.4620
  19   2.0000      -0.487711       -13.2713
  20   0.0000       0.085172         2.3177
  21   0.0000       0.120254         3.2723
  22   0.0000       0.153989         4.1903
  23   0.0000       0.169379         4.6090
  24   0.0000       0.186177         5.0661

MULLIKEN ATOMIC CHARGES
-----------------------
   0 O :   -0.711797
   1 H :    0.366423
   2 H :    0.366474
   3 O :   -0.704493
   4 H :    0.334643
   5 H :    0.354340
   6 O :   -0.690427
   7 H :    0.321434
   8 H :    0.363031
   9 O :   -0.675660
  10 H :    0.334789
  11 H :    0.341242
Sum of atomic charges:    0.0000000

LOEWDIN ATOMIC CHARGES
----------------------
   0 O :   -0.286409
   1 H :    0.168838
   2 H :    0.190311
   3 O :   -0.346869
   4 H :    0.162439
   5 H :    0.145048
   6 O :   -0.344227
   7 H :    0.163690
   8 H :    0.146927
   9 O :   -0.332572
  10 H :    0.164316
  11 H :    0.168509

  Mayer bond orders larger than 0.100000
B(  0-O ,  1-H ) :   0.8305 B(  0-O ,  2-H ) :   0.8233 B(  3-O ,  4-H ) :   0.8539
B(  3-O ,  5-H ) :   0.8274 B(  6-O ,  7-H ) :   0.8591 B(  6-O ,  8-H ) :   0.8248
B(  9-O , 10-H ) :   0.8547 B(  9-O , 11-H ) :   0.8506

MP2 TOTAL ENERGY:     -305.264242833 Eh
FINAL SINGLE POINT ENERGY      -305.264242833105

DIPOLE MOMENT
-------------
                                X             Y             Z
Electronic contribution:     -0.00365      -0.07431       0.07049
Nuclear contribution   :      1.02241      -0.25725      -1.40687
                        -----------------------------------------
Total Dipole Moment    :      1.01875      -0.33156      -1.33638
                        -----------------------------------------
Magnitude (a.u.)       :      1.71280
Magnitude (Debye)      :      4.35360

Rotational constants in cm-1:     0.118969     0.032590     0.026633
Rotational constants in MHz :  3566.606576   977.020375   798.423807

                             ****ORCA TERMINATED NORMALLY****
TOTAL RUN TIME: 0 days 0 hours 0 minutes 29 seconds 810 msec
