                         Program Version 4.2.0 -  RELEASE  -
|  1> # 12meoh.boyd.etal.mol3,4
|  2> ! MP2 def2-TZVP EnGrad TightSCF
|  3>
|  4> %pal
|  5>     nprocs 6
|  6> end
|  7>
|  8> %maxcore 8000
|  9>
| 10> %scf
| 11>     ConvForced true
| 12> end
| 13>
| 14> *xyz 0 1
| 15> O  -3.821405976  -2.118091637   0.596795346
| 16> H  -4.342989117  -1.344303030   0.251966383
| 17> C  -3.443883586  -1.809641231   1.934889393
| 18> H  -2.831494349  -2.637429600   2.305201764
| 19> H  -4.325601146  -1.719364371   2.585074667
| 20> H  -2.858527126  -0.882644791   1.996110694
| 21> O  -1.358578914   1.232360421   1.189721000
| 22> H  -1.058250183   1.216459361   0.238591307
| 23> C  -0.389763452   1.957872567   1.943072362
| 24> H  -0.747220771   2.012806578   2.975200343
| 25> H  -0.260410585   2.982763209   1.565366540
| 26> H   0.585220638   1.453754179   1.934070793
| 27> *
| 28>
| 29>                          ****END OF INPUT****

CARTESIAN COORDINATES (ANGSTROEM)
---------------------------------
  O     -3.821406   -2.118092    0.596795
  H     -4.342989   -1.344303    0.251966
  C     -3.443884   -1.809641    1.934889
  H     -2.831494   -2.637430    2.305202
  H     -4.325601   -1.719364    2.585075
  H     -2.858527   -0.882645    1.996111
  O     -1.358579    1.232360    1.189721
  H     -1.058250    1.216459    0.238591
  C     -0.389763    1.957873    1.943072
  H     -0.747221    2.012807    2.975200
  H     -0.260411    2.982763    1.565367
  H      0.585221    1.453754    1.934071

 Total Charge           Charge          ....    0
 Multiplicity           Mult            ....    1
 Number of Electrons    NEL             ....   36
 Basis Dimension        Dim             ....  172

ORBITAL ENERGIES
----------------

  NO   OCC          E(Eh)            E(eV)
   0   2.0000     -20.564224      -559.5810
   1   2.0000     -20.546094      -559.0877
   2   2.0000     -11.276819      -306.8578
   3   2.0000     -11.255820      -306.2864
   4   2.0000      -1.351783       -36.7839
   5   2.0000      -1.334907       -36.3247
   6   2.0000      -0.924638       -25.1607
   7   2.0000      -0.904953       -24.6250
   8   2.0000      -0.686711       -18.6863
   9   2.0000      -0.668425       -18.1888
  10   2.0000      -0.622396       -16.9363
  11   2.0000      -0.605102       -16.4657
  12   2.0000      -0.594399       -16.1744
  13   2.0000      -0.577649       -15.7186
  14   2.0000      -0.507112       -13.7992
  15   2.0000      -0.487126       -13.2554
  16   2.0000      -0.455582       -12.3970
  17   2.0000      -0.435845       -11.8600
  18   0.0000       0.125747         3.4218
  19   0.0000       0.152026         4.1368
  20   0.0000       0.173273         4.7150
  21   0.0000       0.188150         5.1198
  22   0.0000       0.219192         5.9645

MULLIKEN ATOMIC CHARGES
-----------------------
   0 O :   -0.504017
   1 H :    0.320000
   2 C :   -0.186683
   3 H :    0.120446
   4 H :    0.102953
   5 H :    0.137810
   6 O :   -0.496511
   7 H :    0.324378
   8 C :   -0.173142
   9 H :    0.129992
  10 H :    0.111402
  11 H :    0.113372
Sum of atomic charges:    0.0000000

LOEWDIN ATOMIC CHARGES
----------------------
   0 O :   -0.113567
   1 H :    0.189846
   2 C :   -0.385440
   3 H :    0.107638
   4 H :    0.092873
   5 H :    0.099897
   6 O :   -0.109492
   7 H :    0.193671
   8 C :   -0.379500
   9 H :    0.110458
  10 H :    0.097130
  11 H :    0.096486

  Mayer bond orders larger than 0.100000
B(  0-O ,  1-H ) :   0.8439 B(  0-O ,  2-C ) :   0.9166 B(  2-C ,  3-H ) :   0.9380
B(  2-C ,  4-H ) :   0.9405 B(  2-C ,  5-H ) :   0.9310 B(  6-O ,  7-H ) :   0.8382
B(  6-O ,  8-C ) :   0.9173 B(  8-C ,  9-H ) :   0.9392 B(  8-C , 10-H ) :   0.9352
B(  8-C , 11-H ) :   0.9382

MP2 TOTAL ENERGY:     -231.015480323 Eh
FINAL SINGLE POINT ENERGY      -231.015480323079

DIPOLE MOMENT
-------------
                                X             Y             Z
Electronic contribution:     -1.61305      -1.35474      -2.49011
Nuclear contribution   :      2.09910       2.33067       2.54257
                        -----------------------------------------
Total Dipole Moment    :      0.48605       0.97593       0.05246
                        -----------------------------------------
Magnitude (a.u.)       :      1.09153
Magnitude (Debye)      :      2.77444

Rotational constants in cm-1:     0.612306     0.048481     0.045963
Rotational constants in MHz : 18356.462210  1453.422948  1377.950031

                             ****ORCA TERMINATED NORMALLY****
TOTAL RUN TIME: 0 days 0 hours 0 minutes 22 seconds 871 msec
