                         Program Version 4.2.0 -  RELEASE  -
|  1> # 12h2o.su.etal.mol0,1,2,4,5,6,7
|  2> ! MP2 def2-TZVP EnGrad TightSCF
|  3>
|  4> %pal
|  5>     nprocs 6
|  6> end
|  7>
|  8> %maxcore 8000
|  9>
| 10> %scf
| 11>     ConvForced true
| 12> end
| 13>
| 14> *xyz 0 1
| 15> O   1.794470000   0.923410000   2.768350000
| 16> H   2.338250000   1.359750000   3.430940000
| 17> H   0.879480000   1.303000000   2.865760000
| 18> O  -1.794470000  -0.923410000   2.768350000
| 19> H  -2.338250000  -1.359750000   3.430940000
| 20> H  -0.879480000  -1.303000000   2.865760000
| 21> O   0.923410000  -1.794470000  -2.768350000
| 22> H   1.359750000  -2.338250000  -3.430940000
| 23> H   1.303000000  -0.879480000  -2.865760000
| 24> O  -0.885520000   1.737840000   0.052730000
| 25> H  -1.032320000   2.090180000  -0.841890000
| 26> H  -1.284090000   0.839590000   0.017130000
| 27> O   0.885520000  -1.737840000   0.052730000
| 28> H   1.284090000  -0.839590000   0.017130000
| 29> H   1.032320000  -2.090180000  -0.841890000
| 30> O   1.737840000   0.885520000  -0.052730000
| 31> H   2.090180000   1.032320000   0.841890000
| 32> H   0.839590000   1.284090000  -0.017130000
| 33> O  -1.737840000  -0.885520000  -0.052730000
| 34> H  -2.090180000  -1.032320000   0.841890000
| 35> H  -0.839590000  -1.284090000  -0.017130000
| 36> *
| 37>
| 38>                          ****END OF INPUT****

CARTESIAN COORDINATES (ANGSTROEM)
---------------------------------
  O      1.794470    0.923410    2.768350
  H      2.338250    1.359750    3.430940
  H      0.879480    1.303000    2.865760
  O     -1.794470   -0.923410    2.768350
  H     -2.338250   -1.359750    3.430940
  H     -0.879480   -1.303000    2.865760
  O      0.923410   -1.794470   -2.768350
  H      1.359750   -2.338250   -3.430940
  H      1.303000   -0.879480   -2.865760
  O     -0.885520    1.737840    0.052730
  H     -1.032320    2.090180   -0.841890
  H     -1.284090    0.839590    0.017130
  O      0.885520   -1.737840    0.052730
  H      1.284090   -0.839590    0.017130
  H      1.032320   -2.090180   -0.841890
  O      1.737840    0.885520   -0.052730
  H      2.090180    1.032320    0.841890
  H      0.839590    1.284090   -0.017130
  O     -1.737840   -0.885520   -0.052730
  H     -2.090180   -1.032320    0.841890
  H     -0.839590   -1.284090   -0.017130

 Total Charge           Charge          ....    0
 Multiplicity           Mult            ....    1
 Number of Electrons    NEL             ....   70
 Basis Dimension        Dim             ....  301

ORBITAL ENERGIES
----------------

  NO   OCC          E(Eh)            E(eV)
   0   2.0000     -20.583875      -560.1157
   1   2.0000     -20.580600      -560.0266
   2   2.0000     -20.576567      -559.9169
   3   2.0000     -20.543422      -559.0149
   4   2.0000     -20.525588      -558.5296
   5   2.0000     -20.516916      -558.2937
   6   2.0000     -20.515804      -558.2634
   7   2.0000      -1.362028       -37.0627
   8   2.0000      -1.358689       -36.9718
   9   2.0000      -1.354647       -36.8618
  10   2.0000      -1.335331       -36.3362
  11   2.0000      -1.315723       -35.8026
  12   2.0000      -1.308482       -35.6056
  13   2.0000      -1.293285       -35.1921
  14   2.0000      -0.729008       -19.8373
  15   2.0000      -0.724644       -19.7186
  16   2.0000      -0.721238       -19.6259
  17   2.0000      -0.694956       -18.9107
  18   2.0000      -0.688355       -18.7311
  19   2.0000      -0.678855       -18.4726
  20   2.0000      -0.676904       -18.4195
  21   2.0000      -0.608842       -16.5674
  22   2.0000      -0.600652       -16.3446
  23   2.0000      -0.596176       -16.2228
  24   2.0000      -0.582962       -15.8632
  25   2.0000      -0.562697       -15.3118
  26   2.0000      -0.559140       -15.2150
  27   2.0000      -0.542609       -14.7652
  28   2.0000      -0.520886       -14.1740
  29   2.0000      -0.516613       -14.0578
  30   2.0000      -0.511221       -13.9110
  31   2.0000      -0.486390       -13.2354
  32   2.0000      -0.472276       -12.8513
  33   2.0000      -0.467030       -12.7085
  34   2.0000      -0.462066       -12.5734
  35   0.0000       0.105104         2.8600
  36   0.0000       0.123651         3.3647
  37   0.0000       0.135328         3.6825
  38   0.0000       0.159678         4.3451
  39   0.0000       0.196412         5.3446

MULLIKEN ATOMIC CHARGES
-----------------------
   0 O :   -0.702300
   1 H :    0.348733
   2 H :    0.366697
   3 O :   -0.704225
   4 H :    0.348211
   5 H :    0.367695
   6 O :   -0.694744
   7 H :    0.346726
   8 H :    0.361185
   9 O :   -0.724637
  10 H :    0.342398
  11 H :    0.375617
  12 O :   -0.741632
  13 H :    0.360762
  14 H :    0.370006
  15 O :   -0.739101
  16 H :    0.372386
  17 H :    0.351895
  18 O :   -0.735940
  19 H :    0.367732
  20 H :    0.362537
Sum of atomic charges:   -0.0000000

LOEWDIN ATOMIC CHARGES
----------------------
   0 O :   -0.312119
   1 H :    0.161991
   2 H :    0.189082
   3 O :   -0.313432
   4 H :    0.161673
   5 H :    0.189293
   6 O :   -0.310192
   7 H :    0.160904
   8 H :    0.187836
   9 O :   -0.317059
  10 H :    0.163635
  11 H :    0.146045
  12 O :   -0.323598
  13 H :    0.139438
  14 H :    0.147444
  15 O :   -0.324153
  16 H :    0.148253
  17 H :    0.137953
  18 O :   -0.319594
  19 H :    0.146223
  20 H :    0.140378

  Mayer bond orders larger than 0.100000
B(  0-O ,  1-H ) :   0.8435 B(  0-O ,  2-H ) :   0.8240 B(  3-O ,  4-H ) :   0.8438
B(  3-O ,  5-H ) :   0.8232 B(  6-O ,  7-H ) :   0.8449 B(  6-O ,  8-H ) :   0.8294
B(  9-O , 10-H ) :   0.8467 B(  9-O , 11-H ) :   0.7502 B(  9-O , 17-H ) :   0.1113
B( 11-H , 18-O ) :   0.1249 B( 12-O , 13-H ) :   0.7710 B( 12-O , 14-H ) :   0.8136
B( 12-O , 20-H ) :   0.1127 B( 13-H , 15-O ) :   0.1082 B( 15-O , 16-H ) :   0.8126
B( 15-O , 17-H ) :   0.7756 B( 18-O , 19-H ) :   0.8157 B( 18-O , 20-H ) :   0.7670

MP2 TOTAL ENERGY:     -534.259822914 Eh
FINAL SINGLE POINT ENERGY      -534.259822914320

DIPOLE MOMENT
-------------
                                X             Y             Z
Electronic contribution:     -0.10662      -0.12095       0.07867
Nuclear contribution   :      0.67915       0.30898       0.63259
                        -----------------------------------------
Total Dipole Moment    :      0.57252       0.18803       0.71126
                        -----------------------------------------
Magnitude (a.u.)       :      0.93222
Magnitude (Debye)      :      2.36951

Rotational constants in cm-1:     0.038603     0.027479     0.022458
Rotational constants in MHz :  1157.296161   823.784785   673.282523

                             ****ORCA TERMINATED NORMALLY****
TOTAL RUN TIME: 0 days 0 hours 2 minutes 16 seconds 71 msec
