                         Program Version 4.2.0 -  RELEASE  -
|  1> # 12h2o.su.etal.mol2,4,5,6,7,9,10
|  2> ! MP2 def2-TZVP EnGrad TightSCF
|  3>
|  4> %pal
|  5>     nprocs 6
|  6> end
|  7>
|  8> %maxcore 8000
|  9>
| 10> %scf
| 11>     ConvForced true
| 12> end
| 13>
| 14> *xyz 0 1
| 15> O   0.923410000  -1.794470000  -2.768350000
| 16> H   1.359750000  -2.338250000  -3.430940000
| 17> H   1.303000000  -0.879480000  -2.865760000
| 18> O  -0.885520000   1.737840000   0.052730000
| 19> H  -1.032320000   2.090180000  -0.841890000
| 20> H  -1.284090000   0.839590000   0.017130000
| 21> O   0.885520000  -1.737840000   0.052730000
| 22> H   1.284090000  -0.839590000   0.017130000
| 23> H   1.032320000  -2.090180000  -0.841890000
| 24> O   1.737840000   0.885520000  -0.052730000
| 25> H   2.090180000   1.032320000   0.841890000
| 26> H   0.839590000   1.284090000  -0.017130000
| 27> O  -1.737840000  -0.885520000  -0.052730000
| 28> H  -2.090180000  -1.032320000   0.841890000
| 29> H  -0.839590000  -1.284090000  -0.017130000
| 30> O   0.741530000  -1.752130000   2.896280000
| 31> H   0.920500000  -2.036450000   1.984040000
| 32> H   1.242140000  -0.921210000   2.984230000
| 33> O  -0.923410000   1.794470000  -2.768350000
| 34> H  -1.359750000   2.338250000  -3.430940000
| 35> H  -1.303000000   0.879480000  -2.865760000
| 36> *
| 37>
| 38>                          ****END OF INPUT****

CARTESIAN COORDINATES (ANGSTROEM)
---------------------------------
  O      0.923410   -1.794470   -2.768350
  H      1.359750   -2.338250   -3.430940
  H      1.303000   -0.879480   -2.865760
  O     -0.885520    1.737840    0.052730
  H     -1.032320    2.090180   -0.841890
  H     -1.284090    0.839590    0.017130
  O      0.885520   -1.737840    0.052730
  H      1.284090   -0.839590    0.017130
  H      1.032320   -2.090180   -0.841890
  O      1.737840    0.885520   -0.052730
  H      2.090180    1.032320    0.841890
  H      0.839590    1.284090   -0.017130
  O     -1.737840   -0.885520   -0.052730
  H     -2.090180   -1.032320    0.841890
  H     -0.839590   -1.284090   -0.017130
  O      0.741530   -1.752130    2.896280
  H      0.920500   -2.036450    1.984040
  H      1.242140   -0.921210    2.984230
  O     -0.923410    1.794470   -2.768350
  H     -1.359750    2.338250   -3.430940
  H     -1.303000    0.879480   -2.865760

 Total Charge           Charge          ....    0
 Multiplicity           Mult            ....    1
 Number of Electrons    NEL             ....   70
 Basis Dimension        Dim             ....  301

ORBITAL ENERGIES
----------------

  NO   OCC          E(Eh)            E(eV)
   0   2.0000     -20.595927      -560.4437
   1   2.0000     -20.591221      -560.3156
   2   2.0000     -20.560745      -559.4863
   3   2.0000     -20.553409      -559.2867
   4   2.0000     -20.550975      -559.2205
   5   2.0000     -20.533195      -558.7366
   6   2.0000     -20.533090      -558.7338
   7   2.0000      -1.374552       -37.4035
   8   2.0000      -1.369413       -37.2636
   9   2.0000      -1.356661       -36.9166
  10   2.0000      -1.341828       -36.5130
  11   2.0000      -1.334822       -36.3224
  12   2.0000      -1.315730       -35.8028
  13   2.0000      -1.313875       -35.7524
  14   2.0000      -0.741188       -20.1687
  15   2.0000      -0.735525       -20.0147
  16   2.0000      -0.717399       -19.5214
  17   2.0000      -0.712010       -19.3748
  18   2.0000      -0.703359       -19.1394
  19   2.0000      -0.695075       -18.9140
  20   2.0000      -0.683271       -18.5928
  21   2.0000      -0.625681       -17.0257
  22   2.0000      -0.613748       -16.7009
  23   2.0000      -0.601752       -16.3745
  24   2.0000      -0.586764       -15.9667
  25   2.0000      -0.582876       -15.8609
  26   2.0000      -0.561947       -15.2914
  27   2.0000      -0.551377       -15.0037
  28   2.0000      -0.532993       -14.5035
  29   2.0000      -0.528097       -14.3702
  30   2.0000      -0.505585       -13.7577
  31   2.0000      -0.500337       -13.6149
  32   2.0000      -0.493732       -13.4351
  33   2.0000      -0.481996       -13.1158
  34   2.0000      -0.479431       -13.0460
  35   0.0000       0.093667         2.5488
  36   0.0000       0.121989         3.3195
  37   0.0000       0.126422         3.4401
  38   0.0000       0.164918         4.4876
  39   0.0000       0.186238         5.0678

MULLIKEN ATOMIC CHARGES
-----------------------
   0 O :   -0.705272
   1 H :    0.353534
   2 H :    0.368051
   3 O :   -0.734119
   4 H :    0.373239
   5 H :    0.355344
   6 O :   -0.754714
   7 H :    0.351117
   8 H :    0.381777
   9 O :   -0.719734
  10 H :    0.340583
  11 H :    0.379009
  12 O :   -0.726896
  13 H :    0.354142
  14 H :    0.377999
  15 O :   -0.695381
  16 H :    0.373829
  17 H :    0.314821
  18 O :   -0.705513
  19 H :    0.351742
  20 H :    0.366443
Sum of atomic charges:   -0.0000000

LOEWDIN ATOMIC CHARGES
----------------------
   0 O :   -0.312498
   1 H :    0.164435
   2 H :    0.189664
   3 O :   -0.318668
   4 H :    0.148368
   5 H :    0.139197
   6 O :   -0.303272
   7 H :    0.139276
   8 H :    0.152455
   9 O :   -0.312983
  10 H :    0.162149
  11 H :    0.146985
  12 O :   -0.314166
  13 H :    0.168822
  14 H :    0.145386
  15 O :   -0.340372
  16 H :    0.151144
  17 H :    0.155286
  18 O :   -0.313471
  19 H :    0.163398
  20 H :    0.188864

  Mayer bond orders larger than 0.100000
B(  0-O ,  1-H ) :   0.8411 B(  0-O ,  2-H ) :   0.8233 B(  3-O ,  4-H ) :   0.8115
B(  3-O ,  5-H ) :   0.7747 B(  3-O , 11-H ) :   0.1225 B(  5-H , 12-O ) :   0.1089
B(  6-O ,  7-H ) :   0.7594 B(  6-O ,  8-H ) :   0.8014 B(  7-H ,  9-O ) :   0.1152
B(  9-O , 10-H ) :   0.8471 B(  9-O , 11-H ) :   0.7491 B( 12-O , 13-H ) :   0.8389
B( 12-O , 14-H ) :   0.7667 B( 15-O , 16-H ) :   0.8145 B( 15-O , 17-H ) :   0.8645
B( 18-O , 19-H ) :   0.8418 B( 18-O , 20-H ) :   0.8242

MP2 TOTAL ENERGY:     -534.261781982 Eh
FINAL SINGLE POINT ENERGY      -534.261781982421

DIPOLE MOMENT
-------------
                                X             Y             Z
Electronic contribution:     -0.15312      -0.07440      -0.26615
Nuclear contribution   :      0.56566       0.45497      -1.95129
                        -----------------------------------------
Total Dipole Moment    :      0.41253       0.38057      -2.21744
                        -----------------------------------------
Magnitude (a.u.)       :      2.28737
Magnitude (Debye)      :      5.81403

Rotational constants in cm-1:     0.041931     0.026579     0.022247
Rotational constants in MHz :  1257.044784   796.815109   666.961262

                             ****ORCA TERMINATED NORMALLY****
TOTAL RUN TIME: 0 days 0 hours 2 minutes 21 seconds 907 msec
