                         Program Version 4.2.0 -  RELEASE  -
|  1> # 12h2o.su.etal.mol0,2,3,4,8,11
|  2> ! MP2 def2-TZVP EnGrad TightSCF
|  3>
|  4> %pal
|  5>     nprocs 6
|  6> end
|  7>
|  8> %maxcore 8000
|  9>
| 10> %scf
| 11>     ConvForced true
| 12> end
| 13>
| 14> *xyz 0 1
| 15> O   1.794470000   0.923410000   2.768350000
| 16> H   2.338250000   1.359750000   3.430940000
| 17> H   0.879480000   1.303000000   2.865760000
| 18> O   0.923410000  -1.794470000  -2.768350000
| 19> H   1.359750000  -2.338250000  -3.430940000
| 20> H   1.303000000  -0.879480000  -2.865760000
| 21> O  -1.752130000  -0.741530000  -2.896280000
| 22> H  -2.036450000  -0.920500000  -1.984040000
| 23> H  -0.921210000  -1.242140000  -2.984230000
| 24> O  -0.885520000   1.737840000   0.052730000
| 25> H  -1.032320000   2.090180000  -0.841890000
| 26> H  -1.284090000   0.839590000   0.017130000
| 27> O   1.752130000   0.741530000  -2.896280000
| 28> H   2.036450000   0.920500000  -1.984040000
| 29> H   0.921210000   1.242140000  -2.984230000
| 30> O  -0.741530000   1.752130000   2.896280000
| 31> H  -0.920500000   2.036450000   1.984040000
| 32> H  -1.242140000   0.921210000   2.984230000
| 33> *
| 34>
| 35>                          ****END OF INPUT****

CARTESIAN COORDINATES (ANGSTROEM)
---------------------------------
  O      1.794470    0.923410    2.768350
  H      2.338250    1.359750    3.430940
  H      0.879480    1.303000    2.865760
  O      0.923410   -1.794470   -2.768350
  H      1.359750   -2.338250   -3.430940
  H      1.303000   -0.879480   -2.865760
  O     -1.752130   -0.741530   -2.896280
  H     -2.036450   -0.920500   -1.984040
  H     -0.921210   -1.242140   -2.984230
  O     -0.885520    1.737840    0.052730
  H     -1.032320    2.090180   -0.841890
  H     -1.284090    0.839590    0.017130
  O      1.752130    0.741530   -2.896280
  H      2.036450    0.920500   -1.984040
  H      0.921210    1.242140   -2.984230
  O     -0.741530    1.752130    2.896280
  H     -0.920500    2.036450    1.984040
  H     -1.242140    0.921210    2.984230

 Total Charge           Charge          ....    0
 Multiplicity           Mult            ....    1
 Number of Electrons    NEL             ....   60
 Basis Dimension        Dim             ....  258

ORBITAL ENERGIES
----------------

  NO   OCC          E(Eh)            E(eV)
   0   2.0000     -20.606188      -560.7229
   1   2.0000     -20.604461      -560.6759
   2   2.0000     -20.574644      -559.8645
   3   2.0000     -20.550709      -559.2132
   4   2.0000     -20.549216      -559.1726
   5   2.0000     -20.510744      -558.1257
   6   2.0000      -1.390227       -37.8300
   7   2.0000      -1.385062       -37.6895
   8   2.0000      -1.361902       -37.0592
   9   2.0000      -1.338394       -36.4196
  10   2.0000      -1.327369       -36.1196
  11   2.0000      -1.292960       -35.1832
  12   2.0000      -0.748649       -20.3718
  13   2.0000      -0.746605       -20.3162
  14   2.0000      -0.723320       -19.6826
  15   2.0000      -0.720728       -19.6120
  16   2.0000      -0.698247       -19.0003
  17   2.0000      -0.681942       -18.5566
  18   2.0000      -0.631998       -17.1975
  19   2.0000      -0.629308       -17.1243
  20   2.0000      -0.593414       -16.1476
  21   2.0000      -0.589921       -16.0526
  22   2.0000      -0.565656       -15.3923
  23   2.0000      -0.549839       -14.9619
  24   2.0000      -0.544012       -14.8033
  25   2.0000      -0.532939       -14.5020
  26   2.0000      -0.501429       -13.6446
  27   2.0000      -0.500946       -13.6314
  28   2.0000      -0.495004       -13.4697
  29   2.0000      -0.461317       -12.5531
  30   0.0000       0.073770         2.0074
  31   0.0000       0.119008         3.2384
  32   0.0000       0.140780         3.8308
  33   0.0000       0.148358         4.0370
  34   0.0000       0.170951         4.6518

MULLIKEN ATOMIC CHARGES
-----------------------
   0 O :   -0.736344
   1 H :    0.322111
   2 H :    0.367689
   3 O :   -0.738057
   4 H :    0.342387
   5 H :    0.379486
   6 O :   -0.709621
   7 H :    0.317382
   8 H :    0.367466
   9 O :   -0.691886
  10 H :    0.353976
  11 H :    0.344263
  12 O :   -0.684196
  13 H :    0.371845
  14 H :    0.356604
  15 O :   -0.689722
  16 H :    0.384530
  17 H :    0.342087
Sum of atomic charges:   -0.0000000

LOEWDIN ATOMIC CHARGES
----------------------
   0 O :   -0.374919
   1 H :    0.146816
   2 H :    0.142072
   3 O :   -0.338776
   4 H :    0.156468
   5 H :    0.145261
   6 O :   -0.348167
   7 H :    0.152816
   8 H :    0.149545
   9 O :   -0.313876
  10 H :    0.171000
  11 H :    0.173954
  12 O :   -0.268024
  13 H :    0.180079
  14 H :    0.173200
  15 O :   -0.275235
  16 H :    0.159133
  17 H :    0.168655

  Mayer bond orders larger than 0.100000
B(  0-O ,  1-H ) :   0.8623 B(  0-O ,  2-H ) :   0.7826 B(  3-O ,  4-H ) :   0.8478
B(  3-O ,  5-H ) :   0.7652 B(  6-O ,  7-H ) :   0.8632 B(  6-O ,  8-H ) :   0.7973
B(  9-O , 10-H ) :   0.8390 B(  9-O , 11-H ) :   0.8391 B( 12-O , 13-H ) :   0.8279
B( 12-O , 14-H ) :   0.8343 B( 15-O , 16-H ) :   0.8045 B( 15-O , 17-H ) :   0.8467

MP2 TOTAL ENERGY:     -457.914958741 Eh
FINAL SINGLE POINT ENERGY      -457.914958741210

DIPOLE MOMENT
-------------
                                X             Y             Z
Electronic contribution:      0.12189       0.30436      -0.20813
Nuclear contribution   :     -0.64943       0.07877      -0.08817
                        -----------------------------------------
Total Dipole Moment    :     -0.52754       0.38312      -0.29630
                        -----------------------------------------
Magnitude (a.u.)       :      0.71616
Magnitude (Debye)      :      1.82033

Rotational constants in cm-1:     0.058082     0.019029     0.016653
Rotational constants in MHz :  1741.241551   570.470130   499.236927

                             ****ORCA TERMINATED NORMALLY****
TOTAL RUN TIME: 0 days 0 hours 1 minutes 19 seconds 100 msec
