                         Program Version 4.2.0 -  RELEASE  -
|  1> # 12mecn.remya.etal.2.mol3,6,10
|  2> ! MP2 def2-TZVP EnGrad TightSCF
|  3>
|  4> %pal
|  5>     nprocs 6
|  6> end
|  7>
|  8> %maxcore 8000
|  9>
| 10> %scf
| 11>     ConvForced true
| 12> end
| 13>
| 14> *xyz 0 1
| 15> C  -5.181310000   2.853865000  -1.626100000
| 16> H  -5.488260000   3.811434000  -2.053310000
| 17> H  -5.857590000   2.068112000  -1.968630000
| 18> H  -4.170750000   2.611402000  -1.966640000
| 19> C  -5.187260000   2.919160000  -0.181450000
| 20> N  -5.181700000   2.970641000   0.983640000
| 21> C   5.300864000  -2.920090000   1.401103000
| 22> H   5.986071000  -2.139770000   1.737487000
| 23> H   5.636642000  -3.888750000   1.778233000
| 24> H   4.307359000  -2.697240000   1.799307000
| 25> C   5.234791000  -2.933140000  -0.043290000
| 26> N   5.170868000  -2.941760000  -1.207750000
| 27> C   4.602033000   0.321019000  -1.784800000
| 28> H   4.827650000  -0.662160000  -2.207910000
| 29> H   5.320558000   1.057980000  -2.148500000
| 30> H   3.601982000   0.643751000  -2.087520000
| 31> C   4.654967000   0.244048000  -0.343060000
| 32> N   4.691648000   0.166590000   0.820757000
| 33> *
| 34>
| 35>                          ****END OF INPUT****

CARTESIAN COORDINATES (ANGSTROEM)
---------------------------------
  C     -5.181310    2.853865   -1.626100
  H     -5.488260    3.811434   -2.053310
  H     -5.857590    2.068112   -1.968630
  H     -4.170750    2.611402   -1.966640
  C     -5.187260    2.919160   -0.181450
  N     -5.181700    2.970641    0.983640
  C      5.300864   -2.920090    1.401103
  H      5.986071   -2.139770    1.737487
  H      5.636642   -3.888750    1.778233
  H      4.307359   -2.697240    1.799307
  C      5.234791   -2.933140   -0.043290
  N      5.170868   -2.941760   -1.207750
  C      4.602033    0.321019   -1.784800
  H      4.827650   -0.662160   -2.207910
  H      5.320558    1.057980   -2.148500
  H      3.601982    0.643751   -2.087520
  C      4.654967    0.244048   -0.343060
  N      4.691648    0.166590    0.820757

 Total Charge           Charge          ....    0
 Multiplicity           Mult            ....    1
 Number of Electrons    NEL             ....   66
 Basis Dimension        Dim             ....  333

ORBITAL ENERGIES
----------------

  NO   OCC          E(Eh)            E(eV)
   0   2.0000     -15.573597      -423.7791
   1   2.0000     -15.571504      -423.7222
   2   2.0000     -15.570359      -423.6910
   3   2.0000     -11.285567      -307.0959
   4   2.0000     -11.283066      -307.0278
   5   2.0000     -11.282689      -307.0176
   6   2.0000     -11.280506      -306.9582
   7   2.0000     -11.272916      -306.7516
   8   2.0000     -11.271689      -306.7182
   9   2.0000      -1.218376       -33.1537
  10   2.0000      -1.215168       -33.0664
  11   2.0000      -1.213612       -33.0241
  12   2.0000      -1.044350       -28.4182
  13   2.0000      -1.037102       -28.2210
  14   2.0000      -1.033435       -28.1212
  15   2.0000      -0.701748       -19.0955
  16   2.0000      -0.695414       -18.9232
  17   2.0000      -0.691330       -18.8120
  18   2.0000      -0.633144       -17.2287
  19   2.0000      -0.632171       -17.2023
  20   2.0000      -0.630889       -17.1674
  21   2.0000      -0.622389       -16.9361
  22   2.0000      -0.618080       -16.8188
  23   2.0000      -0.616485       -16.7754
  24   2.0000      -0.559209       -15.2168
  25   2.0000      -0.556363       -15.1394
  26   2.0000      -0.556049       -15.1309
  27   2.0000      -0.463354       -12.6085
  28   2.0000      -0.458562       -12.4781
  29   2.0000      -0.458520       -12.4770
  30   2.0000      -0.458004       -12.4629
  31   2.0000      -0.457213       -12.4414
  32   2.0000      -0.453093       -12.3293
  33   0.0000       0.118395         3.2217
  34   0.0000       0.126005         3.4288
  35   0.0000       0.144709         3.9377
  36   0.0000       0.170689         4.6447
  37   0.0000       0.170856         4.6492

MULLIKEN ATOMIC CHARGES
-----------------------
   0 C :   -0.280757
   1 H :    0.172451
   2 H :    0.172337
   3 H :    0.171471
   4 C :   -0.145623
   5 N :   -0.089880
   6 C :   -0.261737
   7 H :    0.183245
   8 H :    0.171397
   9 H :    0.173986
  10 C :   -0.117963
  11 N :   -0.148596
  12 C :   -0.286810
  13 H :    0.205702
  14 H :    0.166599
  15 H :    0.165040
  16 C :   -0.111247
  17 N :   -0.139617
Sum of atomic charges:    0.0000000

LOEWDIN ATOMIC CHARGES
----------------------
   0 C :   -0.284079
   1 H :    0.151444
   2 H :    0.151586
   3 H :    0.152864
   4 C :   -0.218954
   5 N :    0.047139
   6 C :   -0.284645
   7 H :    0.155921
   8 H :    0.148559
   9 H :    0.157073
  10 C :   -0.208961
  11 N :    0.028387
  12 C :   -0.282177
  13 H :    0.157193
  14 H :    0.150435
  15 H :    0.152247
  16 C :   -0.209471
  17 N :    0.035439

  Mayer bond orders larger than 0.100000
B(  0-C ,  1-H ) :   0.9162 B(  0-C ,  2-H ) :   0.9168 B(  0-C ,  3-H ) :   0.9169
B(  0-C ,  4-C ) :   0.9027 B(  4-C ,  5-N ) :   2.8365 B(  6-C ,  7-H ) :   0.9108
B(  6-C ,  8-H ) :   0.9099 B(  6-C ,  9-H ) :   0.9134 B(  6-C , 10-C ) :   0.9130
B( 10-C , 11-N ) :   2.7752 B( 12-C , 13-H ) :   0.9016 B( 12-C , 14-H ) :   0.9167
B( 12-C , 15-H ) :   0.9156 B( 12-C , 16-C ) :   0.8995 B( 16-C , 17-N ) :   2.7885

MP2 TOTAL ENERGY:     -397.459031669 Eh
FINAL SINGLE POINT ENERGY      -397.459031669139

DIPOLE MOMENT
-------------
                                X             Y             Z
Electronic contribution:     -0.03048      -0.07706       3.12577
Nuclear contribution   :      0.05380       0.11224      -4.62873
                        -----------------------------------------
Total Dipole Moment    :      0.02332       0.03518      -1.50296
                        -----------------------------------------
Magnitude (a.u.)       :      1.50355
Magnitude (Debye)      :      3.82172

Rotational constants in cm-1:     0.053124     0.004813     0.004729
Rotational constants in MHz :  1592.610778   144.301191   141.763624

                             ****ORCA TERMINATED NORMALLY****
TOTAL RUN TIME: 0 days 0 hours 2 minutes 38 seconds 637 msec
