                         Program Version 4.2.0 -  RELEASE  -
|  1> # 12h2o.su.etal.mol0,1,3,6,7,8,9
|  2> ! MP2 def2-TZVP EnGrad TightSCF
|  3>
|  4> %pal
|  5>     nprocs 6
|  6> end
|  7>
|  8> %maxcore 8000
|  9>
| 10> %scf
| 11>     ConvForced true
| 12> end
| 13>
| 14> *xyz 0 1
| 15> O   1.794470000   0.923410000   2.768350000
| 16> H   2.338250000   1.359750000   3.430940000
| 17> H   0.879480000   1.303000000   2.865760000
| 18> O  -1.794470000  -0.923410000   2.768350000
| 19> H  -2.338250000  -1.359750000   3.430940000
| 20> H  -0.879480000  -1.303000000   2.865760000
| 21> O  -1.752130000  -0.741530000  -2.896280000
| 22> H  -2.036450000  -0.920500000  -1.984040000
| 23> H  -0.921210000  -1.242140000  -2.984230000
| 24> O   1.737840000   0.885520000  -0.052730000
| 25> H   2.090180000   1.032320000   0.841890000
| 26> H   0.839590000   1.284090000  -0.017130000
| 27> O  -1.737840000  -0.885520000  -0.052730000
| 28> H  -2.090180000  -1.032320000   0.841890000
| 29> H  -0.839590000  -1.284090000  -0.017130000
| 30> O   1.752130000   0.741530000  -2.896280000
| 31> H   2.036450000   0.920500000  -1.984040000
| 32> H   0.921210000   1.242140000  -2.984230000
| 33> O   0.741530000  -1.752130000   2.896280000
| 34> H   0.920500000  -2.036450000   1.984040000
| 35> H   1.242140000  -0.921210000   2.984230000
| 36> *
| 37>
| 38>                          ****END OF INPUT****

CARTESIAN COORDINATES (ANGSTROEM)
---------------------------------
  O      1.794470    0.923410    2.768350
  H      2.338250    1.359750    3.430940
  H      0.879480    1.303000    2.865760
  O     -1.794470   -0.923410    2.768350
  H     -2.338250   -1.359750    3.430940
  H     -0.879480   -1.303000    2.865760
  O     -1.752130   -0.741530   -2.896280
  H     -2.036450   -0.920500   -1.984040
  H     -0.921210   -1.242140   -2.984230
  O      1.737840    0.885520   -0.052730
  H      2.090180    1.032320    0.841890
  H      0.839590    1.284090   -0.017130
  O     -1.737840   -0.885520   -0.052730
  H     -2.090180   -1.032320    0.841890
  H     -0.839590   -1.284090   -0.017130
  O      1.752130    0.741530   -2.896280
  H      2.036450    0.920500   -1.984040
  H      0.921210    1.242140   -2.984230
  O      0.741530   -1.752130    2.896280
  H      0.920500   -2.036450    1.984040
  H      1.242140   -0.921210    2.984230

 Total Charge           Charge          ....    0
 Multiplicity           Mult            ....    1
 Number of Electrons    NEL             ....   70
 Basis Dimension        Dim             ....  301

ORBITAL ENERGIES
----------------

  NO   OCC          E(Eh)            E(eV)
   0   2.0000     -20.640300      -561.6511
   1   2.0000     -20.599333      -560.5363
   2   2.0000     -20.576203      -559.9070
   3   2.0000     -20.561438      -559.5052
   4   2.0000     -20.558540      -559.4263
   5   2.0000     -20.522726      -558.4518
   6   2.0000     -20.517776      -558.3171
   7   2.0000      -1.420878       -38.6640
   8   2.0000      -1.388302       -37.7776
   9   2.0000      -1.357607       -36.9424
  10   2.0000      -1.348418       -36.6923
  11   2.0000      -1.336569       -36.3699
  12   2.0000      -1.304613       -35.5003
  13   2.0000      -1.299429       -35.3593
  14   2.0000      -0.786531       -21.4026
  15   2.0000      -0.749960       -20.4074
  16   2.0000      -0.729938       -19.8626
  17   2.0000      -0.727930       -19.8080
  18   2.0000      -0.707877       -19.2623
  19   2.0000      -0.674390       -18.3511
  20   2.0000      -0.667508       -18.1638
  21   2.0000      -0.661426       -17.9983
  22   2.0000      -0.632143       -17.2015
  23   2.0000      -0.607069       -16.5192
  24   2.0000      -0.594584       -16.1795
  25   2.0000      -0.579672       -15.7737
  26   2.0000      -0.572385       -15.5754
  27   2.0000      -0.541737       -14.7414
  28   2.0000      -0.537900       -14.6370
  29   2.0000      -0.534455       -14.5433
  30   2.0000      -0.520062       -14.1516
  31   2.0000      -0.510123       -13.8812
  32   2.0000      -0.502579       -13.6759
  33   2.0000      -0.470776       -12.8105
  34   2.0000      -0.462957       -12.5977
  35   0.0000       0.069901         1.9021
  36   0.0000       0.109244         2.9727
  37   0.0000       0.138519         3.7693
  38   0.0000       0.142442         3.8761
  39   0.0000       0.163971         4.4619

MULLIKEN ATOMIC CHARGES
-----------------------
   0 O :   -0.725199
   1 H :    0.373455
   2 H :    0.378522
   3 O :   -0.744277
   4 H :    0.342610
   5 H :    0.367633
   6 O :   -0.704856
   7 H :    0.370292
   8 H :    0.326133
   9 O :   -0.713550
  10 H :    0.370819
  11 H :    0.340552
  12 O :   -0.710207
  13 H :    0.379128
  14 H :    0.318237
  15 O :   -0.703649
  16 H :    0.366760
  17 H :    0.330093
  18 O :   -0.695487
  19 H :    0.354697
  20 H :    0.378294
Sum of atomic charges:   -0.0000000

LOEWDIN ATOMIC CHARGES
----------------------
   0 O :   -0.288011
   1 H :    0.172548
   2 H :    0.195033
   3 O :   -0.343980
   4 H :    0.156354
   5 H :    0.141662
   6 O :   -0.343459
   7 H :    0.151550
   8 H :    0.158453
   9 O :   -0.324899
  10 H :    0.150426
  11 H :    0.170226
  12 O :   -0.326264
  13 H :    0.153976
  14 H :    0.159355
  15 O :   -0.342332
  16 H :    0.150516
  17 H :    0.160432
  18 O :   -0.276149
  19 H :    0.170150
  20 H :    0.154412

  Mayer bond orders larger than 0.100000
B(  0-O ,  1-H ) :   0.8265 B(  0-O ,  2-H ) :   0.8139 B(  3-O ,  4-H ) :   0.8475
B(  3-O ,  5-H ) :   0.7601 B(  6-O ,  7-H ) :   0.8180 B(  6-O ,  8-H ) :   0.8559
B(  9-O , 10-H ) :   0.8145 B(  9-O , 11-H ) :   0.8398 B( 12-O , 13-H ) :   0.7975
B( 12-O , 14-H ) :   0.8519 B( 15-O , 16-H ) :   0.8228 B( 15-O , 17-H ) :   0.8535
B( 18-O , 19-H ) :   0.8384 B( 18-O , 20-H ) :   0.8010

MP2 TOTAL ENERGY:     -534.241368856 Eh
FINAL SINGLE POINT ENERGY      -534.241368856495

DIPOLE MOMENT
-------------
                                X             Y             Z
Electronic contribution:      0.28514       0.04356       0.21477
Nuclear contribution   :      0.56566       0.45497       3.49985
                        -----------------------------------------
Total Dipole Moment    :      0.85079       0.49853       3.71462
                        -----------------------------------------
Magnitude (a.u.)       :      3.84328
Magnitude (Debye)      :      9.76884

Rotational constants in cm-1:     0.036343     0.021946     0.014863
Rotational constants in MHz :  1089.535655   657.925171   445.576172

                             ****ORCA TERMINATED NORMALLY****
TOTAL RUN TIME: 0 days 0 hours 1 minutes 37 seconds 320 msec
