                         Program Version 4.2.0 -  RELEASE  -
|  1> # 12h2o.su.etal.mol0,1,2,4,5,6,8,9,10
|  2> ! MP2 def2-TZVP EnGrad TightSCF
|  3>
|  4> %pal
|  5>     nprocs 6
|  6> end
|  7>
|  8> %maxcore 8000
|  9>
| 10> %scf
| 11>     ConvForced true
| 12> end
| 13>
| 14> *xyz 0 1
| 15> O   1.794470000   0.923410000   2.768350000
| 16> H   2.338250000   1.359750000   3.430940000
| 17> H   0.879480000   1.303000000   2.865760000
| 18> O  -1.794470000  -0.923410000   2.768350000
| 19> H  -2.338250000  -1.359750000   3.430940000
| 20> H  -0.879480000  -1.303000000   2.865760000
| 21> O   0.923410000  -1.794470000  -2.768350000
| 22> H   1.359750000  -2.338250000  -3.430940000
| 23> H   1.303000000  -0.879480000  -2.865760000
| 24> O  -0.885520000   1.737840000   0.052730000
| 25> H  -1.032320000   2.090180000  -0.841890000
| 26> H  -1.284090000   0.839590000   0.017130000
| 27> O   0.885520000  -1.737840000   0.052730000
| 28> H   1.284090000  -0.839590000   0.017130000
| 29> H   1.032320000  -2.090180000  -0.841890000
| 30> O   1.737840000   0.885520000  -0.052730000
| 31> H   2.090180000   1.032320000   0.841890000
| 32> H   0.839590000   1.284090000  -0.017130000
| 33> O   1.752130000   0.741530000  -2.896280000
| 34> H   2.036450000   0.920500000  -1.984040000
| 35> H   0.921210000   1.242140000  -2.984230000
| 36> O   0.741530000  -1.752130000   2.896280000
| 37> H   0.920500000  -2.036450000   1.984040000
| 38> H   1.242140000  -0.921210000   2.984230000
| 39> O  -0.923410000   1.794470000  -2.768350000
| 40> H  -1.359750000   2.338250000  -3.430940000
| 41> H  -1.303000000   0.879480000  -2.865760000
| 42> *
| 43>
| 44>                          ****END OF INPUT****

CARTESIAN COORDINATES (ANGSTROEM)
---------------------------------
  O      1.794470    0.923410    2.768350
  H      2.338250    1.359750    3.430940
  H      0.879480    1.303000    2.865760
  O     -1.794470   -0.923410    2.768350
  H     -2.338250   -1.359750    3.430940
  H     -0.879480   -1.303000    2.865760
  O      0.923410   -1.794470   -2.768350
  H      1.359750   -2.338250   -3.430940
  H      1.303000   -0.879480   -2.865760
  O     -0.885520    1.737840    0.052730
  H     -1.032320    2.090180   -0.841890
  H     -1.284090    0.839590    0.017130
  O      0.885520   -1.737840    0.052730
  H      1.284090   -0.839590    0.017130
  H      1.032320   -2.090180   -0.841890
  O      1.737840    0.885520   -0.052730
  H      2.090180    1.032320    0.841890
  H      0.839590    1.284090   -0.017130
  O      1.752130    0.741530   -2.896280
  H      2.036450    0.920500   -1.984040
  H      0.921210    1.242140   -2.984230
  O      0.741530   -1.752130    2.896280
  H      0.920500   -2.036450    1.984040
  H      1.242140   -0.921210    2.984230
  O     -0.923410    1.794470   -2.768350
  H     -1.359750    2.338250   -3.430940
  H     -1.303000    0.879480   -2.865760

 Total Charge           Charge          ....    0
 Multiplicity           Mult            ....    1
 Number of Electrons    NEL             ....   90
 Basis Dimension        Dim             ....  387

ORBITAL ENERGIES
----------------

  NO   OCC          E(Eh)            E(eV)
   0   2.0000     -20.626052      -561.2634
   1   2.0000     -20.609129      -560.8029
   2   2.0000     -20.574041      -559.8481
   3   2.0000     -20.555380      -559.3403
   4   2.0000     -20.554165      -559.3073
   5   2.0000     -20.534063      -558.7603
   6   2.0000     -20.527805      -558.5900
   7   2.0000     -20.508052      -558.0525
   8   2.0000     -20.500938      -557.8589
   9   2.0000      -1.406613       -38.2759
  10   2.0000      -1.389761       -37.8173
  11   2.0000      -1.361352       -37.0443
  12   2.0000      -1.350533       -36.7499
  13   2.0000      -1.339787       -36.4575
  14   2.0000      -1.322144       -35.9774
  15   2.0000      -1.317241       -35.8439
  16   2.0000      -1.292145       -35.1611
  17   2.0000      -1.281665       -34.8759
  18   2.0000      -0.771930       -21.0053
  19   2.0000      -0.754932       -20.5428
  20   2.0000      -0.723629       -19.6910
  21   2.0000      -0.721486       -19.6326
  22   2.0000      -0.711036       -19.3483
  23   2.0000      -0.700633       -19.0652
  24   2.0000      -0.689837       -18.7714
  25   2.0000      -0.673013       -18.3136
  26   2.0000      -0.667207       -18.1556
  27   2.0000      -0.649443       -17.6722
  28   2.0000      -0.634434       -17.2638
  29   2.0000      -0.609739       -16.5918
  30   2.0000      -0.604298       -16.4438
  31   2.0000      -0.585197       -15.9240
  32   2.0000      -0.572764       -15.5857
  33   2.0000      -0.567291       -15.4368
  34   2.0000      -0.554302       -15.0833
  35   2.0000      -0.545550       -14.8452
  36   2.0000      -0.534765       -14.5517
  37   2.0000      -0.519776       -14.1438
  38   2.0000      -0.513519       -13.9736
  39   2.0000      -0.498357       -13.5610
  40   2.0000      -0.494135       -13.4461
  41   2.0000      -0.481320       -13.0974
  42   2.0000      -0.469471       -12.7750
  43   2.0000      -0.459694       -12.5089
  44   2.0000      -0.451594       -12.2885
  45   0.0000       0.087886         2.3915
  46   0.0000       0.107865         2.9351
  47   0.0000       0.148906         4.0519
  48   0.0000       0.162893         4.4325
  49   0.0000       0.175113         4.7651

MULLIKEN ATOMIC CHARGES
-----------------------
   0 O :   -0.723677
   1 H :    0.363981
   2 H :    0.385946
   3 O :   -0.744791
   4 H :    0.319425
   5 H :    0.372033
   6 O :   -0.744014
   7 H :    0.333299
   8 H :    0.370650
   9 O :   -0.707145
  10 H :    0.374602
  11 H :    0.369471
  12 O :   -0.752080
  13 H :    0.343561
  14 H :    0.369090
  15 O :   -0.750213
  16 H :    0.378654
  17 H :    0.360333
  18 O :   -0.716234
  19 H :    0.388746
  20 H :    0.360650
  21 O :   -0.720430
  22 H :    0.389156
  23 H :    0.353939
  24 O :   -0.726003
  25 H :    0.370207
  26 H :    0.380846
Sum of atomic charges:    0.0000000

LOEWDIN ATOMIC CHARGES
----------------------
   0 O :   -0.287937
   1 H :    0.168013
   2 H :    0.197516
   3 O :   -0.379860
   4 H :    0.145864
   5 H :    0.142342
   6 O :   -0.345947
   7 H :    0.151725
   8 H :    0.142663
   9 O :   -0.296675
  10 H :    0.150998
  11 H :    0.182057
  12 O :   -0.351522
  13 H :    0.135596
  14 H :    0.148846
  15 O :   -0.303282
  16 H :    0.151223
  17 H :    0.141757
  18 O :   -0.286308
  19 H :    0.156782
  20 H :    0.146790
  21 O :   -0.291114
  22 H :    0.158000
  23 H :    0.144212
  24 O :   -0.288692
  25 H :    0.170835
  26 H :    0.196120

  Mayer bond orders larger than 0.100000
B(  0-O ,  1-H ) :   0.8325 B(  0-O ,  2-H ) :   0.8082 B(  3-O ,  4-H ) :   0.8632
B(  3-O ,  5-H ) :   0.7631 B(  5-H , 21-O ) :   0.1074 B(  6-O ,  7-H ) :   0.8524
B(  6-O ,  8-H ) :   0.7525 B(  8-H , 18-O ) :   0.1094 B(  9-O , 10-H ) :   0.8103
B(  9-O , 11-H ) :   0.8209 B(  9-O , 17-H ) :   0.1047 B( 12-O , 13-H ) :   0.7877
B( 12-O , 14-H ) :   0.8081 B( 15-O , 16-H ) :   0.8066 B( 15-O , 17-H ) :   0.7629
B( 18-O , 19-H ) :   0.7982 B( 18-O , 20-H ) :   0.8172 B( 21-O , 22-H ) :   0.7907
B( 21-O , 23-H ) :   0.8231 B( 24-O , 25-H ) :   0.8286 B( 24-O , 26-H ) :   0.8120

MP2 TOTAL ENERGY:     -686.915807182 Eh
FINAL SINGLE POINT ENERGY      -686.915807182144

DIPOLE MOMENT
-------------
                                X             Y             Z
Electronic contribution:      0.15941       0.49920      -0.11575
Nuclear contribution   :     -0.34371       1.47457      -0.77428
                        -----------------------------------------
Total Dipole Moment    :     -0.18429       1.97377      -0.89003
                        -----------------------------------------
Magnitude (a.u.)       :      2.17299
Magnitude (Debye)      :      5.52330

Rotational constants in cm-1:     0.029590     0.014787     0.013722
Rotational constants in MHz :   887.097330   443.317078   411.363132

                             ****ORCA TERMINATED NORMALLY****
TOTAL RUN TIME: 0 days 0 hours 4 minutes 34 seconds 46 msec
