                         Program Version 4.2.0 -  RELEASE  -
|  1> # 12h2o.su.etal.mol0,5,7,8,10,11
|  2> ! MP2 def2-TZVP EnGrad TightSCF
|  3>
|  4> %pal
|  5>     nprocs 6
|  6> end
|  7>
|  8> %maxcore 8000
|  9>
| 10> %scf
| 11>     ConvForced true
| 12> end
| 13>
| 14> *xyz 0 1
| 15> O   1.794470000   0.923410000   2.768350000
| 16> H   2.338250000   1.359750000   3.430940000
| 17> H   0.879480000   1.303000000   2.865760000
| 18> O   0.885520000  -1.737840000   0.052730000
| 19> H   1.284090000  -0.839590000   0.017130000
| 20> H   1.032320000  -2.090180000  -0.841890000
| 21> O  -1.737840000  -0.885520000  -0.052730000
| 22> H  -2.090180000  -1.032320000   0.841890000
| 23> H  -0.839590000  -1.284090000  -0.017130000
| 24> O   1.752130000   0.741530000  -2.896280000
| 25> H   2.036450000   0.920500000  -1.984040000
| 26> H   0.921210000   1.242140000  -2.984230000
| 27> O  -0.923410000   1.794470000  -2.768350000
| 28> H  -1.359750000   2.338250000  -3.430940000
| 29> H  -1.303000000   0.879480000  -2.865760000
| 30> O  -0.741530000   1.752130000   2.896280000
| 31> H  -0.920500000   2.036450000   1.984040000
| 32> H  -1.242140000   0.921210000   2.984230000
| 33> *
| 34>
| 35>                          ****END OF INPUT****

CARTESIAN COORDINATES (ANGSTROEM)
---------------------------------
  O      1.794470    0.923410    2.768350
  H      2.338250    1.359750    3.430940
  H      0.879480    1.303000    2.865760
  O      0.885520   -1.737840    0.052730
  H      1.284090   -0.839590    0.017130
  H      1.032320   -2.090180   -0.841890
  O     -1.737840   -0.885520   -0.052730
  H     -2.090180   -1.032320    0.841890
  H     -0.839590   -1.284090   -0.017130
  O      1.752130    0.741530   -2.896280
  H      2.036450    0.920500   -1.984040
  H      0.921210    1.242140   -2.984230
  O     -0.923410    1.794470   -2.768350
  H     -1.359750    2.338250   -3.430940
  H     -1.303000    0.879480   -2.865760
  O     -0.741530    1.752130    2.896280
  H     -0.920500    2.036450    1.984040
  H     -1.242140    0.921210    2.984230

 Total Charge           Charge          ....    0
 Multiplicity           Mult            ....    1
 Number of Electrons    NEL             ....   60
 Basis Dimension        Dim             ....  258

ORBITAL ENERGIES
----------------

  NO   OCC          E(Eh)            E(eV)
   0   2.0000     -20.598742      -560.5203
   1   2.0000     -20.587930      -560.2261
   2   2.0000     -20.586133      -560.1772
   3   2.0000     -20.542428      -558.9879
   4   2.0000     -20.542198      -558.9816
   5   2.0000     -20.524281      -558.4941
   6   2.0000      -1.384035       -37.6615
   7   2.0000      -1.367014       -37.1984
   8   2.0000      -1.365725       -37.1633
   9   2.0000      -1.324146       -36.0318
  10   2.0000      -1.322766       -35.9943
  11   2.0000      -1.306470       -35.5509
  12   2.0000      -0.741525       -20.1779
  13   2.0000      -0.732832       -19.9414
  14   2.0000      -0.724056       -19.7026
  15   2.0000      -0.697366       -18.9763
  16   2.0000      -0.696470       -18.9519
  17   2.0000      -0.692605       -18.8467
  18   2.0000      -0.619890       -16.8681
  19   2.0000      -0.608925       -16.5697
  20   2.0000      -0.606655       -16.5079
  21   2.0000      -0.570716       -15.5300
  22   2.0000      -0.564016       -15.3477
  23   2.0000      -0.562175       -15.2976
  24   2.0000      -0.526633       -14.3304
  25   2.0000      -0.519397       -14.1335
  26   2.0000      -0.518512       -14.1094
  27   2.0000      -0.490290       -13.3415
  28   2.0000      -0.489332       -13.3154
  29   2.0000      -0.474676       -12.9166
  30   0.0000       0.086456         2.3526
  31   0.0000       0.113956         3.1009
  32   0.0000       0.131862         3.5882
  33   0.0000       0.153511         4.1772
  34   0.0000       0.175226         4.7681

MULLIKEN ATOMIC CHARGES
-----------------------
   0 O :   -0.734670
   1 H :    0.328093
   2 H :    0.365285
   3 O :   -0.682691
   4 H :    0.360566
   5 H :    0.357908
   6 O :   -0.716510
   7 H :    0.320262
   8 H :    0.358395
   9 O :   -0.703815
  10 H :    0.324607
  11 H :    0.360789
  12 O :   -0.699717
  13 H :    0.351501
  14 H :    0.369221
  15 O :   -0.678602
  16 H :    0.364758
  17 H :    0.354621
Sum of atomic charges:   -0.0000000

LOEWDIN ATOMIC CHARGES
----------------------
   0 O :   -0.373422
   1 H :    0.150368
   2 H :    0.141716
   3 O :   -0.287118
   4 H :    0.179140
   5 H :    0.172905
   6 O :   -0.363126
   7 H :    0.154084
   8 H :    0.142938
   9 O :   -0.346015
  10 H :    0.156301
  11 H :    0.148568
  12 O :   -0.311830
  13 H :    0.163277
  14 H :    0.191211
  15 O :   -0.269744
  16 H :    0.176937
  17 H :    0.173811

  Mayer bond orders larger than 0.100000
B(  0-O ,  1-H ) :   0.8589 B(  0-O ,  2-H ) :   0.7857 B(  3-O ,  4-H ) :   0.8273
B(  3-O ,  5-H ) :   0.8359 B(  6-O ,  7-H ) :   0.8621 B(  6-O ,  8-H ) :   0.7887
B(  9-O , 10-H ) :   0.8592 B(  9-O , 11-H ) :   0.8126 B( 12-O , 13-H ) :   0.8420
B( 12-O , 14-H ) :   0.8230 B( 15-O , 16-H ) :   0.8316 B( 15-O , 17-H ) :   0.8377

MP2 TOTAL ENERGY:     -457.908837923 Eh
FINAL SINGLE POINT ENERGY      -457.908837923269

DIPOLE MOMENT
-------------
                                X             Y             Z
Electronic contribution:     -0.05039       0.00488      -0.04603
Nuclear contribution   :     -1.10041       0.48130       0.00000
                        -----------------------------------------
Total Dipole Moment    :     -1.15081       0.48619      -0.04603
                        -----------------------------------------
Magnitude (a.u.)       :      1.25014
Magnitude (Debye)      :      3.17760

Rotational constants in cm-1:     0.042745     0.021972     0.021319
Rotational constants in MHz :  1281.464548   658.699971   639.125996

                             ****ORCA TERMINATED NORMALLY****
TOTAL RUN TIME: 0 days 0 hours 0 minutes 52 seconds 159 msec
