                         Program Version 4.2.0 -  RELEASE  -
|  1> # 12h2o.su.etal.mol1,2,3,7,8
|  2> ! MP2 def2-TZVP EnGrad TightSCF
|  3>
|  4> %pal
|  5>     nprocs 6
|  6> end
|  7>
|  8> %maxcore 8000
|  9>
| 10> %scf
| 11>     ConvForced true
| 12> end
| 13>
| 14> *xyz 0 1
| 15> O  -1.794470000  -0.923410000   2.768350000
| 16> H  -2.338250000  -1.359750000   3.430940000
| 17> H  -0.879480000  -1.303000000   2.865760000
| 18> O   0.923410000  -1.794470000  -2.768350000
| 19> H   1.359750000  -2.338250000  -3.430940000
| 20> H   1.303000000  -0.879480000  -2.865760000
| 21> O  -1.752130000  -0.741530000  -2.896280000
| 22> H  -2.036450000  -0.920500000  -1.984040000
| 23> H  -0.921210000  -1.242140000  -2.984230000
| 24> O  -1.737840000  -0.885520000  -0.052730000
| 25> H  -2.090180000  -1.032320000   0.841890000
| 26> H  -0.839590000  -1.284090000  -0.017130000
| 27> O   1.752130000   0.741530000  -2.896280000
| 28> H   2.036450000   0.920500000  -1.984040000
| 29> H   0.921210000   1.242140000  -2.984230000
| 30> *
| 31>
| 32>                          ****END OF INPUT****

CARTESIAN COORDINATES (ANGSTROEM)
---------------------------------
  O     -1.794470   -0.923410    2.768350
  H     -2.338250   -1.359750    3.430940
  H     -0.879480   -1.303000    2.865760
  O      0.923410   -1.794470   -2.768350
  H      1.359750   -2.338250   -3.430940
  H      1.303000   -0.879480   -2.865760
  O     -1.752130   -0.741530   -2.896280
  H     -2.036450   -0.920500   -1.984040
  H     -0.921210   -1.242140   -2.984230
  O     -1.737840   -0.885520   -0.052730
  H     -2.090180   -1.032320    0.841890
  H     -0.839590   -1.284090   -0.017130
  O      1.752130    0.741530   -2.896280
  H      2.036450    0.920500   -1.984040
  H      0.921210    1.242140   -2.984230

 Total Charge           Charge          ....    0
 Multiplicity           Mult            ....    1
 Number of Electrons    NEL             ....   50
 Basis Dimension        Dim             ....  215

ORBITAL ENERGIES
----------------

  NO   OCC          E(Eh)            E(eV)
   0   2.0000     -20.597773      -560.4939
   1   2.0000     -20.596224      -560.4518
   2   2.0000     -20.547847      -559.1353
   3   2.0000     -20.541103      -558.9518
   4   2.0000     -20.490146      -557.5652
   5   2.0000      -1.381955       -37.6049
   6   2.0000      -1.375654       -37.4335
   7   2.0000      -1.329245       -36.1706
   8   2.0000      -1.325099       -36.0578
   9   2.0000      -1.275231       -34.7008
  10   2.0000      -0.742599       -20.2072
  11   2.0000      -0.738612       -20.0986
  12   2.0000      -0.710612       -19.3367
  13   2.0000      -0.698442       -19.0056
  14   2.0000      -0.652032       -17.7427
  15   2.0000      -0.620550       -16.8860
  16   2.0000      -0.613598       -16.6968
  17   2.0000      -0.580254       -15.7895
  18   2.0000      -0.568854       -15.4793
  19   2.0000      -0.538596       -14.6560
  20   2.0000      -0.526751       -14.3336
  21   2.0000      -0.514156       -13.9909
  22   2.0000      -0.493325       -13.4241
  23   2.0000      -0.483892       -13.1674
  24   2.0000      -0.440515       -11.9870
  25   0.0000       0.096269         2.6196
  26   0.0000       0.113644         3.0924
  27   0.0000       0.161783         4.4023
  28   0.0000       0.166911         4.5419
  29   0.0000       0.193953         5.2777

MULLIKEN ATOMIC CHARGES
-----------------------
   0 O :   -0.690858
   1 H :    0.353656
   2 H :    0.350495
   3 O :   -0.737421
   4 H :    0.338257
   5 H :    0.376553
   6 O :   -0.739099
   7 H :    0.367150
   8 H :    0.344225
   9 O :   -0.707453
  10 H :    0.371162
  11 H :    0.328940
  12 O :   -0.686500
  13 H :    0.356582
  14 H :    0.374313
Sum of atomic charges:   -0.0000000

LOEWDIN ATOMIC CHARGES
----------------------
   0 O :   -0.309212
   1 H :    0.164197
   2 H :    0.183906
   3 O :   -0.341208
   4 H :    0.154313
   5 H :    0.144515
   6 O :   -0.361916
   7 H :    0.149053
   8 H :    0.139412
   9 O :   -0.326039
  10 H :    0.151750
  11 H :    0.165844
  12 O :   -0.270717
  13 H :    0.174079
  14 H :    0.182023

  Mayer bond orders larger than 0.100000
B(  0-O ,  1-H ) :   0.8410 B(  0-O ,  2-H ) :   0.8373 B(  3-O ,  4-H ) :   0.8502
B(  3-O ,  5-H ) :   0.7673 B(  6-O ,  7-H ) :   0.8230 B(  6-O ,  8-H ) :   0.8228
B(  9-O , 10-H ) :   0.8114 B(  9-O , 11-H ) :   0.8492 B( 12-O , 13-H ) :   0.8384
B( 12-O , 14-H ) :   0.8222

MP2 TOTAL ENERGY:     -381.596232667 Eh
FINAL SINGLE POINT ENERGY      -381.596232666653

DIPOLE MOMENT
-------------
                                X             Y             Z
Electronic contribution:     -0.05031       0.40535       0.00335
Nuclear contribution   :      1.44252      -0.82411       2.14649
                        -----------------------------------------
Total Dipole Moment    :      1.39221      -0.41876       2.14984
                        -----------------------------------------
Magnitude (a.u.)       :      2.59527
Magnitude (Debye)      :      6.59665

Rotational constants in cm-1:     0.099292     0.027004     0.024434
Rotational constants in MHz :  2976.711426   809.547677   732.508237

                             ****ORCA TERMINATED NORMALLY****
TOTAL RUN TIME: 0 days 0 hours 0 minutes 32 seconds 794 msec
