                         Program Version 3.0.3 - RELEASE   -
|  1> ! BP86 Def2-SVP TightSCF Opt D3BJ
|  2>
|  3> %pal nprocs 12 end
|  4>
|  5> %scf
|  6>         maxiter 800
|  7> end
|  8>
|  9> * xyz  0  1
| 10> O  2.46793511	2.42808996	-0.26617260
| 11> H  3.01325526	3.21038183	-0.18324361
| 12> H  1.64370351	2.74789291	-0.63305159
| 13> O  -0.17644379	-1.12465701	3.09774534
| 14> H  0.39459607	-0.44770437	2.73459186
| 15> H  -1.06290257	-0.79342700	2.95383784
| 16> O  0.15853391	1.07724075	-3.29720566
| 17> H  1.02618282	0.81538376	-2.98923143
| 18> H  0.25228399	1.14784924	-4.24718314
| 19> O  -2.68029785	-0.31902378	2.18434789
| 20> H  -2.67607104	-1.03879978	1.55336730
| 21> H  -3.54500168	-0.36277140	2.59252098
| 22> O  2.48557795	0.36840608	-2.13967595
| 23> H  2.26170711	-0.39109152	-1.60183110
| 24> H  2.65917522	1.06671217	-1.50843555
| 25> O  1.19061698	-1.44066307	-0.44271214
| 26> H  0.36918374	-1.19489692	-0.86824506
| 27> H  0.96047967	-2.18747292	0.11004794
| 28> O  1.21244739	0.58340704	1.37065897
| 29> H  1.76828704	1.26610656	0.99489909
| 30> H  1.30336810	-0.15713882	0.77102815
| 31> O  -1.15555541	-0.50747327	-1.44783736
| 32> H  -0.85599288	-0.04854189	-2.23261511
| 33> H  -1.28277959	0.18462281	-0.79895458
| 34> O  -2.36806392	-2.27128460	0.35441907
| 35> H  -2.08784007	-1.81212876	-0.43733996
| 36> H  -1.58942248	-2.74641077	0.64459915
| 37> O  0.05382396	-3.18631414	1.37902525
| 38> H  0.00618154	-2.52447876	2.06890639
| 39> H  0.27949091	-3.99547574	1.83789754
| 40> O  -1.24750867	1.36474110	0.51990395
| 41> H  -0.38977246	1.16742762	0.89618554
| 42> H  -1.87277505	0.96991779	1.12767721
| 43> O  0.05892497	3.02753236	-1.31249594
| 44> H  -0.56846247	2.65092472	-0.69541934
| 45> H  -0.00686023	2.47311704	-2.09000980
| 46> **                         ****END OF INPUT****
 Total Charge           Charge          ....    0
 Multiplicity           Mult            ....    1
 Number of Electrons    NEL             ....  120
Dispersion correction           -0.038759810
FINAL SINGLE POINT ENERGY      -916.645821017148
Dispersion correction            ...
Dispersion correction           -0.038199312
FINAL SINGLE POINT ENERGY      -916.668452097740
Dispersion correction            ...
Dispersion correction           -0.038383714
FINAL SINGLE POINT ENERGY      -916.675057725236
Dispersion correction            ...
FINAL SINGLE POINT ENERGY      -916.678216162323
FINAL SINGLE POINT ENERGY      -916.680701811492
FINAL SINGLE POINT ENERGY      -916.682728781904
FINAL SINGLE POINT ENERGY      -916.684252683743
FINAL SINGLE POINT ENERGY      -916.685262404059
FINAL SINGLE POINT ENERGY      -916.685798454157
FINAL SINGLE POINT ENERGY      -916.685983737679
FINAL SINGLE POINT ENERGY      -916.687933971651
FINAL SINGLE POINT ENERGY      -916.687960761541
FINAL SINGLE POINT ENERGY      -916.687986241618
FINAL SINGLE POINT ENERGY      -916.688008188453
FINAL SINGLE POINT ENERGY      -916.688028637328
FINAL SINGLE POINT ENERGY      -916.688050873040
FINAL SINGLE POINT ENERGY      -916.688072390883
Dispersion correction            ...
Dispersion correction           -0.041358571
FINAL SINGLE POINT ENERGY      -916.688088011795
Dispersion correction            ...
Dispersion correction           -0.041358938
FINAL SINGLE POINT ENERGY      -916.688096232394
Dispersion correction            ...
                    ***********************HURRAY********************

CARTESIAN COORDINATES (ANGSTROEM)
---------------------------------
  O      2.279363    2.297839   -0.284430
  H      2.871367    3.061369   -0.157426
  H      1.388663    2.680307   -0.675004
  O     -0.107418   -1.122614    3.087626
  H      0.482500   -0.421884    2.698435
  H     -1.026222   -0.780723    2.895615
  O      0.200515    1.013535   -3.087602
  H      1.155765    0.715447   -2.784522
  H      0.231979    1.095745   -4.058130
  O     -2.496585   -0.336838    2.046678
  H     -2.532603   -1.120239    1.352221
  H     -3.363033   -0.330253    2.492270
  O      2.473108    0.308701   -2.137483
  H      2.224405   -0.472378   -1.572680
  H      2.600587    1.042525   -1.471117
  O      1.174662   -1.374768   -0.460546
  H      0.282165   -1.114766   -0.871780
  H      0.942771   -2.162910    0.109820
  O      1.165336    0.530008    1.364990
  H      1.742669    1.250870    0.979955
  H      1.245195   -0.225200    0.686579
  O     -1.149560   -0.514798   -1.379943
  H     -0.835277   -0.045163   -2.205528
  H     -1.232770    0.236074   -0.697147
  O     -2.398732   -2.217364    0.314790
  H     -2.095857   -1.737076   -0.502766
  H     -1.574065   -2.686790    0.626566
  O      0.017407   -2.974402    1.321296
  H     -0.004878   -2.271951    2.097191
  H      0.263075   -3.823146    1.732016
  O     -1.186279    1.357325    0.478366
  H     -0.290540    1.100572    0.883978
  H     -1.846443    0.955872    1.113834
  O      0.026744    3.036563   -1.264665
  H     -0.613865    2.629320   -0.620330
  H     -0.014143    2.421192   -2.051125

 Multiplicity           Mult            ....    1
 Number of Electrons    NEL             ....  120
 Basis Dimension        Dim             ....  288

ORBITAL ENERGIES
----------------

  NO   OCC          E(Eh)            E(eV)
   0   2.0000     -18.788232      -511.2538
   1   2.0000     -18.788134      -511.2511
   2   2.0000     -18.788018      -511.2480
   3   2.0000     -18.787769      -511.2412
   4   2.0000     -18.770318      -510.7663
   5   2.0000     -18.770165      -510.7622
   6   2.0000     -18.770035      -510.7586
   7   2.0000     -18.769812      -510.7526
   8   2.0000     -18.766529      -510.6632
   9   2.0000     -18.766214      -510.6546
  10   2.0000     -18.766024      -510.6495
  11   2.0000     -18.765842      -510.6445
  12   2.0000      -0.929134       -25.2830
  13   2.0000      -0.920929       -25.0598
  14   2.0000      -0.912180       -24.8217
  15   2.0000      -0.912038       -24.8178
  16   2.0000      -0.905954       -24.6523
  17   2.0000      -0.897053       -24.4101
  18   2.0000      -0.896897       -24.4058
  19   2.0000      -0.885920       -24.1071
  20   2.0000      -0.883212       -24.0334
  21   2.0000      -0.882990       -24.0274
  22   2.0000      -0.879160       -23.9232
  23   2.0000      -0.864271       -23.5180
  24   2.0000      -0.488974       -13.3057
  25   2.0000      -0.486422       -13.2362
  26   2.0000      -0.485923       -13.2226
  27   2.0000      -0.485797       -13.2192
  28   2.0000      -0.475661       -12.9434
  29   2.0000      -0.469310       -12.7706
  30   2.0000      -0.468416       -12.7463
  31   2.0000      -0.467860       -12.7311
  32   2.0000      -0.453060       -12.3284
  33   2.0000      -0.450061       -12.2468
  34   2.0000      -0.448422       -12.2022
  35   2.0000      -0.448094       -12.1933
  36   2.0000      -0.413401       -11.2492
  37   2.0000      -0.384028       -10.4499
  38   2.0000      -0.372633       -10.1399
  39   2.0000      -0.371741       -10.1156
  40   2.0000      -0.344875        -9.3845
  41   2.0000      -0.344685        -9.3794
  42   2.0000      -0.343185        -9.3385
  43   2.0000      -0.341986        -9.3059
  44   2.0000      -0.315969        -8.5980
  45   2.0000      -0.315659        -8.5895
  46   2.0000      -0.310589        -8.4515
  47   2.0000      -0.285663        -7.7733
  48   2.0000      -0.272949        -7.4273
  49   2.0000      -0.272758        -7.4221
  50   2.0000      -0.270867        -7.3707
  51   2.0000      -0.270642        -7.3645
  52   2.0000      -0.259691        -7.0665
  53   2.0000      -0.259372        -7.0579
  54   2.0000      -0.258984        -7.0473
  55   2.0000      -0.254519        -6.9258
  56   2.0000      -0.253538        -6.8991
  57   2.0000      -0.252104        -6.8601
  58   2.0000      -0.251986        -6.8569
  59   2.0000      -0.250660        -6.8208
  60   0.0000       0.007098         0.1931
  61   0.0000       0.026012         0.7078
  62   0.0000       0.037247         1.0136
  63   0.0000       0.038492         1.0474
  64   0.0000       0.082831         2.2540

MULLIKEN ATOMIC CHARGES
-----------------------
   0 O :   -0.340904
   1 H :    0.185709
   2 H :    0.166140
   3 O :   -0.306741
   4 H :    0.172425
   5 H :    0.146920
   6 O :   -0.339647
   7 H :    0.168345
   8 H :    0.185357
   9 O :   -0.337178
  10 H :    0.166905
  11 H :    0.185034
  12 O :   -0.308487
  13 H :    0.171914
  14 H :    0.151789
  15 O :   -0.327018
  16 H :    0.132274
  17 H :    0.166350
  18 O :   -0.328723
  19 H :    0.169541
  20 H :    0.134118
  21 O :   -0.330540
  22 H :    0.168040
  23 H :    0.135790
  24 O :   -0.306439
  25 H :    0.172505
  26 H :    0.149180
  27 O :   -0.337268
  28 H :    0.166624
  29 H :    0.184770
  30 O :   -0.326349
  31 H :    0.127787
  32 H :    0.167060
  33 O :   -0.308816
  34 H :    0.173330
  35 H :    0.150202
Sum of atomic charges:   -0.0000000

LOEWDIN ATOMIC CHARGES
----------------------
   0 O :   -0.101479
   1 H :    0.086844
   2 H :    0.030915
   3 O :   -0.079893
   4 H :    0.052950
   5 H :    0.038668
   6 O :   -0.100989
   7 H :    0.030955
   8 H :    0.086584
   9 O :   -0.100577
  10 H :    0.030029
  11 H :    0.086523
  12 O :   -0.080555
  13 H :    0.052612
  14 H :    0.040696
  15 O :   -0.094012
  16 H :    0.024961
  17 H :    0.042055
  18 O :   -0.097934
  19 H :    0.042854
  20 H :    0.024867
  21 O :   -0.097829
  22 H :    0.042088
  23 H :    0.025373
  24 O :   -0.077849
  25 H :    0.053261
  26 H :    0.039888
  27 O :   -0.101548
  28 H :    0.030626
  29 H :    0.086474
  30 O :   -0.094120
  31 H :    0.024245
  32 H :    0.041956
  33 O :   -0.081961
  34 H :    0.053006
  35 H :    0.040316

  Mayer bond orders larger than 0.1
B(  0-O ,  1-H ) :   0.9759 B(  0-O ,  2-H ) :   0.7669 B(  0-O , 14-H ) :   0.1872
B(  0-O , 19-H ) :   0.1891 B(  2-H , 33-O ) :   0.3102 B(  3-O ,  4-H ) :   0.9118
B(  3-O ,  5-H ) :   0.8965 B(  3-O , 28-H ) :   0.3063 B(  4-H , 18-O ) :   0.1523
B(  5-H ,  9-O ) :   0.1929 B(  6-O ,  7-H ) :   0.7666 B(  6-O ,  8-H ) :   0.9761
B(  6-O , 22-H ) :   0.1922 B(  6-O , 35-H ) :   0.1894 B(  7-H , 12-O ) :   0.3091
B(  9-O , 10-H ) :   0.7675 B(  9-O , 11-H ) :   0.9753 B(  9-O , 32-H ) :   0.1934
B( 10-H , 24-O ) :   0.3070 B( 12-O , 13-H ) :   0.9110 B( 12-O , 14-H ) :   0.8977
B( 13-H , 15-O ) :   0.1525 B( 15-O , 16-H ) :   0.8247 B( 15-O , 17-H ) :   0.8787
B( 15-O , 20-H ) :   0.2590 B( 16-H , 21-O ) :   0.2644 B( 17-H , 27-O ) :   0.1928
B( 18-O , 19-H ) :   0.8781 B( 18-O , 20-H ) :   0.8258 B( 18-O , 31-H ) :   0.2654
B( 21-O , 22-H ) :   0.8769 B( 21-O , 23-H ) :   0.8261 B( 21-O , 25-H ) :   0.1523
B( 23-H , 30-O ) :   0.2568 B( 24-O , 25-H ) :   0.9107 B( 24-O , 26-H ) :   0.8969
B( 26-H , 27-O ) :   0.1912 B( 27-O , 28-H ) :   0.7688 B( 27-O , 29-H ) :   0.9752
B( 30-O , 31-H ) :   0.8261 B( 30-O , 32-H ) :   0.8787 B( 30-O , 34-H ) :   0.1516
B( 33-O , 34-H ) :   0.9106 B( 33-O , 35-H ) :   0.8967

Dispersion correction           -0.041362303
FINAL SINGLE POINT ENERGY      -916.688101307987

DIPOLE MOMENT
-------------
                                X             Y             Z
Electronic contribution:     -0.00228      -0.00377      -0.00880
Nuclear contribution   :      0.00360      -0.00796       0.00230
                        -----------------------------------------
Total Dipole Moment    :      0.00132      -0.01173      -0.00649
                        -----------------------------------------
Magnitude (a.u.)       :      0.01347
Magnitude (Debye)      :      0.03425

                             ****ORCA TERMINATED NORMALLY****
TOTAL RUN TIME: 0 days 0 hours 30 minutes 4 seconds 711 msec
