                         Program Version 4.2.0 -  RELEASE  -
|  1> # 12h2o.su.etal.mol0,3,4,6,7,8,10,11
|  2> ! MP2 def2-TZVP EnGrad TightSCF
|  3>
|  4> %pal
|  5>     nprocs 6
|  6> end
|  7>
|  8> %maxcore 8000
|  9>
| 10> %scf
| 11>     ConvForced true
| 12> end
| 13>
| 14> *xyz 0 1
| 15> O   1.794470000   0.923410000   2.768350000
| 16> H   2.338250000   1.359750000   3.430940000
| 17> H   0.879480000   1.303000000   2.865760000
| 18> O  -1.752130000  -0.741530000  -2.896280000
| 19> H  -2.036450000  -0.920500000  -1.984040000
| 20> H  -0.921210000  -1.242140000  -2.984230000
| 21> O  -0.885520000   1.737840000   0.052730000
| 22> H  -1.032320000   2.090180000  -0.841890000
| 23> H  -1.284090000   0.839590000   0.017130000
| 24> O   1.737840000   0.885520000  -0.052730000
| 25> H   2.090180000   1.032320000   0.841890000
| 26> H   0.839590000   1.284090000  -0.017130000
| 27> O  -1.737840000  -0.885520000  -0.052730000
| 28> H  -2.090180000  -1.032320000   0.841890000
| 29> H  -0.839590000  -1.284090000  -0.017130000
| 30> O   1.752130000   0.741530000  -2.896280000
| 31> H   2.036450000   0.920500000  -1.984040000
| 32> H   0.921210000   1.242140000  -2.984230000
| 33> O  -0.923410000   1.794470000  -2.768350000
| 34> H  -1.359750000   2.338250000  -3.430940000
| 35> H  -1.303000000   0.879480000  -2.865760000
| 36> O  -0.741530000   1.752130000   2.896280000
| 37> H  -0.920500000   2.036450000   1.984040000
| 38> H  -1.242140000   0.921210000   2.984230000
| 39> *
| 40>
| 41>                          ****END OF INPUT****

CARTESIAN COORDINATES (ANGSTROEM)
---------------------------------
  O      1.794470    0.923410    2.768350
  H      2.338250    1.359750    3.430940
  H      0.879480    1.303000    2.865760
  O     -1.752130   -0.741530   -2.896280
  H     -2.036450   -0.920500   -1.984040
  H     -0.921210   -1.242140   -2.984230
  O     -0.885520    1.737840    0.052730
  H     -1.032320    2.090180   -0.841890
  H     -1.284090    0.839590    0.017130
  O      1.737840    0.885520   -0.052730
  H      2.090180    1.032320    0.841890
  H      0.839590    1.284090   -0.017130
  O     -1.737840   -0.885520   -0.052730
  H     -2.090180   -1.032320    0.841890
  H     -0.839590   -1.284090   -0.017130
  O      1.752130    0.741530   -2.896280
  H      2.036450    0.920500   -1.984040
  H      0.921210    1.242140   -2.984230
  O     -0.923410    1.794470   -2.768350
  H     -1.359750    2.338250   -3.430940
  H     -1.303000    0.879480   -2.865760
  O     -0.741530    1.752130    2.896280
  H     -0.920500    2.036450    1.984040
  H     -1.242140    0.921210    2.984230

 Total Charge           Charge          ....    0
 Multiplicity           Mult            ....    1
 Number of Electrons    NEL             ....   80
 Basis Dimension        Dim             ....  344

ORBITAL ENERGIES
----------------

  NO   OCC          E(Eh)            E(eV)
   0   2.0000     -20.644116      -561.7550
   1   2.0000     -20.592490      -560.3501
   2   2.0000     -20.587236      -560.2072
   3   2.0000     -20.570827      -559.7607
   4   2.0000     -20.567067      -559.6584
   5   2.0000     -20.539127      -558.8981
   6   2.0000     -20.511540      -558.1474
   7   2.0000     -20.492486      -557.6289
   8   2.0000      -1.427543       -38.8454
   9   2.0000      -1.382380       -37.6165
  10   2.0000      -1.378254       -37.5042
  11   2.0000      -1.362648       -37.0795
  12   2.0000      -1.348682       -36.6995
  13   2.0000      -1.324094       -36.0304
  14   2.0000      -1.298273       -35.3278
  15   2.0000      -1.276839       -34.7446
  16   2.0000      -0.785704       -21.3801
  17   2.0000      -0.744471       -20.2581
  18   2.0000      -0.743061       -20.2197
  19   2.0000      -0.733480       -19.9590
  20   2.0000      -0.731335       -19.9006
  21   2.0000      -0.708452       -19.2779
  22   2.0000      -0.680178       -18.5086
  23   2.0000      -0.671050       -18.2602
  24   2.0000      -0.655645       -17.8410
  25   2.0000      -0.635214       -17.2850
  26   2.0000      -0.621690       -16.9170
  27   2.0000      -0.608989       -16.5714
  28   2.0000      -0.584096       -15.8941
  29   2.0000      -0.578087       -15.7305
  30   2.0000      -0.571167       -15.5422
  31   2.0000      -0.555265       -15.1095
  32   2.0000      -0.533427       -14.5153
  33   2.0000      -0.524591       -14.2749
  34   2.0000      -0.518532       -14.1100
  35   2.0000      -0.507279       -13.8038
  36   2.0000      -0.502000       -13.6601
  37   2.0000      -0.485006       -13.1977
  38   2.0000      -0.463173       -12.6036
  39   2.0000      -0.442538       -12.0421
  40   0.0000       0.065075         1.7708
  41   0.0000       0.120736         3.2854
  42   0.0000       0.141841         3.8597
  43   0.0000       0.152950         4.1620
  44   0.0000       0.176836         4.8120

MULLIKEN ATOMIC CHARGES
-----------------------
   0 O :   -0.739029
   1 H :    0.335467
   2 H :    0.370292
   3 O :   -0.698305
   4 H :    0.383199
   5 H :    0.365211
   6 O :   -0.748712
   7 H :    0.390535
   8 H :    0.348366
   9 O :   -0.752285
  10 H :    0.369207
  11 H :    0.343710
  12 O :   -0.720014
  13 H :    0.368768
  14 H :    0.386052
  15 O :   -0.739196
  16 H :    0.373205
  17 H :    0.341809
  18 O :   -0.750350
  19 H :    0.350173
  20 H :    0.383892
  21 O :   -0.686981
  22 H :    0.393581
  23 H :    0.331404
Sum of atomic charges:    0.0000000

LOEWDIN ATOMIC CHARGES
----------------------
   0 O :   -0.342763
   1 H :    0.152880
   2 H :    0.143370
   3 O :   -0.271340
   4 H :    0.156973
   5 H :    0.177799
   6 O :   -0.301558
   7 H :    0.155689
   8 H :    0.137687
   9 O :   -0.352276
  10 H :    0.148366
  11 H :    0.134889
  12 O :   -0.276617
  13 H :    0.177199
  14 H :    0.191124
  15 O :   -0.362086
  16 H :    0.150759
  17 H :    0.137480
  18 O :   -0.312577
  19 H :    0.159310
  20 H :    0.146607
  21 O :   -0.273388
  22 H :    0.159301
  23 H :    0.163173

  Mayer bond orders larger than 0.100000
B(  0-O ,  1-H ) :   0.8515 B(  0-O ,  2-H ) :   0.7658 B(  3-O ,  4-H ) :   0.8110
B(  3-O ,  5-H ) :   0.8278 B(  6-O ,  7-H ) :   0.7871 B(  6-O ,  8-H ) :   0.7904
B(  9-O , 10-H ) :   0.8080 B(  9-O , 11-H ) :   0.7928 B( 12-O , 13-H ) :   0.8288
B( 12-O , 14-H ) :   0.8084 B( 15-O , 16-H ) :   0.8128 B( 15-O , 17-H ) :   0.8321
B( 18-O , 19-H ) :   0.8407 B( 18-O , 20-H ) :   0.7443 B( 21-O , 22-H ) :   0.7916
B( 21-O , 23-H ) :   0.8520

MP2 TOTAL ENERGY:     -610.587135181 Eh
FINAL SINGLE POINT ENERGY      -610.587135181385

DIPOLE MOMENT
-------------
                                X             Y             Z
Electronic contribution:     -0.43660      -0.21415      -0.15612
Nuclear contribution   :     -2.00773      -0.53919       1.46039
                        -----------------------------------------
Total Dipole Moment    :     -2.44432      -0.75335       1.30426
                        -----------------------------------------
Magnitude (a.u.)       :      2.87112
Magnitude (Debye)      :      7.29782

Rotational constants in cm-1:     0.039459     0.019349     0.016011
Rotational constants in MHz :  1182.941262   580.075200   480.005584

                             ****ORCA TERMINATED NORMALLY****
TOTAL RUN TIME: 0 days 0 hours 4 minutes 18 seconds 979 msec
