                         Program Version 4.2.0 -  RELEASE  -
|  1> # 12h2o.su.etal.mol2,3,4,5,6,7,8,9,11
|  2> ! MP2 def2-TZVP EnGrad TightSCF
|  3>
|  4> %pal
|  5>     nprocs 6
|  6> end
|  7>
|  8> %maxcore 8000
|  9>
| 10> %scf
| 11>     ConvForced true
| 12> end
| 13>
| 14> *xyz 0 1
| 15> O   0.923410000  -1.794470000  -2.768350000
| 16> H   1.359750000  -2.338250000  -3.430940000
| 17> H   1.303000000  -0.879480000  -2.865760000
| 18> O  -1.752130000  -0.741530000  -2.896280000
| 19> H  -2.036450000  -0.920500000  -1.984040000
| 20> H  -0.921210000  -1.242140000  -2.984230000
| 21> O  -0.885520000   1.737840000   0.052730000
| 22> H  -1.032320000   2.090180000  -0.841890000
| 23> H  -1.284090000   0.839590000   0.017130000
| 24> O   0.885520000  -1.737840000   0.052730000
| 25> H   1.284090000  -0.839590000   0.017130000
| 26> H   1.032320000  -2.090180000  -0.841890000
| 27> O   1.737840000   0.885520000  -0.052730000
| 28> H   2.090180000   1.032320000   0.841890000
| 29> H   0.839590000   1.284090000  -0.017130000
| 30> O  -1.737840000  -0.885520000  -0.052730000
| 31> H  -2.090180000  -1.032320000   0.841890000
| 32> H  -0.839590000  -1.284090000  -0.017130000
| 33> O   1.752130000   0.741530000  -2.896280000
| 34> H   2.036450000   0.920500000  -1.984040000
| 35> H   0.921210000   1.242140000  -2.984230000
| 36> O   0.741530000  -1.752130000   2.896280000
| 37> H   0.920500000  -2.036450000   1.984040000
| 38> H   1.242140000  -0.921210000   2.984230000
| 39> O  -0.741530000   1.752130000   2.896280000
| 40> H  -0.920500000   2.036450000   1.984040000
| 41> H  -1.242140000   0.921210000   2.984230000
| 42> *
| 43>
| 44>                          ****END OF INPUT****

CARTESIAN COORDINATES (ANGSTROEM)
---------------------------------
  O      0.923410   -1.794470   -2.768350
  H      1.359750   -2.338250   -3.430940
  H      1.303000   -0.879480   -2.865760
  O     -1.752130   -0.741530   -2.896280
  H     -2.036450   -0.920500   -1.984040
  H     -0.921210   -1.242140   -2.984230
  O     -0.885520    1.737840    0.052730
  H     -1.032320    2.090180   -0.841890
  H     -1.284090    0.839590    0.017130
  O      0.885520   -1.737840    0.052730
  H      1.284090   -0.839590    0.017130
  H      1.032320   -2.090180   -0.841890
  O      1.737840    0.885520   -0.052730
  H      2.090180    1.032320    0.841890
  H      0.839590    1.284090   -0.017130
  O     -1.737840   -0.885520   -0.052730
  H     -2.090180   -1.032320    0.841890
  H     -0.839590   -1.284090   -0.017130
  O      1.752130    0.741530   -2.896280
  H      2.036450    0.920500   -1.984040
  H      0.921210    1.242140   -2.984230
  O      0.741530   -1.752130    2.896280
  H      0.920500   -2.036450    1.984040
  H      1.242140   -0.921210    2.984230
  O     -0.741530    1.752130    2.896280
  H     -0.920500    2.036450    1.984040
  H     -1.242140    0.921210    2.984230

 Total Charge           Charge          ....    0
 Multiplicity           Mult            ....    1
 Number of Electrons    NEL             ....   90
 Basis Dimension        Dim             ....  387

ORBITAL ENERGIES
----------------

  NO   OCC          E(Eh)            E(eV)
   0   2.0000     -20.609130      -560.8029
   1   2.0000     -20.604995      -560.6904
   2   2.0000     -20.597944      -560.4986
   3   2.0000     -20.593383      -560.3744
   4   2.0000     -20.577763      -559.9494
   5   2.0000     -20.576134      -559.9051
   6   2.0000     -20.553489      -559.2889
   7   2.0000     -20.547558      -559.1275
   8   2.0000     -20.525795      -558.5353
   9   2.0000      -1.407124       -38.2898
  10   2.0000      -1.392519       -37.8924
  11   2.0000      -1.386033       -37.7159
  12   2.0000      -1.380891       -37.5760
  13   2.0000      -1.366075       -37.1728
  14   2.0000      -1.356720       -36.9182
  15   2.0000      -1.335145       -36.3311
  16   2.0000      -1.328993       -36.1637
  17   2.0000      -1.310721       -35.6665
  18   2.0000      -0.765821       -20.8390
  19   2.0000      -0.759070       -20.6554
  20   2.0000      -0.747572       -20.3425
  21   2.0000      -0.745579       -20.2882
  22   2.0000      -0.745018       -20.2730
  23   2.0000      -0.739205       -20.1148
  24   2.0000      -0.707313       -19.2470
  25   2.0000      -0.698705       -19.0127
  26   2.0000      -0.689774       -18.7697
  27   2.0000      -0.665466       -18.1082
  28   2.0000      -0.638650       -17.3786
  29   2.0000      -0.634673       -17.2703
  30   2.0000      -0.622333       -16.9345
  31   2.0000      -0.613485       -16.6938
  32   2.0000      -0.593450       -16.1486
  33   2.0000      -0.572784       -15.5862
  34   2.0000      -0.567936       -15.4543
  35   2.0000      -0.555844       -15.1253
  36   2.0000      -0.550032       -14.9671
  37   2.0000      -0.546822       -14.8798
  38   2.0000      -0.538615       -14.6565
  39   2.0000      -0.534785       -14.5522
  40   2.0000      -0.524621       -14.2757
  41   2.0000      -0.519737       -14.1428
  42   2.0000      -0.501067       -13.6347
  43   2.0000      -0.492521       -13.4022
  44   2.0000      -0.475627       -12.9425
  45   0.0000       0.078089         2.1249
  46   0.0000       0.113043         3.0760
  47   0.0000       0.123130         3.3505
  48   0.0000       0.133106         3.6220
  49   0.0000       0.183114         4.9828

MULLIKEN ATOMIC CHARGES
-----------------------
   0 O :   -0.757368
   1 H :    0.354584
   2 H :    0.387010
   3 O :   -0.732257
   4 H :    0.367547
   5 H :    0.351635
   6 O :   -0.741304
   7 H :    0.362936
   8 H :    0.373816
   9 O :   -0.755265
  10 H :    0.355470
  11 H :    0.389762
  12 O :   -0.745494
  13 H :    0.369977
  14 H :    0.372948
  15 O :   -0.741910
  16 H :    0.360667
  17 H :    0.381136
  18 O :   -0.696434
  19 H :    0.391767
  20 H :    0.351884
  21 O :   -0.698856
  22 H :    0.374065
  23 H :    0.322255
  24 O :   -0.697256
  25 H :    0.370841
  26 H :    0.327844
Sum of atomic charges:   -0.0000000

LOEWDIN ATOMIC CHARGES
----------------------
   0 O :   -0.314567
   1 H :    0.161365
   2 H :    0.146998
   3 O :   -0.354987
   4 H :    0.147741
   5 H :    0.141923
   6 O :   -0.292785
   7 H :    0.171176
   8 H :    0.146575
   9 O :   -0.299526
  10 H :    0.139296
  11 H :    0.154414
  12 O :   -0.295443
  13 H :    0.175100
  14 H :    0.145735
  15 O :   -0.291962
  16 H :    0.170159
  17 H :    0.147727
  18 O :   -0.270799
  19 H :    0.159371
  20 H :    0.171094
  21 O :   -0.338901
  22 H :    0.150663
  23 H :    0.156554
  24 O :   -0.336741
  25 H :    0.150463
  26 H :    0.159357

  Mayer bond orders larger than 0.100000
B(  0-O ,  1-H ) :   0.8382 B(  0-O ,  2-H ) :   0.7403 B(  3-O ,  4-H ) :   0.8267
B(  3-O ,  5-H ) :   0.8205 B(  6-O ,  7-H ) :   0.8308 B(  6-O ,  8-H ) :   0.7473
B(  6-O , 14-H ) :   0.1037 B(  8-H , 15-O ) :   0.1079 B(  9-O , 10-H ) :   0.7720
B(  9-O , 11-H ) :   0.7886 B(  9-O , 17-H ) :   0.1049 B( 12-O , 13-H ) :   0.8273
B( 12-O , 14-H ) :   0.7530 B( 15-O , 16-H ) :   0.8316 B( 15-O , 17-H ) :   0.7459
B( 18-O , 19-H ) :   0.7994 B( 18-O , 20-H ) :   0.8363 B( 21-O , 22-H ) :   0.8157
B( 21-O , 23-H ) :   0.8574 B( 24-O , 25-H ) :   0.8221 B( 24-O , 26-H ) :   0.8540

MP2 TOTAL ENERGY:     -686.922470398 Eh
FINAL SINGLE POINT ENERGY      -686.922470398166

DIPOLE MOMENT
-------------
                                X             Y             Z
Electronic contribution:      0.13765       0.11847      -0.12881
Nuclear contribution   :      0.67915       0.30898      -0.63259
                        -----------------------------------------
Total Dipole Moment    :      0.81680       0.42745      -0.76140
                        -----------------------------------------
Magnitude (a.u.)       :      1.19566
Magnitude (Debye)      :      3.03914

Rotational constants in cm-1:     0.028939     0.016725     0.016009
Rotational constants in MHz :   867.577248   501.407652   479.936432

                             ****ORCA TERMINATED NORMALLY****
TOTAL RUN TIME: 0 days 0 hours 5 minutes 20 seconds 125 msec
