                         Program Version 4.2.0 -  RELEASE  -
|  1> # 12h2o.su.etal.mol1,3,5,7,8,9,10,11
|  2> ! MP2 def2-TZVP EnGrad TightSCF
|  3>
|  4> %pal
|  5>     nprocs 6
|  6> end
|  7>
|  8> %maxcore 8000
|  9>
| 10> %scf
| 11>     ConvForced true
| 12> end
| 13>
| 14> *xyz 0 1
| 15> O  -1.794470000  -0.923410000   2.768350000
| 16> H  -2.338250000  -1.359750000   3.430940000
| 17> H  -0.879480000  -1.303000000   2.865760000
| 18> O  -1.752130000  -0.741530000  -2.896280000
| 19> H  -2.036450000  -0.920500000  -1.984040000
| 20> H  -0.921210000  -1.242140000  -2.984230000
| 21> O   0.885520000  -1.737840000   0.052730000
| 22> H   1.284090000  -0.839590000   0.017130000
| 23> H   1.032320000  -2.090180000  -0.841890000
| 24> O  -1.737840000  -0.885520000  -0.052730000
| 25> H  -2.090180000  -1.032320000   0.841890000
| 26> H  -0.839590000  -1.284090000  -0.017130000
| 27> O   1.752130000   0.741530000  -2.896280000
| 28> H   2.036450000   0.920500000  -1.984040000
| 29> H   0.921210000   1.242140000  -2.984230000
| 30> O   0.741530000  -1.752130000   2.896280000
| 31> H   0.920500000  -2.036450000   1.984040000
| 32> H   1.242140000  -0.921210000   2.984230000
| 33> O  -0.923410000   1.794470000  -2.768350000
| 34> H  -1.359750000   2.338250000  -3.430940000
| 35> H  -1.303000000   0.879480000  -2.865760000
| 36> O  -0.741530000   1.752130000   2.896280000
| 37> H  -0.920500000   2.036450000   1.984040000
| 38> H  -1.242140000   0.921210000   2.984230000
| 39> *
| 40>
| 41>                          ****END OF INPUT****

CARTESIAN COORDINATES (ANGSTROEM)
---------------------------------
  O     -1.794470   -0.923410    2.768350
  H     -2.338250   -1.359750    3.430940
  H     -0.879480   -1.303000    2.865760
  O     -1.752130   -0.741530   -2.896280
  H     -2.036450   -0.920500   -1.984040
  H     -0.921210   -1.242140   -2.984230
  O      0.885520   -1.737840    0.052730
  H      1.284090   -0.839590    0.017130
  H      1.032320   -2.090180   -0.841890
  O     -1.737840   -0.885520   -0.052730
  H     -2.090180   -1.032320    0.841890
  H     -0.839590   -1.284090   -0.017130
  O      1.752130    0.741530   -2.896280
  H      2.036450    0.920500   -1.984040
  H      0.921210    1.242140   -2.984230
  O      0.741530   -1.752130    2.896280
  H      0.920500   -2.036450    1.984040
  H      1.242140   -0.921210    2.984230
  O     -0.923410    1.794470   -2.768350
  H     -1.359750    2.338250   -3.430940
  H     -1.303000    0.879480   -2.865760
  O     -0.741530    1.752130    2.896280
  H     -0.920500    2.036450    1.984040
  H     -1.242140    0.921210    2.984230

 Total Charge           Charge          ....    0
 Multiplicity           Mult            ....    1
 Number of Electrons    NEL             ....   80
 Basis Dimension        Dim             ....  344

ORBITAL ENERGIES
----------------

  NO   OCC          E(Eh)            E(eV)
   0   2.0000     -20.639644      -561.6333
   1   2.0000     -20.597339      -560.4821
   2   2.0000     -20.572550      -559.8075
   3   2.0000     -20.570891      -559.7624
   4   2.0000     -20.547936      -559.1378
   5   2.0000     -20.545419      -559.0693
   6   2.0000     -20.539701      -558.9137
   7   2.0000     -20.534377      -558.7688
   8   2.0000      -1.422916       -38.7195
   9   2.0000      -1.386924       -37.7401
  10   2.0000      -1.363330       -37.0981
  11   2.0000      -1.356569       -36.9141
  12   2.0000      -1.333186       -36.2778
  13   2.0000      -1.329790       -36.1854
  14   2.0000      -1.319416       -35.9031
  15   2.0000      -1.316489       -35.8235
  16   2.0000      -0.782134       -21.2829
  17   2.0000      -0.747341       -20.3362
  18   2.0000      -0.738241       -20.0886
  19   2.0000      -0.724751       -19.7215
  20   2.0000      -0.712141       -19.3783
  21   2.0000      -0.708780       -19.2869
  22   2.0000      -0.694834       -18.9074
  23   2.0000      -0.686344       -18.6764
  24   2.0000      -0.667329       -18.1589
  25   2.0000      -0.625874       -17.0309
  26   2.0000      -0.619305       -16.8521
  27   2.0000      -0.604080       -16.4379
  28   2.0000      -0.586968       -15.9722
  29   2.0000      -0.578737       -15.7482
  30   2.0000      -0.561633       -15.2828
  31   2.0000      -0.557198       -15.1621
  32   2.0000      -0.548221       -14.9178
  33   2.0000      -0.534210       -14.5366
  34   2.0000      -0.515237       -14.0203
  35   2.0000      -0.509865       -13.8741
  36   2.0000      -0.497201       -13.5295
  37   2.0000      -0.495883       -13.4937
  38   2.0000      -0.487938       -13.2775
  39   2.0000      -0.482237       -13.1223
  40   0.0000       0.067030         1.8240
  41   0.0000       0.117421         3.1952
  42   0.0000       0.129896         3.5347
  43   0.0000       0.146599         3.9892
  44   0.0000       0.160375         4.3640

MULLIKEN ATOMIC CHARGES
-----------------------
   0 O :   -0.751305
   1 H :    0.350563
   2 H :    0.384299
   3 O :   -0.697815
   4 H :    0.393681
   5 H :    0.335404
   6 O :   -0.712272
   7 H :    0.365324
   8 H :    0.376708
   9 O :   -0.741566
  10 H :    0.375898
  11 H :    0.336120
  12 O :   -0.709427
  13 H :    0.313974
  14 H :    0.369333
  15 O :   -0.696969
  16 H :    0.386910
  17 H :    0.359627
  18 O :   -0.742613
  19 H :    0.338292
  20 H :    0.385820
  21 O :   -0.718087
  22 H :    0.336879
  23 H :    0.361223
Sum of atomic charges:    0.0000000

LOEWDIN ATOMIC CHARGES
----------------------
   0 O :   -0.312834
   1 H :    0.159473
   2 H :    0.146492
   3 O :   -0.276266
   4 H :    0.160685
   5 H :    0.163077
   6 O :   -0.275901
   7 H :    0.182053
   8 H :    0.180043
   9 O :   -0.345067
  10 H :    0.151131
  11 H :    0.134896
  12 O :   -0.348509
  13 H :    0.151021
  14 H :    0.150400
  15 O :   -0.270873
  16 H :    0.158405
  17 H :    0.175047
  18 O :   -0.340897
  19 H :    0.154443
  20 H :    0.146356
  21 O :   -0.351601
  22 H :    0.162550
  23 H :    0.145874

  Mayer bond orders larger than 0.100000
B(  0-O ,  1-H ) :   0.8403 B(  0-O ,  2-H ) :   0.7446 B(  3-O ,  4-H ) :   0.7871
B(  3-O ,  5-H ) :   0.8476 B(  6-O ,  7-H ) :   0.8219 B(  6-O ,  8-H ) :   0.8229
B(  9-O , 10-H ) :   0.8055 B(  9-O , 11-H ) :   0.8051 B( 12-O , 13-H ) :   0.8650
B( 12-O , 14-H ) :   0.7929 B( 15-O , 16-H ) :   0.8066 B( 15-O , 17-H ) :   0.8323
B( 18-O , 19-H ) :   0.8499 B( 18-O , 20-H ) :   0.7542 B( 21-O , 22-H ) :   0.8522
B( 21-O , 23-H ) :   0.8133

MP2 TOTAL ENERGY:     -610.578559846 Eh
FINAL SINGLE POINT ENERGY      -610.578559845854

DIPOLE MOMENT
-------------
                                X             Y             Z
Electronic contribution:     -0.01111      -0.38392       0.22299
Nuclear contribution   :      0.53817      -0.98768       0.00000
                        -----------------------------------------
Total Dipole Moment    :      0.52706      -1.37160       0.22299
                        -----------------------------------------
Magnitude (a.u.)       :      1.48620
Magnitude (Debye)      :      3.77762

Rotational constants in cm-1:     0.035054     0.014980     0.014387
Rotational constants in MHz :  1050.903803   449.086505   431.316824

                             ****ORCA TERMINATED NORMALLY****
TOTAL RUN TIME: 0 days 0 hours 2 minutes 56 seconds 836 msec
