                         Program Version 4.2.0 -  RELEASE  -
|  1> # 12meoh.boyd.etal.mol0,4,8
|  2> ! MP2 def2-TZVP EnGrad TightSCF
|  3>
|  4> %pal
|  5>     nprocs 6
|  6> end
|  7>
|  8> %maxcore 8000
|  9>
| 10> %scf
| 11>     ConvForced true
| 12> end
| 13>
| 14> *xyz 0 1
| 15> O  -1.776108874  -2.741384797  -1.019308298
| 16> H  -2.520094035  -2.452295987  -0.420778302
| 17> C  -2.174025166  -3.952700964  -1.647004581
| 18> H  -1.359803895  -4.272673416  -2.304149236
| 19> H  -3.075973971  -3.808692420  -2.256751112
| 20> H  -2.370225393  -4.752784761  -0.918966137
| 21> O  -1.358578914   1.232360421   1.189721000
| 22> H  -1.058250183   1.216459361   0.238591307
| 23> C  -0.389763452   1.957872567   1.943072362
| 24> H  -0.747220771   2.012806578   2.975200343
| 25> H  -0.260410585   2.982763209   1.565366540
| 26> H   0.585220638   1.453754179   1.934070793
| 27> O   3.570084754   2.361662577  -0.202416728
| 28> H   3.393280933   1.755669977   0.560634073
| 29> C   4.368082883   1.644741793  -1.143112807
| 30> H   4.552851717   2.311801738  -1.989632421
| 31> H   3.862427494   0.740851663  -1.508095690
| 32> H   5.333949674   1.357289092  -0.706288100
| 33> *
| 34>
| 35>                          ****END OF INPUT****

CARTESIAN COORDINATES (ANGSTROEM)
---------------------------------
  O     -1.776109   -2.741385   -1.019308
  H     -2.520094   -2.452296   -0.420778
  C     -2.174025   -3.952701   -1.647005
  H     -1.359804   -4.272673   -2.304149
  H     -3.075974   -3.808692   -2.256751
  H     -2.370225   -4.752785   -0.918966
  O     -1.358579    1.232360    1.189721
  H     -1.058250    1.216459    0.238591
  C     -0.389763    1.957873    1.943072
  H     -0.747221    2.012807    2.975200
  H     -0.260411    2.982763    1.565367
  H      0.585221    1.453754    1.934071
  O      3.570085    2.361663   -0.202417
  H      3.393281    1.755670    0.560634
  C      4.368083    1.644742   -1.143113
  H      4.552852    2.311802   -1.989632
  H      3.862427    0.740852   -1.508096
  H      5.333950    1.357289   -0.706288

 Total Charge           Charge          ....    0
 Multiplicity           Mult            ....    1
 Number of Electrons    NEL             ....   54
 Basis Dimension        Dim             ....  258

ORBITAL ENERGIES
----------------

  NO   OCC          E(Eh)            E(eV)
   0   2.0000     -20.559815      -559.4610
   1   2.0000     -20.556466      -559.3699
   2   2.0000     -20.553889      -559.2998
   3   2.0000     -11.273213      -306.7597
   4   2.0000     -11.270686      -306.6909
   5   2.0000     -11.268712      -306.6372
   6   2.0000      -1.349145       -36.7121
   7   2.0000      -1.345664       -36.6174
   8   2.0000      -1.341449       -36.5027
   9   2.0000      -0.921538       -25.0763
  10   2.0000      -0.918115       -24.9832
  11   2.0000      -0.915918       -24.9234
  12   2.0000      -0.684044       -18.6138
  13   2.0000      -0.680269       -18.5111
  14   2.0000      -0.676631       -18.4121
  15   2.0000      -0.618786       -16.8380
  16   2.0000      -0.616242       -16.7688
  17   2.0000      -0.613376       -16.6908
  18   2.0000      -0.591723       -16.1016
  19   2.0000      -0.590173       -16.0594
  20   2.0000      -0.586692       -15.9647
  21   2.0000      -0.503580       -13.7031
  22   2.0000      -0.499321       -13.5872
  23   2.0000      -0.497001       -13.5241
  24   2.0000      -0.451888       -12.2965
  25   2.0000      -0.447711       -12.1828
  26   2.0000      -0.445791       -12.1306
  27   0.0000       0.115869         3.1529
  28   0.0000       0.133919         3.6441
  29   0.0000       0.154404         4.2015
  30   0.0000       0.165313         4.4984
  31   0.0000       0.182655         4.9703

MULLIKEN ATOMIC CHARGES
-----------------------
   0 O :   -0.499699
   1 H :    0.326959
   2 C :   -0.173550
   3 H :    0.126935
   4 H :    0.109432
   5 H :    0.109675
   6 O :   -0.503119
   7 H :    0.327170
   8 C :   -0.162192
   9 H :    0.126656
  10 H :    0.117558
  11 H :    0.093042
  12 O :   -0.497883
  13 H :    0.320639
  14 C :   -0.176612
  15 H :    0.130105
  16 H :    0.113290
  17 H :    0.111594
Sum of atomic charges:   -0.0000000

LOEWDIN ATOMIC CHARGES
----------------------
   0 O :   -0.110189
   1 H :    0.194683
   2 C :   -0.384778
   3 H :    0.109588
   4 H :    0.095150
   5 H :    0.095352
   6 O :   -0.114029
   7 H :    0.194240
   8 C :   -0.379449
   9 H :    0.109336
  10 H :    0.098398
  11 H :    0.091214
  12 O :   -0.110713
  13 H :    0.186326
  14 C :   -0.378074
  15 H :    0.110591
  16 H :    0.096303
  17 H :    0.096050

  Mayer bond orders larger than 0.100000
B(  0-O ,  1-H ) :   0.8380 B(  0-O ,  2-C ) :   0.9286 B(  2-C ,  3-H ) :   0.9377
B(  2-C ,  4-H ) :   0.9398 B(  2-C ,  5-H ) :   0.9383 B(  6-O ,  7-H ) :   0.8381
B(  6-O ,  8-C ) :   0.9278 B(  8-C ,  9-H ) :   0.9371 B(  8-C , 10-H ) :   0.9398
B(  8-C , 11-H ) :   0.9399 B( 12-O , 13-H ) :   0.8430 B( 12-O , 14-C ) :   0.9230
B( 14-C , 15-H ) :   0.9374 B( 14-C , 16-H ) :   0.9372 B( 14-C , 17-H ) :   0.9406

MP2 TOTAL ENERGY:     -346.521908794 Eh
FINAL SINGLE POINT ENERGY      -346.521908794431

DIPOLE MOMENT
-------------
                                X             Y             Z
Electronic contribution:     -1.65329       1.61595       0.96526
Nuclear contribution   :      1.83241      -2.28957      -1.06431
                        -----------------------------------------
Total Dipole Moment    :      0.17912      -0.67362      -0.09905
                        -----------------------------------------
Magnitude (a.u.)       :      0.70403
Magnitude (Debye)      :      1.78950

Rotational constants in cm-1:     0.047778     0.015743     0.011988
Rotational constants in MHz :  1432.343713   471.963009   359.394370

                             ****ORCA TERMINATED NORMALLY****
TOTAL RUN TIME: 0 days 0 hours 0 minutes 50 seconds 826 msec
