                         Program Version 4.2.0 -  RELEASE  -
|  1> # 12h2o.su.etal.mol2,3,7,8,11
|  2> ! MP2 def2-TZVP EnGrad TightSCF
|  3>
|  4> %pal
|  5>     nprocs 6
|  6> end
|  7>
|  8> %maxcore 8000
|  9>
| 10> %scf
| 11>     ConvForced true
| 12> end
| 13>
| 14> *xyz 0 1
| 15> O   0.923410000  -1.794470000  -2.768350000
| 16> H   1.359750000  -2.338250000  -3.430940000
| 17> H   1.303000000  -0.879480000  -2.865760000
| 18> O  -1.752130000  -0.741530000  -2.896280000
| 19> H  -2.036450000  -0.920500000  -1.984040000
| 20> H  -0.921210000  -1.242140000  -2.984230000
| 21> O  -1.737840000  -0.885520000  -0.052730000
| 22> H  -2.090180000  -1.032320000   0.841890000
| 23> H  -0.839590000  -1.284090000  -0.017130000
| 24> O   1.752130000   0.741530000  -2.896280000
| 25> H   2.036450000   0.920500000  -1.984040000
| 26> H   0.921210000   1.242140000  -2.984230000
| 27> O  -0.741530000   1.752130000   2.896280000
| 28> H  -0.920500000   2.036450000   1.984040000
| 29> H  -1.242140000   0.921210000   2.984230000
| 30> *
| 31>
| 32>                          ****END OF INPUT****

CARTESIAN COORDINATES (ANGSTROEM)
---------------------------------
  O      0.923410   -1.794470   -2.768350
  H      1.359750   -2.338250   -3.430940
  H      1.303000   -0.879480   -2.865760
  O     -1.752130   -0.741530   -2.896280
  H     -2.036450   -0.920500   -1.984040
  H     -0.921210   -1.242140   -2.984230
  O     -1.737840   -0.885520   -0.052730
  H     -2.090180   -1.032320    0.841890
  H     -0.839590   -1.284090   -0.017130
  O      1.752130    0.741530   -2.896280
  H      2.036450    0.920500   -1.984040
  H      0.921210    1.242140   -2.984230
  O     -0.741530    1.752130    2.896280
  H     -0.920500    2.036450    1.984040
  H     -1.242140    0.921210    2.984230

 Total Charge           Charge          ....    0
 Multiplicity           Mult            ....    1
 Number of Electrons    NEL             ....   50
 Basis Dimension        Dim             ....  215

ORBITAL ENERGIES
----------------

  NO   OCC          E(Eh)            E(eV)
   0   2.0000     -20.603243      -560.6427
   1   2.0000     -20.592043      -560.3380
   2   2.0000     -20.571992      -559.7924
   3   2.0000     -20.548709      -559.1588
   4   2.0000     -20.505395      -557.9802
   5   2.0000      -1.388994       -37.7965
   6   2.0000      -1.370186       -37.2847
   7   2.0000      -1.351119       -36.7658
   8   2.0000      -1.332870       -36.2692
   9   2.0000      -1.290411       -35.1139
  10   2.0000      -0.745538       -20.2871
  11   2.0000      -0.732129       -19.9222
  12   2.0000      -0.718191       -19.5430
  13   2.0000      -0.713982       -19.4284
  14   2.0000      -0.669168       -18.2090
  15   2.0000      -0.628674       -17.1071
  16   2.0000      -0.608846       -16.5676
  17   2.0000      -0.588476       -16.0133
  18   2.0000      -0.580280       -15.7902
  19   2.0000      -0.543056       -14.7773
  20   2.0000      -0.533443       -14.5157
  21   2.0000      -0.523072       -14.2335
  22   2.0000      -0.515867       -14.0375
  23   2.0000      -0.493794       -13.4368
  24   2.0000      -0.455497       -12.3947
  25   0.0000       0.082214         2.2371
  26   0.0000       0.109397         2.9768
  27   0.0000       0.150112         4.0848
  28   0.0000       0.165045         4.4911
  29   0.0000       0.176091         4.7917

MULLIKEN ATOMIC CHARGES
-----------------------
   0 O :   -0.740567
   1 H :    0.341682
   2 H :    0.377632
   3 O :   -0.734043
   4 H :    0.362678
   5 H :    0.347368
   6 O :   -0.692256
   7 H :    0.338037
   8 H :    0.356247
   9 O :   -0.685207
  10 H :    0.357878
  11 H :    0.371933
  12 O :   -0.670071
  13 H :    0.340667
  14 H :    0.328021
Sum of atomic charges:   -0.0000000

LOEWDIN ATOMIC CHARGES
----------------------
   0 O :   -0.341836
   1 H :    0.155965
   2 H :    0.144610
   3 O :   -0.358202
   4 H :    0.148368
   5 H :    0.140853
   6 O :   -0.317052
   7 H :    0.164085
   8 H :    0.178791
   9 O :   -0.269724
  10 H :    0.174599
  11 H :    0.180925
  12 O :   -0.329295
  13 H :    0.166169
  14 H :    0.161744

  Mayer bond orders larger than 0.100000
B(  0-O ,  1-H ) :   0.8484 B(  0-O ,  2-H ) :   0.7664 B(  3-O ,  4-H ) :   0.8306
B(  3-O ,  5-H ) :   0.8190 B(  6-O ,  7-H ) :   0.8473 B(  6-O ,  8-H ) :   0.8335
B(  9-O , 10-H ) :   0.8375 B(  9-O , 11-H ) :   0.8238 B( 12-O , 13-H ) :   0.8505
B( 12-O , 14-H ) :   0.8577

MP2 TOTAL ENERGY:     -381.591229848 Eh
FINAL SINGLE POINT ENERGY      -381.591229848308

DIPOLE MOMENT
-------------
                                X             Y             Z
Electronic contribution:      0.16658       0.34255      -0.05468
Nuclear contribution   :      0.56789      -0.59993       0.82779
                        -----------------------------------------
Total Dipole Moment    :      0.73446      -0.25738       0.77311
                        -----------------------------------------
Magnitude (a.u.)       :      1.09699
Magnitude (Debye)      :      2.78832

Rotational constants in cm-1:     0.072137     0.027505     0.022517
Rotational constants in MHz :  2162.626438   824.590440   675.047584

                             ****ORCA TERMINATED NORMALLY****
TOTAL RUN TIME: 0 days 0 hours 0 minutes 27 seconds 833 msec
