                         Program Version 4.2.0 -  RELEASE  -
|  1> # 12meoh.boyd.etal.mol1,3,9
|  2> ! MP2 def2-TZVP EnGrad TightSCF
|  3>
|  4> %pal
|  5>     nprocs 6
|  6> end
|  7>
|  8> %maxcore 8000
|  9>
| 10> %scf
| 11>     ConvForced true
| 12> end
| 13>
| 14> *xyz 0 1
| 15> O   0.666045193  -2.600503172   0.138317521
| 16> H  -0.227115049  -2.712051982  -0.281868004
| 17> C   0.490021232  -1.851247678   1.341189459
| 18> H   1.466500502  -1.466176022   1.645844415
| 19> H   0.097564527  -2.488364683   2.146902740
| 20> H  -0.187588112  -1.000787499   1.200739571
| 21> O  -3.821405976  -2.118091637   0.596795346
| 22> H  -4.342989117  -1.344303030   0.251966383
| 23> C  -3.443883586  -1.809641231   1.934889393
| 24> H  -2.831494349  -2.637429600   2.305201764
| 25> H  -4.325601146  -1.719364371   2.585074667
| 26> H  -2.858527126  -0.882644791   1.996110694
| 27> O   1.390610024   3.194080770  -1.536658882
| 28> H   2.162932299   2.881562730  -0.993525056
| 29> C   1.202977189   4.580367182  -1.302880219
| 30> H   0.374773115   4.915764831  -1.934164643
| 31> H   2.098649340   5.157710875  -1.570472348
| 32> H   0.950320401   4.800436015  -0.254328827
| 33> *
| 34>
| 35>                          ****END OF INPUT****

CARTESIAN COORDINATES (ANGSTROEM)
---------------------------------
  O      0.666045   -2.600503    0.138318
  H     -0.227115   -2.712052   -0.281868
  C      0.490021   -1.851248    1.341189
  H      1.466501   -1.466176    1.645844
  H      0.097565   -2.488365    2.146903
  H     -0.187588   -1.000787    1.200740
  O     -3.821406   -2.118092    0.596795
  H     -4.342989   -1.344303    0.251966
  C     -3.443884   -1.809641    1.934889
  H     -2.831494   -2.637430    2.305202
  H     -4.325601   -1.719364    2.585075
  H     -2.858527   -0.882645    1.996111
  O      1.390610    3.194081   -1.536659
  H      2.162932    2.881563   -0.993525
  C      1.202977    4.580367   -1.302880
  H      0.374773    4.915765   -1.934165
  H      2.098649    5.157711   -1.570472
  H      0.950320    4.800436   -0.254329

 Total Charge           Charge          ....    0
 Multiplicity           Mult            ....    1
 Number of Electrons    NEL             ....   54
 Basis Dimension        Dim             ....  258

ORBITAL ENERGIES
----------------

  NO   OCC          E(Eh)            E(eV)
   0   2.0000     -20.565044      -559.6033
   1   2.0000     -20.558041      -559.4127
   2   2.0000     -20.550320      -559.2026
   3   2.0000     -11.278121      -306.8933
   4   2.0000     -11.272541      -306.7414
   5   2.0000     -11.267862      -306.6141
   6   2.0000      -1.354053       -36.8457
   7   2.0000      -1.348753       -36.7014
   8   2.0000      -1.338622       -36.4258
   9   2.0000      -0.926225       -25.2039
  10   2.0000      -0.920412       -25.0457
  11   2.0000      -0.915407       -24.9095
  12   2.0000      -0.688311       -18.7299
  13   2.0000      -0.683495       -18.5989
  14   2.0000      -0.675201       -18.3732
  15   2.0000      -0.624468       -16.9926
  16   2.0000      -0.617958       -16.8155
  17   2.0000      -0.611991       -16.6531
  18   2.0000      -0.596973       -16.2445
  19   2.0000      -0.593040       -16.1375
  20   2.0000      -0.584662       -15.9095
  21   2.0000      -0.507839       -13.8190
  22   2.0000      -0.500047       -13.6070
  23   2.0000      -0.495990       -13.4966
  24   2.0000      -0.456398       -12.4192
  25   2.0000      -0.449293       -12.2259
  26   2.0000      -0.443631       -12.0718
  27   0.0000       0.119418         3.2495
  28   0.0000       0.133304         3.6274
  29   0.0000       0.155021         4.2183
  30   0.0000       0.163908         4.4601
  31   0.0000       0.174033         4.7357

MULLIKEN ATOMIC CHARGES
-----------------------
   0 O :   -0.500943
   1 H :    0.329817
   2 C :   -0.170948
   3 H :    0.127553
   4 H :    0.102862
   5 H :    0.111359
   6 O :   -0.500006
   7 H :    0.324470
   8 C :   -0.181216
   9 H :    0.129990
  10 H :    0.118763
  11 H :    0.108260
  12 O :   -0.496430
  13 H :    0.323175
  14 C :   -0.171403
  15 H :    0.128611
  16 H :    0.109611
  17 H :    0.106477
Sum of atomic charges:   -0.0000000

LOEWDIN ATOMIC CHARGES
----------------------
   0 O :   -0.111733
   1 H :    0.192870
   2 C :   -0.378727
   3 H :    0.107571
   4 H :    0.094302
   5 H :    0.095536
   6 O :   -0.110188
   7 H :    0.192391
   8 C :   -0.384001
   9 H :    0.110015
  10 H :    0.097506
  11 H :    0.094431
  12 O :   -0.105248
  13 H :    0.191262
  14 C :   -0.386259
  15 H :    0.110285
  16 H :    0.095439
  17 H :    0.094547

  Mayer bond orders larger than 0.100000
B(  0-O ,  1-H ) :   0.8381 B(  0-O ,  2-C ) :   0.9348 B(  2-C ,  3-H ) :   0.9371
B(  2-C ,  4-H ) :   0.9387 B(  2-C ,  5-H ) :   0.9422 B(  6-O ,  7-H ) :   0.8407
B(  6-O ,  8-C ) :   0.9219 B(  8-C ,  9-H ) :   0.9376 B(  8-C , 10-H ) :   0.9373
B(  8-C , 11-H ) :   0.9385 B( 12-O , 13-H ) :   0.8409 B( 12-O , 14-C ) :   0.9288
B( 14-C , 15-H ) :   0.9375 B( 14-C , 16-H ) :   0.9402 B( 14-C , 17-H ) :   0.9373

MP2 TOTAL ENERGY:     -346.521774130 Eh
FINAL SINGLE POINT ENERGY      -346.521774129848

DIPOLE MOMENT
-------------
                                X             Y             Z
Electronic contribution:      0.05429      -3.21074      -3.56888
Nuclear contribution   :     -0.48152       4.41914       4.52682
                        -----------------------------------------
Total Dipole Moment    :     -0.42723       1.20839       0.95794
                        -----------------------------------------
Magnitude (a.u.)       :      1.60012
Magnitude (Debye)      :      4.06718

Rotational constants in cm-1:     0.058273     0.014472     0.012271
Rotational constants in MHz :  1746.975807   433.857671   367.874893

                             ****ORCA TERMINATED NORMALLY****
TOTAL RUN TIME: 0 days 0 hours 0 minutes 52 seconds 573 msec
