                         Program Version 4.2.0 -  RELEASE  -
|  1> # 12meoh.boyd.etal.mol3,9,11
|  2> ! MP2 def2-TZVP EnGrad TightSCF
|  3>
|  4> %pal
|  5>     nprocs 6
|  6> end
|  7>
|  8> %maxcore 8000
|  9>
| 10> %scf
| 11>     ConvForced true
| 12> end
| 13>
| 14> *xyz 0 1
| 15> O  -3.821405976  -2.118091637   0.596795346
| 16> H  -4.342989117  -1.344303030   0.251966383
| 17> C  -3.443883586  -1.809641231   1.934889393
| 18> H  -2.831494349  -2.637429600   2.305201764
| 19> H  -4.325601146  -1.719364371   2.585074667
| 20> H  -2.858527126  -0.882644791   1.996110694
| 21> O   1.390610024   3.194080770  -1.536658882
| 22> H   2.162932299   2.881562730  -0.993525056
| 23> C   1.202977189   4.580367182  -1.302880219
| 24> H   0.374773115   4.915764831  -1.934164643
| 25> H   2.098649340   5.157710875  -1.570472348
| 26> H   0.950320401   4.800436015  -0.254328827
| 27> O   3.252955559   0.588596242   1.858934315
| 28> H   3.621209177  -0.251605199   1.476063364
| 29> C   4.040824528   0.944288422   2.989639460
| 30> H   3.670521436   1.902573549   3.363847391
| 31> H   5.103749934   1.055868619   2.734277559
| 32> H   3.948540682   0.200279590   3.792908518
| 33> *
| 34>
| 35>                          ****END OF INPUT****

CARTESIAN COORDINATES (ANGSTROEM)
---------------------------------
  O     -3.821406   -2.118092    0.596795
  H     -4.342989   -1.344303    0.251966
  C     -3.443884   -1.809641    1.934889
  H     -2.831494   -2.637430    2.305202
  H     -4.325601   -1.719364    2.585075
  H     -2.858527   -0.882645    1.996111
  O      1.390610    3.194081   -1.536659
  H      2.162932    2.881563   -0.993525
  C      1.202977    4.580367   -1.302880
  H      0.374773    4.915765   -1.934165
  H      2.098649    5.157711   -1.570472
  H      0.950320    4.800436   -0.254329
  O      3.252956    0.588596    1.858934
  H      3.621209   -0.251605    1.476063
  C      4.040825    0.944288    2.989639
  H      3.670521    1.902574    3.363847
  H      5.103750    1.055869    2.734278
  H      3.948541    0.200280    3.792909

 Total Charge           Charge          ....    0
 Multiplicity           Mult            ....    1
 Number of Electrons    NEL             ....   54
 Basis Dimension        Dim             ....  258

ORBITAL ENERGIES
----------------

  NO   OCC          E(Eh)            E(eV)
   0   2.0000     -20.563259      -559.5547
   1   2.0000     -20.553240      -559.2821
   2   2.0000     -20.549422      -559.1782
   3   2.0000     -11.276745      -306.8558
   4   2.0000     -11.267318      -306.5993
   5   2.0000     -11.265753      -306.5567
   6   2.0000      -1.352422       -36.8013
   7   2.0000      -1.342311       -36.5261
   8   2.0000      -1.340329       -36.4722
   9   2.0000      -0.924952       -25.1692
  10   2.0000      -0.914820       -24.8935
  11   2.0000      -0.913285       -24.8517
  12   2.0000      -0.687221       -18.7002
  13   2.0000      -0.676757       -18.4155
  14   2.0000      -0.675503       -18.3814
  15   2.0000      -0.622371       -16.9356
  16   2.0000      -0.613071       -16.6825
  17   2.0000      -0.610536       -16.6135
  18   2.0000      -0.596512       -16.2319
  19   2.0000      -0.585756       -15.9392
  20   2.0000      -0.585483       -15.9318
  21   2.0000      -0.505738       -13.7618
  22   2.0000      -0.496391       -13.5075
  23   2.0000      -0.492576       -13.4037
  24   2.0000      -0.454766       -12.3748
  25   2.0000      -0.445039       -12.1101
  26   2.0000      -0.441380       -12.0106
  27   0.0000       0.123619         3.3639
  28   0.0000       0.139708         3.8016
  29   0.0000       0.149082         4.0567
  30   0.0000       0.169353         4.6083
  31   0.0000       0.180354         4.9077

MULLIKEN ATOMIC CHARGES
-----------------------
   0 O :   -0.495234
   1 H :    0.321414
   2 C :   -0.175193
   3 H :    0.127227
   4 H :    0.107359
   5 H :    0.114426
   6 O :   -0.499705
   7 H :    0.327544
   8 C :   -0.169623
   9 H :    0.126152
  10 H :    0.105948
  11 H :    0.107709
  12 O :   -0.500009
  13 H :    0.324731
  14 C :   -0.174136
  15 H :    0.128590
  16 H :    0.110753
  17 H :    0.112045
Sum of atomic charges:    0.0000000

LOEWDIN ATOMIC CHARGES
----------------------
   0 O :   -0.109852
   1 H :    0.190876
   2 C :   -0.382155
   3 H :    0.109856
   4 H :    0.094748
   5 H :    0.096526
   6 O :   -0.105724
   7 H :    0.192850
   8 C :   -0.386839
   9 H :    0.109290
  10 H :    0.094186
  11 H :    0.094951
  12 O :   -0.110734
  13 H :    0.191492
  14 C :   -0.381626
  15 H :    0.109989
  16 H :    0.095690
  17 H :    0.096476

  Mayer bond orders larger than 0.100000
B(  0-O ,  1-H ) :   0.8427 B(  0-O ,  2-C ) :   0.9267 B(  2-C ,  3-H ) :   0.9379
B(  2-C ,  4-H ) :   0.9389 B(  2-C ,  5-H ) :   0.9385 B(  6-O ,  7-H ) :   0.8369
B(  6-O ,  8-C ) :   0.9327 B(  8-C ,  9-H ) :   0.9380 B(  8-C , 10-H ) :   0.9403
B(  8-C , 11-H ) :   0.9373 B( 12-O , 13-H ) :   0.8403 B( 12-O , 14-C ) :   0.9227
B( 14-C , 15-H ) :   0.9379 B( 14-C , 16-H ) :   0.9386 B( 14-C , 17-H ) :   0.9383

MP2 TOTAL ENERGY:     -346.521322918 Eh
FINAL SINGLE POINT ENERGY      -346.521322917912

DIPOLE MOMENT
-------------
                                X             Y             Z
Electronic contribution:     -1.32014      -2.62555      -3.43460
Nuclear contribution   :      2.13011       3.18654       4.44269
                        -----------------------------------------
Total Dipole Moment    :      0.80997       0.56099       1.00808
                        -----------------------------------------
Magnitude (a.u.)       :      1.40961
Magnitude (Debye)      :      3.58294

Rotational constants in cm-1:     0.031759     0.013533     0.009807
Rotational constants in MHz :   952.099819   405.696339   294.004064

                             ****ORCA TERMINATED NORMALLY****
TOTAL RUN TIME: 0 days 0 hours 0 minutes 43 seconds 639 msec
