                         Program Version 4.2.0 -  RELEASE  -
|  1> # 12mecn.remya.etal.2.mol0,5,9
|  2> ! MP2 def2-TZVP EnGrad TightSCF
|  3>
|  4> %pal
|  5>     nprocs 6
|  6> end
|  7>
|  8> %maxcore 8000
|  9>
| 10> %scf
| 11>     ConvForced true
| 12> end
| 13>
| 14> *xyz 0 1
| 15> C  -0.869520000  -3.929380000   1.700199000
| 16> H  -0.057420000  -3.268850000   2.015352000
| 17> H  -0.697530000  -4.930670000   2.101524000
| 18> H  -1.821490000  -3.546590000   2.077146000
| 19> C  -0.916080000  -3.969960000   0.256749000
| 20> N  -0.955390000  -3.995980000  -0.909290000
| 21> C  -1.955700000   2.515080000   1.698463000
| 22> H  -2.923830000   2.883163000   2.049269000
| 23> H  -1.154850000   3.171830000   2.050990000
| 24> H  -1.790380000   1.506115000   2.087896000
| 25> C  -1.948230000   2.482156000   0.253672000
| 26> N  -1.937550000   2.462523000  -0.913150000
| 27> C   0.923766000   4.000693000  -1.575910000
| 28> H   0.011949000   4.478423000  -1.939550000
| 29> H   0.947903000   2.966558000  -1.929960000
| 30> H   1.805950000   4.519548000  -1.956520000
| 31> C   0.942834000   3.994846000  -0.131200000
| 32> N   0.960035000   3.982544000   1.035639000
| 33> *
| 34>
| 35>                          ****END OF INPUT****

CARTESIAN COORDINATES (ANGSTROEM)
---------------------------------
  C     -0.869520   -3.929380    1.700199
  H     -0.057420   -3.268850    2.015352
  H     -0.697530   -4.930670    2.101524
  H     -1.821490   -3.546590    2.077146
  C     -0.916080   -3.969960    0.256749
  N     -0.955390   -3.995980   -0.909290
  C     -1.955700    2.515080    1.698463
  H     -2.923830    2.883163    2.049269
  H     -1.154850    3.171830    2.050990
  H     -1.790380    1.506115    2.087896
  C     -1.948230    2.482156    0.253672
  N     -1.937550    2.462523   -0.913150
  C      0.923766    4.000693   -1.575910
  H      0.011949    4.478423   -1.939550
  H      0.947903    2.966558   -1.929960
  H      1.805950    4.519548   -1.956520
  C      0.942834    3.994846   -0.131200
  N      0.960035    3.982544    1.035639

 Total Charge           Charge          ....    0
 Multiplicity           Mult            ....    1
 Number of Electrons    NEL             ....   66
 Basis Dimension        Dim             ....  333

ORBITAL ENERGIES
----------------

  NO   OCC          E(Eh)            E(eV)
   0   2.0000     -15.573209      -423.7686
   1   2.0000     -15.571991      -423.7354
   2   2.0000     -15.570876      -423.7051
   3   2.0000     -11.285878      -307.1043
   4   2.0000     -11.284328      -307.0622
   5   2.0000     -11.281642      -306.9891
   6   2.0000     -11.279909      -306.9419
   7   2.0000     -11.273352      -306.7635
   8   2.0000     -11.273284      -306.7616
   9   2.0000      -1.218257       -33.1505
  10   2.0000      -1.214264       -33.0418
  11   2.0000      -1.213575       -33.0230
  12   2.0000      -1.044980       -28.4354
  13   2.0000      -1.037371       -28.2283
  14   2.0000      -1.034712       -28.1560
  15   2.0000      -0.700785       -19.0693
  16   2.0000      -0.695480       -18.9250
  17   2.0000      -0.691318       -18.8117
  18   2.0000      -0.633494       -17.2383
  19   2.0000      -0.632676       -17.2160
  20   2.0000      -0.631737       -17.1904
  21   2.0000      -0.623960       -16.9788
  22   2.0000      -0.620241       -16.8776
  23   2.0000      -0.616923       -16.7873
  24   2.0000      -0.559425       -15.2227
  25   2.0000      -0.555915       -15.1272
  26   2.0000      -0.555581       -15.1181
  27   2.0000      -0.462521       -12.5858
  28   2.0000      -0.459003       -12.4901
  29   2.0000      -0.457430       -12.4473
  30   2.0000      -0.457388       -12.4462
  31   2.0000      -0.457149       -12.4397
  32   2.0000      -0.453673       -12.3451
  33   0.0000       0.110927         3.0185
  34   0.0000       0.127736         3.4759
  35   0.0000       0.144805         3.9403
  36   0.0000       0.170332         4.6350
  37   0.0000       0.170637         4.6433

MULLIKEN ATOMIC CHARGES
-----------------------
   0 C :   -0.280634
   1 H :    0.172153
   2 H :    0.172739
   3 H :    0.170588
   4 C :   -0.145109
   5 N :   -0.089741
   6 C :   -0.283981
   7 H :    0.167157
   8 H :    0.204537
   9 H :    0.160618
  10 C :   -0.119546
  11 N :   -0.131307
  12 C :   -0.261104
  13 H :    0.180181
  14 H :    0.178572
  15 H :    0.171788
  16 C :   -0.114968
  17 N :   -0.151945
Sum of atomic charges:   -0.0000000

LOEWDIN ATOMIC CHARGES
----------------------
   0 C :   -0.284283
   1 H :    0.152552
   2 H :    0.151762
   3 H :    0.152242
   4 C :   -0.220105
   5 N :    0.047830
   6 C :   -0.283782
   7 H :    0.150718
   8 H :    0.156785
   9 H :    0.151022
  10 C :   -0.212390
  11 N :    0.036497
  12 C :   -0.282429
  13 H :    0.156101
  14 H :    0.158380
  15 H :    0.149783
  16 C :   -0.208462
  17 N :    0.027781

  Mayer bond orders larger than 0.100000
B(  0-C ,  1-H ) :   0.9169 B(  0-C ,  2-H ) :   0.9165 B(  0-C ,  3-H ) :   0.9172
B(  0-C ,  4-C ) :   0.9009 B(  4-C ,  5-N ) :   2.8353 B(  6-C ,  7-H ) :   0.9170
B(  6-C ,  8-H ) :   0.9020 B(  6-C ,  9-H ) :   0.9164 B(  6-C , 10-C ) :   0.8993
B( 10-C , 11-N ) :   2.7960 B( 12-C , 13-H ) :   0.9111 B( 12-C , 14-H ) :   0.9130
B( 12-C , 15-H ) :   0.9105 B( 12-C , 16-C ) :   0.9117 B( 16-C , 17-N ) :   2.7716

MP2 TOTAL ENERGY:     -397.458583289 Eh
FINAL SINGLE POINT ENERGY      -397.458583289277

DIPOLE MOMENT
-------------
                                X             Y             Z
Electronic contribution:     -0.02544      -0.13061      -3.16546
Nuclear contribution   :      0.06804       0.21451       4.63280
                        -----------------------------------------
Total Dipole Moment    :      0.04260       0.08390       1.46733
                        -----------------------------------------
Magnitude (a.u.)       :      1.47034
Magnitude (Debye)      :      3.73732

Rotational constants in cm-1:     0.051926     0.010340     0.009952
Rotational constants in MHz :  1556.706864   309.978312   298.353629

                             ****ORCA TERMINATED NORMALLY****
TOTAL RUN TIME: 0 days 0 hours 2 minutes 47 seconds 982 msec
