                         Program Version 4.2.0 -  RELEASE  -
|  1> # 12h2o.su.etal.mol0,4,6,8,9,10,11
|  2> ! MP2 def2-TZVP EnGrad TightSCF
|  3>
|  4> %pal
|  5>     nprocs 6
|  6> end
|  7>
|  8> %maxcore 8000
|  9>
| 10> %scf
| 11>     ConvForced true
| 12> end
| 13>
| 14> *xyz 0 1
| 15> O   1.794470000   0.923410000   2.768350000
| 16> H   2.338250000   1.359750000   3.430940000
| 17> H   0.879480000   1.303000000   2.865760000
| 18> O  -0.885520000   1.737840000   0.052730000
| 19> H  -1.032320000   2.090180000  -0.841890000
| 20> H  -1.284090000   0.839590000   0.017130000
| 21> O   1.737840000   0.885520000  -0.052730000
| 22> H   2.090180000   1.032320000   0.841890000
| 23> H   0.839590000   1.284090000  -0.017130000
| 24> O   1.752130000   0.741530000  -2.896280000
| 25> H   2.036450000   0.920500000  -1.984040000
| 26> H   0.921210000   1.242140000  -2.984230000
| 27> O   0.741530000  -1.752130000   2.896280000
| 28> H   0.920500000  -2.036450000   1.984040000
| 29> H   1.242140000  -0.921210000   2.984230000
| 30> O  -0.923410000   1.794470000  -2.768350000
| 31> H  -1.359750000   2.338250000  -3.430940000
| 32> H  -1.303000000   0.879480000  -2.865760000
| 33> O  -0.741530000   1.752130000   2.896280000
| 34> H  -0.920500000   2.036450000   1.984040000
| 35> H  -1.242140000   0.921210000   2.984230000
| 36> *
| 37>
| 38>                          ****END OF INPUT****

CARTESIAN COORDINATES (ANGSTROEM)
---------------------------------
  O      1.794470    0.923410    2.768350
  H      2.338250    1.359750    3.430940
  H      0.879480    1.303000    2.865760
  O     -0.885520    1.737840    0.052730
  H     -1.032320    2.090180   -0.841890
  H     -1.284090    0.839590    0.017130
  O      1.737840    0.885520   -0.052730
  H      2.090180    1.032320    0.841890
  H      0.839590    1.284090   -0.017130
  O      1.752130    0.741530   -2.896280
  H      2.036450    0.920500   -1.984040
  H      0.921210    1.242140   -2.984230
  O      0.741530   -1.752130    2.896280
  H      0.920500   -2.036450    1.984040
  H      1.242140   -0.921210    2.984230
  O     -0.923410    1.794470   -2.768350
  H     -1.359750    2.338250   -3.430940
  H     -1.303000    0.879480   -2.865760
  O     -0.741530    1.752130    2.896280
  H     -0.920500    2.036450    1.984040
  H     -1.242140    0.921210    2.984230

 Total Charge           Charge          ....    0
 Multiplicity           Mult            ....    1
 Number of Electrons    NEL             ....   70
 Basis Dimension        Dim             ....  301

ORBITAL ENERGIES
----------------

  NO   OCC          E(Eh)            E(eV)
   0   2.0000     -20.629241      -561.3502
   1   2.0000     -20.610523      -560.8408
   2   2.0000     -20.587397      -560.2115
   3   2.0000     -20.561271      -559.5006
   4   2.0000     -20.529943      -558.6482
   5   2.0000     -20.522817      -558.4542
   6   2.0000     -20.503121      -557.9183
   7   2.0000      -1.411063       -38.3970
   8   2.0000      -1.395620       -37.9768
   9   2.0000      -1.376441       -37.4549
  10   2.0000      -1.346826       -36.6490
  11   2.0000      -1.312183       -35.7063
  12   2.0000      -1.309938       -35.6452
  13   2.0000      -1.287726       -35.0408
  14   2.0000      -0.775889       -21.1130
  15   2.0000      -0.760949       -20.7065
  16   2.0000      -0.735484       -20.0135
  17   2.0000      -0.728501       -19.8235
  18   2.0000      -0.693369       -18.8675
  19   2.0000      -0.681401       -18.5419
  20   2.0000      -0.672350       -18.2956
  21   2.0000      -0.658631       -17.9223
  22   2.0000      -0.632587       -17.2136
  23   2.0000      -0.611594       -16.6423
  24   2.0000      -0.595976       -16.2173
  25   2.0000      -0.582824       -15.8595
  26   2.0000      -0.564508       -15.3611
  27   2.0000      -0.550900       -14.9908
  28   2.0000      -0.534724       -14.5506
  29   2.0000      -0.525430       -14.2977
  30   2.0000      -0.518993       -14.1225
  31   2.0000      -0.502398       -13.6709
  32   2.0000      -0.478131       -13.0106
  33   2.0000      -0.473778       -12.8922
  34   2.0000      -0.452705       -12.3187
  35   0.0000       0.075511         2.0547
  36   0.0000       0.110572         3.0088
  37   0.0000       0.143544         3.9060
  38   0.0000       0.159523         4.3408
  39   0.0000       0.177659         4.8343

MULLIKEN ATOMIC CHARGES
-----------------------
   0 O :   -0.749369
   1 H :    0.347839
   2 H :    0.384233
   3 O :   -0.722787
   4 H :    0.392881
   5 H :    0.351624
   6 O :   -0.740937
   7 H :    0.367824
   8 H :    0.338738
   9 O :   -0.724506
  10 H :    0.374010
  11 H :    0.331350
  12 O :   -0.718247
  13 H :    0.333917
  14 H :    0.362506
  15 O :   -0.714705
  16 H :    0.370104
  17 H :    0.370299
  18 O :   -0.699633
  19 H :    0.388379
  20 H :    0.356480
Sum of atomic charges:    0.0000000

LOEWDIN ATOMIC CHARGES
----------------------
   0 O :   -0.312792
   1 H :    0.158107
   2 H :    0.146510
   3 O :   -0.283668
   4 H :    0.158733
   5 H :    0.175996
   6 O :   -0.346755
   7 H :    0.147321
   8 H :    0.135442
   9 O :   -0.356132
  10 H :    0.151900
  11 H :    0.135338
  12 O :   -0.352256
  13 H :    0.161273
  14 H :    0.146487
  15 O :   -0.286375
  16 H :    0.170683
  17 H :    0.192141
  18 O :   -0.273417
  19 H :    0.158024
  20 H :    0.173441

  Mayer bond orders larger than 0.100000
B(  0-O ,  1-H ) :   0.8418 B(  0-O ,  2-H ) :   0.7449 B(  3-O ,  4-H ) :   0.7905
B(  3-O ,  5-H ) :   0.8343 B(  6-O ,  7-H ) :   0.8121 B(  6-O ,  8-H ) :   0.8033
B(  9-O , 10-H ) :   0.8131 B(  9-O , 11-H ) :   0.8478 B( 12-O , 13-H ) :   0.8540
B( 12-O , 14-H ) :   0.8112 B( 15-O , 16-H ) :   0.8287 B( 15-O , 17-H ) :   0.8208
B( 18-O , 19-H ) :   0.8018 B( 18-O , 20-H ) :   0.8343

MP2 TOTAL ENERGY:     -534.252524010 Eh
FINAL SINGLE POINT ENERGY      -534.252524009992

DIPOLE MOMENT
-------------
                                X             Y             Z
Electronic contribution:     -0.16918       0.27203       0.07533
Nuclear contribution   :     -2.35144       0.93537      -0.68611
                        -----------------------------------------
Total Dipole Moment    :     -2.52062       1.20741      -0.61078
                        -----------------------------------------
Magnitude (a.u.)       :      2.86084
Magnitude (Debye)      :      7.27167

Rotational constants in cm-1:     0.051601     0.020324     0.017288
Rotational constants in MHz :  1546.953282   609.312072   518.280928

                             ****ORCA TERMINATED NORMALLY****
TOTAL RUN TIME: 0 days 0 hours 1 minutes 58 seconds 301 msec
