                         Program Version 3.0.3 - RELEASE   -
|  1> ! wB97X-D3 Def2-TZVP def2-TZVP/J RIJCOSX TightSCF Grid4
|  2>
|  3> %pal nprocs 12 end
|  4>
|  5> %scf
|  6>         maxiter 400
|  7> end
|  8>
|  9> * xyz  0  1
| 10> O  1.815091	1.292341	0.442395
| 11> H  1.129036	1.130352	1.221038
| 12> H  2.515448	1.862818	0.807855
| 13> O  0.031148	0.778502	2.189036
| 14> H  -0.779439	1.033276	1.661463
| 15> H  0.014450	-0.218928	2.113460
| 16> O  0.077710	-1.798143	1.383888
| 17> H  0.869013	-1.666267	0.705948
| 18> H  0.269492	-2.619627	1.871320
| 19> O  -1.909225	1.168677	0.346938
| 20> H  -1.999747	0.166439	0.048641
| 21> H  -2.817556	1.499979	0.468441
| 22> O  1.892140	-1.294594	-0.332487
| 23> H  1.319342	-1.178621	-1.144023
| 24> H  2.085927	-0.345171	-0.084439
| 25> O  -0.021535	1.792653	-1.479193
| 26> H  0.749753	1.791824	-0.842505
| 27> H  -0.802899	1.768221	-0.855198
| 28> O  0.015651	-0.661455	-2.171771
| 29> H  0.000187	0.369961	-1.975743
| 30> H  0.038349	-0.758027	-3.141303
| 31> O  -1.906511	-1.276891	-0.380647
| 32> H  -1.297571	-1.199700	-1.170803
| 33> H  -1.288258	-1.637618	0.317687
| 34> **                         ****END OF INPUT****

CARTESIAN COORDINATES (ANGSTROEM)
---------------------------------
  O      1.815091    1.292341    0.442395
  H      1.129036    1.130352    1.221038
  H      2.515448    1.862818    0.807855
  O      0.031148    0.778502    2.189036
  H     -0.779439    1.033276    1.661463
  H      0.014450   -0.218928    2.113460
  O      0.077710   -1.798143    1.383888
  H      0.869013   -1.666267    0.705948
  H      0.269492   -2.619627    1.871320
  O     -1.909225    1.168677    0.346938
  H     -1.999747    0.166439    0.048641
  H     -2.817556    1.499979    0.468441
  O      1.892140   -1.294594   -0.332487
  H      1.319342   -1.178621   -1.144023
  H      2.085927   -0.345171   -0.084439
  O     -0.021535    1.792653   -1.479193
  H      0.749753    1.791824   -0.842505
  H     -0.802899    1.768221   -0.855198
  O      0.015651   -0.661455   -2.171771
  H      0.000187    0.369961   -1.975743
  H      0.038349   -0.758027   -3.141303
  O     -1.906511   -1.276891   -0.380647
  H     -1.297571   -1.199700   -1.170803
  H     -1.288258   -1.637618    0.317687

 Total Charge           Charge          ....    0
 Multiplicity           Mult            ....    1
 Number of Electrons    NEL             ....   80
 Basis Dimension        Dim             ....  344

ORBITAL ENERGIES
----------------

  NO   OCC          E(Eh)            E(eV)
   0   2.0000     -19.243901      -523.6532
   1   2.0000     -19.243807      -523.6506
   2   2.0000     -19.243412      -523.6399
   3   2.0000     -19.243286      -523.6364
   4   2.0000     -19.227698      -523.2123
   5   2.0000     -19.227515      -523.2073
   6   2.0000     -19.227477      -523.2062
   7   2.0000     -19.227103      -523.1961
   8   2.0000      -1.150580       -31.3089
   9   2.0000      -1.134462       -30.8703
  10   2.0000      -1.131274       -30.7835
  11   2.0000      -1.130890       -30.7731
  12   2.0000      -1.109863       -30.2009
  13   2.0000      -1.109663       -30.1955
  14   2.0000      -1.106308       -30.1042
  15   2.0000      -1.091223       -29.6937
  16   2.0000      -0.648458       -17.6454
  17   2.0000      -0.645136       -17.5551
  18   2.0000      -0.644176       -17.5289
  19   2.0000      -0.643983       -17.5237
  20   2.0000      -0.625040       -17.0082
  21   2.0000      -0.623967       -16.9790
  22   2.0000      -0.617148       -16.7934
  23   2.0000      -0.616913       -16.7870
  24   2.0000      -0.572847       -15.5880
  25   2.0000      -0.526200       -14.3186
  26   2.0000      -0.525856       -14.3093
  27   2.0000      -0.525252       -14.2928
  28   2.0000      -0.493404       -13.4262
  29   2.0000      -0.492997       -13.4151
  30   2.0000      -0.492396       -13.3988
  31   2.0000      -0.451816       -12.2945
  32   2.0000      -0.426847       -11.6151
  33   2.0000      -0.426563       -11.6074
  34   2.0000      -0.425248       -11.5716
  35   2.0000      -0.423573       -11.5260
  36   2.0000      -0.411962       -11.2101
  37   2.0000      -0.410989       -11.1836
  38   2.0000      -0.410897       -11.1811
  39   2.0000      -0.407966       -11.1013
  40   0.0000       0.086492         2.3536
  41   0.0000       0.123183         3.3520
  42   0.0000       0.123561         3.3623
  43   0.0000       0.123743         3.3672
  44   0.0000       0.201606         5.4860

MULLIKEN ATOMIC CHARGES
-----------------------
   0 O :   -0.774773
   1 H :    0.369833
   2 H :    0.353753
   3 O :   -0.686324
   4 H :    0.369074
   5 H :    0.368433
   6 O :   -0.774638
   7 H :    0.369964
   8 H :    0.353626
   9 O :   -0.774210
  10 H :    0.369220
  11 H :    0.353926
  12 O :   -0.686512
  13 H :    0.369817
  14 H :    0.367422
  15 O :   -0.687361
  16 H :    0.370170
  17 H :    0.368741
  18 O :   -0.774858
  19 H :    0.369977
  20 H :    0.354344
  21 O :   -0.686851
  22 H :    0.368350
  23 H :    0.368878
Sum of atomic charges:   -0.0000000

LOEWDIN ATOMIC CHARGES
----------------------
   0 O :   -0.324037
   1 H :    0.142970
   2 H :    0.162069
   3 O :   -0.276162
   4 H :    0.146871
   5 H :    0.147593
   6 O :   -0.323653
   7 H :    0.142726
   8 H :    0.162015
   9 O :   -0.322736
  10 H :    0.143338
  11 H :    0.162335
  12 O :   -0.275801
  13 H :    0.147037
  14 H :    0.147293
  15 O :   -0.276318
  16 H :    0.147525
  17 H :    0.147451
  18 O :   -0.322722
  19 H :    0.143251
  20 H :    0.162398
  21 O :   -0.277153
  22 H :    0.147043
  23 H :    0.146666

  Mayer bond orders larger than 0.1
B(  0-O ,  1-H ) :   0.6906 B(  0-O ,  2-H ) :   0.8780 B(  1-H ,  3-O ) :   0.2273
B(  3-O ,  4-H ) :   0.8115 B(  3-O ,  5-H ) :   0.8120 B(  4-H ,  9-O ) :   0.1000
B(  6-O ,  7-H ) :   0.6906 B(  6-O ,  8-H ) :   0.8781 B(  6-O , 23-H ) :   0.1003
B(  7-H , 12-O ) :   0.2268 B(  9-O , 10-H ) :   0.6911 B(  9-O , 11-H ) :   0.8779
B( 10-H , 21-O ) :   0.2275 B( 12-O , 13-H ) :   0.8108 B( 12-O , 14-H ) :   0.8124
B( 13-H , 18-O ) :   0.1001 B( 15-O , 16-H ) :   0.8108 B( 15-O , 17-H ) :   0.8121
B( 15-O , 19-H ) :   0.2267 B( 18-O , 19-H ) :   0.6910 B( 18-O , 20-H ) :   0.8775
B( 21-O , 22-H ) :   0.8118 B( 21-O , 23-H ) :   0.8116

Dispersion correction           -0.012644529
FINAL SINGLE POINT ENERGY      -611.635018321404

DIPOLE MOMENT
-------------
                                X             Y             Z
Electronic contribution:     -0.00283       0.00361      -0.00465
Nuclear contribution   :      0.01381      -0.00272       0.00460
                        -----------------------------------------
Total Dipole Moment    :      0.01098       0.00089      -0.00005
                        -----------------------------------------
Magnitude (a.u.)       :      0.01101
Magnitude (Debye)      :      0.02799

                             ****ORCA TERMINATED NORMALLY****
TOTAL RUN TIME: 0 days 0 hours 1 minutes 7 seconds 31 msec
