                         Program Version 4.2.0 -  RELEASE  -
|  1> # 12meoh.boyd.etal.mol3,10
|  2> ! MP2 def2-TZVP EnGrad TightSCF
|  3>
|  4> %pal
|  5>     nprocs 6
|  6> end
|  7>
|  8> %maxcore 8000
|  9>
| 10> %scf
| 11>     ConvForced true
| 12> end
| 13>
| 14> *xyz 0 1
| 15> O  -3.821405976  -2.118091637   0.596795346
| 16> H  -4.342989117  -1.344303030   0.251966383
| 17> C  -3.443883586  -1.809641231   1.934889393
| 18> H  -2.831494349  -2.637429600   2.305201764
| 19> H  -4.325601146  -1.719364371   2.585074667
| 20> H  -2.858527126  -0.882644791   1.996110694
| 21> O  -5.201143618   0.064582726  -0.172223772
| 22> H  -4.686891530   0.869258890   0.107806143
| 23> C  -6.513192168   0.171391798   0.359883449
| 24> H  -7.049381312  -0.749234190   0.111361174
| 25> H  -7.057741163   1.017801101  -0.081819420
| 26> H  -6.514770575   0.292264928   1.453058834
| 27> *
| 28>
| 29>                          ****END OF INPUT****

CARTESIAN COORDINATES (ANGSTROEM)
---------------------------------
  O     -3.821406   -2.118092    0.596795
  H     -4.342989   -1.344303    0.251966
  C     -3.443884   -1.809641    1.934889
  H     -2.831494   -2.637430    2.305202
  H     -4.325601   -1.719364    2.585075
  H     -2.858527   -0.882645    1.996111
  O     -5.201144    0.064583   -0.172224
  H     -4.686892    0.869259    0.107806
  C     -6.513192    0.171392    0.359883
  H     -7.049381   -0.749234    0.111361
  H     -7.057741    1.017801   -0.081819
  H     -6.514771    0.292265    1.453059

 Total Charge           Charge          ....    0
 Multiplicity           Mult            ....    1
 Number of Electrons    NEL             ....   36
 Basis Dimension        Dim             ....  172

ORBITAL ENERGIES
----------------

  NO   OCC          E(Eh)            E(eV)
   0   2.0000     -20.592283      -560.3445
   1   2.0000     -20.516019      -558.2692
   2   2.0000     -11.292062      -307.2726
   3   2.0000     -11.254069      -306.2388
   4   2.0000      -1.386297       -37.7231
   5   2.0000      -1.312886       -35.7254
   6   2.0000      -0.943911       -25.6851
   7   2.0000      -0.899483       -24.4762
   8   2.0000      -0.717401       -19.5215
   9   2.0000      -0.677819       -18.4444
  10   2.0000      -0.635124       -17.2826
  11   2.0000      -0.613311       -16.6891
  12   2.0000      -0.595439       -16.2027
  13   2.0000      -0.563614       -15.3367
  14   2.0000      -0.529179       -14.3997
  15   2.0000      -0.491049       -13.3621
  16   2.0000      -0.458795       -12.4845
  17   2.0000      -0.419892       -11.4259
  18   0.0000       0.112535         3.0622
  19   0.0000       0.157282         4.2798
  20   0.0000       0.175317         4.7706
  21   0.0000       0.209451         5.6995
  22   0.0000       0.219472         5.9721

MULLIKEN ATOMIC CHARGES
-----------------------
   0 O :   -0.525403
   1 H :    0.358736
   2 C :   -0.183064
   3 H :    0.127035
   4 H :    0.096140
   5 H :    0.091131
   6 O :   -0.513401
   7 H :    0.340975
   8 C :   -0.192529
   9 H :    0.148772
  10 H :    0.127085
  11 H :    0.124523
Sum of atomic charges:    0.0000000

LOEWDIN ATOMIC CHARGES
----------------------
   0 O :   -0.121543
   1 H :    0.158997
   2 C :   -0.398922
   3 H :    0.107545
   4 H :    0.089627
   5 H :    0.088107
   6 O :   -0.069850
   7 H :    0.199920
   8 C :   -0.376733
   9 H :    0.117666
  10 H :    0.104276
  11 H :    0.100910

  Mayer bond orders larger than 0.100000
B(  0-O ,  1-H ) :   0.7927 B(  0-O ,  2-C ) :   0.9454 B(  2-C ,  3-H ) :   0.9431
B(  2-C ,  4-H ) :   0.9371 B(  2-C ,  5-H ) :   0.9388 B(  6-O ,  7-H ) :   0.8284
B(  6-O ,  8-C ) :   0.8720 B(  8-C ,  9-H ) :   0.9388 B(  8-C , 10-H ) :   0.9352
B(  8-C , 11-H ) :   0.9367

MP2 TOTAL ENERGY:     -231.021957043 Eh
FINAL SINGLE POINT ENERGY      -231.021957043496

DIPOLE MOMENT
-------------
                                X             Y             Z
Electronic contribution:      0.96054      -0.55288      -2.57962
Nuclear contribution   :     -1.61228       1.92201       3.12137
                        -----------------------------------------
Total Dipole Moment    :     -0.65174       1.36913       0.54175
                        -----------------------------------------
Magnitude (a.u.)       :      1.61022
Magnitude (Debye)      :      4.09284

Rotational constants in cm-1:     0.501080     0.088175     0.083847
Rotational constants in MHz : 15022.004854  2643.422654  2513.656885

                             ****ORCA TERMINATED NORMALLY****
TOTAL RUN TIME: 0 days 0 hours 0 minutes 40 seconds 111 msec
