                         Program Version 4.2.0 -  RELEASE  -
|  1> # 12h2o.su.etal.mol2,5,6,7,9,10
|  2> ! MP2 def2-TZVP EnGrad TightSCF
|  3>
|  4> %pal
|  5>     nprocs 6
|  6> end
|  7>
|  8> %maxcore 8000
|  9>
| 10> %scf
| 11>     ConvForced true
| 12> end
| 13>
| 14> *xyz 0 1
| 15> O   0.923410000  -1.794470000  -2.768350000
| 16> H   1.359750000  -2.338250000  -3.430940000
| 17> H   1.303000000  -0.879480000  -2.865760000
| 18> O   0.885520000  -1.737840000   0.052730000
| 19> H   1.284090000  -0.839590000   0.017130000
| 20> H   1.032320000  -2.090180000  -0.841890000
| 21> O   1.737840000   0.885520000  -0.052730000
| 22> H   2.090180000   1.032320000   0.841890000
| 23> H   0.839590000   1.284090000  -0.017130000
| 24> O  -1.737840000  -0.885520000  -0.052730000
| 25> H  -2.090180000  -1.032320000   0.841890000
| 26> H  -0.839590000  -1.284090000  -0.017130000
| 27> O   0.741530000  -1.752130000   2.896280000
| 28> H   0.920500000  -2.036450000   1.984040000
| 29> H   1.242140000  -0.921210000   2.984230000
| 30> O  -0.923410000   1.794470000  -2.768350000
| 31> H  -1.359750000   2.338250000  -3.430940000
| 32> H  -1.303000000   0.879480000  -2.865760000
| 33> *
| 34>
| 35>                          ****END OF INPUT****

CARTESIAN COORDINATES (ANGSTROEM)
---------------------------------
  O      0.923410   -1.794470   -2.768350
  H      1.359750   -2.338250   -3.430940
  H      1.303000   -0.879480   -2.865760
  O      0.885520   -1.737840    0.052730
  H      1.284090   -0.839590    0.017130
  H      1.032320   -2.090180   -0.841890
  O      1.737840    0.885520   -0.052730
  H      2.090180    1.032320    0.841890
  H      0.839590    1.284090   -0.017130
  O     -1.737840   -0.885520   -0.052730
  H     -2.090180   -1.032320    0.841890
  H     -0.839590   -1.284090   -0.017130
  O      0.741530   -1.752130    2.896280
  H      0.920500   -2.036450    1.984040
  H      1.242140   -0.921210    2.984230
  O     -0.923410    1.794470   -2.768350
  H     -1.359750    2.338250   -3.430940
  H     -1.303000    0.879480   -2.865760

 Total Charge           Charge          ....    0
 Multiplicity           Mult            ....    1
 Number of Electrons    NEL             ....   60
 Basis Dimension        Dim             ....  258

ORBITAL ENERGIES
----------------

  NO   OCC          E(Eh)            E(eV)
   0   2.0000     -20.601536      -560.5963
   1   2.0000     -20.591658      -560.3275
   2   2.0000     -20.561328      -559.5022
   3   2.0000     -20.552561      -559.2636
   4   2.0000     -20.536017      -558.8134
   5   2.0000     -20.516357      -558.2785
   6   2.0000      -1.382942       -37.6318
   7   2.0000      -1.369911       -37.2772
   8   2.0000      -1.343439       -36.5568
   9   2.0000      -1.336676       -36.3728
  10   2.0000      -1.317284       -35.8451
  11   2.0000      -1.296955       -35.2919
  12   2.0000      -0.739535       -20.1238
  13   2.0000      -0.736409       -20.0387
  14   2.0000      -0.718102       -19.5406
  15   2.0000      -0.704647       -19.1744
  16   2.0000      -0.686634       -18.6843
  17   2.0000      -0.671507       -18.2726
  18   2.0000      -0.630077       -17.1453
  19   2.0000      -0.610358       -16.6087
  20   2.0000      -0.588678       -16.0187
  21   2.0000      -0.574204       -15.6249
  22   2.0000      -0.557984       -15.1835
  23   2.0000      -0.548953       -14.9378
  24   2.0000      -0.536278       -14.5929
  25   2.0000      -0.525024       -14.2866
  26   2.0000      -0.504829       -13.7371
  27   2.0000      -0.494210       -13.4481
  28   2.0000      -0.482180       -13.1208
  29   2.0000      -0.464842       -12.6490
  30   0.0000       0.089561         2.4371
  31   0.0000       0.114226         3.1083
  32   0.0000       0.137947         3.7537
  33   0.0000       0.174211         4.7405
  34   0.0000       0.179095         4.8734

MULLIKEN ATOMIC CHARGES
-----------------------
   0 O :   -0.700812
   1 H :    0.351757
   2 H :    0.365905
   3 O :   -0.747210
   4 H :    0.348795
   5 H :    0.382194
   6 O :   -0.690419
   7 H :    0.350252
   8 H :    0.381701
   9 O :   -0.728682
  10 H :    0.330846
  11 H :    0.362867
  12 O :   -0.690530
  13 H :    0.375007
  14 H :    0.307512
  15 O :   -0.698428
  16 H :    0.338562
  17 H :    0.360683
Sum of atomic charges:   -0.0000000

LOEWDIN ATOMIC CHARGES
----------------------
   0 O :   -0.310447
   1 H :    0.163652
   2 H :    0.188839
   3 O :   -0.302125
   4 H :    0.139064
   5 H :    0.153147
   6 O :   -0.289057
   7 H :    0.169278
   8 H :    0.188349
   9 O :   -0.366210
  10 H :    0.158953
  11 H :    0.140507
  12 O :   -0.338519
  13 H :    0.151880
  14 H :    0.152134
  15 O :   -0.343983
  16 H :    0.158200
  17 H :    0.186340

  Mayer bond orders larger than 0.100000
B(  0-O ,  1-H ) :   0.8420 B(  0-O ,  2-H ) :   0.8248 B(  3-O ,  4-H ) :   0.7780
B(  3-O ,  5-H ) :   0.8005 B(  6-O ,  7-H ) :   0.8412 B(  6-O ,  8-H ) :   0.8143
B(  9-O , 10-H ) :   0.8554 B(  9-O , 11-H ) :   0.7918 B( 12-O , 13-H ) :   0.8128
B( 12-O , 14-H ) :   0.8686 B( 15-O , 16-H ) :   0.8528 B( 15-O , 17-H ) :   0.8305

MP2 TOTAL ENERGY:     -457.916458587 Eh
FINAL SINGLE POINT ENERGY      -457.916458586560

DIPOLE MOMENT
-------------
                                X             Y             Z
Electronic contribution:      0.09124      -0.01881      -0.23307
Nuclear contribution   :      1.01960       0.90936      -1.17702
                        -----------------------------------------
Total Dipole Moment    :      1.11084       0.89055      -1.41009
                        -----------------------------------------
Magnitude (a.u.)       :      2.00385
Magnitude (Debye)      :      5.09337

Rotational constants in cm-1:     0.054464     0.027250     0.025902
Rotational constants in MHz :  1632.800961   816.926584   776.518858

                             ****ORCA TERMINATED NORMALLY****
TOTAL RUN TIME: 0 days 0 hours 1 minutes 4 seconds 571 msec
