                         Program Version 4.2.0 -  RELEASE  -
|  1> # 12h2o.su.etal.mol1,2,4,5,7,8,10,11
|  2> ! MP2 def2-TZVP EnGrad TightSCF
|  3>
|  4> %pal
|  5>     nprocs 6
|  6> end
|  7>
|  8> %maxcore 8000
|  9>
| 10> %scf
| 11>     ConvForced true
| 12> end
| 13>
| 14> *xyz 0 1
| 15> O  -1.794470000  -0.923410000   2.768350000
| 16> H  -2.338250000  -1.359750000   3.430940000
| 17> H  -0.879480000  -1.303000000   2.865760000
| 18> O   0.923410000  -1.794470000  -2.768350000
| 19> H   1.359750000  -2.338250000  -3.430940000
| 20> H   1.303000000  -0.879480000  -2.865760000
| 21> O  -0.885520000   1.737840000   0.052730000
| 22> H  -1.032320000   2.090180000  -0.841890000
| 23> H  -1.284090000   0.839590000   0.017130000
| 24> O   0.885520000  -1.737840000   0.052730000
| 25> H   1.284090000  -0.839590000   0.017130000
| 26> H   1.032320000  -2.090180000  -0.841890000
| 27> O  -1.737840000  -0.885520000  -0.052730000
| 28> H  -2.090180000  -1.032320000   0.841890000
| 29> H  -0.839590000  -1.284090000  -0.017130000
| 30> O   1.752130000   0.741530000  -2.896280000
| 31> H   2.036450000   0.920500000  -1.984040000
| 32> H   0.921210000   1.242140000  -2.984230000
| 33> O  -0.923410000   1.794470000  -2.768350000
| 34> H  -1.359750000   2.338250000  -3.430940000
| 35> H  -1.303000000   0.879480000  -2.865760000
| 36> O  -0.741530000   1.752130000   2.896280000
| 37> H  -0.920500000   2.036450000   1.984040000
| 38> H  -1.242140000   0.921210000   2.984230000
| 39> *
| 40>
| 41>                          ****END OF INPUT****

CARTESIAN COORDINATES (ANGSTROEM)
---------------------------------
  O     -1.794470   -0.923410    2.768350
  H     -2.338250   -1.359750    3.430940
  H     -0.879480   -1.303000    2.865760
  O      0.923410   -1.794470   -2.768350
  H      1.359750   -2.338250   -3.430940
  H      1.303000   -0.879480   -2.865760
  O     -0.885520    1.737840    0.052730
  H     -1.032320    2.090180   -0.841890
  H     -1.284090    0.839590    0.017130
  O      0.885520   -1.737840    0.052730
  H      1.284090   -0.839590    0.017130
  H      1.032320   -2.090180   -0.841890
  O     -1.737840   -0.885520   -0.052730
  H     -2.090180   -1.032320    0.841890
  H     -0.839590   -1.284090   -0.017130
  O      1.752130    0.741530   -2.896280
  H      2.036450    0.920500   -1.984040
  H      0.921210    1.242140   -2.984230
  O     -0.923410    1.794470   -2.768350
  H     -1.359750    2.338250   -3.430940
  H     -1.303000    0.879480   -2.865760
  O     -0.741530    1.752130    2.896280
  H     -0.920500    2.036450    1.984040
  H     -1.242140    0.921210    2.984230

 Total Charge           Charge          ....    0
 Multiplicity           Mult            ....    1
 Number of Electrons    NEL             ....   80
 Basis Dimension        Dim             ....  344

ORBITAL ENERGIES
----------------

  NO   OCC          E(Eh)            E(eV)
   0   2.0000     -20.615112      -560.9657
   1   2.0000     -20.598981      -560.5268
   2   2.0000     -20.587481      -560.2138
   3   2.0000     -20.567270      -559.6639
   4   2.0000     -20.555313      -559.3385
   5   2.0000     -20.532422      -558.7156
   6   2.0000     -20.518621      -558.3401
   7   2.0000     -20.492297      -557.6238
   8   2.0000      -1.396249       -37.9939
   9   2.0000      -1.379379       -37.5348
  10   2.0000      -1.376235       -37.4492
  11   2.0000      -1.354248       -36.8510
  12   2.0000      -1.336252       -36.3613
  13   2.0000      -1.322579       -35.9892
  14   2.0000      -1.303176       -35.4612
  15   2.0000      -1.277154       -34.7531
  16   2.0000      -0.761904       -20.7325
  17   2.0000      -0.744738       -20.2654
  18   2.0000      -0.736853       -20.0508
  19   2.0000      -0.722976       -19.6732
  20   2.0000      -0.712981       -19.4012
  21   2.0000      -0.695990       -18.9388
  22   2.0000      -0.687245       -18.7009
  23   2.0000      -0.656678       -17.8691
  24   2.0000      -0.639921       -17.4131
  25   2.0000      -0.622307       -16.9338
  26   2.0000      -0.618430       -16.8283
  27   2.0000      -0.599481       -16.3127
  28   2.0000      -0.579807       -15.7774
  29   2.0000      -0.573809       -15.6141
  30   2.0000      -0.565675       -15.3928
  31   2.0000      -0.548989       -14.9387
  32   2.0000      -0.528518       -14.3817
  33   2.0000      -0.524623       -14.2757
  34   2.0000      -0.507123       -13.7995
  35   2.0000      -0.505079       -13.7439
  36   2.0000      -0.504007       -13.7147
  37   2.0000      -0.479090       -13.0367
  38   2.0000      -0.469009       -12.7624
  39   2.0000      -0.442300       -12.0356
  40   0.0000       0.091582         2.4921
  41   0.0000       0.113450         3.0871
  42   0.0000       0.125055         3.4029
  43   0.0000       0.152093         4.1387
  44   0.0000       0.182852         4.9757

MULLIKEN ATOMIC CHARGES
-----------------------
   0 O :   -0.713682
   1 H :    0.359864
   2 H :    0.375941
   3 O :   -0.741934
   4 H :    0.340987
   5 H :    0.368409
   6 O :   -0.748228
   7 H :    0.356048
   8 H :    0.345150
   9 O :   -0.707573
  10 H :    0.338991
  11 H :    0.384352
  12 O :   -0.732863
  13 H :    0.370039
  14 H :    0.365682
  15 O :   -0.699348
  16 H :    0.353661
  17 H :    0.380729
  18 O :   -0.723697
  19 H :    0.365052
  20 H :    0.385398
  21 O :   -0.729755
  22 H :    0.370012
  23 H :    0.336766
Sum of atomic charges:    0.0000000

LOEWDIN ATOMIC CHARGES
----------------------
   0 O :   -0.287196
   1 H :    0.165729
   2 H :    0.193640
   3 O :   -0.342107
   4 H :    0.155694
   5 H :    0.142387
   6 O :   -0.351540
   7 H :    0.142268
   8 H :    0.137398
   9 O :   -0.301161
  10 H :    0.168093
  11 H :    0.154974
  12 O :   -0.320128
  13 H :    0.146988
  14 H :    0.141332
  15 O :   -0.278088
  16 H :    0.169702
  17 H :    0.155535
  18 O :   -0.287983
  19 H :    0.168604
  20 H :    0.197125
  21 O :   -0.359259
  22 H :    0.150379
  23 H :    0.137615

  Mayer bond orders larger than 0.100000
B(  0-O ,  1-H ) :   0.8345 B(  0-O ,  2-H ) :   0.8166 B(  3-O ,  4-H ) :   0.8484
B(  3-O ,  5-H ) :   0.7567 B(  5-H , 15-O ) :   0.1026 B(  6-O ,  7-H ) :   0.8296
B(  6-O ,  8-H ) :   0.7697 B(  8-H , 12-O ) :   0.1116 B(  9-O , 10-H ) :   0.8422
B(  9-O , 11-H ) :   0.7902 B( 12-O , 13-H ) :   0.8160 B( 12-O , 14-H ) :   0.7787
B( 15-O , 16-H ) :   0.8386 B( 15-O , 17-H ) :   0.7954 B( 18-O , 19-H ) :   0.8313
B( 18-O , 20-H ) :   0.8089 B( 21-O , 22-H ) :   0.8173 B( 21-O , 23-H ) :   0.8409

MP2 TOTAL ENERGY:     -610.581507996 Eh
FINAL SINGLE POINT ENERGY      -610.581507995916

DIPOLE MOMENT
-------------
                                X             Y             Z
Electronic contribution:      0.03970       0.04559      -0.19331
Nuclear contribution   :     -0.25725      -1.02241      -1.40687
                        -----------------------------------------
Total Dipole Moment    :     -0.21754      -0.97681      -1.60018
                        -----------------------------------------
Magnitude (a.u.)       :      1.88734
Magnitude (Debye)      :      4.79724

Rotational constants in cm-1:     0.037466     0.018271     0.014857
Rotational constants in MHz :  1123.192448   547.747815   445.396494

                             ****ORCA TERMINATED NORMALLY****
TOTAL RUN TIME: 0 days 0 hours 3 minutes 9 seconds 57 msec
