                         Program Version 4.2.0 -  RELEASE  -
|  1> # 12h2o.su.etal.mol1,2,3,6,7,8,9
|  2> ! MP2 def2-TZVP EnGrad TightSCF
|  3>
|  4> %pal
|  5>     nprocs 6
|  6> end
|  7>
|  8> %maxcore 8000
|  9>
| 10> %scf
| 11>     ConvForced true
| 12> end
| 13>
| 14> *xyz 0 1
| 15> O  -1.794470000  -0.923410000   2.768350000
| 16> H  -2.338250000  -1.359750000   3.430940000
| 17> H  -0.879480000  -1.303000000   2.865760000
| 18> O   0.923410000  -1.794470000  -2.768350000
| 19> H   1.359750000  -2.338250000  -3.430940000
| 20> H   1.303000000  -0.879480000  -2.865760000
| 21> O  -1.752130000  -0.741530000  -2.896280000
| 22> H  -2.036450000  -0.920500000  -1.984040000
| 23> H  -0.921210000  -1.242140000  -2.984230000
| 24> O   1.737840000   0.885520000  -0.052730000
| 25> H   2.090180000   1.032320000   0.841890000
| 26> H   0.839590000   1.284090000  -0.017130000
| 27> O  -1.737840000  -0.885520000  -0.052730000
| 28> H  -2.090180000  -1.032320000   0.841890000
| 29> H  -0.839590000  -1.284090000  -0.017130000
| 30> O   1.752130000   0.741530000  -2.896280000
| 31> H   2.036450000   0.920500000  -1.984040000
| 32> H   0.921210000   1.242140000  -2.984230000
| 33> O   0.741530000  -1.752130000   2.896280000
| 34> H   0.920500000  -2.036450000   1.984040000
| 35> H   1.242140000  -0.921210000   2.984230000
| 36> *
| 37>
| 38>                          ****END OF INPUT****

CARTESIAN COORDINATES (ANGSTROEM)
---------------------------------
  O     -1.794470   -0.923410    2.768350
  H     -2.338250   -1.359750    3.430940
  H     -0.879480   -1.303000    2.865760
  O      0.923410   -1.794470   -2.768350
  H      1.359750   -2.338250   -3.430940
  H      1.303000   -0.879480   -2.865760
  O     -1.752130   -0.741530   -2.896280
  H     -2.036450   -0.920500   -1.984040
  H     -0.921210   -1.242140   -2.984230
  O      1.737840    0.885520   -0.052730
  H      2.090180    1.032320    0.841890
  H      0.839590    1.284090   -0.017130
  O     -1.737840   -0.885520   -0.052730
  H     -2.090180   -1.032320    0.841890
  H     -0.839590   -1.284090   -0.017130
  O      1.752130    0.741530   -2.896280
  H      2.036450    0.920500   -1.984040
  H      0.921210    1.242140   -2.984230
  O      0.741530   -1.752130    2.896280
  H      0.920500   -2.036450    1.984040
  H      1.242140   -0.921210    2.984230

 Total Charge           Charge          ....    0
 Multiplicity           Mult            ....    1
 Number of Electrons    NEL             ....   70
 Basis Dimension        Dim             ....  301

ORBITAL ENERGIES
----------------

  NO   OCC          E(Eh)            E(eV)
   0   2.0000     -20.623196      -561.1857
   1   2.0000     -20.611462      -560.8664
   2   2.0000     -20.571840      -559.7882
   3   2.0000     -20.557617      -559.4012
   4   2.0000     -20.549062      -559.1684
   5   2.0000     -20.533736      -558.7514
   6   2.0000     -20.488680      -557.5253
   7   2.0000      -1.408573       -38.3292
   8   2.0000      -1.390173       -37.8285
   9   2.0000      -1.360255       -37.0144
  10   2.0000      -1.344010       -36.5724
  11   2.0000      -1.328434       -36.1485
  12   2.0000      -1.317320       -35.8461
  13   2.0000      -1.273736       -34.6601
  14   2.0000      -0.765687       -20.8354
  15   2.0000      -0.752809       -20.4850
  16   2.0000      -0.728926       -19.8351
  17   2.0000      -0.721169       -19.6240
  18   2.0000      -0.701468       -19.0879
  19   2.0000      -0.698330       -19.0025
  20   2.0000      -0.650533       -17.7019
  21   2.0000      -0.645648       -17.5690
  22   2.0000      -0.635041       -17.2803
  23   2.0000      -0.599468       -16.3124
  24   2.0000      -0.595202       -16.1963
  25   2.0000      -0.575547       -15.6614
  26   2.0000      -0.560883       -15.2624
  27   2.0000      -0.553663       -15.0659
  28   2.0000      -0.546121       -14.8607
  29   2.0000      -0.519996       -14.1498
  30   2.0000      -0.506540       -13.7837
  31   2.0000      -0.504001       -13.7146
  32   2.0000      -0.492823       -13.4104
  33   2.0000      -0.478463       -13.0197
  34   2.0000      -0.439108       -11.9487
  35   0.0000       0.062074         1.6891
  36   0.0000       0.120709         3.2847
  37   0.0000       0.129431         3.5220
  38   0.0000       0.150717         4.1012
  39   0.0000       0.165858         4.5132

MULLIKEN ATOMIC CHARGES
-----------------------
   0 O :   -0.736531
   1 H :    0.341763
   2 H :    0.367214
   3 O :   -0.741922
   4 H :    0.335212
   5 H :    0.381765
   6 O :   -0.740175
   7 H :    0.366406
   8 H :    0.345269
   9 O :   -0.701719
  10 H :    0.344138
  11 H :    0.365346
  12 O :   -0.710920
  13 H :    0.376104
  14 H :    0.321785
  15 O :   -0.699975
  16 H :    0.382560
  17 H :    0.357008
  18 O :   -0.671420
  19 H :    0.363536
  20 H :    0.354556
Sum of atomic charges:   -0.0000000

LOEWDIN ATOMIC CHARGES
----------------------
   0 O :   -0.339900
   1 H :    0.156158
   2 H :    0.142427
   3 O :   -0.343289
   4 H :    0.152767
   5 H :    0.145473
   6 O :   -0.362642
   7 H :    0.148307
   8 H :    0.139857
   9 O :   -0.317261
  10 H :    0.167327
  11 H :    0.182338
  12 O :   -0.326032
  13 H :    0.152723
  14 H :    0.159663
  15 O :   -0.275262
  16 H :    0.158235
  17 H :    0.173856
  18 O :   -0.263916
  19 H :    0.175000
  20 H :    0.174168

  Mayer bond orders larger than 0.100000
B(  0-O ,  1-H ) :   0.8481 B(  0-O ,  2-H ) :   0.7732 B(  3-O ,  4-H ) :   0.8517
B(  3-O ,  5-H ) :   0.7588 B(  6-O ,  7-H ) :   0.8241 B(  6-O ,  8-H ) :   0.8206
B(  9-O , 10-H ) :   0.8450 B(  9-O , 11-H ) :   0.8251 B( 12-O , 13-H ) :   0.8000
B( 12-O , 14-H ) :   0.8499 B( 15-O , 16-H ) :   0.8074 B( 15-O , 17-H ) :   0.8336
B( 18-O , 19-H ) :   0.8326 B( 18-O , 20-H ) :   0.8380

MP2 TOTAL ENERGY:     -534.242953827 Eh
FINAL SINGLE POINT ENERGY      -534.242953826689

DIPOLE MOMENT
-------------
                                X             Y             Z
Electronic contribution:      0.25416       0.17736       0.17397
Nuclear contribution   :      1.55378       0.08480       2.23466
                        -----------------------------------------
Total Dipole Moment    :      1.80794       0.26216       2.40863
                        -----------------------------------------
Magnitude (a.u.)       :      3.02306
Magnitude (Debye)      :      7.68401

Rotational constants in cm-1:     0.042790     0.019999     0.016166
Rotational constants in MHz :  1282.819941   599.566372   484.645548

                             ****ORCA TERMINATED NORMALLY****
TOTAL RUN TIME: 0 days 0 hours 1 minutes 41 seconds 33 msec
