                         Program Version 4.2.0 -  RELEASE  -
|  1> # 12mecn.remya.etal.2.mol2,4,6
|  2> ! MP2 def2-TZVP EnGrad TightSCF
|  3>
|  4> %pal
|  5>     nprocs 6
|  6> end
|  7>
|  8> %maxcore 8000
|  9>
| 10> %scf
| 11>     ConvForced true
| 12> end
| 13>
| 14> *xyz 0 1
| 15> C  -4.219070000  -3.477410000  -1.501740000
| 16> H  -3.251530000  -3.803540000  -1.893830000
| 17> H  -4.452920000  -2.481700000  -1.890840000
| 18> H  -4.992170000  -4.178130000  -1.824640000
| 19> C  -4.154550000  -3.418790000  -0.058340000
| 20> N  -4.091140000  -3.354840000   1.104432000
| 21> C  -1.509690000  -0.693960000  -1.610140000
| 22> H  -1.327010000  -1.692700000  -2.017370000
| 23> H  -0.742170000  -0.000650000  -1.964400000
| 24> H  -2.491920000  -0.334310000  -1.929350000
| 25> C  -1.473570000  -0.748120000  -0.167200000
| 26> N  -1.447490000  -0.793720000   0.998938000
| 27> C   5.300864000  -2.920090000   1.401103000
| 28> H   5.986071000  -2.139770000   1.737487000
| 29> H   5.636642000  -3.888750000   1.778233000
| 30> H   4.307359000  -2.697240000   1.799307000
| 31> C   5.234791000  -2.933140000  -0.043290000
| 32> N   5.170868000  -2.941760000  -1.207750000
| 33> *
| 34>
| 35>                          ****END OF INPUT****

CARTESIAN COORDINATES (ANGSTROEM)
---------------------------------
  C     -4.219070   -3.477410   -1.501740
  H     -3.251530   -3.803540   -1.893830
  H     -4.452920   -2.481700   -1.890840
  H     -4.992170   -4.178130   -1.824640
  C     -4.154550   -3.418790   -0.058340
  N     -4.091140   -3.354840    1.104432
  C     -1.509690   -0.693960   -1.610140
  H     -1.327010   -1.692700   -2.017370
  H     -0.742170   -0.000650   -1.964400
  H     -2.491920   -0.334310   -1.929350
  C     -1.473570   -0.748120   -0.167200
  N     -1.447490   -0.793720    0.998938
  C      5.300864   -2.920090    1.401103
  H      5.986071   -2.139770    1.737487
  H      5.636642   -3.888750    1.778233
  H      4.307359   -2.697240    1.799307
  C      5.234791   -2.933140   -0.043290
  N      5.170868   -2.941760   -1.207750

 Total Charge           Charge          ....    0
 Multiplicity           Mult            ....    1
 Number of Electrons    NEL             ....   66
 Basis Dimension        Dim             ....  333

ORBITAL ENERGIES
----------------

  NO   OCC          E(Eh)            E(eV)
   0   2.0000     -15.572962      -423.7618
   1   2.0000     -15.571500      -423.7220
   2   2.0000     -15.571320      -423.7171
   3   2.0000     -11.289314      -307.1979
   4   2.0000     -11.288368      -307.1721
   5   2.0000     -11.282870      -307.0225
   6   2.0000     -11.280428      -306.9560
   7   2.0000     -11.276516      -306.8496
   8   2.0000     -11.276440      -306.8475
   9   2.0000      -1.214893       -33.0589
  10   2.0000      -1.212511       -32.9941
  11   2.0000      -1.211049       -32.9543
  12   2.0000      -1.047738       -28.5104
  13   2.0000      -1.045072       -28.4379
  14   2.0000      -1.042412       -28.3655
  15   2.0000      -0.703321       -19.1383
  16   2.0000      -0.700030       -19.0488
  17   2.0000      -0.699906       -19.0454
  18   2.0000      -0.641517       -17.4566
  19   2.0000      -0.638734       -17.3808
  20   2.0000      -0.633137       -17.2285
  21   2.0000      -0.631140       -17.1742
  22   2.0000      -0.628791       -17.1103
  23   2.0000      -0.628231       -17.0950
  24   2.0000      -0.556435       -15.1414
  25   2.0000      -0.553938       -15.0734
  26   2.0000      -0.551105       -14.9963
  27   2.0000      -0.462881       -12.5956
  28   2.0000      -0.458211       -12.4686
  29   2.0000      -0.457581       -12.4514
  30   2.0000      -0.456861       -12.4318
  31   2.0000      -0.453732       -12.3467
  32   2.0000      -0.446708       -12.1555
  33   0.0000       0.096456         2.6247
  34   0.0000       0.121423         3.3041
  35   0.0000       0.143935         3.9167
  36   0.0000       0.148574         4.0429
  37   0.0000       0.156700         4.2640

MULLIKEN ATOMIC CHARGES
-----------------------
   0 C :   -0.286203
   1 H :    0.167005
   2 H :    0.163743
   3 H :    0.182240
   4 C :   -0.154424
   5 N :   -0.072343
   6 C :   -0.281890
   7 H :    0.164423
   8 H :    0.183567
   9 H :    0.165788
  10 C :   -0.155500
  11 N :   -0.076401
  12 C :   -0.281141
  13 H :    0.171722
  14 H :    0.172130
  15 H :    0.178038
  16 C :   -0.145300
  17 N :   -0.095453
Sum of atomic charges:   -0.0000000

LOEWDIN ATOMIC CHARGES
----------------------
   0 C :   -0.288072
   1 H :    0.149952
   2 H :    0.149435
   3 H :    0.152052
   4 C :   -0.224254
   5 N :    0.060917
   6 C :   -0.287199
   7 H :    0.149435
   8 H :    0.154396
   9 H :    0.150017
  10 C :   -0.224951
  11 N :    0.058273
  12 C :   -0.282940
  13 H :    0.151706
  14 H :    0.151584
  15 H :    0.154984
  16 C :   -0.218124
  17 N :    0.042788

  Mayer bond orders larger than 0.100000
B(  0-C ,  1-H ) :   0.9225 B(  0-C ,  2-H ) :   0.9206 B(  0-C ,  3-H ) :   0.9112
B(  0-C ,  4-C ) :   0.8983 B(  4-C ,  5-N ) :   2.8265 B(  6-C ,  7-H ) :   0.9198
B(  6-C ,  8-H ) :   0.9106 B(  6-C ,  9-H ) :   0.9230 B(  6-C , 10-C ) :   0.8964
B( 10-C , 11-N ) :   2.8287 B( 12-C , 13-H ) :   0.9166 B( 12-C , 14-H ) :   0.9159
B( 12-C , 15-H ) :   0.9151 B( 12-C , 16-C ) :   0.9024 B( 16-C , 17-N ) :   2.8403

MP2 TOTAL ENERGY:     -397.448444946 Eh
FINAL SINGLE POINT ENERGY      -397.448444945522

DIPOLE MOMENT
-------------
                                X             Y             Z
Electronic contribution:      0.09113      -0.04819       3.27067
Nuclear contribution   :     -0.12425       0.05604      -4.61559
                        -----------------------------------------
Total Dipole Moment    :     -0.03312       0.00785      -1.34492
                        -----------------------------------------
Magnitude (a.u.)       :      1.34535
Magnitude (Debye)      :      3.41961

Rotational constants in cm-1:     0.051116     0.008085     0.007982
Rotational constants in MHz :  1532.405353   242.380262   239.291850

                             ****ORCA TERMINATED NORMALLY****
TOTAL RUN TIME: 0 days 0 hours 2 minutes 23 seconds 807 msec
