                         Program Version 4.2.0 -  RELEASE  -
|  1> # 12h2o.su.etal.mol0,7,9,10,11
|  2> ! MP2 def2-TZVP EnGrad TightSCF
|  3>
|  4> %pal
|  5>     nprocs 6
|  6> end
|  7>
|  8> %maxcore 8000
|  9>
| 10> %scf
| 11>     ConvForced true
| 12> end
| 13>
| 14> *xyz 0 1
| 15> O   1.794470000   0.923410000   2.768350000
| 16> H   2.338250000   1.359750000   3.430940000
| 17> H   0.879480000   1.303000000   2.865760000
| 18> O  -1.737840000  -0.885520000  -0.052730000
| 19> H  -2.090180000  -1.032320000   0.841890000
| 20> H  -0.839590000  -1.284090000  -0.017130000
| 21> O   0.741530000  -1.752130000   2.896280000
| 22> H   0.920500000  -2.036450000   1.984040000
| 23> H   1.242140000  -0.921210000   2.984230000
| 24> O  -0.923410000   1.794470000  -2.768350000
| 25> H  -1.359750000   2.338250000  -3.430940000
| 26> H  -1.303000000   0.879480000  -2.865760000
| 27> O  -0.741530000   1.752130000   2.896280000
| 28> H  -0.920500000   2.036450000   1.984040000
| 29> H  -1.242140000   0.921210000   2.984230000
| 30> *
| 31>
| 32>                          ****END OF INPUT****

CARTESIAN COORDINATES (ANGSTROEM)
---------------------------------
  O      1.794470    0.923410    2.768350
  H      2.338250    1.359750    3.430940
  H      0.879480    1.303000    2.865760
  O     -1.737840   -0.885520   -0.052730
  H     -2.090180   -1.032320    0.841890
  H     -0.839590   -1.284090   -0.017130
  O      0.741530   -1.752130    2.896280
  H      0.920500   -2.036450    1.984040
  H      1.242140   -0.921210    2.984230
  O     -0.923410    1.794470   -2.768350
  H     -1.359750    2.338250   -3.430940
  H     -1.303000    0.879480   -2.865760
  O     -0.741530    1.752130    2.896280
  H     -0.920500    2.036450    1.984040
  H     -1.242140    0.921210    2.984230

 Total Charge           Charge          ....    0
 Multiplicity           Mult            ....    1
 Number of Electrons    NEL             ....   50
 Basis Dimension        Dim             ....  215

ORBITAL ENERGIES
----------------

  NO   OCC          E(Eh)            E(eV)
   0   2.0000     -20.600254      -560.5614
   1   2.0000     -20.575900      -559.8987
   2   2.0000     -20.557920      -559.4094
   3   2.0000     -20.546945      -559.1108
   4   2.0000     -20.541724      -558.9687
   5   2.0000      -1.386028       -37.7157
   6   2.0000      -1.351617       -36.7794
   7   2.0000      -1.333425       -36.2843
   8   2.0000      -1.333296       -36.2808
   9   2.0000      -1.321153       -35.9504
  10   2.0000      -0.742630       -20.2080
  11   2.0000      -0.716725       -19.5031
  12   2.0000      -0.714044       -19.4301
  13   2.0000      -0.701484       -19.0884
  14   2.0000      -0.691146       -18.8070
  15   2.0000      -0.625784       -17.0284
  16   2.0000      -0.591431       -16.0937
  17   2.0000      -0.584860       -15.9149
  18   2.0000      -0.569616       -15.5001
  19   2.0000      -0.559647       -15.2288
  20   2.0000      -0.528854       -14.3908
  21   2.0000      -0.518492       -14.1089
  22   2.0000      -0.501161       -13.6373
  23   2.0000      -0.496738       -13.5169
  24   2.0000      -0.488283       -13.2869
  25   0.0000       0.086715         2.3596
  26   0.0000       0.131029         3.5655
  27   0.0000       0.137465         3.7406
  28   0.0000       0.152495         4.1496
  29   0.0000       0.177409         4.8276

MULLIKEN ATOMIC CHARGES
-----------------------
   0 O :   -0.737014
   1 H :    0.340809
   2 H :    0.379052
   3 O :   -0.675840
   4 H :    0.336995
   5 H :    0.339135
   6 O :   -0.710865
   7 H :    0.319503
   8 H :    0.365849
   9 O :   -0.686538
  10 H :    0.335928
  11 H :    0.349440
  12 O :   -0.685625
  13 H :    0.370050
  14 H :    0.359120
Sum of atomic charges:    0.0000000

LOEWDIN ATOMIC CHARGES
----------------------
   0 O :   -0.338722
   1 H :    0.155684
   2 H :    0.145239
   3 O :   -0.334199
   4 H :    0.163428
   5 H :    0.171283
   6 O :   -0.348809
   7 H :    0.153946
   8 H :    0.148908
   9 O :   -0.340713
  10 H :    0.156539
  11 H :    0.182740
  12 O :   -0.268936
  13 H :    0.179310
  14 H :    0.174303

  Mayer bond orders larger than 0.100000
B(  0-O ,  1-H ) :   0.8486 B(  0-O ,  2-H ) :   0.7653 B(  3-O ,  4-H ) :   0.8514
B(  3-O ,  5-H ) :   0.8476 B(  6-O ,  7-H ) :   0.8617 B(  6-O ,  8-H ) :   0.7994
B(  9-O , 10-H ) :   0.8546 B(  9-O , 11-H ) :   0.8403 B( 12-O , 13-H ) :   0.8288
B( 12-O , 14-H ) :   0.8325

MP2 TOTAL ENERGY:     -381.588277643 Eh
FINAL SINGLE POINT ENERGY      -381.588277643170

DIPOLE MOMENT
-------------
                                X             Y             Z
Electronic contribution:     -0.13735       0.31893       0.11505
Nuclear contribution   :     -0.53373      -0.08378      -0.59793
                        -----------------------------------------
Total Dipole Moment    :     -0.67109       0.23515      -0.48289
                        -----------------------------------------
Magnitude (a.u.)       :      0.85955
Magnitude (Debye)      :      2.18481

Rotational constants in cm-1:     0.066794     0.026966     0.023460
Rotational constants in MHz :  2002.429597   808.413983   703.305434

                             ****ORCA TERMINATED NORMALLY****
TOTAL RUN TIME: 0 days 0 hours 0 minutes 29 seconds 715 msec
