                         Program Version 4.2.0 -  RELEASE  -
|  1> # 12h2o.su.etal.mol0,2,3,4,5,9,10,11
|  2> ! MP2 def2-TZVP EnGrad TightSCF
|  3>
|  4> %pal
|  5>     nprocs 6
|  6> end
|  7>
|  8> %maxcore 8000
|  9>
| 10> %scf
| 11>     ConvForced true
| 12> end
| 13>
| 14> *xyz 0 1
| 15> O   1.794470000   0.923410000   2.768350000
| 16> H   2.338250000   1.359750000   3.430940000
| 17> H   0.879480000   1.303000000   2.865760000
| 18> O   0.923410000  -1.794470000  -2.768350000
| 19> H   1.359750000  -2.338250000  -3.430940000
| 20> H   1.303000000  -0.879480000  -2.865760000
| 21> O  -1.752130000  -0.741530000  -2.896280000
| 22> H  -2.036450000  -0.920500000  -1.984040000
| 23> H  -0.921210000  -1.242140000  -2.984230000
| 24> O  -0.885520000   1.737840000   0.052730000
| 25> H  -1.032320000   2.090180000  -0.841890000
| 26> H  -1.284090000   0.839590000   0.017130000
| 27> O   0.885520000  -1.737840000   0.052730000
| 28> H   1.284090000  -0.839590000   0.017130000
| 29> H   1.032320000  -2.090180000  -0.841890000
| 30> O   0.741530000  -1.752130000   2.896280000
| 31> H   0.920500000  -2.036450000   1.984040000
| 32> H   1.242140000  -0.921210000   2.984230000
| 33> O  -0.923410000   1.794470000  -2.768350000
| 34> H  -1.359750000   2.338250000  -3.430940000
| 35> H  -1.303000000   0.879480000  -2.865760000
| 36> O  -0.741530000   1.752130000   2.896280000
| 37> H  -0.920500000   2.036450000   1.984040000
| 38> H  -1.242140000   0.921210000   2.984230000
| 39> *
| 40>
| 41>                          ****END OF INPUT****

CARTESIAN COORDINATES (ANGSTROEM)
---------------------------------
  O      1.794470    0.923410    2.768350
  H      2.338250    1.359750    3.430940
  H      0.879480    1.303000    2.865760
  O      0.923410   -1.794470   -2.768350
  H      1.359750   -2.338250   -3.430940
  H      1.303000   -0.879480   -2.865760
  O     -1.752130   -0.741530   -2.896280
  H     -2.036450   -0.920500   -1.984040
  H     -0.921210   -1.242140   -2.984230
  O     -0.885520    1.737840    0.052730
  H     -1.032320    2.090180   -0.841890
  H     -1.284090    0.839590    0.017130
  O      0.885520   -1.737840    0.052730
  H      1.284090   -0.839590    0.017130
  H      1.032320   -2.090180   -0.841890
  O      0.741530   -1.752130    2.896280
  H      0.920500   -2.036450    1.984040
  H      1.242140   -0.921210    2.984230
  O     -0.923410    1.794470   -2.768350
  H     -1.359750    2.338250   -3.430940
  H     -1.303000    0.879480   -2.865760
  O     -0.741530    1.752130    2.896280
  H     -0.920500    2.036450    1.984040
  H     -1.242140    0.921210    2.984230

 Total Charge           Charge          ....    0
 Multiplicity           Mult            ....    1
 Number of Electrons    NEL             ....   80
 Basis Dimension        Dim             ....  344

ORBITAL ENERGIES
----------------

  NO   OCC          E(Eh)            E(eV)
   0   2.0000     -20.634542      -561.4944
   1   2.0000     -20.597311      -560.4813
   2   2.0000     -20.563652      -559.5654
   3   2.0000     -20.561753      -559.5138
   4   2.0000     -20.561245      -559.4999
   5   2.0000     -20.557822      -559.4068
   6   2.0000     -20.524321      -558.4952
   7   2.0000     -20.488977      -557.5334
   8   2.0000      -1.415199       -38.5095
   9   2.0000      -1.386259       -37.7220
  10   2.0000      -1.353139       -36.8208
  11   2.0000      -1.346014       -36.6269
  12   2.0000      -1.343185       -36.5499
  13   2.0000      -1.337373       -36.3918
  14   2.0000      -1.307786       -35.5867
  15   2.0000      -1.273916       -34.6650
  16   2.0000      -0.780909       -21.2496
  17   2.0000      -0.747634       -20.3442
  18   2.0000      -0.729469       -19.8499
  19   2.0000      -0.717668       -19.5287
  20   2.0000      -0.713902       -19.4263
  21   2.0000      -0.701500       -19.0888
  22   2.0000      -0.691519       -18.8172
  23   2.0000      -0.656023       -17.8513
  24   2.0000      -0.650695       -17.7063
  25   2.0000      -0.629138       -17.1197
  26   2.0000      -0.607953       -16.5433
  27   2.0000      -0.594485       -16.1768
  28   2.0000      -0.589102       -16.0303
  29   2.0000      -0.572632       -15.5821
  30   2.0000      -0.565403       -15.3854
  31   2.0000      -0.548513       -14.9258
  32   2.0000      -0.533793       -14.5253
  33   2.0000      -0.518799       -14.1172
  34   2.0000      -0.511824       -13.9274
  35   2.0000      -0.509046       -13.8518
  36   2.0000      -0.502700       -13.6792
  37   2.0000      -0.493423       -13.4267
  38   2.0000      -0.470877       -12.8132
  39   2.0000      -0.439400       -11.9567
  40   0.0000       0.075020         2.0414
  41   0.0000       0.110115         2.9964
  42   0.0000       0.143122         3.8945
  43   0.0000       0.146982         3.9996
  44   0.0000       0.161800         4.4028

MULLIKEN ATOMIC CHARGES
-----------------------
   0 O :   -0.740536
   1 H :    0.332699
   2 H :    0.384568
   3 O :   -0.724111
   4 H :    0.372034
   5 H :    0.378361
   6 O :   -0.696431
   7 H :    0.354230
   8 H :    0.379322
   9 O :   -0.713406
  10 H :    0.381872
  11 H :    0.322463
  12 O :   -0.716471
  13 H :    0.348342
  14 H :    0.365546
  15 O :   -0.738943
  16 H :    0.361745
  17 H :    0.347468
  18 O :   -0.743736
  19 H :    0.342255
  20 H :    0.368252
  21 O :   -0.704190
  22 H :    0.387727
  23 H :    0.350940
Sum of atomic charges:    0.0000000

LOEWDIN ATOMIC CHARGES
----------------------
   0 O :   -0.342422
   1 H :    0.151725
   2 H :    0.146311
   3 O :   -0.287903
   4 H :    0.171862
   5 H :    0.194920
   6 O :   -0.276578
   7 H :    0.169924
   8 H :    0.154853
   9 O :   -0.325659
  10 H :    0.155576
  11 H :    0.161222
  12 O :   -0.325728
  13 H :    0.172546
  14 H :    0.148132
  15 O :   -0.362366
  16 H :    0.146841
  17 H :    0.141005
  18 O :   -0.343448
  19 H :    0.156255
  20 H :    0.141903
  21 O :   -0.278609
  22 H :    0.158897
  23 H :    0.170739

  Mayer bond orders larger than 0.100000
B(  0-O ,  1-H ) :   0.8530 B(  0-O ,  2-H ) :   0.7556 B(  3-O ,  4-H ) :   0.8273
B(  3-O ,  5-H ) :   0.8140 B(  6-O ,  7-H ) :   0.8386 B(  6-O ,  8-H ) :   0.7993
B(  6-O , 20-H ) :   0.1001 B(  9-O , 10-H ) :   0.7948 B(  9-O , 11-H ) :   0.8496
B( 12-O , 13-H ) :   0.8344 B( 12-O , 14-H ) :   0.8187 B( 15-O , 16-H ) :   0.8294
B( 15-O , 17-H ) :   0.8164 B( 18-O , 19-H ) :   0.8477 B( 18-O , 20-H ) :   0.7590
B( 21-O , 22-H ) :   0.7967 B( 21-O , 23-H ) :   0.8376

MP2 TOTAL ENERGY:     -610.575416213 Eh
FINAL SINGLE POINT ENERGY      -610.575416212944

DIPOLE MOMENT
-------------
                                X             Y             Z
Electronic contribution:     -0.15342      -0.11090      -0.31615
Nuclear contribution   :      0.14599       0.11349      -2.86726
                        -----------------------------------------
Total Dipole Moment    :     -0.00743       0.00259      -3.18341
                        -----------------------------------------
Magnitude (a.u.)       :      3.18342
Magnitude (Debye)      :      8.09160

Rotational constants in cm-1:     0.033214     0.016622     0.012601
Rotational constants in MHz :   995.728186   498.327841   377.776228

                             ****ORCA TERMINATED NORMALLY****
TOTAL RUN TIME: 0 days 0 hours 2 minutes 45 seconds 647 msec
