                         Program Version 4.2.0 -  RELEASE  -
|  1> # 12h2o.su.etal.mol0,6,7,8,9,10,11
|  2> ! MP2 def2-TZVP EnGrad TightSCF
|  3>
|  4> %pal
|  5>     nprocs 6
|  6> end
|  7>
|  8> %maxcore 8000
|  9>
| 10> %scf
| 11>     ConvForced true
| 12> end
| 13>
| 14> *xyz 0 1
| 15> O   1.794470000   0.923410000   2.768350000
| 16> H   2.338250000   1.359750000   3.430940000
| 17> H   0.879480000   1.303000000   2.865760000
| 18> O   1.737840000   0.885520000  -0.052730000
| 19> H   2.090180000   1.032320000   0.841890000
| 20> H   0.839590000   1.284090000  -0.017130000
| 21> O  -1.737840000  -0.885520000  -0.052730000
| 22> H  -2.090180000  -1.032320000   0.841890000
| 23> H  -0.839590000  -1.284090000  -0.017130000
| 24> O   1.752130000   0.741530000  -2.896280000
| 25> H   2.036450000   0.920500000  -1.984040000
| 26> H   0.921210000   1.242140000  -2.984230000
| 27> O   0.741530000  -1.752130000   2.896280000
| 28> H   0.920500000  -2.036450000   1.984040000
| 29> H   1.242140000  -0.921210000   2.984230000
| 30> O  -0.923410000   1.794470000  -2.768350000
| 31> H  -1.359750000   2.338250000  -3.430940000
| 32> H  -1.303000000   0.879480000  -2.865760000
| 33> O  -0.741530000   1.752130000   2.896280000
| 34> H  -0.920500000   2.036450000   1.984040000
| 35> H  -1.242140000   0.921210000   2.984230000
| 36> *
| 37>
| 38>                          ****END OF INPUT****

CARTESIAN COORDINATES (ANGSTROEM)
---------------------------------
  O      1.794470    0.923410    2.768350
  H      2.338250    1.359750    3.430940
  H      0.879480    1.303000    2.865760
  O      1.737840    0.885520   -0.052730
  H      2.090180    1.032320    0.841890
  H      0.839590    1.284090   -0.017130
  O     -1.737840   -0.885520   -0.052730
  H     -2.090180   -1.032320    0.841890
  H     -0.839590   -1.284090   -0.017130
  O      1.752130    0.741530   -2.896280
  H      2.036450    0.920500   -1.984040
  H      0.921210    1.242140   -2.984230
  O      0.741530   -1.752130    2.896280
  H      0.920500   -2.036450    1.984040
  H      1.242140   -0.921210    2.984230
  O     -0.923410    1.794470   -2.768350
  H     -1.359750    2.338250   -3.430940
  H     -1.303000    0.879480   -2.865760
  O     -0.741530    1.752130    2.896280
  H     -0.920500    2.036450    1.984040
  H     -1.242140    0.921210    2.984230

 Total Charge           Charge          ....    0
 Multiplicity           Mult            ....    1
 Number of Electrons    NEL             ....   70
 Basis Dimension        Dim             ....  301

ORBITAL ENERGIES
----------------

  NO   OCC          E(Eh)            E(eV)
   0   2.0000     -20.622436      -561.1650
   1   2.0000     -20.582875      -560.0885
   2   2.0000     -20.582048      -560.0660
   3   2.0000     -20.581470      -560.0503
   4   2.0000     -20.559323      -559.4476
   5   2.0000     -20.550196      -559.1993
   6   2.0000     -20.496416      -557.7358
   7   2.0000      -1.408743       -38.3338
   8   2.0000      -1.368673       -37.2435
   9   2.0000      -1.360567       -37.0229
  10   2.0000      -1.357173       -36.9306
  11   2.0000      -1.340075       -36.4653
  12   2.0000      -1.331932       -36.2437
  13   2.0000      -1.281837       -34.8806
  14   2.0000      -0.764602       -20.8059
  15   2.0000      -0.750405       -20.4196
  16   2.0000      -0.727557       -19.7978
  17   2.0000      -0.719213       -19.5708
  18   2.0000      -0.709419       -19.3043
  19   2.0000      -0.701389       -19.0858
  20   2.0000      -0.659634       -17.9496
  21   2.0000      -0.650637       -17.7047
  22   2.0000      -0.613599       -16.6969
  23   2.0000      -0.601665       -16.3721
  24   2.0000      -0.597286       -16.2530
  25   2.0000      -0.585552       -15.9337
  26   2.0000      -0.571613       -15.5544
  27   2.0000      -0.553380       -15.0582
  28   2.0000      -0.536709       -14.6046
  29   2.0000      -0.525259       -14.2930
  30   2.0000      -0.524132       -14.2623
  31   2.0000      -0.511769       -13.9259
  32   2.0000      -0.499908       -13.6032
  33   2.0000      -0.497127       -13.5275
  34   2.0000      -0.446559       -12.1515
  35   0.0000       0.070999         1.9320
  36   0.0000       0.120023         3.2660
  37   0.0000       0.125578         3.4171
  38   0.0000       0.134000         3.6463
  39   0.0000       0.151022         4.1095

MULLIKEN ATOMIC CHARGES
-----------------------
   0 O :   -0.751051
   1 H :    0.355011
   2 H :    0.381772
   3 O :   -0.709332
   4 H :    0.373431
   5 H :    0.325426
   6 O :   -0.684196
   7 H :    0.335399
   8 H :    0.348581
   9 O :   -0.728998
  10 H :    0.365960
  11 H :    0.339108
  12 O :   -0.711379
  13 H :    0.329172
  14 H :    0.364752
  15 O :   -0.701351
  16 H :    0.350458
  17 H :    0.368446
  18 O :   -0.681028
  19 H :    0.362439
  20 H :    0.367377
Sum of atomic charges:    0.0000000

LOEWDIN ATOMIC CHARGES
----------------------
   0 O :   -0.312182
   1 H :    0.161612
   2 H :    0.145622
   3 O :   -0.323862
   4 H :    0.150875
   5 H :    0.161368
   6 O :   -0.335555
   7 H :    0.162500
   8 H :    0.173474
   9 O :   -0.358373
  10 H :    0.148791
  11 H :    0.139328
  12 O :   -0.346594
  13 H :    0.157909
  14 H :    0.147571
  15 O :   -0.314006
  16 H :    0.162351
  17 H :    0.190536
  18 O :   -0.264202
  19 H :    0.174532
  20 H :    0.178305

  Mayer bond orders larger than 0.100000
B(  0-O ,  1-H ) :   0.8378 B(  0-O ,  2-H ) :   0.7508 B(  3-O ,  4-H ) :   0.8052
B(  3-O ,  5-H ) :   0.8480 B(  6-O ,  7-H ) :   0.8519 B(  6-O ,  8-H ) :   0.8386
B(  9-O , 10-H ) :   0.8254 B(  9-O , 11-H ) :   0.8335 B( 12-O , 13-H ) :   0.8556
B( 12-O , 14-H ) :   0.8100 B( 15-O , 16-H ) :   0.8428 B( 15-O , 17-H ) :   0.8240
B( 18-O , 19-H ) :   0.8331 B( 18-O , 20-H ) :   0.8267

MP2 TOTAL ENERGY:     -534.237410632 Eh
FINAL SINGLE POINT ENERGY      -534.237410631864

DIPOLE MOMENT
-------------
                                X             Y             Z
Electronic contribution:     -0.12206       0.13086       0.23197
Nuclear contribution   :     -1.44310       0.93582       0.86245
                        -----------------------------------------
Total Dipole Moment    :     -1.56516       1.06669       1.09442
                        -----------------------------------------
Magnitude (a.u.)       :      2.18753
Magnitude (Debye)      :      5.56027

Rotational constants in cm-1:     0.040905     0.018743     0.017306
Rotational constants in MHz :  1226.292346   561.895542   518.832391

                             ****ORCA TERMINATED NORMALLY****
TOTAL RUN TIME: 0 days 0 hours 2 minutes 19 seconds 809 msec
