                         Program Version 4.2.0 -  RELEASE  -
|  1> ! MP2 def2-TZVP EnGrad TightSCF FrozenCore
|  2>
|  3> %pal
|  4>     nprocs 12
|  5> end
|  6>
|  7> %maxcore 8000
|  8>
|  9> %scf
| 10>     ConvForced true
| 11> end
| 12>
| 13> *xyz 0 1
| 14> O    -0.7679582028    -1.1277346601    -1.4045987055
| 15> H     0.1699493658    -1.0879837928    -1.0808120351
| 16> C    -0.7457123046    -1.0062111733    -2.8219424661
| 17> H    -1.7825499105    -0.9965625928    -3.1698635911
| 18> H    -0.2321883253    -1.8587098956    -3.2872616448
| 19> H    -0.2560674696    -0.0799151965    -3.1540688271
| 20> O    -1.6835503762     0.9638050714     0.0442027489
| 21> H    -1.4454759115     0.2053689853    -0.5521930478
| 22> C    -2.6763417311     0.513709313      0.9543110549
| 23> H    -2.9161472041     1.3449003647     1.6240716071
| 24> H    -2.3364754327    -0.338324518      1.5620698942
| 25> H    -3.5961439738     0.2182035734     0.4307630634
| 26> O     0.8525725923     1.4849918184     0.8818649966
| 27> H    -0.1022332899     1.4135173815     0.6204376709
| 28> C     0.9276533592     1.5988444994     2.2941632732
| 29> H     1.9844518663     1.6765507997     2.5659613651
| 30> H     0.4993684613     0.7274035868     2.8132308981
| 31> H     0.4148761846     2.5023731511     2.652683479
| 32> O     1.7405126264    -0.6960941053    -0.4814878613
| 33> H     1.5467033941     0.1269427135     0.0378990728
| 34> C     2.3731365632    -1.6330083592     0.3782589669
| 35> H     2.5624289607    -2.5405364944    -0.2019649278
| 36> H     1.7482272732    -1.8999719111     1.2438593168
| 37> H     3.3362475733    -1.25300683       0.7465933036
| 38> *
| 39>
| 40>                          ****END OF INPUT****

CARTESIAN COORDINATES (ANGSTROEM)
---------------------------------
  O     -0.767958   -1.127735   -1.404599
  H      0.169949   -1.087984   -1.080812
  C     -0.745712   -1.006211   -2.821942
  H     -1.782550   -0.996563   -3.169864
  H     -0.232188   -1.858710   -3.287262
  H     -0.256067   -0.079915   -3.154069
  O     -1.683550    0.963805    0.044203
  H     -1.445476    0.205369   -0.552193
  C     -2.676342    0.513709    0.954311
  H     -2.916147    1.344900    1.624072
  H     -2.336475   -0.338325    1.562070
  H     -3.596144    0.218204    0.430763
  O      0.852573    1.484992    0.881865
  H     -0.102233    1.413517    0.620438
  C      0.927653    1.598844    2.294163
  H      1.984452    1.676551    2.565961
  H      0.499368    0.727404    2.813231
  H      0.414876    2.502373    2.652683
  O      1.740513   -0.696094   -0.481488
  H      1.546703    0.126943    0.037899
  C      2.373137   -1.633008    0.378259
  H      2.562429   -2.540536   -0.201965
  H      1.748227   -1.899972    1.243859
  H      3.336248   -1.253007    0.746593

 Total Charge           Charge          ....    0
 Multiplicity           Mult            ....    1
 Number of Electrons    NEL             ....   72
 Basis Dimension        Dim             ....  344

ORBITAL ENERGIES
----------------

  NO   OCC          E(Eh)            E(eV)
   0   2.0000     -20.551751      -559.2416
   1   2.0000     -20.550639      -559.2113
   2   2.0000     -20.549047      -559.1680
   3   2.0000     -20.548560      -559.1547
   4   2.0000     -11.273520      -306.7681
   5   2.0000     -11.272878      -306.7506
   6   2.0000     -11.270469      -306.6850
   7   2.0000     -11.267331      -306.5997
   8   2.0000      -1.367141       -37.2018
   9   2.0000      -1.351199       -36.7680
  10   2.0000      -1.350729       -36.7552
  11   2.0000      -1.334995       -36.3271
  12   2.0000      -0.929897       -25.3038
  13   2.0000      -0.921688       -25.0804
  14   2.0000      -0.919769       -25.0282
  15   2.0000      -0.912846       -24.8398
  16   2.0000      -0.712274       -19.3820
  17   2.0000      -0.693058       -18.8591
  18   2.0000      -0.692641       -18.8477
  19   2.0000      -0.685496       -18.6533
  20   2.0000      -0.620386       -16.8816
  21   2.0000      -0.616381       -16.7726
  22   2.0000      -0.613267       -16.6878
  23   2.0000      -0.611908       -16.6509
  24   2.0000      -0.599664       -16.3177
  25   2.0000      -0.592579       -16.1249
  26   2.0000      -0.589190       -16.0327
  27   2.0000      -0.584362       -15.9013
  28   2.0000      -0.524086       -14.2611
  29   2.0000      -0.504132       -13.7181
  30   2.0000      -0.503484       -13.7005
  31   2.0000      -0.486557       -13.2399
  32   2.0000      -0.449930       -12.2432
  33   2.0000      -0.446574       -12.1519
  34   2.0000      -0.444602       -12.0982
  35   2.0000      -0.440555       -11.9881
  36   0.0000       0.120814         3.2875
  37   0.0000       0.154866         4.2141
  38   0.0000       0.158837         4.3222
  39   0.0000       0.177011         4.8167
  40   0.0000       0.191054         5.1988

MULLIKEN ATOMIC CHARGES
-----------------------
   0 O :   -0.560855
   1 H :    0.360153
   2 C :   -0.169332
   3 H :    0.126113
   4 H :    0.119266
   5 H :    0.124789
   6 O :   -0.563879
   7 H :    0.363879
   8 C :   -0.168718
   9 H :    0.125767
  10 H :    0.113496
  11 H :    0.122218
  12 O :   -0.559566
  13 H :    0.374285
  14 C :   -0.181712
  15 H :    0.131019
  16 H :    0.111400
  17 H :    0.124735
  18 O :   -0.554532
  19 H :    0.372806
  20 C :   -0.179583
  21 H :    0.131573
  22 H :    0.114294
  23 H :    0.122383
Sum of atomic charges:   -0.0000000

LOEWDIN ATOMIC CHARGES
----------------------
   0 O :   -0.091142
   1 H :    0.164218
   2 C :   -0.384256
   3 H :    0.108251
   4 H :    0.102708
   5 H :    0.101572
   6 O :   -0.090257
   7 H :    0.165258
   8 C :   -0.388812
   9 H :    0.107829
  10 H :    0.097690
  11 H :    0.103442
  12 O :   -0.086866
  13 H :    0.166567
  14 C :   -0.389626
  15 H :    0.109267
  16 H :    0.096269
  17 H :    0.103678
  18 O :   -0.085561
  19 H :    0.166512
  20 C :   -0.387348
  21 H :    0.109801
  22 H :    0.097704
  23 H :    0.103101

  Mayer bond orders larger than 0.100000
B(  0-O ,  1-H ) :   0.7476 B(  0-O ,  2-C ) :   0.8844 B(  0-O ,  7-H ) :   0.1242
B(  1-H , 18-O ) :   0.1236 B(  2-C ,  3-H ) :   0.9415 B(  2-C ,  4-H ) :   0.9392
B(  2-C ,  5-H ) :   0.9387 B(  6-O ,  7-H ) :   0.7431 B(  6-O ,  8-C ) :   0.8892
B(  6-O , 13-H ) :   0.1019 B(  8-C ,  9-H ) :   0.9413 B(  8-C , 10-H ) :   0.9378
B(  8-C , 11-H ) :   0.9400 B( 12-O , 13-H ) :   0.7494 B( 12-O , 14-C ) :   0.8914
B( 12-O , 19-H ) :   0.1019 B( 14-C , 15-H ) :   0.9425 B( 14-C , 16-H ) :   0.9359
B( 14-C , 17-H ) :   0.9396 B( 18-O , 19-H ) :   0.7505 B( 18-O , 20-C ) :   0.8914
B( 20-C , 21-H ) :   0.9425 B( 20-C , 22-H ) :   0.9373 B( 20-C , 23-H ) :   0.9385

MP2 TOTAL ENERGY:     -462.081498414 Eh
FINAL SINGLE POINT ENERGY      -462.081498414046

DIPOLE MOMENT
-------------
                                X             Y             Z
Electronic contribution:      0.36825       1.49020      -2.34110
Nuclear contribution   :     -0.42496      -1.93060       2.99236
                        -----------------------------------------
Total Dipole Moment    :     -0.05671      -0.44040       0.65125
                        -----------------------------------------
Magnitude (a.u.)       :      0.78823
Magnitude (Debye)      :      2.00351

Rotational constants in cm-1:     0.040361     0.037494     0.022125
Rotational constants in MHz :  1209.999633  1124.028791   663.289967

                             ****ORCA TERMINATED NORMALLY****
TOTAL RUN TIME: 0 days 0 hours 3 minutes 6 seconds 127 msec
