                         Program Version 4.2.0 -  RELEASE  -
|  1> # 12h2o.su.etal.mol0,2,3,6,8,9,11
|  2> ! MP2 def2-TZVP EnGrad TightSCF
|  3>
|  4> %pal
|  5>     nprocs 6
|  6> end
|  7>
|  8> %maxcore 8000
|  9>
| 10> %scf
| 11>     ConvForced true
| 12> end
| 13>
| 14> *xyz 0 1
| 15> O   1.794470000   0.923410000   2.768350000
| 16> H   2.338250000   1.359750000   3.430940000
| 17> H   0.879480000   1.303000000   2.865760000
| 18> O   0.923410000  -1.794470000  -2.768350000
| 19> H   1.359750000  -2.338250000  -3.430940000
| 20> H   1.303000000  -0.879480000  -2.865760000
| 21> O  -1.752130000  -0.741530000  -2.896280000
| 22> H  -2.036450000  -0.920500000  -1.984040000
| 23> H  -0.921210000  -1.242140000  -2.984230000
| 24> O   1.737840000   0.885520000  -0.052730000
| 25> H   2.090180000   1.032320000   0.841890000
| 26> H   0.839590000   1.284090000  -0.017130000
| 27> O   1.752130000   0.741530000  -2.896280000
| 28> H   2.036450000   0.920500000  -1.984040000
| 29> H   0.921210000   1.242140000  -2.984230000
| 30> O   0.741530000  -1.752130000   2.896280000
| 31> H   0.920500000  -2.036450000   1.984040000
| 32> H   1.242140000  -0.921210000   2.984230000
| 33> O  -0.741530000   1.752130000   2.896280000
| 34> H  -0.920500000   2.036450000   1.984040000
| 35> H  -1.242140000   0.921210000   2.984230000
| 36> *
| 37>
| 38>                          ****END OF INPUT****

CARTESIAN COORDINATES (ANGSTROEM)
---------------------------------
  O      1.794470    0.923410    2.768350
  H      2.338250    1.359750    3.430940
  H      0.879480    1.303000    2.865760
  O      0.923410   -1.794470   -2.768350
  H      1.359750   -2.338250   -3.430940
  H      1.303000   -0.879480   -2.865760
  O     -1.752130   -0.741530   -2.896280
  H     -2.036450   -0.920500   -1.984040
  H     -0.921210   -1.242140   -2.984230
  O      1.737840    0.885520   -0.052730
  H      2.090180    1.032320    0.841890
  H      0.839590    1.284090   -0.017130
  O      1.752130    0.741530   -2.896280
  H      2.036450    0.920500   -1.984040
  H      0.921210    1.242140   -2.984230
  O      0.741530   -1.752130    2.896280
  H      0.920500   -2.036450    1.984040
  H      1.242140   -0.921210    2.984230
  O     -0.741530    1.752130    2.896280
  H     -0.920500    2.036450    1.984040
  H     -1.242140    0.921210    2.984230

 Total Charge           Charge          ....    0
 Multiplicity           Mult            ....    1
 Number of Electrons    NEL             ....   70
 Basis Dimension        Dim             ....  301

ORBITAL ENERGIES
----------------

  NO   OCC          E(Eh)            E(eV)
   0   2.0000     -20.626827      -561.2845
   1   2.0000     -20.585925      -560.1715
   2   2.0000     -20.579742      -560.0033
   3   2.0000     -20.570510      -559.7520
   4   2.0000     -20.538937      -558.8929
   5   2.0000     -20.534632      -558.7757
   6   2.0000     -20.529779      -558.6437
   7   2.0000      -1.413096       -38.4523
   8   2.0000      -1.373942       -37.3869
   9   2.0000      -1.363934       -37.1145
  10   2.0000      -1.354239       -36.8507
  11   2.0000      -1.321237       -35.9527
  12   2.0000      -1.320743       -35.9392
  13   2.0000      -1.309159       -35.6240
  14   2.0000      -0.768913       -20.9232
  15   2.0000      -0.754316       -20.5260
  16   2.0000      -0.732909       -19.9435
  17   2.0000      -0.715544       -19.4709
  18   2.0000      -0.702670       -19.1206
  19   2.0000      -0.691851       -18.8262
  20   2.0000      -0.679164       -18.4810
  21   2.0000      -0.655141       -17.8273
  22   2.0000      -0.622952       -16.9514
  23   2.0000      -0.611497       -16.6397
  24   2.0000      -0.592380       -16.1195
  25   2.0000      -0.569489       -15.4966
  26   2.0000      -0.566730       -15.4215
  27   2.0000      -0.554816       -15.0973
  28   2.0000      -0.544930       -14.8283
  29   2.0000      -0.529107       -14.3977
  30   2.0000      -0.525455       -14.2983
  31   2.0000      -0.506182       -13.7739
  32   2.0000      -0.486761       -13.2454
  33   2.0000      -0.484647       -13.1879
  34   2.0000      -0.476827       -12.9751
  35   0.0000       0.066953         1.8219
  36   0.0000       0.124594         3.3904
  37   0.0000       0.133622         3.6360
  38   0.0000       0.151142         4.1128
  39   0.0000       0.171398         4.6640

MULLIKEN ATOMIC CHARGES
-----------------------
   0 O :   -0.750990
   1 H :    0.355691
   2 H :    0.381561
   3 O :   -0.740588
   4 H :    0.336167
   5 H :    0.384113
   6 O :   -0.715139
   7 H :    0.321963
   8 H :    0.364180
   9 O :   -0.703685
  10 H :    0.382358
  11 H :    0.314502
  12 O :   -0.701040
  13 H :    0.389058
  14 H :    0.347560
  15 O :   -0.715775
  16 H :    0.339982
  17 H :    0.358826
  18 O :   -0.680322
  19 H :    0.353170
  20 H :    0.378405
Sum of atomic charges:    0.0000000

LOEWDIN ATOMIC CHARGES
----------------------
   0 O :   -0.311837
   1 H :    0.161942
   2 H :    0.145643
   3 O :   -0.340817
   4 H :    0.153335
   5 H :    0.146075
   6 O :   -0.353483
   7 H :    0.156384
   8 H :    0.147985
   9 O :   -0.322078
  10 H :    0.155185
  11 H :    0.159977
  12 O :   -0.276818
  13 H :    0.159491
  14 H :    0.169173
  15 O :   -0.350087
  16 H :    0.164231
  17 H :    0.144880
  18 O :   -0.264525
  19 H :    0.171158
  20 H :    0.184184

  Mayer bond orders larger than 0.100000
B(  0-O ,  1-H ) :   0.8376 B(  0-O ,  2-H ) :   0.7510 B(  3-O ,  4-H ) :   0.8511
B(  3-O ,  5-H ) :   0.7567 B(  6-O ,  7-H ) :   0.8620 B(  6-O ,  8-H ) :   0.8004
B(  9-O , 10-H ) :   0.7974 B(  9-O , 11-H ) :   0.8566 B( 12-O , 13-H ) :   0.7968
B( 12-O , 14-H ) :   0.8402 B( 15-O , 16-H ) :   0.8506 B( 15-O , 17-H ) :   0.8177
B( 18-O , 19-H ) :   0.8398 B( 18-O , 20-H ) :   0.8199

MP2 TOTAL ENERGY:     -534.248113148 Eh
FINAL SINGLE POINT ENERGY      -534.248113148306

DIPOLE MOMENT
-------------
                                X             Y             Z
Electronic contribution:      0.14898       0.22376       0.32584
Nuclear contribution   :     -0.08423       1.44207       0.77428
                        -----------------------------------------
Total Dipole Moment    :      0.06475       1.66583       1.10011
                        -----------------------------------------
Magnitude (a.u.)       :      1.99736
Magnitude (Debye)      :      5.07689

Rotational constants in cm-1:     0.042389     0.015518     0.014996
Rotational constants in MHz :  1270.799677   465.221229   449.561523

                             ****ORCA TERMINATED NORMALLY****
TOTAL RUN TIME: 0 days 0 hours 1 minutes 38 seconds 777 msec
