                         Program Version 4.2.0 -  RELEASE  -
|  1> # 12mecn.remya.etal.2.mol3,9,10
|  2> ! MP2 def2-TZVP EnGrad TightSCF
|  3>
|  4> %pal
|  5>     nprocs 6
|  6> end
|  7>
|  8> %maxcore 8000
|  9>
| 10> %scf
| 11>     ConvForced true
| 12> end
| 13>
| 14> *xyz 0 1
| 15> C  -5.181310000   2.853865000  -1.626100000
| 16> H  -5.488260000   3.811434000  -2.053310000
| 17> H  -5.857590000   2.068112000  -1.968630000
| 18> H  -4.170750000   2.611402000  -1.966640000
| 19> C  -5.187260000   2.919160000  -0.181450000
| 20> N  -5.181700000   2.970641000   0.983640000
| 21> C   0.923766000   4.000693000  -1.575910000
| 22> H   0.011949000   4.478423000  -1.939550000
| 23> H   0.947903000   2.966558000  -1.929960000
| 24> H   1.805950000   4.519548000  -1.956520000
| 25> C   0.942834000   3.994846000  -0.131200000
| 26> N   0.960035000   3.982544000   1.035639000
| 27> C   4.602033000   0.321019000  -1.784800000
| 28> H   4.827650000  -0.662160000  -2.207910000
| 29> H   5.320558000   1.057980000  -2.148500000
| 30> H   3.601982000   0.643751000  -2.087520000
| 31> C   4.654967000   0.244048000  -0.343060000
| 32> N   4.691648000   0.166590000   0.820757000
| 33> *
| 34>
| 35>                          ****END OF INPUT****

CARTESIAN COORDINATES (ANGSTROEM)
---------------------------------
  C     -5.181310    2.853865   -1.626100
  H     -5.488260    3.811434   -2.053310
  H     -5.857590    2.068112   -1.968630
  H     -4.170750    2.611402   -1.966640
  C     -5.187260    2.919160   -0.181450
  N     -5.181700    2.970641    0.983640
  C      0.923766    4.000693   -1.575910
  H      0.011949    4.478423   -1.939550
  H      0.947903    2.966558   -1.929960
  H      1.805950    4.519548   -1.956520
  C      0.942834    3.994846   -0.131200
  N      0.960035    3.982544    1.035639
  C      4.602033    0.321019   -1.784800
  H      4.827650   -0.662160   -2.207910
  H      5.320558    1.057980   -2.148500
  H      3.601982    0.643751   -2.087520
  C      4.654967    0.244048   -0.343060
  N      4.691648    0.166590    0.820757

 Total Charge           Charge          ....    0
 Multiplicity           Mult            ....    1
 Number of Electrons    NEL             ....   66
 Basis Dimension        Dim             ....  333

ORBITAL ENERGIES
----------------

  NO   OCC          E(Eh)            E(eV)
   0   2.0000     -15.574208      -423.7957
   1   2.0000     -15.574155      -423.7943
   2   2.0000     -15.574079      -423.7922
   3   2.0000     -11.290629      -307.2336
   4   2.0000     -11.289432      -307.2011
   5   2.0000     -11.288119      -307.1653
   6   2.0000     -11.280355      -306.9541
   7   2.0000     -11.280088      -306.9468
   8   2.0000     -11.279688      -306.9359
   9   2.0000      -1.215267       -33.0691
  10   2.0000      -1.214770       -33.0556
  11   2.0000      -1.214453       -33.0470
  12   2.0000      -1.048869       -28.5412
  13   2.0000      -1.047711       -28.5097
  14   2.0000      -1.046309       -28.4715
  15   2.0000      -0.704652       -19.1745
  16   2.0000      -0.703549       -19.1445
  17   2.0000      -0.703253       -19.1365
  18   2.0000      -0.639661       -17.4061
  19   2.0000      -0.638398       -17.3717
  20   2.0000      -0.635866       -17.3028
  21   2.0000      -0.635414       -17.2905
  22   2.0000      -0.633987       -17.2517
  23   2.0000      -0.633321       -17.2335
  24   2.0000      -0.556119       -15.1328
  25   2.0000      -0.555701       -15.1214
  26   2.0000      -0.555229       -15.1086
  27   2.0000      -0.458696       -12.4817
  28   2.0000      -0.458594       -12.4790
  29   2.0000      -0.458191       -12.4680
  30   2.0000      -0.457929       -12.4609
  31   2.0000      -0.457804       -12.4575
  32   2.0000      -0.457079       -12.4377
  33   0.0000       0.087844         2.3904
  34   0.0000       0.110685         3.0119
  35   0.0000       0.132929         3.6172
  36   0.0000       0.151848         4.1320
  37   0.0000       0.164318         4.4713

MULLIKEN ATOMIC CHARGES
-----------------------
   0 C :   -0.281354
   1 H :    0.172449
   2 H :    0.173259
   3 H :    0.165394
   4 C :   -0.145568
   5 N :   -0.084173
   6 C :   -0.285983
   7 H :    0.171617
   8 H :    0.163800
   9 H :    0.172869
  10 C :   -0.142726
  11 N :   -0.079622
  12 C :   -0.279026
  13 H :    0.174577
  14 H :    0.172494
  15 H :    0.160316
  16 C :   -0.144740
  17 N :   -0.083584
Sum of atomic charges:    0.0000000

LOEWDIN ATOMIC CHARGES
----------------------
   0 C :   -0.285246
   1 H :    0.151010
   2 H :    0.151654
   3 H :    0.150778
   4 C :   -0.219899
   5 N :    0.051704
   6 C :   -0.286620
   7 H :    0.150509
   8 H :    0.149607
   9 H :    0.151280
  10 C :   -0.221370
  11 N :    0.056557
  12 C :   -0.285263
  13 H :    0.153219
  14 H :    0.151053
  15 H :    0.148966
  16 C :   -0.221198
  17 N :    0.053259

  Mayer bond orders larger than 0.100000
B(  0-C ,  1-H ) :   0.9167 B(  0-C ,  2-H ) :   0.9169 B(  0-C ,  3-H ) :   0.9187
B(  0-C ,  4-C ) :   0.9026 B(  4-C ,  5-N ) :   2.8326 B(  6-C ,  7-H ) :   0.9175
B(  6-C ,  8-H ) :   0.9204 B(  6-C ,  9-H ) :   0.9176 B(  6-C , 10-C ) :   0.8999
B( 10-C , 11-N ) :   2.8267 B( 12-C , 13-H ) :   0.9161 B( 12-C , 14-H ) :   0.9179
B( 12-C , 15-H ) :   0.9198 B( 12-C , 16-C ) :   0.9010 B( 16-C , 17-N ) :   2.8296

MP2 TOTAL ENERGY:     -397.446372238 Eh
FINAL SINGLE POINT ENERGY      -397.446372237681

DIPOLE MOMENT
-------------
                                X             Y             Z
Electronic contribution:      0.13717      -0.01073       9.49356
Nuclear contribution   :     -0.20416       0.04031     -13.92700
                        -----------------------------------------
Total Dipole Moment    :     -0.06699       0.02958      -4.43344
                        -----------------------------------------
Magnitude (a.u.)       :      4.43404
Magnitude (Debye)      :     11.27044

Rotational constants in cm-1:     0.047473     0.007330     0.007201
Rotational constants in MHz :  1423.206738   219.756628   215.890742

                             ****ORCA TERMINATED NORMALLY****
TOTAL RUN TIME: 0 days 0 hours 2 minutes 5 seconds 202 msec
