                         Program Version 4.2.0 -  RELEASE  -
|  1> # 12h2o.su.etal.mol4,6,7,8,9,10
|  2> ! MP2 def2-TZVP EnGrad TightSCF
|  3>
|  4> %pal
|  5>     nprocs 6
|  6> end
|  7>
|  8> %maxcore 8000
|  9>
| 10> %scf
| 11>     ConvForced true
| 12> end
| 13>
| 14> *xyz 0 1
| 15> O  -0.885520000   1.737840000   0.052730000
| 16> H  -1.032320000   2.090180000  -0.841890000
| 17> H  -1.284090000   0.839590000   0.017130000
| 18> O   1.737840000   0.885520000  -0.052730000
| 19> H   2.090180000   1.032320000   0.841890000
| 20> H   0.839590000   1.284090000  -0.017130000
| 21> O  -1.737840000  -0.885520000  -0.052730000
| 22> H  -2.090180000  -1.032320000   0.841890000
| 23> H  -0.839590000  -1.284090000  -0.017130000
| 24> O   1.752130000   0.741530000  -2.896280000
| 25> H   2.036450000   0.920500000  -1.984040000
| 26> H   0.921210000   1.242140000  -2.984230000
| 27> O   0.741530000  -1.752130000   2.896280000
| 28> H   0.920500000  -2.036450000   1.984040000
| 29> H   1.242140000  -0.921210000   2.984230000
| 30> O  -0.923410000   1.794470000  -2.768350000
| 31> H  -1.359750000   2.338250000  -3.430940000
| 32> H  -1.303000000   0.879480000  -2.865760000
| 33> *
| 34>
| 35>                          ****END OF INPUT****

CARTESIAN COORDINATES (ANGSTROEM)
---------------------------------
  O     -0.885520    1.737840    0.052730
  H     -1.032320    2.090180   -0.841890
  H     -1.284090    0.839590    0.017130
  O      1.737840    0.885520   -0.052730
  H      2.090180    1.032320    0.841890
  H      0.839590    1.284090   -0.017130
  O     -1.737840   -0.885520   -0.052730
  H     -2.090180   -1.032320    0.841890
  H     -0.839590   -1.284090   -0.017130
  O      1.752130    0.741530   -2.896280
  H      2.036450    0.920500   -1.984040
  H      0.921210    1.242140   -2.984230
  O      0.741530   -1.752130    2.896280
  H      0.920500   -2.036450    1.984040
  H      1.242140   -0.921210    2.984230
  O     -0.923410    1.794470   -2.768350
  H     -1.359750    2.338250   -3.430940
  H     -1.303000    0.879480   -2.865760

 Total Charge           Charge          ....    0
 Multiplicity           Mult            ....    1
 Number of Electrons    NEL             ....   60
 Basis Dimension        Dim             ....  258

ORBITAL ENERGIES
----------------

  NO   OCC          E(Eh)            E(eV)
   0   2.0000     -20.609789      -560.8209
   1   2.0000     -20.606410      -560.7289
   2   2.0000     -20.578592      -559.9720
   3   2.0000     -20.550397      -559.2047
   4   2.0000     -20.548513      -559.1535
   5   2.0000     -20.504684      -557.9608
   6   2.0000      -1.390513       -37.8378
   7   2.0000      -1.386979       -37.7416
   8   2.0000      -1.357501       -36.9395
   9   2.0000      -1.343186       -36.5500
  10   2.0000      -1.327421       -36.1210
  11   2.0000      -1.289814       -35.0976
  12   2.0000      -0.755692       -20.5634
  13   2.0000      -0.744689       -20.2640
  14   2.0000      -0.720451       -19.6045
  15   2.0000      -0.713142       -19.4056
  16   2.0000      -0.704916       -19.1817
  17   2.0000      -0.669725       -18.2242
  18   2.0000      -0.639044       -17.3893
  19   2.0000      -0.621988       -16.9252
  20   2.0000      -0.595018       -16.1913
  21   2.0000      -0.588918       -16.0253
  22   2.0000      -0.586147       -15.9499
  23   2.0000      -0.549084       -14.9413
  24   2.0000      -0.533557       -14.5188
  25   2.0000      -0.522333       -14.2134
  26   2.0000      -0.520986       -14.1768
  27   2.0000      -0.500959       -13.6318
  28   2.0000      -0.492442       -13.4000
  29   2.0000      -0.454547       -12.3689
  30   0.0000       0.080286         2.1847
  31   0.0000       0.107331         2.9206
  32   0.0000       0.130592         3.5536
  33   0.0000       0.162394         4.4190
  34   0.0000       0.177516         4.8304

MULLIKEN ATOMIC CHARGES
-----------------------
   0 O :   -0.724034
   1 H :    0.374470
   2 H :    0.355257
   3 O :   -0.730025
   4 H :    0.325902
   5 H :    0.358535
   6 O :   -0.691378
   7 H :    0.367488
   8 H :    0.359098
   9 O :   -0.726201
  10 H :    0.368998
  11 H :    0.338293
  12 O :   -0.671875
  13 H :    0.333446
  14 H :    0.339667
  15 O :   -0.715383
  16 H :    0.363550
  17 H :    0.374191
Sum of atomic charges:   -0.0000000

LOEWDIN ATOMIC CHARGES
----------------------
   0 O :   -0.315323
   1 H :    0.148572
   2 H :    0.139417
   3 O :   -0.343801
   4 H :    0.155894
   5 H :    0.142801
   6 O :   -0.290053
   7 H :    0.177362
   8 H :    0.178125
   9 O :   -0.356015
  10 H :    0.150942
  11 H :    0.138302
  12 O :   -0.327653
  13 H :    0.161305
  14 H :    0.167113
  15 O :   -0.287426
  16 H :    0.167530
  17 H :    0.192910

  Mayer bond orders larger than 0.100000
B(  0-O ,  1-H ) :   0.8125 B(  0-O ,  2-H ) :   0.7909 B(  0-O ,  5-H ) :   0.1121
B(  3-O ,  4-H ) :   0.8548 B(  3-O ,  5-H ) :   0.7623 B(  6-O ,  7-H ) :   0.8311
B(  6-O ,  8-H ) :   0.8298 B(  9-O , 10-H ) :   0.8214 B(  9-O , 11-H ) :   0.8396
B( 12-O , 13-H ) :   0.8532 B( 12-O , 14-H ) :   0.8502 B( 15-O , 16-H ) :   0.8323
B( 15-O , 17-H ) :   0.8179

MP2 TOTAL ENERGY:     -457.920104510 Eh
FINAL SINGLE POINT ENERGY      -457.920104510156

DIPOLE MOMENT
-------------
                                X             Y             Z
Electronic contribution:     -0.33936      -0.12829      -0.01728
Nuclear contribution   :     -1.02241       0.25725       0.14168
                        -----------------------------------------
Total Dipole Moment    :     -1.36176       0.12896       0.12441
                        -----------------------------------------
Magnitude (a.u.)       :      1.37350
Magnitude (Debye)      :      3.49116

Rotational constants in cm-1:     0.060746     0.027928     0.023002
Rotational constants in MHz :  1821.122945   837.271778   689.581824

                             ****ORCA TERMINATED NORMALLY****
TOTAL RUN TIME: 0 days 0 hours 1 minutes 2 seconds 522 msec
