                         Program Version 4.2.0 -  RELEASE  -
|  1> # 12h2o.su.etal.mol8,11
|  2> ! MP2 def2-TZVP EnGrad TightSCF
|  3>
|  4> %pal
|  5>     nprocs 6
|  6> end
|  7>
|  8> %maxcore 8000
|  9>
| 10> %scf
| 11>     ConvForced true
| 12> end
| 13>
| 14> *xyz 0 1
| 15> O   1.752130000   0.741530000  -2.896280000
| 16> H   2.036450000   0.920500000  -1.984040000
| 17> H   0.921210000   1.242140000  -2.984230000
| 18> O  -0.741530000   1.752130000   2.896280000
| 19> H  -0.920500000   2.036450000   1.984040000
| 20> H  -1.242140000   0.921210000   2.984230000
| 21> *
| 22>
| 23>                          ****END OF INPUT****

CARTESIAN COORDINATES (ANGSTROEM)
---------------------------------
  O      1.752130    0.741530   -2.896280
  H      2.036450    0.920500   -1.984040
  H      0.921210    1.242140   -2.984230
  O     -0.741530    1.752130    2.896280
  H     -0.920500    2.036450    1.984040
  H     -1.242140    0.921210    2.984230

 Total Charge           Charge          ....    0
 Multiplicity           Mult            ....    1
 Number of Electrons    NEL             ....   20
 Basis Dimension        Dim             ....   86

ORBITAL ENERGIES
----------------

  NO   OCC          E(Eh)            E(eV)
   0   2.0000     -20.568238      -559.6902
   1   2.0000     -20.565668      -559.6203
   2   2.0000      -1.347485       -36.6669
   3   2.0000      -1.344928       -36.5974
   4   2.0000      -0.710303       -19.3283
   5   2.0000      -0.707689       -19.2572
   6   2.0000      -0.584772       -15.9124
   7   2.0000      -0.582219       -15.8430
   8   2.0000      -0.512284       -13.9400
   9   2.0000      -0.509706       -13.8698
  10   0.0000       0.113783         3.0962
  11   0.0000       0.128217         3.4890
  12   0.0000       0.189424         5.1545
  13   0.0000       0.195574         5.3218
  14   0.0000       0.513344        13.9688

MULLIKEN ATOMIC CHARGES
-----------------------
   0 O :   -0.672165
   1 H :    0.337056
   2 H :    0.335109
   3 O :   -0.671987
   4 H :    0.333863
   5 H :    0.338123
Sum of atomic charges:   -0.0000000

LOEWDIN ATOMIC CHARGES
----------------------
   0 O :   -0.331191
   1 H :    0.165400
   2 H :    0.165791
   3 O :   -0.331205
   4 H :    0.164043
   5 H :    0.167161

  Mayer bond orders larger than 0.100000
B(  0-O ,  1-H ) :   0.8534 B(  0-O ,  2-H ) :   0.8542 B(  3-O ,  4-H ) :   0.8552
B(  3-O ,  5-H ) :   0.8525

MP2 TOTAL ENERGY:     -152.625441253 Eh
FINAL SINGLE POINT ENERGY      -152.625441253087

DIPOLE MOMENT
-------------
                                X             Y             Z
Electronic contribution:      0.16701      -0.02025       0.00553
Nuclear contribution   :     -1.02062       0.11069       0.00000
                        -----------------------------------------
Total Dipole Moment    :     -0.85362       0.09043       0.00553
                        -----------------------------------------
Magnitude (a.u.)       :      0.85841
Magnitude (Debye)      :      2.18191

Rotational constants in cm-1:     6.630700     0.046937     0.046870
Rotational constants in MHz : 198783.384328  1407.135931  1405.140390

                             ****ORCA TERMINATED NORMALLY****
TOTAL RUN TIME: 0 days 0 hours 0 minutes 33 seconds 923 msec
