                         Program Version 4.2.0 -  RELEASE  -
|  1> # 12h2o.su.etal.mol3,5,7,8
|  2> ! MP2 def2-TZVP EnGrad TightSCF
|  3>
|  4> %pal
|  5>     nprocs 6
|  6> end
|  7>
|  8> %maxcore 8000
|  9>
| 10> %scf
| 11>     ConvForced true
| 12> end
| 13>
| 14> *xyz 0 1
| 15> O  -1.752130000  -0.741530000  -2.896280000
| 16> H  -2.036450000  -0.920500000  -1.984040000
| 17> H  -0.921210000  -1.242140000  -2.984230000
| 18> O   0.885520000  -1.737840000   0.052730000
| 19> H   1.284090000  -0.839590000   0.017130000
| 20> H   1.032320000  -2.090180000  -0.841890000
| 21> O  -1.737840000  -0.885520000  -0.052730000
| 22> H  -2.090180000  -1.032320000   0.841890000
| 23> H  -0.839590000  -1.284090000  -0.017130000
| 24> O   1.752130000   0.741530000  -2.896280000
| 25> H   2.036450000   0.920500000  -1.984040000
| 26> H   0.921210000   1.242140000  -2.984230000
| 27> *
| 28>
| 29>                          ****END OF INPUT****

CARTESIAN COORDINATES (ANGSTROEM)
---------------------------------
  O     -1.752130   -0.741530   -2.896280
  H     -2.036450   -0.920500   -1.984040
  H     -0.921210   -1.242140   -2.984230
  O      0.885520   -1.737840    0.052730
  H      1.284090   -0.839590    0.017130
  H      1.032320   -2.090180   -0.841890
  O     -1.737840   -0.885520   -0.052730
  H     -2.090180   -1.032320    0.841890
  H     -0.839590   -1.284090   -0.017130
  O      1.752130    0.741530   -2.896280
  H      2.036450    0.920500   -1.984040
  H      0.921210    1.242140   -2.984230

 Total Charge           Charge          ....    0
 Multiplicity           Mult            ....    1
 Number of Electrons    NEL             ....   40
 Basis Dimension        Dim             ....  172

ORBITAL ENERGIES
----------------

  NO   OCC          E(Eh)            E(eV)
   0   2.0000     -20.612219      -560.8870
   1   2.0000     -20.576973      -559.9279
   2   2.0000     -20.557407      -559.3955
   3   2.0000     -20.533365      -558.7413
   4   2.0000      -1.392841       -37.9011
   5   2.0000      -1.355901       -36.8959
   6   2.0000      -1.341298       -36.4986
   7   2.0000      -1.314434       -35.7676
   8   2.0000      -0.750516       -20.4226
   9   2.0000      -0.718530       -19.5522
  10   2.0000      -0.715801       -19.4779
  11   2.0000      -0.683478       -18.5984
  12   2.0000      -0.633178       -17.2297
  13   2.0000      -0.594213       -16.1694
  14   2.0000      -0.593197       -16.1417
  15   2.0000      -0.554073       -15.0771
  16   2.0000      -0.538790       -14.6612
  17   2.0000      -0.520957       -14.1759
  18   2.0000      -0.506046       -13.7702
  19   2.0000      -0.479276       -13.0418
  20   0.0000       0.077108         2.0982
  21   0.0000       0.133175         3.6239
  22   0.0000       0.153059         4.1650
  23   0.0000       0.162112         4.4113
  24   0.0000       0.220330         5.9955

MULLIKEN ATOMIC CHARGES
-----------------------
   0 O :   -0.696155
   1 H :    0.374728
   2 H :    0.313514
   3 O :   -0.674114
   4 H :    0.351781
   5 H :    0.360643
   6 O :   -0.724222
   7 H :    0.341213
   8 H :    0.350844
   9 O :   -0.678266
  10 H :    0.322965
  11 H :    0.357069
Sum of atomic charges:   -0.0000000

LOEWDIN ATOMIC CHARGES
----------------------
   0 O :   -0.339280
   1 H :    0.154303
   2 H :    0.152431
   3 O :   -0.284477
   4 H :    0.176628
   5 H :    0.173341
   6 O :   -0.341702
   7 H :    0.165003
   8 H :    0.141858
   9 O :   -0.329125
  10 H :    0.157370
  11 H :    0.173651

  Mayer bond orders larger than 0.100000
B(  0-O ,  1-H ) :   0.8133 B(  0-O ,  2-H ) :   0.8634 B(  3-O ,  4-H ) :   0.8367
B(  3-O ,  5-H ) :   0.8345 B(  6-O ,  7-H ) :   0.8480 B(  6-O ,  8-H ) :   0.7871
B(  9-O , 10-H ) :   0.8594 B(  9-O , 11-H ) :   0.8365

MP2 TOTAL ENERGY:     -305.269944561 Eh
FINAL SINGLE POINT ENERGY      -305.269944560810

DIPOLE MOMENT
-------------
                                X             Y             Z
Electronic contribution:      0.05080      -0.04308      -0.07487
Nuclear contribution   :      0.90834       0.00045       1.37221
                        -----------------------------------------
Total Dipole Moment    :      0.95914      -0.04263       1.29734
                        -----------------------------------------
Magnitude (a.u.)       :      1.61396
Magnitude (Debye)      :      4.10236

Rotational constants in cm-1:     0.101611     0.070798     0.046362
Rotational constants in MHz :  3046.216378  2122.455763  1389.906723

                             ****ORCA TERMINATED NORMALLY****
TOTAL RUN TIME: 0 days 0 hours 0 minutes 19 seconds 331 msec
