                         Program Version 4.2.0 -  RELEASE  -
|  1> # 12h2o.su.etal.mol0,1,2,3,5,8,9
|  2> ! MP2 def2-TZVP EnGrad TightSCF
|  3>
|  4> %pal
|  5>     nprocs 6
|  6> end
|  7>
|  8> %maxcore 8000
|  9>
| 10> %scf
| 11>     ConvForced true
| 12> end
| 13>
| 14> *xyz 0 1
| 15> O   1.794470000   0.923410000   2.768350000
| 16> H   2.338250000   1.359750000   3.430940000
| 17> H   0.879480000   1.303000000   2.865760000
| 18> O  -1.794470000  -0.923410000   2.768350000
| 19> H  -2.338250000  -1.359750000   3.430940000
| 20> H  -0.879480000  -1.303000000   2.865760000
| 21> O   0.923410000  -1.794470000  -2.768350000
| 22> H   1.359750000  -2.338250000  -3.430940000
| 23> H   1.303000000  -0.879480000  -2.865760000
| 24> O  -1.752130000  -0.741530000  -2.896280000
| 25> H  -2.036450000  -0.920500000  -1.984040000
| 26> H  -0.921210000  -1.242140000  -2.984230000
| 27> O   0.885520000  -1.737840000   0.052730000
| 28> H   1.284090000  -0.839590000   0.017130000
| 29> H   1.032320000  -2.090180000  -0.841890000
| 30> O   1.752130000   0.741530000  -2.896280000
| 31> H   2.036450000   0.920500000  -1.984040000
| 32> H   0.921210000   1.242140000  -2.984230000
| 33> O   0.741530000  -1.752130000   2.896280000
| 34> H   0.920500000  -2.036450000   1.984040000
| 35> H   1.242140000  -0.921210000   2.984230000
| 36> *
| 37>
| 38>                          ****END OF INPUT****

CARTESIAN COORDINATES (ANGSTROEM)
---------------------------------
  O      1.794470    0.923410    2.768350
  H      2.338250    1.359750    3.430940
  H      0.879480    1.303000    2.865760
  O     -1.794470   -0.923410    2.768350
  H     -2.338250   -1.359750    3.430940
  H     -0.879480   -1.303000    2.865760
  O      0.923410   -1.794470   -2.768350
  H      1.359750   -2.338250   -3.430940
  H      1.303000   -0.879480   -2.865760
  O     -1.752130   -0.741530   -2.896280
  H     -2.036450   -0.920500   -1.984040
  H     -0.921210   -1.242140   -2.984230
  O      0.885520   -1.737840    0.052730
  H      1.284090   -0.839590    0.017130
  H      1.032320   -2.090180   -0.841890
  O      1.752130    0.741530   -2.896280
  H      2.036450    0.920500   -1.984040
  H      0.921210    1.242140   -2.984230
  O      0.741530   -1.752130    2.896280
  H      0.920500   -2.036450    1.984040
  H      1.242140   -0.921210    2.984230

 Total Charge           Charge          ....    0
 Multiplicity           Mult            ....    1
 Number of Electrons    NEL             ....   70
 Basis Dimension        Dim             ....  301

ORBITAL ENERGIES
----------------

  NO   OCC          E(Eh)            E(eV)
   0   2.0000     -20.618938      -561.0698
   1   2.0000     -20.598893      -560.5244
   2   2.0000     -20.577082      -559.9309
   3   2.0000     -20.562105      -559.5233
   4   2.0000     -20.536575      -558.8286
   5   2.0000     -20.530351      -558.6592
   6   2.0000     -20.502181      -557.8927
   7   2.0000      -1.405179       -38.2369
   8   2.0000      -1.376743       -37.4631
   9   2.0000      -1.364006       -37.1165
  10   2.0000      -1.343535       -36.5594
  11   2.0000      -1.327340       -36.1187
  12   2.0000      -1.312661       -35.7193
  13   2.0000      -1.283578       -34.9279
  14   2.0000      -0.761069       -20.7098
  15   2.0000      -0.745510       -20.2864
  16   2.0000      -0.743648       -20.2357
  17   2.0000      -0.714015       -19.4293
  18   2.0000      -0.693484       -18.8707
  19   2.0000      -0.683262       -18.5925
  20   2.0000      -0.669827       -18.2269
  21   2.0000      -0.646617       -17.5953
  22   2.0000      -0.619109       -16.8468
  23   2.0000      -0.609198       -16.5771
  24   2.0000      -0.592162       -16.1136
  25   2.0000      -0.567795       -15.4505
  26   2.0000      -0.559268       -15.2184
  27   2.0000      -0.545862       -14.8537
  28   2.0000      -0.541244       -14.7280
  29   2.0000      -0.524084       -14.2610
  30   2.0000      -0.518353       -14.1051
  31   2.0000      -0.507688       -13.8149
  32   2.0000      -0.478286       -13.0148
  33   2.0000      -0.475392       -12.9361
  34   2.0000      -0.453068       -12.3286
  35   0.0000       0.079319         2.1584
  36   0.0000       0.110327         3.0021
  37   0.0000       0.141472         3.8496
  38   0.0000       0.160776         4.3750
  39   0.0000       0.167519         4.5584

MULLIKEN ATOMIC CHARGES
-----------------------
   0 O :   -0.709001
   1 H :    0.356765
   2 H :    0.372035
   3 O :   -0.743313
   4 H :    0.320025
   5 H :    0.369722
   6 O :   -0.748660
   7 H :    0.353080
   8 H :    0.381029
   9 O :   -0.718684
  10 H :    0.342919
  11 H :    0.358335
  12 O :   -0.703234
  13 H :    0.319461
  14 H :    0.376841
  15 O :   -0.682643
  16 H :    0.355641
  17 H :    0.377636
  18 O :   -0.718142
  19 H :    0.384307
  20 H :    0.355882
Sum of atomic charges:    0.0000000

LOEWDIN ATOMIC CHARGES
----------------------
   0 O :   -0.314769
   1 H :    0.165495
   2 H :    0.192515
   3 O :   -0.379172
   4 H :    0.145694
   5 H :    0.141599
   6 O :   -0.311490
   7 H :    0.160689
   8 H :    0.145605
   9 O :   -0.351382
  10 H :    0.165450
  11 H :    0.144734
  12 O :   -0.321655
  13 H :    0.161057
  14 H :    0.152950
  15 O :   -0.265744
  16 H :    0.172165
  17 H :    0.183797
  18 O :   -0.289833
  19 H :    0.156503
  20 H :    0.145792

  Mayer bond orders larger than 0.100000
B(  0-O ,  1-H ) :   0.8394 B(  0-O ,  2-H ) :   0.8211 B(  3-O ,  4-H ) :   0.8632
B(  3-O ,  5-H ) :   0.7688 B(  5-H , 18-O ) :   0.1035 B(  6-O ,  7-H ) :   0.8391
B(  6-O ,  8-H ) :   0.7520 B(  9-O , 10-H ) :   0.8489 B(  9-O , 11-H ) :   0.8178
B( 12-O , 13-H ) :   0.8536 B( 12-O , 14-H ) :   0.8023 B( 15-O , 16-H ) :   0.8382
B( 15-O , 17-H ) :   0.8205 B( 18-O , 19-H ) :   0.8033 B( 18-O , 20-H ) :   0.8156

MP2 TOTAL ENERGY:     -534.245961013 Eh
FINAL SINGLE POINT ENERGY      -534.245961012533

DIPOLE MOMENT
-------------
                                X             Y             Z
Electronic contribution:      0.34105       0.08806      -0.48578
Nuclear contribution   :      1.69875       1.21834       0.54442
                        -----------------------------------------
Total Dipole Moment    :      2.03980       1.30640       0.05864
                        -----------------------------------------
Magnitude (a.u.)       :      2.42299
Magnitude (Debye)      :      6.15876

Rotational constants in cm-1:     0.041955     0.016985     0.014652
Rotational constants in MHz :  1257.786134   509.194782   439.258098

                             ****ORCA TERMINATED NORMALLY****
TOTAL RUN TIME: 0 days 0 hours 2 minutes 9 seconds 452 msec
