                         Program Version 4.2.0 -  RELEASE  -
|  1> # 12h2o.su.etal.mol1,3,7,8,10,11
|  2> ! MP2 def2-TZVP EnGrad TightSCF
|  3>
|  4> %pal
|  5>     nprocs 6
|  6> end
|  7>
|  8> %maxcore 8000
|  9>
| 10> %scf
| 11>     ConvForced true
| 12> end
| 13>
| 14> *xyz 0 1
| 15> O  -1.794470000  -0.923410000   2.768350000
| 16> H  -2.338250000  -1.359750000   3.430940000
| 17> H  -0.879480000  -1.303000000   2.865760000
| 18> O  -1.752130000  -0.741530000  -2.896280000
| 19> H  -2.036450000  -0.920500000  -1.984040000
| 20> H  -0.921210000  -1.242140000  -2.984230000
| 21> O  -1.737840000  -0.885520000  -0.052730000
| 22> H  -2.090180000  -1.032320000   0.841890000
| 23> H  -0.839590000  -1.284090000  -0.017130000
| 24> O   1.752130000   0.741530000  -2.896280000
| 25> H   2.036450000   0.920500000  -1.984040000
| 26> H   0.921210000   1.242140000  -2.984230000
| 27> O  -0.923410000   1.794470000  -2.768350000
| 28> H  -1.359750000   2.338250000  -3.430940000
| 29> H  -1.303000000   0.879480000  -2.865760000
| 30> O  -0.741530000   1.752130000   2.896280000
| 31> H  -0.920500000   2.036450000   1.984040000
| 32> H  -1.242140000   0.921210000   2.984230000
| 33> *
| 34>
| 35>                          ****END OF INPUT****

CARTESIAN COORDINATES (ANGSTROEM)
---------------------------------
  O     -1.794470   -0.923410    2.768350
  H     -2.338250   -1.359750    3.430940
  H     -0.879480   -1.303000    2.865760
  O     -1.752130   -0.741530   -2.896280
  H     -2.036450   -0.920500   -1.984040
  H     -0.921210   -1.242140   -2.984230
  O     -1.737840   -0.885520   -0.052730
  H     -2.090180   -1.032320    0.841890
  H     -0.839590   -1.284090   -0.017130
  O      1.752130    0.741530   -2.896280
  H      2.036450    0.920500   -1.984040
  H      0.921210    1.242140   -2.984230
  O     -0.923410    1.794470   -2.768350
  H     -1.359750    2.338250   -3.430940
  H     -1.303000    0.879480   -2.865760
  O     -0.741530    1.752130    2.896280
  H     -0.920500    2.036450    1.984040
  H     -1.242140    0.921210    2.984230

 Total Charge           Charge          ....    0
 Multiplicity           Mult            ....    1
 Number of Electrons    NEL             ....   60
 Basis Dimension        Dim             ....  258

ORBITAL ENERGIES
----------------

  NO   OCC          E(Eh)            E(eV)
   0   2.0000     -20.630288      -561.3787
   1   2.0000     -20.581600      -560.0538
   2   2.0000     -20.569045      -559.7122
   3   2.0000     -20.539919      -558.9196
   4   2.0000     -20.532519      -558.7182
   5   2.0000     -20.524609      -558.5030
   6   2.0000      -1.410486       -38.3813
   7   2.0000      -1.365838       -37.1664
   8   2.0000      -1.354850       -36.8673
   9   2.0000      -1.322509       -35.9873
  10   2.0000      -1.317915       -35.8623
  11   2.0000      -1.304781       -35.5049
  12   2.0000      -0.776085       -21.1183
  13   2.0000      -0.735040       -20.0015
  14   2.0000      -0.715166       -19.4606
  15   2.0000      -0.700482       -19.0611
  16   2.0000      -0.695065       -18.9137
  17   2.0000      -0.674309       -18.3489
  18   2.0000      -0.648388       -17.6435
  19   2.0000      -0.617807       -16.8114
  20   2.0000      -0.596215       -16.2238
  21   2.0000      -0.575739       -15.6667
  22   2.0000      -0.563039       -15.3211
  23   2.0000      -0.549513       -14.9530
  24   2.0000      -0.541181       -14.7263
  25   2.0000      -0.527825       -14.3629
  26   2.0000      -0.504558       -13.7297
  27   2.0000      -0.487445       -13.2641
  28   2.0000      -0.482009       -13.1161
  29   2.0000      -0.472031       -12.8446
  30   0.0000       0.076299         2.0762
  31   0.0000       0.116850         3.1796
  32   0.0000       0.151096         4.1115
  33   0.0000       0.165464         4.5025
  34   0.0000       0.171761         4.6739

MULLIKEN ATOMIC CHARGES
-----------------------
   0 O :   -0.713962
   1 H :    0.369463
   2 H :    0.369172
   3 O :   -0.701572
   4 H :    0.387560
   5 H :    0.349465
   6 O :   -0.706826
   7 H :    0.377189
   8 H :    0.331585
   9 O :   -0.716557
  10 H :    0.325289
  11 H :    0.362962
  12 O :   -0.739687
  13 H :    0.335324
  14 H :    0.383562
  15 O :   -0.705012
  16 H :    0.340746
  17 H :    0.351298
Sum of atomic charges:   -0.0000000

LOEWDIN ATOMIC CHARGES
----------------------
   0 O :   -0.286379
   1 H :    0.170428
   2 H :    0.191561
   3 O :   -0.276994
   4 H :    0.159156
   5 H :    0.170093
   6 O :   -0.322490
   7 H :    0.153905
   8 H :    0.168332
   9 O :   -0.353869
  10 H :    0.157845
  11 H :    0.147513
  12 O :   -0.340646
  13 H :    0.152927
  14 H :    0.145982
  15 O :   -0.346275
  16 H :    0.165094
  17 H :    0.143817

  Mayer bond orders larger than 0.100000
B(  0-O ,  1-H ) :   0.8290 B(  0-O ,  2-H ) :   0.8220 B(  3-O ,  4-H ) :   0.7985
B(  3-O ,  5-H ) :   0.8390 B(  6-O ,  7-H ) :   0.8084 B(  6-O ,  8-H ) :   0.8488
B(  9-O , 10-H ) :   0.8602 B(  9-O , 11-H ) :   0.8020 B( 12-O , 13-H ) :   0.8515
B( 12-O , 14-H ) :   0.7574 B( 15-O , 16-H ) :   0.8505 B( 15-O , 17-H ) :   0.8311

MP2 TOTAL ENERGY:     -457.920201756 Eh
FINAL SINGLE POINT ENERGY      -457.920201756006

DIPOLE MOMENT
-------------
                                X             Y             Z
Electronic contribution:     -0.35991      -0.07673       0.15796
Nuclear contribution   :     -0.48143      -1.89704       1.46039
                        -----------------------------------------
Total Dipole Moment    :     -0.84134      -1.97377       1.61834
                        -----------------------------------------
Magnitude (a.u.)       :      2.68750
Magnitude (Debye)      :      6.83109

Rotational constants in cm-1:     0.057742     0.020681     0.017755
Rotational constants in MHz :  1731.064941   619.999761   532.279678

                             ****ORCA TERMINATED NORMALLY****
TOTAL RUN TIME: 0 days 0 hours 0 minutes 55 seconds 322 msec
