                         Program Version 4.2.0 -  RELEASE  -
|  1> # 12h2o.su.etal.mol0,1,5,6,7,8,11
|  2> ! MP2 def2-TZVP EnGrad TightSCF
|  3>
|  4> %pal
|  5>     nprocs 6
|  6> end
|  7>
|  8> %maxcore 8000
|  9>
| 10> %scf
| 11>     ConvForced true
| 12> end
| 13>
| 14> *xyz 0 1
| 15> O   1.794470000   0.923410000   2.768350000
| 16> H   2.338250000   1.359750000   3.430940000
| 17> H   0.879480000   1.303000000   2.865760000
| 18> O  -1.794470000  -0.923410000   2.768350000
| 19> H  -2.338250000  -1.359750000   3.430940000
| 20> H  -0.879480000  -1.303000000   2.865760000
| 21> O   0.885520000  -1.737840000   0.052730000
| 22> H   1.284090000  -0.839590000   0.017130000
| 23> H   1.032320000  -2.090180000  -0.841890000
| 24> O   1.737840000   0.885520000  -0.052730000
| 25> H   2.090180000   1.032320000   0.841890000
| 26> H   0.839590000   1.284090000  -0.017130000
| 27> O  -1.737840000  -0.885520000  -0.052730000
| 28> H  -2.090180000  -1.032320000   0.841890000
| 29> H  -0.839590000  -1.284090000  -0.017130000
| 30> O   1.752130000   0.741530000  -2.896280000
| 31> H   2.036450000   0.920500000  -1.984040000
| 32> H   0.921210000   1.242140000  -2.984230000
| 33> O  -0.741530000   1.752130000   2.896280000
| 34> H  -0.920500000   2.036450000   1.984040000
| 35> H  -1.242140000   0.921210000   2.984230000
| 36> *
| 37>
| 38>                          ****END OF INPUT****

CARTESIAN COORDINATES (ANGSTROEM)
---------------------------------
  O      1.794470    0.923410    2.768350
  H      2.338250    1.359750    3.430940
  H      0.879480    1.303000    2.865760
  O     -1.794470   -0.923410    2.768350
  H     -2.338250   -1.359750    3.430940
  H     -0.879480   -1.303000    2.865760
  O      0.885520   -1.737840    0.052730
  H      1.284090   -0.839590    0.017130
  H      1.032320   -2.090180   -0.841890
  O      1.737840    0.885520   -0.052730
  H      2.090180    1.032320    0.841890
  H      0.839590    1.284090   -0.017130
  O     -1.737840   -0.885520   -0.052730
  H     -2.090180   -1.032320    0.841890
  H     -0.839590   -1.284090   -0.017130
  O      1.752130    0.741530   -2.896280
  H      2.036450    0.920500   -1.984040
  H      0.921210    1.242140   -2.984230
  O     -0.741530    1.752130    2.896280
  H     -0.920500    2.036450    1.984040
  H     -1.242140    0.921210    2.984230

 Total Charge           Charge          ....    0
 Multiplicity           Mult            ....    1
 Number of Electrons    NEL             ....   70
 Basis Dimension        Dim             ....  301

ORBITAL ENERGIES
----------------

  NO   OCC          E(Eh)            E(eV)
   0   2.0000     -20.616809      -561.0119
   1   2.0000     -20.593155      -560.3682
   2   2.0000     -20.589133      -560.2588
   3   2.0000     -20.562742      -559.5407
   4   2.0000     -20.551566      -559.2366
   5   2.0000     -20.535862      -558.8092
   6   2.0000     -20.509874      -558.1020
   7   2.0000      -1.398309       -38.0499
   8   2.0000      -1.382123       -37.6095
   9   2.0000      -1.376722       -37.4625
  10   2.0000      -1.344364       -36.5820
  11   2.0000      -1.336871       -36.3781
  12   2.0000      -1.317737       -35.8574
  13   2.0000      -1.293710       -35.2036
  14   2.0000      -0.764027       -20.7902
  15   2.0000      -0.742027       -20.1916
  16   2.0000      -0.738621       -20.0989
  17   2.0000      -0.728876       -19.8337
  18   2.0000      -0.706572       -19.2268
  19   2.0000      -0.687822       -18.7166
  20   2.0000      -0.679047       -18.4778
  21   2.0000      -0.643350       -17.5064
  22   2.0000      -0.625486       -17.0203
  23   2.0000      -0.617423       -16.8009
  24   2.0000      -0.588126       -16.0037
  25   2.0000      -0.586247       -15.9526
  26   2.0000      -0.566278       -15.4092
  27   2.0000      -0.552462       -15.0332
  28   2.0000      -0.534719       -14.5504
  29   2.0000      -0.530339       -14.4313
  30   2.0000      -0.523103       -14.2344
  31   2.0000      -0.512721       -13.9519
  32   2.0000      -0.489589       -13.3224
  33   2.0000      -0.482183       -13.1209
  34   2.0000      -0.460822       -12.5396
  35   0.0000       0.085852         2.3362
  36   0.0000       0.114196         3.1074
  37   0.0000       0.144110         3.9214
  38   0.0000       0.149675         4.0729
  39   0.0000       0.173882         4.7316

MULLIKEN ATOMIC CHARGES
-----------------------
   0 O :   -0.743541
   1 H :    0.343904
   2 H :    0.370329
   3 O :   -0.723164
   4 H :    0.364882
   5 H :    0.382821
   6 O :   -0.722116
   7 H :    0.377066
   8 H :    0.354979
   9 O :   -0.726417
  10 H :    0.393332
  11 H :    0.339570
  12 O :   -0.738858
  13 H :    0.351615
  14 H :    0.342878
  15 O :   -0.696140
  16 H :    0.369201
  17 H :    0.324893
  18 O :   -0.698609
  19 H :    0.351465
  20 H :    0.381911
Sum of atomic charges:   -0.0000000

LOEWDIN ATOMIC CHARGES
----------------------
   0 O :   -0.341877
   1 H :    0.157295
   2 H :    0.142592
   3 O :   -0.287997
   4 H :    0.168474
   5 H :    0.196113
   6 O :   -0.313507
   7 H :    0.145788
   8 H :    0.169530
   9 O :   -0.282877
  10 H :    0.158449
  11 H :    0.168780
  12 O :   -0.373129
  13 H :    0.139333
  14 H :    0.135140
  15 O :   -0.339462
  16 H :    0.149831
  17 H :    0.160509
  18 O :   -0.277610
  19 H :    0.168568
  20 H :    0.156059

  Mayer bond orders larger than 0.100000
B(  0-O ,  1-H ) :   0.8470 B(  0-O ,  2-H ) :   0.7555 B(  2-H , 18-O ) :   0.1036
B(  3-O ,  4-H ) :   0.8310 B(  3-O ,  5-H ) :   0.8105 B(  6-O ,  7-H ) :   0.7798
B(  6-O ,  8-H ) :   0.8386 B(  9-O , 10-H ) :   0.7788 B(  9-O , 11-H ) :   0.8359
B( 12-O , 13-H ) :   0.8379 B( 12-O , 14-H ) :   0.7944 B( 15-O , 16-H ) :   0.8217
B( 15-O , 17-H ) :   0.8597 B( 18-O , 19-H ) :   0.8400 B( 18-O , 20-H ) :   0.7934

MP2 TOTAL ENERGY:     -534.253681423 Eh
FINAL SINGLE POINT ENERGY      -534.253681422704

DIPOLE MOMENT
-------------
                                X             Y             Z
Electronic contribution:      0.05848      -0.07519       0.21398
Nuclear contribution   :     -0.56668       0.56508       2.03947
                        -----------------------------------------
Total Dipole Moment    :     -0.50820       0.48989       2.25345
                        -----------------------------------------
Magnitude (a.u.)       :      2.36141
Magnitude (Debye)      :      6.00224

Rotational constants in cm-1:     0.042863     0.024562     0.019271
Rotational constants in MHz :  1284.991126   736.352451   577.742046

                             ****ORCA TERMINATED NORMALLY****
TOTAL RUN TIME: 0 days 0 hours 1 minutes 51 seconds 856 msec
