                         Program Version 4.2.0 -  RELEASE  -
|  1> # 12h2o.su.etal.mol0,1,3,5,6,7,9,10,11
|  2> ! MP2 def2-TZVP EnGrad TightSCF
|  3>
|  4> %pal
|  5>     nprocs 6
|  6> end
|  7>
|  8> %maxcore 8000
|  9>
| 10> %scf
| 11>     ConvForced true
| 12> end
| 13>
| 14> *xyz 0 1
| 15> O   1.794470000   0.923410000   2.768350000
| 16> H   2.338250000   1.359750000   3.430940000
| 17> H   0.879480000   1.303000000   2.865760000
| 18> O  -1.794470000  -0.923410000   2.768350000
| 19> H  -2.338250000  -1.359750000   3.430940000
| 20> H  -0.879480000  -1.303000000   2.865760000
| 21> O  -1.752130000  -0.741530000  -2.896280000
| 22> H  -2.036450000  -0.920500000  -1.984040000
| 23> H  -0.921210000  -1.242140000  -2.984230000
| 24> O   0.885520000  -1.737840000   0.052730000
| 25> H   1.284090000  -0.839590000   0.017130000
| 26> H   1.032320000  -2.090180000  -0.841890000
| 27> O   1.737840000   0.885520000  -0.052730000
| 28> H   2.090180000   1.032320000   0.841890000
| 29> H   0.839590000   1.284090000  -0.017130000
| 30> O  -1.737840000  -0.885520000  -0.052730000
| 31> H  -2.090180000  -1.032320000   0.841890000
| 32> H  -0.839590000  -1.284090000  -0.017130000
| 33> O   0.741530000  -1.752130000   2.896280000
| 34> H   0.920500000  -2.036450000   1.984040000
| 35> H   1.242140000  -0.921210000   2.984230000
| 36> O  -0.923410000   1.794470000  -2.768350000
| 37> H  -1.359750000   2.338250000  -3.430940000
| 38> H  -1.303000000   0.879480000  -2.865760000
| 39> O  -0.741530000   1.752130000   2.896280000
| 40> H  -0.920500000   2.036450000   1.984040000
| 41> H  -1.242140000   0.921210000   2.984230000
| 42> *
| 43>
| 44>                          ****END OF INPUT****

CARTESIAN COORDINATES (ANGSTROEM)
---------------------------------
  O      1.794470    0.923410    2.768350
  H      2.338250    1.359750    3.430940
  H      0.879480    1.303000    2.865760
  O     -1.794470   -0.923410    2.768350
  H     -2.338250   -1.359750    3.430940
  H     -0.879480   -1.303000    2.865760
  O     -1.752130   -0.741530   -2.896280
  H     -2.036450   -0.920500   -1.984040
  H     -0.921210   -1.242140   -2.984230
  O      0.885520   -1.737840    0.052730
  H      1.284090   -0.839590    0.017130
  H      1.032320   -2.090180   -0.841890
  O      1.737840    0.885520   -0.052730
  H      2.090180    1.032320    0.841890
  H      0.839590    1.284090   -0.017130
  O     -1.737840   -0.885520   -0.052730
  H     -2.090180   -1.032320    0.841890
  H     -0.839590   -1.284090   -0.017130
  O      0.741530   -1.752130    2.896280
  H      0.920500   -2.036450    1.984040
  H      1.242140   -0.921210    2.984230
  O     -0.923410    1.794470   -2.768350
  H     -1.359750    2.338250   -3.430940
  H     -1.303000    0.879480   -2.865760
  O     -0.741530    1.752130    2.896280
  H     -0.920500    2.036450    1.984040
  H     -1.242140    0.921210    2.984230

 Total Charge           Charge          ....    0
 Multiplicity           Mult            ....    1
 Number of Electrons    NEL             ....   90
 Basis Dimension        Dim             ....  387

ORBITAL ENERGIES
----------------

  NO   OCC          E(Eh)            E(eV)
   0   2.0000     -20.587668      -560.2189
   1   2.0000     -20.586496      -560.1870
   2   2.0000     -20.582100      -560.0674
   3   2.0000     -20.573423      -559.8313
   4   2.0000     -20.572833      -559.8152
   5   2.0000     -20.564117      -559.5781
   6   2.0000     -20.562056      -559.5220
   7   2.0000     -20.536614      -558.8297
   8   2.0000     -20.508047      -558.0523
   9   2.0000      -1.385350       -37.6973
  10   2.0000      -1.379469       -37.5373
  11   2.0000      -1.366632       -37.1879
  12   2.0000      -1.363304       -37.0974
  13   2.0000      -1.352310       -36.7982
  14   2.0000      -1.351901       -36.7871
  15   2.0000      -1.344775       -36.5932
  16   2.0000      -1.320863       -35.9425
  17   2.0000      -1.289898       -35.0999
  18   2.0000      -0.748435       -20.3659
  19   2.0000      -0.743021       -20.2186
  20   2.0000      -0.742297       -20.1989
  21   2.0000      -0.731268       -19.8988
  22   2.0000      -0.720764       -19.6130
  23   2.0000      -0.719006       -19.5651
  24   2.0000      -0.714676       -19.4473
  25   2.0000      -0.699548       -19.0357
  26   2.0000      -0.677388       -18.4327
  27   2.0000      -0.650408       -17.6985
  28   2.0000      -0.628105       -17.0916
  29   2.0000      -0.617053       -16.7909
  30   2.0000      -0.602254       -16.3882
  31   2.0000      -0.597823       -16.2676
  32   2.0000      -0.594487       -16.1768
  33   2.0000      -0.578977       -15.7548
  34   2.0000      -0.560362       -15.2482
  35   2.0000      -0.538816       -14.6619
  36   2.0000      -0.530234       -14.4284
  37   2.0000      -0.528830       -14.3902
  38   2.0000      -0.526427       -14.3248
  39   2.0000      -0.517032       -14.0692
  40   2.0000      -0.516257       -14.0481
  41   2.0000      -0.510185       -13.8828
  42   2.0000      -0.494593       -13.4585
  43   2.0000      -0.487124       -13.2553
  44   2.0000      -0.458624       -12.4798
  45   0.0000       0.093078         2.5328
  46   0.0000       0.115726         3.1491
  47   0.0000       0.138888         3.7793
  48   0.0000       0.145095         3.9482
  49   0.0000       0.172770         4.7013

MULLIKEN ATOMIC CHARGES
-----------------------
   0 O :   -0.762135
   1 H :    0.357357
   2 H :    0.382711
   3 O :   -0.759762
   4 H :    0.352337
   5 H :    0.385409
   6 O :   -0.692189
   7 H :    0.390904
   8 H :    0.330830
   9 O :   -0.738530
  10 H :    0.379113
  11 H :    0.353653
  12 O :   -0.698740
  13 H :    0.378958
  14 H :    0.354455
  15 O :   -0.749945
  16 H :    0.371366
  17 H :    0.340354
  18 O :   -0.722554
  19 H :    0.387967
  20 H :    0.370207
  21 O :   -0.738973
  22 H :    0.321505
  23 H :    0.371255
  24 O :   -0.708257
  25 H :    0.358124
  26 H :    0.384580
Sum of atomic charges:   -0.0000000

LOEWDIN ATOMIC CHARGES
----------------------
   0 O :   -0.316482
   1 H :    0.162330
   2 H :    0.145656
   3 O :   -0.315967
   4 H :    0.160023
   5 H :    0.146295
   6 O :   -0.278180
   7 H :    0.159690
   8 H :    0.162691
   9 O :   -0.297362
  10 H :    0.148752
  11 H :    0.168306
  12 O :   -0.292098
  13 H :    0.152010
  14 H :    0.174586
  15 O :   -0.349033
  16 H :    0.148597
  17 H :    0.135296
  18 O :   -0.284642
  19 H :    0.157164
  20 H :    0.149884
  21 O :   -0.376348
  22 H :    0.147082
  23 H :    0.143019
  24 O :   -0.278687
  25 H :    0.171219
  26 H :    0.156198

  Mayer bond orders larger than 0.100000
B(  0-O ,  1-H ) :   0.8366 B(  0-O ,  2-H ) :   0.7316 B(  2-H , 24-O ) :   0.1150
B(  3-O ,  4-H ) :   0.8393 B(  3-O ,  5-H ) :   0.7259 B(  5-H , 18-O ) :   0.1231
B(  6-O ,  7-H ) :   0.7895 B(  6-O ,  8-H ) :   0.8525 B(  9-O , 10-H ) :   0.7448
B(  9-O , 11-H ) :   0.8380 B( 10-H , 12-O ) :   0.1147 B( 12-O , 13-H ) :   0.7989
B( 12-O , 14-H ) :   0.8298 B( 15-O , 16-H ) :   0.8106 B( 15-O , 17-H ) :   0.7878
B( 18-O , 19-H ) :   0.8035 B( 18-O , 20-H ) :   0.7983 B( 21-O , 22-H ) :   0.8622
B( 21-O , 23-H ) :   0.7756 B( 24-O , 25-H ) :   0.8357 B( 24-O , 26-H ) :   0.7820

MP2 TOTAL ENERGY:     -686.927463023 Eh
FINAL SINGLE POINT ENERGY      -686.927463023210

DIPOLE MOMENT
-------------
                                X             Y             Z
Electronic contribution:      0.17573      -0.02482       0.35316
Nuclear contribution   :      0.22976      -0.42024       0.72077
                        -----------------------------------------
Total Dipole Moment    :      0.40550      -0.44506       1.07392
                        -----------------------------------------
Magnitude (a.u.)       :      1.23119
Magnitude (Debye)      :      3.12943

Rotational constants in cm-1:     0.029498     0.015345     0.014218
Rotational constants in MHz :   884.332010   460.022748   426.259155

                             ****ORCA TERMINATED NORMALLY****
TOTAL RUN TIME: 0 days 0 hours 4 minutes 54 seconds 240 msec
