                         Program Version 4.2.0 -  RELEASE  -
|  1> # 12h2o.su.etal.mol2,10,11
|  2> ! MP2 def2-TZVP EnGrad TightSCF
|  3>
|  4> %pal
|  5>     nprocs 6
|  6> end
|  7>
|  8> %maxcore 8000
|  9>
| 10> %scf
| 11>     ConvForced true
| 12> end
| 13>
| 14> *xyz 0 1
| 15> O   0.923410000  -1.794470000  -2.768350000
| 16> H   1.359750000  -2.338250000  -3.430940000
| 17> H   1.303000000  -0.879480000  -2.865760000
| 18> O  -0.923410000   1.794470000  -2.768350000
| 19> H  -1.359750000   2.338250000  -3.430940000
| 20> H  -1.303000000   0.879480000  -2.865760000
| 21> O  -0.741530000   1.752130000   2.896280000
| 22> H  -0.920500000   2.036450000   1.984040000
| 23> H  -1.242140000   0.921210000   2.984230000
| 24> *
| 25>
| 26>                          ****END OF INPUT****

CARTESIAN COORDINATES (ANGSTROEM)
---------------------------------
  O      0.923410   -1.794470   -2.768350
  H      1.359750   -2.338250   -3.430940
  H      1.303000   -0.879480   -2.865760
  O     -0.923410    1.794470   -2.768350
  H     -1.359750    2.338250   -3.430940
  H     -1.303000    0.879480   -2.865760
  O     -0.741530    1.752130    2.896280
  H     -0.920500    2.036450    1.984040
  H     -1.242140    0.921210    2.984230

 Total Charge           Charge          ....    0
 Multiplicity           Mult            ....    1
 Number of Electrons    NEL             ....   30
 Basis Dimension        Dim             ....  129

ORBITAL ENERGIES
----------------

  NO   OCC          E(Eh)            E(eV)
   0   2.0000     -20.568738      -559.7038
   1   2.0000     -20.565673      -559.6204
   2   2.0000     -20.554768      -559.3237
   3   2.0000      -1.344070       -36.5740
   4   2.0000      -1.340998       -36.4904
   5   2.0000      -1.334063       -36.3017
   6   2.0000      -0.712902       -19.3990
   7   2.0000      -0.708625       -19.2827
   8   2.0000      -0.696869       -18.9628
   9   2.0000      -0.580425       -15.7942
  10   2.0000      -0.577279       -15.7086
  11   2.0000      -0.571688       -15.5564
  12   2.0000      -0.512446       -13.9444
  13   2.0000      -0.508724       -13.8431
  14   2.0000      -0.498989       -13.5782
  15   0.0000       0.109292         2.9740
  16   0.0000       0.134217         3.6522
  17   0.0000       0.141913         3.8617
  18   0.0000       0.197402         5.3716
  19   0.0000       0.204505         5.5649

MULLIKEN ATOMIC CHARGES
-----------------------
   0 O :   -0.689106
   1 H :    0.339390
   2 H :    0.349805
   3 O :   -0.690079
   4 H :    0.340325
   5 H :    0.349816
   6 O :   -0.676673
   7 H :    0.340649
   8 H :    0.335874
Sum of atomic charges:   -0.0000000

LOEWDIN ATOMIC CHARGES
----------------------
   0 O :   -0.340979
   1 H :    0.158308
   2 H :    0.182725
   3 O :   -0.341365
   4 H :    0.158717
   5 H :    0.182680
   6 O :   -0.333045
   7 H :    0.166873
   8 H :    0.166086

  Mayer bond orders larger than 0.100000
B(  0-O ,  1-H ) :   0.8526 B(  0-O ,  2-H ) :   0.8391 B(  3-O ,  4-H ) :   0.8520
B(  3-O ,  5-H ) :   0.8389 B(  6-O ,  7-H ) :   0.8512 B(  6-O ,  8-H ) :   0.8539

MP2 TOTAL ENERGY:     -228.940303390 Eh
FINAL SINGLE POINT ENERGY      -228.940303390395

DIPOLE MOMENT
-------------
                                X             Y             Z
Electronic contribution:      0.09597       0.07387       0.28820
Nuclear contribution   :     -0.56566      -0.45497      -1.95129
                        -----------------------------------------
Total Dipole Moment    :     -0.46968      -0.38110      -1.66310
                        -----------------------------------------
Magnitude (a.u.)       :      1.76967
Magnitude (Debye)      :      4.49814

Rotational constants in cm-1:     0.129252     0.037306     0.029130
Rotational constants in MHz :  3874.869402  1118.399077   873.301503

                             ****ORCA TERMINATED NORMALLY****
TOTAL RUN TIME: 0 days 0 hours 0 minutes 23 seconds 161 msec
