                         Program Version 4.2.0 -  RELEASE  -
|  1> # 12mecn.remya.etal.2.mol3,4,5
|  2> ! MP2 def2-TZVP EnGrad TightSCF
|  3>
|  4> %pal
|  5>     nprocs 6
|  6> end
|  7>
|  8> %maxcore 8000
|  9>
| 10> %scf
| 11>     ConvForced true
| 12> end
| 13>
| 14> *xyz 0 1
| 15> C  -5.181310000   2.853865000  -1.626100000
| 16> H  -5.488260000   3.811434000  -2.053310000
| 17> H  -5.857590000   2.068112000  -1.968630000
| 18> H  -4.170750000   2.611402000  -1.966640000
| 19> C  -5.187260000   2.919160000  -0.181450000
| 20> N  -5.181700000   2.970641000   0.983640000
| 21> C  -1.509690000  -0.693960000  -1.610140000
| 22> H  -1.327010000  -1.692700000  -2.017370000
| 23> H  -0.742170000  -0.000650000  -1.964400000
| 24> H  -2.491920000  -0.334310000  -1.929350000
| 25> C  -1.473570000  -0.748120000  -0.167200000
| 26> N  -1.447490000  -0.793720000   0.998938000
| 27> C  -1.955700000   2.515080000   1.698463000
| 28> H  -2.923830000   2.883163000   2.049269000
| 29> H  -1.154850000   3.171830000   2.050990000
| 30> H  -1.790380000   1.506115000   2.087896000
| 31> C  -1.948230000   2.482156000   0.253672000
| 32> N  -1.937550000   2.462523000  -0.913150000
| 33> *
| 34>
| 35>                          ****END OF INPUT****

CARTESIAN COORDINATES (ANGSTROEM)
---------------------------------
  C     -5.181310    2.853865   -1.626100
  H     -5.488260    3.811434   -2.053310
  H     -5.857590    2.068112   -1.968630
  H     -4.170750    2.611402   -1.966640
  C     -5.187260    2.919160   -0.181450
  N     -5.181700    2.970641    0.983640
  C     -1.509690   -0.693960   -1.610140
  H     -1.327010   -1.692700   -2.017370
  H     -0.742170   -0.000650   -1.964400
  H     -2.491920   -0.334310   -1.929350
  C     -1.473570   -0.748120   -0.167200
  N     -1.447490   -0.793720    0.998938
  C     -1.955700    2.515080    1.698463
  H     -2.923830    2.883163    2.049269
  H     -1.154850    3.171830    2.050990
  H     -1.790380    1.506115    2.087896
  C     -1.948230    2.482156    0.253672
  N     -1.937550    2.462523   -0.913150

 Total Charge           Charge          ....    0
 Multiplicity           Mult            ....    1
 Number of Electrons    NEL             ....   66
 Basis Dimension        Dim             ....  333

ORBITAL ENERGIES
----------------

  NO   OCC          E(Eh)            E(eV)
   0   2.0000     -15.572234      -423.7420
   1   2.0000     -15.571038      -423.7095
   2   2.0000     -15.569761      -423.6747
   3   2.0000     -11.285735      -307.1005
   4   2.0000     -11.283285      -307.0338
   5   2.0000     -11.282088      -307.0012
   6   2.0000     -11.276535      -306.8501
   7   2.0000     -11.275021      -306.8089
   8   2.0000     -11.260324      -306.4090
   9   2.0000      -1.219946       -33.1964
  10   2.0000      -1.216057       -33.0906
  11   2.0000      -1.213529       -33.0218
  12   2.0000      -1.038241       -28.2520
  13   2.0000      -1.037741       -28.2384
  14   2.0000      -1.026918       -27.9439
  15   2.0000      -0.697125       -18.9697
  16   2.0000      -0.694328       -18.8936
  17   2.0000      -0.685112       -18.6428
  18   2.0000      -0.630678       -17.1616
  19   2.0000      -0.630035       -17.1441
  20   2.0000      -0.625703       -17.0263
  21   2.0000      -0.623686       -16.9713
  22   2.0000      -0.611941       -16.6518
  23   2.0000      -0.608992       -16.5715
  24   2.0000      -0.561041       -15.2667
  25   2.0000      -0.556692       -15.1484
  26   2.0000      -0.555790       -15.1238
  27   2.0000      -0.462547       -12.5865
  28   2.0000      -0.459618       -12.5068
  29   2.0000      -0.459368       -12.5000
  30   2.0000      -0.457208       -12.4413
  31   2.0000      -0.456868       -12.4320
  32   2.0000      -0.453704       -12.3459
  33   0.0000       0.114158         3.1064
  34   0.0000       0.143417         3.9026
  35   0.0000       0.155417         4.2291
  36   0.0000       0.165067         4.4917
  37   0.0000       0.172316         4.6889

MULLIKEN ATOMIC CHARGES
-----------------------
   0 C :   -0.293556
   1 H :    0.170314
   2 H :    0.166503
   3 H :    0.199352
   4 C :   -0.101092
   5 N :   -0.141951
   6 C :   -0.254949
   7 H :    0.173642
   8 H :    0.180603
   9 H :    0.163290
  10 C :   -0.123575
  11 N :   -0.138381
  12 C :   -0.293028
  13 H :    0.200322
  14 H :    0.161314
  15 H :    0.200062
  16 C :   -0.069130
  17 N :   -0.199740
Sum of atomic charges:    0.0000000

LOEWDIN ATOMIC CHARGES
----------------------
   0 C :   -0.284596
   1 H :    0.151795
   2 H :    0.149771
   3 H :    0.154503
   4 C :   -0.208175
   5 N :    0.036144
   6 C :   -0.285196
   7 H :    0.150262
   8 H :    0.156671
   9 H :    0.153023
  10 C :   -0.212515
  11 N :    0.034226
  12 C :   -0.280274
  13 H :    0.156460
  14 H :    0.150691
  15 H :    0.157621
  16 C :   -0.199665
  17 N :    0.019253

  Mayer bond orders larger than 0.100000
B(  0-C ,  1-H ) :   0.9143 B(  0-C ,  2-H ) :   0.9175 B(  0-C ,  3-H ) :   0.9042
B(  0-C ,  4-C ) :   0.9006 B(  4-C ,  5-N ) :   2.7699 B(  6-C ,  7-H ) :   0.9106
B(  6-C ,  8-H ) :   0.9123 B(  6-C ,  9-H ) :   0.9163 B(  6-C , 10-C ) :   0.9103
B( 10-C , 11-N ) :   2.7786 B( 12-C , 13-H ) :   0.9018 B( 12-C , 14-H ) :   0.9136
B( 12-C , 15-H ) :   0.9032 B( 12-C , 16-C ) :   0.8967 B( 16-C , 17-N ) :   2.7216

MP2 TOTAL ENERGY:     -397.467265106 Eh
FINAL SINGLE POINT ENERGY      -397.467265105570

DIPOLE MOMENT
-------------
                                X             Y             Z
Electronic contribution:      0.08065      -0.03043       3.18352
Nuclear contribution   :     -0.11334       0.05149      -4.63892
                        -----------------------------------------
Total Dipole Moment    :     -0.03269       0.02106      -1.45540
                        -----------------------------------------
Magnitude (a.u.)       :      1.45591
Magnitude (Debye)      :      3.70064

Rotational constants in cm-1:     0.059108     0.025896     0.022316
Rotational constants in MHz :  1772.008384   776.342125   669.007085

                             ****ORCA TERMINATED NORMALLY****
TOTAL RUN TIME: 0 days 0 hours 4 minutes 13 seconds 915 msec
