                         Program Version 4.2.0 -  RELEASE  -
|  1> # 12mecn.remya.etal.2.mol0,2,8
|  2> ! MP2 def2-TZVP EnGrad TightSCF
|  3>
|  4> %pal
|  5>     nprocs 6
|  6> end
|  7>
|  8> %maxcore 8000
|  9>
| 10> %scf
| 11>     ConvForced true
| 12> end
| 13>
| 14> *xyz 0 1
| 15> C  -0.869520000  -3.929380000   1.700199000
| 16> H  -0.057420000  -3.268850000   2.015352000
| 17> H  -0.697530000  -4.930670000   2.101524000
| 18> H  -1.821490000  -3.546590000   2.077146000
| 19> C  -0.916080000  -3.969960000   0.256749000
| 20> N  -0.955390000  -3.995980000  -0.909290000
| 21> C  -4.219070000  -3.477410000  -1.501740000
| 22> H  -3.251530000  -3.803540000  -1.893830000
| 23> H  -4.452920000  -2.481700000  -1.890840000
| 24> H  -4.992170000  -4.178130000  -1.824640000
| 25> C  -4.154550000  -3.418790000  -0.058340000
| 26> N  -4.091140000  -3.354840000   1.104432000
| 27> C   1.912641000  -2.468050000  -1.750510000
| 28> H   2.876947000  -2.793500000  -2.151200000
| 29> H   1.688016000  -1.463720000  -2.122170000
| 30> H   1.123460000  -3.154780000  -2.069590000
| 31> C   1.977850000  -2.444240000  -0.306900000
| 32> N   2.036566000  -2.426130000   0.858249000
| 33> *
| 34>
| 35>                          ****END OF INPUT****

CARTESIAN COORDINATES (ANGSTROEM)
---------------------------------
  C     -0.869520   -3.929380    1.700199
  H     -0.057420   -3.268850    2.015352
  H     -0.697530   -4.930670    2.101524
  H     -1.821490   -3.546590    2.077146
  C     -0.916080   -3.969960    0.256749
  N     -0.955390   -3.995980   -0.909290
  C     -4.219070   -3.477410   -1.501740
  H     -3.251530   -3.803540   -1.893830
  H     -4.452920   -2.481700   -1.890840
  H     -4.992170   -4.178130   -1.824640
  C     -4.154550   -3.418790   -0.058340
  N     -4.091140   -3.354840    1.104432
  C      1.912641   -2.468050   -1.750510
  H      2.876947   -2.793500   -2.151200
  H      1.688016   -1.463720   -2.122170
  H      1.123460   -3.154780   -2.069590
  C      1.977850   -2.444240   -0.306900
  N      2.036566   -2.426130    0.858249

 Total Charge           Charge          ....    0
 Multiplicity           Mult            ....    1
 Number of Electrons    NEL             ....   66
 Basis Dimension        Dim             ....  333

ORBITAL ENERGIES
----------------

  NO   OCC          E(Eh)            E(eV)
   0   2.0000     -15.571207      -423.7141
   1   2.0000     -15.570564      -423.6966
   2   2.0000     -15.569373      -423.6642
   3   2.0000     -11.285827      -307.1030
   4   2.0000     -11.282672      -307.0171
   5   2.0000     -11.281805      -306.9935
   6   2.0000     -11.273568      -306.7694
   7   2.0000     -11.273378      -306.7642
   8   2.0000     -11.258601      -306.3621
   9   2.0000      -1.219635       -33.1879
  10   2.0000      -1.215646       -33.0794
  11   2.0000      -1.213451       -33.0197
  12   2.0000      -1.036311       -28.1995
  13   2.0000      -1.035893       -28.1881
  14   2.0000      -1.026244       -27.9255
  15   2.0000      -0.695109       -18.9149
  16   2.0000      -0.693307       -18.8658
  17   2.0000      -0.684674       -18.6309
  18   2.0000      -0.631068       -17.1722
  19   2.0000      -0.625936       -17.0326
  20   2.0000      -0.623341       -16.9620
  21   2.0000      -0.622629       -16.9426
  22   2.0000      -0.611585       -16.6421
  23   2.0000      -0.607421       -16.5288
  24   2.0000      -0.561292       -15.2735
  25   2.0000      -0.555899       -15.1268
  26   2.0000      -0.555171       -15.1070
  27   2.0000      -0.460526       -12.5315
  28   2.0000      -0.458900       -12.4873
  29   2.0000      -0.458353       -12.4724
  30   2.0000      -0.458033       -12.4637
  31   2.0000      -0.456141       -12.4122
  32   2.0000      -0.454587       -12.3699
  33   0.0000       0.126540         3.4433
  34   0.0000       0.136800         3.7225
  35   0.0000       0.156098         4.2476
  36   0.0000       0.168811         4.5936
  37   0.0000       0.172966         4.7067

MULLIKEN ATOMIC CHARGES
-----------------------
   0 C :   -0.288778
   1 H :    0.199571
   2 H :    0.161163
   3 H :    0.201400
   4 C :   -0.049410
   5 N :   -0.223404
   6 C :   -0.288058
   7 H :    0.201375
   8 H :    0.166226
   9 H :    0.167519
  10 C :   -0.101612
  11 N :   -0.145431
  12 C :   -0.285772
  13 H :    0.167838
  14 H :    0.166261
  15 H :    0.200322
  16 C :   -0.106162
  17 N :   -0.143048
Sum of atomic charges:    0.0000000

LOEWDIN ATOMIC CHARGES
----------------------
   0 C :   -0.280059
   1 H :    0.156260
   2 H :    0.152197
   3 H :    0.156257
   4 C :   -0.197097
   5 N :    0.013434
   6 C :   -0.283434
   7 H :    0.155543
   8 H :    0.152653
   9 H :    0.149887
  10 C :   -0.207962
  11 N :    0.033603
  12 C :   -0.283638
  13 H :    0.151138
  14 H :    0.152563
  15 H :    0.155347
  16 C :   -0.209779
  17 N :    0.033087

  Mayer bond orders larger than 0.100000
B(  0-C ,  1-H ) :   0.9029 B(  0-C ,  2-H ) :   0.9108 B(  0-C ,  3-H ) :   0.9021
B(  0-C ,  4-C ) :   0.9008 B(  4-C ,  5-N ) :   2.6928 B(  6-C ,  7-H ) :   0.9031
B(  6-C ,  8-H ) :   0.9151 B(  6-C ,  9-H ) :   0.9164 B(  6-C , 10-C ) :   0.9026
B( 10-C , 11-N ) :   2.7697 B( 12-C , 13-H ) :   0.9164 B( 12-C , 14-H ) :   0.9154
B( 12-C , 15-H ) :   0.9035 B( 12-C , 16-C ) :   0.9015 B( 16-C , 17-N ) :   2.7758

MP2 TOTAL ENERGY:     -397.468002632 Eh
FINAL SINGLE POINT ENERGY      -397.468002632255

DIPOLE MOMENT
-------------
                                X             Y             Z
Electronic contribution:      0.17484       0.07009       3.16807
Nuclear contribution   :     -0.27676      -0.12554      -4.64123
                        -----------------------------------------
Total Dipole Moment    :     -0.10192      -0.05544      -1.47316
                        -----------------------------------------
Magnitude (a.u.)       :      1.47772
Magnitude (Debye)      :      3.75607

Rotational constants in cm-1:     0.080480     0.020325     0.017310
Rotational constants in MHz :  2412.720243   609.334166   518.929826

                             ****ORCA TERMINATED NORMALLY****
TOTAL RUN TIME: 0 days 0 hours 4 minutes 5 seconds 929 msec
