                         Program Version 4.2.0 -  RELEASE  -
|  1> # 12h2o.su.etal.mol1,7,11
|  2> ! MP2 def2-TZVP EnGrad TightSCF
|  3>
|  4> %pal
|  5>     nprocs 6
|  6> end
|  7>
|  8> %maxcore 8000
|  9>
| 10> %scf
| 11>     ConvForced true
| 12> end
| 13>
| 14> *xyz 0 1
| 15> O  -1.794470000  -0.923410000   2.768350000
| 16> H  -2.338250000  -1.359750000   3.430940000
| 17> H  -0.879480000  -1.303000000   2.865760000
| 18> O  -1.737840000  -0.885520000  -0.052730000
| 19> H  -2.090180000  -1.032320000   0.841890000
| 20> H  -0.839590000  -1.284090000  -0.017130000
| 21> O  -0.741530000   1.752130000   2.896280000
| 22> H  -0.920500000   2.036450000   1.984040000
| 23> H  -1.242140000   0.921210000   2.984230000
| 24> *
| 25>
| 26>                          ****END OF INPUT****

CARTESIAN COORDINATES (ANGSTROEM)
---------------------------------
  O     -1.794470   -0.923410    2.768350
  H     -2.338250   -1.359750    3.430940
  H     -0.879480   -1.303000    2.865760
  O     -1.737840   -0.885520   -0.052730
  H     -2.090180   -1.032320    0.841890
  H     -0.839590   -1.284090   -0.017130
  O     -0.741530    1.752130    2.896280
  H     -0.920500    2.036450    1.984040
  H     -1.242140    0.921210    2.984230

 Total Charge           Charge          ....    0
 Multiplicity           Mult            ....    1
 Number of Electrons    NEL             ....   30
 Basis Dimension        Dim             ....  129

ORBITAL ENERGIES
----------------

  NO   OCC          E(Eh)            E(eV)
   0   2.0000     -20.618697      -561.0633
   1   2.0000     -20.545809      -559.0799
   2   2.0000     -20.535128      -558.7892
   3   2.0000      -1.398803       -38.0634
   4   2.0000      -1.324831       -36.0505
   5   2.0000      -1.317655       -35.8552
   6   2.0000      -0.764452       -20.8018
   7   2.0000      -0.696449       -18.9513
   8   2.0000      -0.689087       -18.7510
   9   2.0000      -0.633534       -17.2393
  10   2.0000      -0.584839       -15.9143
  11   2.0000      -0.555199       -15.1077
  12   2.0000      -0.539693       -14.6858
  13   2.0000      -0.491148       -13.3648
  14   2.0000      -0.482625       -13.1329
  15   0.0000       0.089141         2.4257
  16   0.0000       0.148733         4.0472
  17   0.0000       0.173602         4.7239
  18   0.0000       0.186198         5.0667
  19   0.0000       0.255933         6.9643

MULLIKEN ATOMIC CHARGES
-----------------------
   0 O :   -0.710882
   1 H :    0.365431
   2 H :    0.366277
   3 O :   -0.688092
   4 H :    0.362234
   5 H :    0.320164
   6 O :   -0.705590
   7 H :    0.337316
   8 H :    0.353142
Sum of atomic charges:   -0.0000000

LOEWDIN ATOMIC CHARGES
----------------------
   0 O :   -0.286217
   1 H :    0.168354
   2 H :    0.190230
   3 O :   -0.343390
   4 H :    0.146650
   5 H :    0.163368
   6 O :   -0.347233
   7 H :    0.163622
   8 H :    0.144616

  Mayer bond orders larger than 0.100000
B(  0-O ,  1-H ) :   0.8310 B(  0-O ,  2-H ) :   0.8235 B(  3-O ,  4-H ) :   0.8254
B(  3-O ,  5-H ) :   0.8604 B(  6-O ,  7-H ) :   0.8525 B(  6-O ,  8-H ) :   0.8285

MP2 TOTAL ENERGY:     -228.950536963 Eh
FINAL SINGLE POINT ENERGY      -228.950536963317

DIPOLE MOMENT
-------------
                                X             Y             Z
Electronic contribution:     -0.13576       0.10182       0.03684
Nuclear contribution   :      0.19772      -1.58806       0.72077
                        -----------------------------------------
Total Dipole Moment    :      0.06196      -1.48624       0.75761
                        -----------------------------------------
Magnitude (a.u.)       :      1.66935
Magnitude (Debye)      :      4.24315

Rotational constants in cm-1:     0.313357     0.114986     0.086006
Rotational constants in MHz :  9394.198783  3447.182731  2578.400760

                             ****ORCA TERMINATED NORMALLY****
TOTAL RUN TIME: 0 days 0 hours 0 minutes 32 seconds 838 msec
