                         Program Version 4.2.0 -  RELEASE  -
|  1> # 12h2o.su.etal.mol0,1,2,4,7,8
|  2> ! MP2 def2-TZVP EnGrad TightSCF
|  3>
|  4> %pal
|  5>     nprocs 6
|  6> end
|  7>
|  8> %maxcore 8000
|  9>
| 10> %scf
| 11>     ConvForced true
| 12> end
| 13>
| 14> *xyz 0 1
| 15> O   1.794470000   0.923410000   2.768350000
| 16> H   2.338250000   1.359750000   3.430940000
| 17> H   0.879480000   1.303000000   2.865760000
| 18> O  -1.794470000  -0.923410000   2.768350000
| 19> H  -2.338250000  -1.359750000   3.430940000
| 20> H  -0.879480000  -1.303000000   2.865760000
| 21> O   0.923410000  -1.794470000  -2.768350000
| 22> H   1.359750000  -2.338250000  -3.430940000
| 23> H   1.303000000  -0.879480000  -2.865760000
| 24> O  -0.885520000   1.737840000   0.052730000
| 25> H  -1.032320000   2.090180000  -0.841890000
| 26> H  -1.284090000   0.839590000   0.017130000
| 27> O  -1.737840000  -0.885520000  -0.052730000
| 28> H  -2.090180000  -1.032320000   0.841890000
| 29> H  -0.839590000  -1.284090000  -0.017130000
| 30> O   1.752130000   0.741530000  -2.896280000
| 31> H   2.036450000   0.920500000  -1.984040000
| 32> H   0.921210000   1.242140000  -2.984230000
| 33> *
| 34>
| 35>                          ****END OF INPUT****

CARTESIAN COORDINATES (ANGSTROEM)
---------------------------------
  O      1.794470    0.923410    2.768350
  H      2.338250    1.359750    3.430940
  H      0.879480    1.303000    2.865760
  O     -1.794470   -0.923410    2.768350
  H     -2.338250   -1.359750    3.430940
  H     -0.879480   -1.303000    2.865760
  O      0.923410   -1.794470   -2.768350
  H      1.359750   -2.338250   -3.430940
  H      1.303000   -0.879480   -2.865760
  O     -0.885520    1.737840    0.052730
  H     -1.032320    2.090180   -0.841890
  H     -1.284090    0.839590    0.017130
  O     -1.737840   -0.885520   -0.052730
  H     -2.090180   -1.032320    0.841890
  H     -0.839590   -1.284090   -0.017130
  O      1.752130    0.741530   -2.896280
  H      2.036450    0.920500   -1.984040
  H      0.921210    1.242140   -2.984230

 Total Charge           Charge          ....    0
 Multiplicity           Mult            ....    1
 Number of Electrons    NEL             ....   60
 Basis Dimension        Dim             ....  258

ORBITAL ENERGIES
----------------

  NO   OCC          E(Eh)            E(eV)
   0   2.0000     -20.594360      -560.4010
   1   2.0000     -20.589473      -560.2681
   2   2.0000     -20.559531      -559.4533
   3   2.0000     -20.554362      -559.3126
   4   2.0000     -20.525004      -558.5138
   5   2.0000     -20.515342      -558.2508
   6   2.0000      -1.374781       -37.4097
   7   2.0000      -1.372575       -37.3497
   8   2.0000      -1.338429       -36.4205
   9   2.0000      -1.334889       -36.3242
  10   2.0000      -1.304823       -35.5060
  11   2.0000      -1.297547       -35.3080
  12   2.0000      -0.739095       -20.1118
  13   2.0000      -0.732305       -19.9270
  14   2.0000      -0.702948       -19.1282
  15   2.0000      -0.701327       -19.0841
  16   2.0000      -0.687588       -18.7102
  17   2.0000      -0.678738       -18.4694
  18   2.0000      -0.613756       -16.7012
  19   2.0000      -0.610808       -16.6209
  20   2.0000      -0.581753       -15.8303
  21   2.0000      -0.571721       -15.5573
  22   2.0000      -0.553307       -15.0562
  23   2.0000      -0.552314       -15.0292
  24   2.0000      -0.531334       -14.4583
  25   2.0000      -0.509760       -13.8713
  26   2.0000      -0.503011       -13.6876
  27   2.0000      -0.492633       -13.4052
  28   2.0000      -0.472750       -12.8642
  29   2.0000      -0.465663       -12.6713
  30   0.0000       0.095217         2.5910
  31   0.0000       0.112531         3.0621
  32   0.0000       0.139696         3.8013
  33   0.0000       0.164497         4.4762
  34   0.0000       0.176235         4.7956

MULLIKEN ATOMIC CHARGES
-----------------------
   0 O :   -0.694741
   1 H :    0.336343
   2 H :    0.357535
   3 O :   -0.699158
   4 H :    0.353326
   5 H :    0.360043
   6 O :   -0.731287
   7 H :    0.324237
   8 H :    0.365438
   9 O :   -0.717015
  10 H :    0.313630
  11 H :    0.364022
  12 O :   -0.698359
  13 H :    0.373980
  14 H :    0.351485
  15 O :   -0.681115
  16 H :    0.367035
  17 H :    0.354603
Sum of atomic charges:   -0.0000000

LOEWDIN ATOMIC CHARGES
----------------------
   0 O :   -0.343292
   1 H :    0.157038
   2 H :    0.184988
   3 O :   -0.310457
   4 H :    0.164138
   5 H :    0.187004
   6 O :   -0.372145
   7 H :    0.148601
   8 H :    0.142013
   9 O :   -0.363360
  10 H :    0.150908
  11 H :    0.144028
  12 O :   -0.297251
  13 H :    0.151597
  14 H :    0.175418
  15 O :   -0.270926
  16 H :    0.177909
  17 H :    0.173790

  Mayer bond orders larger than 0.100000
B(  0-O ,  1-H ) :   0.8540 B(  0-O ,  2-H ) :   0.8326 B(  3-O ,  4-H ) :   0.8409
B(  3-O ,  5-H ) :   0.8285 B(  6-O ,  7-H ) :   0.8608 B(  6-O ,  8-H ) :   0.7857
B(  9-O , 10-H ) :   0.8652 B(  9-O , 11-H ) :   0.7830 B( 12-O , 13-H ) :   0.8071
B( 12-O , 14-H ) :   0.8352 B( 15-O , 16-H ) :   0.8302 B( 15-O , 17-H ) :   0.8376

MP2 TOTAL ENERGY:     -457.906689433 Eh
FINAL SINGLE POINT ENERGY      -457.906689432758

DIPOLE MOMENT
-------------
                                X             Y             Z
Electronic contribution:     -0.07557       0.03093       0.01998
Nuclear contribution   :      0.22463      -0.03370       1.31870
                        -----------------------------------------
Total Dipole Moment    :      0.14906      -0.00277       1.33868
                        -----------------------------------------
Magnitude (a.u.)       :      1.34695
Magnitude (Debye)      :      3.42368

Rotational constants in cm-1:     0.044936     0.022582     0.018991
Rotational constants in MHz :  1347.138311   677.003870   569.322470

                             ****ORCA TERMINATED NORMALLY****
TOTAL RUN TIME: 0 days 0 hours 0 minutes 57 seconds 62 msec
