                         Program Version 4.2.0 -  RELEASE  -
|  1> # 12h2o.su.etal.mol0,4,6,7,8
|  2> ! MP2 def2-TZVP EnGrad TightSCF
|  3>
|  4> %pal
|  5>     nprocs 6
|  6> end
|  7>
|  8> %maxcore 8000
|  9>
| 10> %scf
| 11>     ConvForced true
| 12> end
| 13>
| 14> *xyz 0 1
| 15> O   1.794470000   0.923410000   2.768350000
| 16> H   2.338250000   1.359750000   3.430940000
| 17> H   0.879480000   1.303000000   2.865760000
| 18> O  -0.885520000   1.737840000   0.052730000
| 19> H  -1.032320000   2.090180000  -0.841890000
| 20> H  -1.284090000   0.839590000   0.017130000
| 21> O   1.737840000   0.885520000  -0.052730000
| 22> H   2.090180000   1.032320000   0.841890000
| 23> H   0.839590000   1.284090000  -0.017130000
| 24> O  -1.737840000  -0.885520000  -0.052730000
| 25> H  -2.090180000  -1.032320000   0.841890000
| 26> H  -0.839590000  -1.284090000  -0.017130000
| 27> O   1.752130000   0.741530000  -2.896280000
| 28> H   2.036450000   0.920500000  -1.984040000
| 29> H   0.921210000   1.242140000  -2.984230000
| 30> *
| 31>
| 32>                          ****END OF INPUT****

CARTESIAN COORDINATES (ANGSTROEM)
---------------------------------
  O      1.794470    0.923410    2.768350
  H      2.338250    1.359750    3.430940
  H      0.879480    1.303000    2.865760
  O     -0.885520    1.737840    0.052730
  H     -1.032320    2.090180   -0.841890
  H     -1.284090    0.839590    0.017130
  O      1.737840    0.885520   -0.052730
  H      2.090180    1.032320    0.841890
  H      0.839590    1.284090   -0.017130
  O     -1.737840   -0.885520   -0.052730
  H     -2.090180   -1.032320    0.841890
  H     -0.839590   -1.284090   -0.017130
  O      1.752130    0.741530   -2.896280
  H      2.036450    0.920500   -1.984040
  H      0.921210    1.242140   -2.984230

 Total Charge           Charge          ....    0
 Multiplicity           Mult            ....    1
 Number of Electrons    NEL             ....   50
 Basis Dimension        Dim             ....  215

ORBITAL ENERGIES
----------------

  NO   OCC          E(Eh)            E(eV)
   0   2.0000     -20.604236      -560.6698
   1   2.0000     -20.590153      -560.2866
   2   2.0000     -20.571799      -559.7871
   3   2.0000     -20.522550      -558.4470
   4   2.0000     -20.519161      -558.3548
   5   2.0000      -1.385994       -37.7148
   6   2.0000      -1.368110       -37.2282
   7   2.0000      -1.356446       -36.9108
   8   2.0000      -1.311216       -35.6800
   9   2.0000      -1.298615       -35.3371
  10   2.0000      -0.741982       -20.1904
  11   2.0000      -0.735050       -20.0017
  12   2.0000      -0.726111       -19.7585
  13   2.0000      -0.690828       -18.7984
  14   2.0000      -0.667958       -18.1761
  15   2.0000      -0.630116       -17.1463
  16   2.0000      -0.610532       -16.6134
  17   2.0000      -0.597860       -16.2686
  18   2.0000      -0.568834       -15.4788
  19   2.0000      -0.541243       -14.7280
  20   2.0000      -0.538747       -14.6601
  21   2.0000      -0.523754       -14.2521
  22   2.0000      -0.506185       -13.7740
  23   2.0000      -0.474837       -12.9210
  24   2.0000      -0.465078       -12.6554
  25   0.0000       0.090975         2.4756
  26   0.0000       0.121487         3.3058
  27   0.0000       0.132515         3.6059
  28   0.0000       0.177712         4.8358
  29   0.0000       0.192004         5.2247

MULLIKEN ATOMIC CHARGES
-----------------------
   0 O :   -0.696028
   1 H :    0.350730
   2 H :    0.356597
   3 O :   -0.712176
   4 H :    0.346866
   5 H :    0.369264
   6 O :   -0.745032
   7 H :    0.367119
   8 H :    0.335171
   9 O :   -0.688953
  10 H :    0.356510
  11 H :    0.373774
  12 O :   -0.695348
  13 H :    0.376488
  14 H :    0.305017
Sum of atomic charges:    0.0000000

LOEWDIN ATOMIC CHARGES
----------------------
   0 O :   -0.311648
   1 H :    0.162750
   2 H :    0.185623
   3 O :   -0.312235
   4 H :    0.165455
   5 H :    0.145420
   6 O :   -0.350366
   7 H :    0.148082
   8 H :    0.134517
   9 O :   -0.288222
  10 H :    0.172996
  11 H :    0.186437
  12 O :   -0.343010
  13 H :    0.153632
  14 H :    0.150569

  Mayer bond orders larger than 0.100000
B(  0-O ,  1-H ) :   0.8427 B(  0-O ,  2-H ) :   0.8329 B(  3-O ,  4-H ) :   0.8442
B(  3-O ,  5-H ) :   0.7771 B(  6-O ,  7-H ) :   0.8181 B(  6-O ,  8-H ) :   0.7874
B(  9-O , 10-H ) :   0.8381 B(  9-O , 11-H ) :   0.8212 B( 12-O , 13-H ) :   0.8090
B( 12-O , 14-H ) :   0.8703

MP2 TOTAL ENERGY:     -381.598300362 Eh
FINAL SINGLE POINT ENERGY      -381.598300362235

DIPOLE MOMENT
-------------
                                X             Y             Z
Electronic contribution:     -0.06505      -0.36857       0.06134
Nuclear contribution   :     -1.21789       0.79041       2.09298
                        -----------------------------------------
Total Dipole Moment    :     -1.28295       0.42184       2.15432
                        -----------------------------------------
Magnitude (a.u.)       :      2.54264
Magnitude (Debye)      :      6.46287

Rotational constants in cm-1:     0.060465     0.048753     0.032491
Rotational constants in MHz :  1812.687828  1461.578247   974.057177

                             ****ORCA TERMINATED NORMALLY****
TOTAL RUN TIME: 0 days 0 hours 0 minutes 33 seconds 98 msec
