                         Program Version 4.2.0 -  RELEASE  -
|  1> # 12h2o.su.etal.mol0,1,2,3,8,9
|  2> ! MP2 def2-TZVP EnGrad TightSCF
|  3>
|  4> %pal
|  5>     nprocs 6
|  6> end
|  7>
|  8> %maxcore 8000
|  9>
| 10> %scf
| 11>     ConvForced true
| 12> end
| 13>
| 14> *xyz 0 1
| 15> O   1.794470000   0.923410000   2.768350000
| 16> H   2.338250000   1.359750000   3.430940000
| 17> H   0.879480000   1.303000000   2.865760000
| 18> O  -1.794470000  -0.923410000   2.768350000
| 19> H  -2.338250000  -1.359750000   3.430940000
| 20> H  -0.879480000  -1.303000000   2.865760000
| 21> O   0.923410000  -1.794470000  -2.768350000
| 22> H   1.359750000  -2.338250000  -3.430940000
| 23> H   1.303000000  -0.879480000  -2.865760000
| 24> O  -1.752130000  -0.741530000  -2.896280000
| 25> H  -2.036450000  -0.920500000  -1.984040000
| 26> H  -0.921210000  -1.242140000  -2.984230000
| 27> O   1.752130000   0.741530000  -2.896280000
| 28> H   2.036450000   0.920500000  -1.984040000
| 29> H   0.921210000   1.242140000  -2.984230000
| 30> O   0.741530000  -1.752130000   2.896280000
| 31> H   0.920500000  -2.036450000   1.984040000
| 32> H   1.242140000  -0.921210000   2.984230000
| 33> *
| 34>
| 35>                          ****END OF INPUT****

CARTESIAN COORDINATES (ANGSTROEM)
---------------------------------
  O      1.794470    0.923410    2.768350
  H      2.338250    1.359750    3.430940
  H      0.879480    1.303000    2.865760
  O     -1.794470   -0.923410    2.768350
  H     -2.338250   -1.359750    3.430940
  H     -0.879480   -1.303000    2.865760
  O      0.923410   -1.794470   -2.768350
  H      1.359750   -2.338250   -3.430940
  H      1.303000   -0.879480   -2.865760
  O     -1.752130   -0.741530   -2.896280
  H     -2.036450   -0.920500   -1.984040
  H     -0.921210   -1.242140   -2.984230
  O      1.752130    0.741530   -2.896280
  H      2.036450    0.920500   -1.984040
  H      0.921210    1.242140   -2.984230
  O      0.741530   -1.752130    2.896280
  H      0.920500   -2.036450    1.984040
  H      1.242140   -0.921210    2.984230

 Total Charge           Charge          ....    0
 Multiplicity           Mult            ....    1
 Number of Electrons    NEL             ....   60
 Basis Dimension        Dim             ....  258

ORBITAL ENERGIES
----------------

  NO   OCC          E(Eh)            E(eV)
   0   2.0000     -20.602919      -560.6339
   1   2.0000     -20.601320      -560.5904
   2   2.0000     -20.570659      -559.7561
   3   2.0000     -20.545895      -559.0822
   4   2.0000     -20.523706      -558.4784
   5   2.0000     -20.517607      -558.3125
   6   2.0000      -1.387080       -37.7444
   7   2.0000      -1.381328       -37.5878
   8   2.0000      -1.358738       -36.9731
   9   2.0000      -1.330535       -36.2057
  10   2.0000      -1.305466       -35.5235
  11   2.0000      -1.299572       -35.3631
  12   2.0000      -0.748368       -20.3641
  13   2.0000      -0.743713       -20.2375
  14   2.0000      -0.720580       -19.6080
  15   2.0000      -0.715565       -19.4715
  16   2.0000      -0.687446       -18.7063
  17   2.0000      -0.674792       -18.3620
  18   2.0000      -0.625842       -17.0300
  19   2.0000      -0.624640       -16.9973
  20   2.0000      -0.595027       -16.1915
  21   2.0000      -0.580921       -15.8077
  22   2.0000      -0.551971       -15.0199
  23   2.0000      -0.547962       -14.9108
  24   2.0000      -0.540193       -14.6994
  25   2.0000      -0.527902       -14.3649
  26   2.0000      -0.502081       -13.6623
  27   2.0000      -0.493698       -13.4342
  28   2.0000      -0.471689       -12.8353
  29   2.0000      -0.468366       -12.7449
  30   0.0000       0.095911         2.6099
  31   0.0000       0.113089         3.0773
  32   0.0000       0.147787         4.0215
  33   0.0000       0.161362         4.3909
  34   0.0000       0.173330         4.7165

MULLIKEN ATOMIC CHARGES
-----------------------
   0 O :   -0.706231
   1 H :    0.357450
   2 H :    0.371384
   3 O :   -0.739640
   4 H :    0.325916
   5 H :    0.364427
   6 O :   -0.737221
   7 H :    0.339859
   8 H :    0.376858
   9 O :   -0.718904
  10 H :    0.334545
  11 H :    0.359832
  12 O :   -0.686152
  13 H :    0.360420
  14 H :    0.370612
  15 O :   -0.700864
  16 H :    0.356147
  17 H :    0.371560
Sum of atomic charges:   -0.0000000

LOEWDIN ATOMIC CHARGES
----------------------
   0 O :   -0.312709
   1 H :    0.165993
   2 H :    0.192542
   3 O :   -0.376874
   4 H :    0.148631
   5 H :    0.140623
   6 O :   -0.339871
   7 H :    0.155013
   8 H :    0.144671
   9 O :   -0.353828
  10 H :    0.162043
  11 H :    0.146113
  12 O :   -0.270347
  13 H :    0.175822
  14 H :    0.180299
  15 O :   -0.283193
  16 H :    0.172525
  17 H :    0.152548

  Mayer bond orders larger than 0.100000
B(  0-O ,  1-H ) :   0.8388 B(  0-O ,  2-H ) :   0.8218 B(  3-O ,  4-H ) :   0.8603
B(  3-O ,  5-H ) :   0.7776 B(  6-O ,  7-H ) :   0.8492 B(  6-O ,  8-H ) :   0.7672
B(  9-O , 10-H ) :   0.8547 B(  9-O , 11-H ) :   0.8082 B( 12-O , 13-H ) :   0.8359
B( 12-O , 14-H ) :   0.8254 B( 15-O , 16-H ) :   0.8388 B( 15-O , 17-H ) :   0.8007

MP2 TOTAL ENERGY:     -457.918531632 Eh
FINAL SINGLE POINT ENERGY      -457.918531631808

DIPOLE MOMENT
-------------
                                X             Y             Z
Electronic contribution:      0.46720       0.22603      -0.19855
Nuclear contribution   :      1.24480       0.76395       1.31870
                        -----------------------------------------
Total Dipole Moment    :      1.71201       0.98997       1.12015
                        -----------------------------------------
Magnitude (a.u.)       :      2.27283
Magnitude (Debye)      :      5.77707

Rotational constants in cm-1:     0.044935     0.017456     0.014670
Rotational constants in MHz :  1347.107939   523.325635   439.781373

                             ****ORCA TERMINATED NORMALLY****
TOTAL RUN TIME: 0 days 0 hours 0 minutes 47 seconds 896 msec
