                         Program Version 4.2.0 -  RELEASE  -
|  1> # 12h2o.su.etal.mol1,2,3,4,6,7,8,10
|  2> ! MP2 def2-TZVP EnGrad TightSCF
|  3>
|  4> %pal
|  5>     nprocs 6
|  6> end
|  7>
|  8> %maxcore 8000
|  9>
| 10> %scf
| 11>     ConvForced true
| 12> end
| 13>
| 14> *xyz 0 1
| 15> O  -1.794470000  -0.923410000   2.768350000
| 16> H  -2.338250000  -1.359750000   3.430940000
| 17> H  -0.879480000  -1.303000000   2.865760000
| 18> O   0.923410000  -1.794470000  -2.768350000
| 19> H   1.359750000  -2.338250000  -3.430940000
| 20> H   1.303000000  -0.879480000  -2.865760000
| 21> O  -1.752130000  -0.741530000  -2.896280000
| 22> H  -2.036450000  -0.920500000  -1.984040000
| 23> H  -0.921210000  -1.242140000  -2.984230000
| 24> O  -0.885520000   1.737840000   0.052730000
| 25> H  -1.032320000   2.090180000  -0.841890000
| 26> H  -1.284090000   0.839590000   0.017130000
| 27> O   1.737840000   0.885520000  -0.052730000
| 28> H   2.090180000   1.032320000   0.841890000
| 29> H   0.839590000   1.284090000  -0.017130000
| 30> O  -1.737840000  -0.885520000  -0.052730000
| 31> H  -2.090180000  -1.032320000   0.841890000
| 32> H  -0.839590000  -1.284090000  -0.017130000
| 33> O   1.752130000   0.741530000  -2.896280000
| 34> H   2.036450000   0.920500000  -1.984040000
| 35> H   0.921210000   1.242140000  -2.984230000
| 36> O  -0.923410000   1.794470000  -2.768350000
| 37> H  -1.359750000   2.338250000  -3.430940000
| 38> H  -1.303000000   0.879480000  -2.865760000
| 39> *
| 40>
| 41>                          ****END OF INPUT****

CARTESIAN COORDINATES (ANGSTROEM)
---------------------------------
  O     -1.794470   -0.923410    2.768350
  H     -2.338250   -1.359750    3.430940
  H     -0.879480   -1.303000    2.865760
  O      0.923410   -1.794470   -2.768350
  H      1.359750   -2.338250   -3.430940
  H      1.303000   -0.879480   -2.865760
  O     -1.752130   -0.741530   -2.896280
  H     -2.036450   -0.920500   -1.984040
  H     -0.921210   -1.242140   -2.984230
  O     -0.885520    1.737840    0.052730
  H     -1.032320    2.090180   -0.841890
  H     -1.284090    0.839590    0.017130
  O      1.737840    0.885520   -0.052730
  H      2.090180    1.032320    0.841890
  H      0.839590    1.284090   -0.017130
  O     -1.737840   -0.885520   -0.052730
  H     -2.090180   -1.032320    0.841890
  H     -0.839590   -1.284090   -0.017130
  O      1.752130    0.741530   -2.896280
  H      2.036450    0.920500   -1.984040
  H      0.921210    1.242140   -2.984230
  O     -0.923410    1.794470   -2.768350
  H     -1.359750    2.338250   -3.430940
  H     -1.303000    0.879480   -2.865760

 Total Charge           Charge          ....    0
 Multiplicity           Mult            ....    1
 Number of Electrons    NEL             ....   80
 Basis Dimension        Dim             ....  344

ORBITAL ENERGIES
----------------

  NO   OCC          E(Eh)            E(eV)
   0   2.0000     -20.606424      -560.7293
   1   2.0000     -20.587632      -560.2180
   2   2.0000     -20.555387      -559.3405
   3   2.0000     -20.545738      -559.0780
   4   2.0000     -20.541480      -558.9621
   5   2.0000     -20.534739      -558.7787
   6   2.0000     -20.533797      -558.7530
   7   2.0000     -20.530068      -558.6516
   8   2.0000      -1.386257       -37.7220
   9   2.0000      -1.372293       -37.3420
  10   2.0000      -1.351781       -36.7838
  11   2.0000      -1.334278       -36.3076
  12   2.0000      -1.331891       -36.2426
  13   2.0000      -1.326248       -36.0891
  14   2.0000      -1.313451       -35.7408
  15   2.0000      -1.308326       -35.6013
  16   2.0000      -0.751949       -20.4616
  17   2.0000      -0.736700       -20.0466
  18   2.0000      -0.720590       -19.6082
  19   2.0000      -0.707224       -19.2445
  20   2.0000      -0.699076       -19.0228
  21   2.0000      -0.695922       -18.9370
  22   2.0000      -0.693364       -18.8674
  23   2.0000      -0.686737       -18.6871
  24   2.0000      -0.636553       -17.3215
  25   2.0000      -0.619414       -16.8551
  26   2.0000      -0.600268       -16.3341
  27   2.0000      -0.588054       -16.0018
  28   2.0000      -0.584250       -15.8983
  29   2.0000      -0.563970       -15.3464
  30   2.0000      -0.562426       -15.3044
  31   2.0000      -0.546476       -14.8704
  32   2.0000      -0.533799       -14.5254
  33   2.0000      -0.520645       -14.1675
  34   2.0000      -0.501005       -13.6331
  35   2.0000      -0.493583       -13.4311
  36   2.0000      -0.492703       -13.4071
  37   2.0000      -0.484492       -13.1837
  38   2.0000      -0.479042       -13.0354
  39   2.0000      -0.476875       -12.9764
  40   0.0000       0.088707         2.4139
  41   0.0000       0.132660         3.6099
  42   0.0000       0.150637         4.0990
  43   0.0000       0.160808         4.3758
  44   0.0000       0.173964         4.7338

MULLIKEN ATOMIC CHARGES
-----------------------
   0 O :   -0.693846
   1 H :    0.357763
   2 H :    0.356209
   3 O :   -0.749643
   4 H :    0.337007
   5 H :    0.385290
   6 O :   -0.725813
   7 H :    0.382403
   8 H :    0.370430
   9 O :   -0.728727
  10 H :    0.373710
  11 H :    0.364257
  12 O :   -0.737852
  13 H :    0.333610
  14 H :    0.361079
  15 O :   -0.735100
  16 H :    0.388695
  17 H :    0.363081
  18 O :   -0.727207
  19 H :    0.386356
  20 H :    0.365129
  21 O :   -0.757699
  22 H :    0.347837
  23 H :    0.383030
Sum of atomic charges:   -0.0000000

LOEWDIN ATOMIC CHARGES
----------------------
   0 O :   -0.307889
   1 H :    0.166372
   2 H :    0.186777
   3 O :   -0.345203
   4 H :    0.153688
   5 H :    0.146119
   6 O :   -0.288498
   7 H :    0.154027
   8 H :    0.150592
   9 O :   -0.316402
  10 H :    0.147893
  11 H :    0.140228
  12 O :   -0.347322
  13 H :    0.160955
  14 H :    0.143378
  15 O :   -0.284326
  16 H :    0.157808
  17 H :    0.178743
  18 O :   -0.290058
  19 H :    0.157916
  20 H :    0.147993
  21 O :   -0.316731
  22 H :    0.157677
  23 H :    0.146264

  Mayer bond orders larger than 0.100000
B(  0-O ,  1-H ) :   0.8389 B(  0-O ,  2-H ) :   0.8335 B(  3-O ,  4-H ) :   0.8506
B(  3-O ,  5-H ) :   0.7369 B(  5-H , 18-O ) :   0.1198 B(  6-O ,  7-H ) :   0.8092
B(  6-O ,  8-H ) :   0.7865 B(  6-O , 23-H ) :   0.1244 B(  9-O , 10-H ) :   0.8055
B(  9-O , 11-H ) :   0.7913 B(  9-O , 14-H ) :   0.1196 B( 12-O , 13-H ) :   0.8521
B( 12-O , 14-H ) :   0.7571 B( 15-O , 16-H ) :   0.7914 B( 15-O , 17-H ) :   0.8228
B( 18-O , 19-H ) :   0.7991 B( 18-O , 20-H ) :   0.8021 B( 21-O , 22-H ) :   0.8419
B( 21-O , 23-H ) :   0.7259

MP2 TOTAL ENERGY:     -610.603246568 Eh
FINAL SINGLE POINT ENERGY      -610.603246567737

DIPOLE MOMENT
-------------
                                X             Y             Z
Electronic contribution:     -0.34462       0.03258       0.15693
Nuclear contribution   :     -0.14496      -1.13354       1.51390
                        -----------------------------------------
Total Dipole Moment    :     -0.48958      -1.10097       1.67083
                        -----------------------------------------
Magnitude (a.u.)       :      2.05997
Magnitude (Debye)      :      5.23603

Rotational constants in cm-1:     0.035532     0.020115     0.018736
Rotational constants in MHz :  1065.213630   603.027132   561.702377

                             ****ORCA TERMINATED NORMALLY****
TOTAL RUN TIME: 0 days 0 hours 3 minutes 18 seconds 61 msec
