                         Program Version 4.2.0 -  RELEASE  -
|  1> # 12h2o.su.etal.mol3,4,7,10
|  2> ! MP2 def2-TZVP EnGrad TightSCF
|  3>
|  4> %pal
|  5>     nprocs 6
|  6> end
|  7>
|  8> %maxcore 8000
|  9>
| 10> %scf
| 11>     ConvForced true
| 12> end
| 13>
| 14> *xyz 0 1
| 15> O  -1.752130000  -0.741530000  -2.896280000
| 16> H  -2.036450000  -0.920500000  -1.984040000
| 17> H  -0.921210000  -1.242140000  -2.984230000
| 18> O  -0.885520000   1.737840000   0.052730000
| 19> H  -1.032320000   2.090180000  -0.841890000
| 20> H  -1.284090000   0.839590000   0.017130000
| 21> O  -1.737840000  -0.885520000  -0.052730000
| 22> H  -2.090180000  -1.032320000   0.841890000
| 23> H  -0.839590000  -1.284090000  -0.017130000
| 24> O  -0.923410000   1.794470000  -2.768350000
| 25> H  -1.359750000   2.338250000  -3.430940000
| 26> H  -1.303000000   0.879480000  -2.865760000
| 27> *
| 28>
| 29>                          ****END OF INPUT****

CARTESIAN COORDINATES (ANGSTROEM)
---------------------------------
  O     -1.752130   -0.741530   -2.896280
  H     -2.036450   -0.920500   -1.984040
  H     -0.921210   -1.242140   -2.984230
  O     -0.885520    1.737840    0.052730
  H     -1.032320    2.090180   -0.841890
  H     -1.284090    0.839590    0.017130
  O     -1.737840   -0.885520   -0.052730
  H     -2.090180   -1.032320    0.841890
  H     -0.839590   -1.284090   -0.017130
  O     -0.923410    1.794470   -2.768350
  H     -1.359750    2.338250   -3.430940
  H     -1.303000    0.879480   -2.865760

 Total Charge           Charge          ....    0
 Multiplicity           Mult            ....    1
 Number of Electrons    NEL             ....   40
 Basis Dimension        Dim             ....  172

ORBITAL ENERGIES
----------------

  NO   OCC          E(Eh)            E(eV)
   0   2.0000     -20.622935      -561.1786
   1   2.0000     -20.586226      -560.1797
   2   2.0000     -20.531814      -558.6991
   3   2.0000     -20.495683      -557.7159
   4   2.0000      -1.406232       -38.2655
   5   2.0000      -1.374104       -37.3913
   6   2.0000      -1.316648       -35.8278
   7   2.0000      -1.280040       -34.8316
   8   2.0000      -0.765936       -20.8422
   9   2.0000      -0.735826       -20.0228
  10   2.0000      -0.702039       -19.1035
  11   2.0000      -0.672416       -18.2974
  12   2.0000      -0.647409       -17.6169
  13   2.0000      -0.604547       -16.4506
  14   2.0000      -0.581728       -15.8296
  15   2.0000      -0.554783       -15.0964
  16   2.0000      -0.519010       -14.1230
  17   2.0000      -0.512172       -13.9369
  18   2.0000      -0.477011       -12.9801
  19   2.0000      -0.446454       -12.1486
  20   0.0000       0.088361         2.4044
  21   0.0000       0.138730         3.7750
  22   0.0000       0.164522         4.4769
  23   0.0000       0.183334         4.9888
  24   0.0000       0.242115         6.5883

MULLIKEN ATOMIC CHARGES
-----------------------
   0 O :   -0.689005
   1 H :    0.384834
   2 H :    0.347666
   3 O :   -0.732045
   4 H :    0.365231
   5 H :    0.328016
   6 O :   -0.708890
   7 H :    0.374700
   8 H :    0.364023
   9 O :   -0.732593
  10 H :    0.331722
  11 H :    0.366343
Sum of atomic charges:   -0.0000000

LOEWDIN ATOMIC CHARGES
----------------------
   0 O :   -0.272620
   1 H :    0.158131
   2 H :    0.171217
   3 O :   -0.371465
   4 H :    0.146009
   5 H :    0.130212
   6 O :   -0.278709
   7 H :    0.181087
   8 H :    0.182574
   9 O :   -0.340458
  10 H :    0.151150
  11 H :    0.142872

  Mayer bond orders larger than 0.100000
B(  0-O ,  1-H ) :   0.8060 B(  0-O ,  2-H ) :   0.8433 B(  3-O ,  4-H ) :   0.8169
B(  3-O ,  5-H ) :   0.8341 B(  6-O ,  7-H ) :   0.8259 B(  6-O ,  8-H ) :   0.8275
B(  9-O , 10-H ) :   0.8531 B(  9-O , 11-H ) :   0.7696

MP2 TOTAL ENERGY:     -305.277020604 Eh
FINAL SINGLE POINT ENERGY      -305.277020603815

DIPOLE MOMENT
-------------
                                X             Y             Z
Electronic contribution:     -0.11016      -0.19517      -0.02274
Nuclear contribution   :     -0.22373      -1.78297       0.05351
                        -----------------------------------------
Total Dipole Moment    :     -0.33389      -1.97815       0.03077
                        -----------------------------------------
Magnitude (a.u.)       :      2.00636
Magnitude (Debye)      :      5.09977

Rotational constants in cm-1:     0.124950     0.111807     0.059979
Rotational constants in MHz :  3745.900698  3351.902074  1798.119293

                             ****ORCA TERMINATED NORMALLY****
TOTAL RUN TIME: 0 days 0 hours 0 minutes 22 seconds 136 msec
