                         Program Version 4.2.0 -  RELEASE  -
|  1> # 12meoh.boyd.etal.mol4,10,11
|  2> ! MP2 def2-TZVP EnGrad TightSCF
|  3>
|  4> %pal
|  5>     nprocs 6
|  6> end
|  7>
|  8> %maxcore 8000
|  9>
| 10> %scf
| 11>     ConvForced true
| 12> end
| 13>
| 14> *xyz 0 1
| 15> O  -1.358578914   1.232360421   1.189721000
| 16> H  -1.058250183   1.216459361   0.238591307
| 17> C  -0.389763452   1.957872567   1.943072362
| 18> H  -0.747220771   2.012806578   2.975200343
| 19> H  -0.260410585   2.982763209   1.565366540
| 20> H   0.585220638   1.453754179   1.934070793
| 21> O  -5.201143618   0.064582726  -0.172223772
| 22> H  -4.686891530   0.869258890   0.107806143
| 23> C  -6.513192168   0.171391798   0.359883449
| 24> H  -7.049381312  -0.749234190   0.111361174
| 25> H  -7.057741163   1.017801101  -0.081819420
| 26> H  -6.514770575   0.292264928   1.453058834
| 27> O   3.252955559   0.588596242   1.858934315
| 28> H   3.621209177  -0.251605199   1.476063364
| 29> C   4.040824528   0.944288422   2.989639460
| 30> H   3.670521436   1.902573549   3.363847391
| 31> H   5.103749934   1.055868619   2.734277559
| 32> H   3.948540682   0.200279590   3.792908518
| 33> *
| 34>
| 35>                          ****END OF INPUT****

CARTESIAN COORDINATES (ANGSTROEM)
---------------------------------
  O     -1.358579    1.232360    1.189721
  H     -1.058250    1.216459    0.238591
  C     -0.389763    1.957873    1.943072
  H     -0.747221    2.012807    2.975200
  H     -0.260411    2.982763    1.565367
  H      0.585221    1.453754    1.934071
  O     -5.201144    0.064583   -0.172224
  H     -4.686892    0.869259    0.107806
  C     -6.513192    0.171392    0.359883
  H     -7.049381   -0.749234    0.111361
  H     -7.057741    1.017801   -0.081819
  H     -6.514771    0.292265    1.453059
  O      3.252956    0.588596    1.858934
  H      3.621209   -0.251605    1.476063
  C      4.040825    0.944288    2.989639
  H      3.670521    1.902574    3.363847
  H      5.103750    1.055869    2.734278
  H      3.948541    0.200280    3.792909

 Total Charge           Charge          ....    0
 Multiplicity           Mult            ....    1
 Number of Electrons    NEL             ....   54
 Basis Dimension        Dim             ....  258

ORBITAL ENERGIES
----------------

  NO   OCC          E(Eh)            E(eV)
   0   2.0000     -20.564450      -559.5871
   1   2.0000     -20.550175      -559.1987
   2   2.0000     -20.546190      -559.0903
   3   2.0000     -11.277136      -306.8665
   4   2.0000     -11.262583      -306.4705
   5   2.0000     -11.259894      -306.3973
   6   2.0000      -1.353704       -36.8362
   7   2.0000      -1.337439       -36.3936
   8   2.0000      -1.336508       -36.3682
   9   2.0000      -0.925541       -25.1853
  10   2.0000      -0.909933       -24.7605
  11   2.0000      -0.908869       -24.7316
  12   2.0000      -0.688564       -18.7368
  13   2.0000      -0.671765       -18.2797
  14   2.0000      -0.671501       -18.2725
  15   2.0000      -0.623086       -16.9550
  16   2.0000      -0.607238       -16.5238
  17   2.0000      -0.607160       -16.5217
  18   2.0000      -0.596787       -16.2394
  19   2.0000      -0.582059       -15.8386
  20   2.0000      -0.581003       -15.8099
  21   2.0000      -0.507312       -13.8047
  22   2.0000      -0.491047       -13.3621
  23   2.0000      -0.489894       -13.3307
  24   2.0000      -0.455946       -12.4069
  25   2.0000      -0.439628       -11.9629
  26   2.0000      -0.438145       -11.9225
  27   0.0000       0.126016         3.4291
  28   0.0000       0.134794         3.6679
  29   0.0000       0.158523         4.3136
  30   0.0000       0.167718         4.5638
  31   0.0000       0.180684         4.9166

MULLIKEN ATOMIC CHARGES
-----------------------
   0 O :   -0.507037
   1 H :    0.323393
   2 C :   -0.186601
   3 H :    0.119885
   4 H :    0.103398
   5 H :    0.142271
   6 O :   -0.499332
   7 H :    0.327647
   8 C :   -0.171661
   9 H :    0.125501
  10 H :    0.105074
  11 H :    0.109988
  12 O :   -0.496686
  13 H :    0.322671
  14 C :   -0.173471
  15 H :    0.129353
  16 H :    0.112442
  17 H :    0.113164
Sum of atomic charges:   -0.0000000

LOEWDIN ATOMIC CHARGES
----------------------
   0 O :   -0.116939
   1 H :    0.192053
   2 C :   -0.382734
   3 H :    0.107649
   4 H :    0.094101
   5 H :    0.102178
   6 O :   -0.106966
   7 H :    0.192901
   8 C :   -0.386159
   9 H :    0.108961
  10 H :    0.093704
  11 H :    0.095552
  12 O :   -0.107977
  13 H :    0.191222
  14 C :   -0.381424
  15 H :    0.110145
  16 H :    0.097089
  17 H :    0.096644

  Mayer bond orders larger than 0.100000
B(  0-O ,  1-H ) :   0.8405 B(  0-O ,  2-C ) :   0.9094 B(  2-C ,  3-H ) :   0.9355
B(  2-C ,  4-H ) :   0.9388 B(  2-C ,  5-H ) :   0.9347 B(  6-O ,  7-H ) :   0.8359
B(  6-O ,  8-C ) :   0.9341 B(  8-C ,  9-H ) :   0.9380 B(  8-C , 10-H ) :   0.9395
B(  8-C , 11-H ) :   0.9384 B( 12-O , 13-H ) :   0.8396 B( 12-O , 14-C ) :   0.9170
B( 14-C , 15-H ) :   0.9391 B( 14-C , 16-H ) :   0.9353 B( 14-C , 17-H ) :   0.9385

MP2 TOTAL ENERGY:     -346.523321406 Eh
FINAL SINGLE POINT ENERGY      -346.523321405798

DIPOLE MOMENT
-------------
                                X             Y             Z
Electronic contribution:     -0.57734      -1.56099      -2.91774
Nuclear contribution   :      1.65205       1.97857       3.28026
                        -----------------------------------------
Total Dipole Moment    :      1.07471       0.41759       0.36252
                        -----------------------------------------
Magnitude (a.u.)       :      1.20864
Magnitude (Debye)      :      3.07211

Rotational constants in cm-1:     0.279806     0.010614     0.010423
Rotational constants in MHz :  8388.379066   318.204781   312.471118

                             ****ORCA TERMINATED NORMALLY****
TOTAL RUN TIME: 0 days 0 hours 0 minutes 49 seconds 343 msec
