                         Program Version 3.0.3 - RELEASE   -
|  1> ! wB97X-D3 Def2-TZVP def2-TZVP/J RIJCOSX TightSCF Grid4 COSMO
|  2>
|  3> %pal nprocs 12 end
|  4>
|  5> %scf
|  6>         maxiter 400
|  7> end
|  8>
|  9> %cosmo
| 10>         SMD true
| 11>         solvent "WATER"
| 12> end
| 13>
| 14> * xyz  0  1
| 15> O  1.744082	-0.595891	-0.374912
| 16> H  2.318017	0.157298	-0.621374
| 17> H  0.937967	-0.473602	-0.982694
| 18> O  -0.476056	-0.265192	-1.795583
| 19> H  -0.791044	-1.184464	-1.907292
| 20> H  -1.034207	0.075177	-1.017178
| 21> O  -1.743522	0.595862	0.374372
| 22> H  -0.937873	0.473649	0.982601
| 23> H  -2.319110	-0.155246	0.623313
| 24> O  0.476681	0.264358	1.795533
| 25> H  1.033643	-0.075716	1.016073
| 26> H  0.791391	1.183760	1.906940
| 27> **                         ****END OF INPUT****

CARTESIAN COORDINATES (ANGSTROEM)
---------------------------------
  O      1.744082   -0.595891   -0.374912
  H      2.318017    0.157298   -0.621374
  H      0.937967   -0.473602   -0.982694
  O     -0.476056   -0.265192   -1.795583
  H     -0.791044   -1.184464   -1.907292
  H     -1.034207    0.075177   -1.017178
  O     -1.743522    0.595862    0.374372
  H     -0.937873    0.473649    0.982601
  H     -2.319110   -0.155246    0.623313
  O      0.476681    0.264358    1.795533
  H      1.033643   -0.075716    1.016073
  H      0.791391    1.183760    1.906940

 Total Charge           Charge          ....    0
 Multiplicity           Mult            ....    1
 Number of Electrons    NEL             ....   40
 Basis Dimension        Dim             ....  172

ORBITAL ENERGIES
----------------

  NO   OCC          E(Eh)            E(eV)
   0   2.0000     -19.233820      -523.3788
   1   2.0000     -19.233735      -523.3765
   2   2.0000     -19.233659      -523.3745
   3   2.0000     -19.233630      -523.3737
   4   2.0000      -1.138464       -30.9792
   5   2.0000      -1.118341       -30.4316
   6   2.0000      -1.117931       -30.4204
   7   2.0000      -1.098214       -29.8839
   8   2.0000      -0.631483       -17.1835
   9   2.0000      -0.623385       -16.9632
  10   2.0000      -0.619328       -16.8528
  11   2.0000      -0.617173       -16.7941
  12   2.0000      -0.532852       -14.4996
  13   2.0000      -0.514114       -13.9898
  14   2.0000      -0.500714       -13.6251
  15   2.0000      -0.490120       -13.3368
  16   2.0000      -0.421779       -11.4772
  17   2.0000      -0.418231       -11.3807
  18   2.0000      -0.416714       -11.3394
  19   2.0000      -0.411899       -11.2083
  20   0.0000       0.107514         2.9256
  21   0.0000       0.151894         4.1332
  22   0.0000       0.163943         4.4611
  23   0.0000       0.195334         5.3153
  24   0.0000       0.262904         7.1540

MULLIKEN ATOMIC CHARGES
-----------------------
   0 O :   -0.774153
   1 H :    0.397723
   2 H :    0.373149
   3 O :   -0.773722
   4 H :    0.397158
   5 H :    0.380107
   6 O :   -0.774124
   7 H :    0.373015
   8 H :    0.397723
   9 O :   -0.773721
  10 H :    0.379643
  11 H :    0.397202
Sum of atomic charges:   -0.0000000

LOEWDIN ATOMIC CHARGES
----------------------
   0 O :   -0.335312
   1 H :    0.186453
   2 H :    0.148057
   3 O :   -0.333394
   4 H :    0.186103
   5 H :    0.148201
   6 O :   -0.335207
   7 H :    0.148069
   8 H :    0.186469
   9 O :   -0.333607
  10 H :    0.148066
  11 H :    0.186103

  Mayer bond orders larger than 0.1
B(  0-O ,  1-H ) :   0.8491 B(  0-O ,  2-H ) :   0.7633 B(  0-O , 10-H ) :   0.1486
B(  2-H ,  3-O ) :   0.1538 B(  3-O ,  4-H ) :   0.8498 B(  3-O ,  5-H ) :   0.7622
B(  5-H ,  6-O ) :   0.1480 B(  6-O ,  7-H ) :   0.7636 B(  6-O ,  8-H ) :   0.8491
B(  7-H ,  9-O ) :   0.1535 B(  9-O , 10-H ) :   0.7622 B(  9-O , 11-H ) :   0.8498

Dispersion correction           -0.003163136
FINAL SINGLE POINT ENERGY      -305.824946737206

DIPOLE MOMENT
-------------
                                X             Y             Z
Electronic contribution:     -0.00064       0.00040      -0.00073
Nuclear contribution   :     -0.00298       0.00215       0.00131
                        -----------------------------------------
Total Dipole Moment    :     -0.00362       0.00255       0.00058
                        -----------------------------------------
Magnitude (a.u.)       :      0.00447
Magnitude (Debye)      :      0.01136

                             ****ORCA TERMINATED NORMALLY****
TOTAL RUN TIME: 0 days 0 hours 0 minutes 53 seconds 563 msec
