                         Program Version 3.0.3 - RELEASE   -
|  1> ! wB97X-D3 Def2-TZVP def2-TZVP/J RIJCOSX TightSCF Grid4
|  2>
|  3> %pal nprocs 12 end
|  4>
|  5> %scf
|  6>         maxiter 400
|  7> end
|  8>
|  9> * xyz  0  1
| 10> O  1.742989	-0.547808	-0.356012
| 11> H  2.381645	0.102124	-0.703683
| 12> H  0.949081	-0.458314	-0.986364
| 13> O  -0.454856	-0.283420	-1.800847
| 14> H  -0.788266	-1.184648	-1.966945
| 15> H  -1.047046	0.057965	-1.048242
| 16> O  -1.743420	0.547024	0.356353
| 17> H  -0.949224	0.458284	0.986451
| 18> H  -2.381244	-0.103691	0.704094
| 19> O  0.454921	0.284485	1.800779
| 20> H  1.046780	-0.057795	1.048325
| 21> H  0.788610	1.185788	1.965889
| 22> **                         ****END OF INPUT****

CARTESIAN COORDINATES (ANGSTROEM)
---------------------------------
  O      1.742989   -0.547808   -0.356012
  H      2.381645    0.102124   -0.703683
  H      0.949081   -0.458314   -0.986364
  O     -0.454856   -0.283420   -1.800847
  H     -0.788266   -1.184648   -1.966945
  H     -1.047046    0.057965   -1.048242
  O     -1.743420    0.547024    0.356353
  H     -0.949224    0.458284    0.986451
  H     -2.381244   -0.103691    0.704094
  O      0.454921    0.284485    1.800779
  H      1.046780   -0.057795    1.048325
  H      0.788610    1.185788    1.965889

 Total Charge           Charge          ....    0
 Multiplicity           Mult            ....    1
 Number of Electrons    NEL             ....   40
 Basis Dimension        Dim             ....  172

ORBITAL ENERGIES
----------------

  NO   OCC          E(Eh)            E(eV)
   0   2.0000     -19.234733      -523.4037
   1   2.0000     -19.234729      -523.4036
   2   2.0000     -19.233811      -523.3786
   3   2.0000     -19.233800      -523.3783
   4   2.0000      -1.139787       -31.0152
   5   2.0000      -1.120547       -30.4916
   6   2.0000      -1.119165       -30.4540
   7   2.0000      -1.100340       -29.9418
   8   2.0000      -0.640886       -17.4394
   9   2.0000      -0.630335       -17.1523
  10   2.0000      -0.622254       -16.9324
  11   2.0000      -0.620032       -16.8719
  12   2.0000      -0.536587       -14.6013
  13   2.0000      -0.507812       -13.8183
  14   2.0000      -0.499155       -13.5827
  15   2.0000      -0.476789       -12.9741
  16   2.0000      -0.420472       -11.4416
  17   2.0000      -0.417268       -11.3544
  18   2.0000      -0.413014       -11.2387
  19   2.0000      -0.407833       -11.0977
  20   0.0000       0.089664         2.4399
  21   0.0000       0.125847         3.4245
  22   0.0000       0.137986         3.7548
  23   0.0000       0.161969         4.4074
  24   0.0000       0.254862         6.9351

MULLIKEN ATOMIC CHARGES
-----------------------
   0 O :   -0.709265
   1 H :    0.337201
   2 H :    0.361237
   3 O :   -0.703970
   4 H :    0.336595
   5 H :    0.378187
   6 O :   -0.709263
   7 H :    0.361274
   8 H :    0.337198
   9 O :   -0.703989
  10 H :    0.378198
  11 H :    0.336598
Sum of atomic charges:   -0.0000000

LOEWDIN ATOMIC CHARGES
----------------------
   0 O :   -0.310704
   1 H :    0.160235
   2 H :    0.145774
   3 O :   -0.304177
   4 H :    0.159986
   5 H :    0.148881
   6 O :   -0.310701
   7 H :    0.145781
   8 H :    0.160235
   9 O :   -0.304173
  10 H :    0.148876
  11 H :    0.159987

  Mayer bond orders larger than 0.1
B(  0-O ,  1-H ) :   0.8932 B(  0-O ,  2-H ) :   0.7669 B(  0-O , 10-H ) :   0.1382
B(  2-H ,  3-O ) :   0.1598 B(  3-O ,  4-H ) :   0.8932 B(  3-O ,  5-H ) :   0.7697
B(  5-H ,  6-O ) :   0.1382 B(  6-O ,  7-H ) :   0.7669 B(  6-O ,  8-H ) :   0.8932
B(  7-H ,  9-O ) :   0.1597 B(  9-O , 10-H ) :   0.7697 B(  9-O , 11-H ) :   0.8932

Dispersion correction           -0.003089934
FINAL SINGLE POINT ENERGY      -305.799156866017

DIPOLE MOMENT
-------------
                                X             Y             Z
Electronic contribution:     -0.00016       0.00017       0.00018
Nuclear contribution   :      0.00089      -0.00071      -0.00085
                        -----------------------------------------
Total Dipole Moment    :      0.00073      -0.00053      -0.00067
                        -----------------------------------------
Magnitude (a.u.)       :      0.00112
Magnitude (Debye)      :      0.00285

                             ****ORCA TERMINATED NORMALLY****
TOTAL RUN TIME: 0 days 0 hours 0 minutes 51 seconds 618 msec
