                         Program Version 3.0.3 - RELEASE   -
|  1> ! wB97X-D3 Def2-TZVP def2-TZVP/J RIJCOSX TightSCF Grid4 COSMO
|  2>
|  3> %pal nprocs 12 end
|  4>
|  5> %scf
|  6>         maxiter 400
|  7> end
|  8>
|  9> %cosmo
| 10>         SMD true
| 11>         solvent "WATER"
| 12> end
| 13>
| 14> * xyz  0  1
| 15> O  1.792488	-0.596432	-0.398032
| 16> H  2.389463	0.119658	-0.664998
| 17> H  1.002959	-0.482795	-0.992114
| 18> O  -0.485978	-0.269787	-1.800694
| 19> H  -0.787003	-1.184950	-1.917909
| 20> H  -1.036017	0.058708	-1.039704
| 21> O  -1.793210	0.593528	0.398943
| 22> H  -1.002725	0.481762	0.991918
| 23> H  -2.389668	-0.121336	0.670223
| 24> O  0.487172	0.271899	1.799331
| 25> H  1.037079	-0.058558	1.038892
| 26> H  0.785410	1.188297	1.913943
| 27> **                         ****END OF INPUT****

CARTESIAN COORDINATES (ANGSTROEM)
---------------------------------
  O      1.792488   -0.596432   -0.398032
  H      2.389463    0.119658   -0.664998
  H      1.002959   -0.482795   -0.992114
  O     -0.485978   -0.269787   -1.800694
  H     -0.787003   -1.184950   -1.917909
  H     -1.036017    0.058708   -1.039704
  O     -1.793210    0.593528    0.398943
  H     -1.002725    0.481762    0.991918
  H     -2.389668   -0.121336    0.670223
  O      0.487172    0.271899    1.799331
  H      1.037079   -0.058558    1.038892
  H      0.785410    1.188297    1.913943

 Total Charge           Charge          ....    0
 Multiplicity           Mult            ....    1
 Number of Electrons    NEL             ....   40
 Basis Dimension        Dim             ....  172

ORBITAL ENERGIES
----------------

  NO   OCC          E(Eh)            E(eV)
   0   2.0000     -19.231931      -523.3275
   1   2.0000     -19.231841      -523.3250
   2   2.0000     -19.231384      -523.3126
   3   2.0000     -19.231314      -523.3106
   4   2.0000      -1.138978       -30.9932
   5   2.0000      -1.121531       -30.5184
   6   2.0000      -1.121132       -30.5075
   7   2.0000      -1.104125       -30.0448
   8   2.0000      -0.634478       -17.2650
   9   2.0000      -0.628713       -17.1081
  10   2.0000      -0.622903       -16.9500
  11   2.0000      -0.620169       -16.8757
  12   2.0000      -0.529338       -14.4040
  13   2.0000      -0.511392       -13.9157
  14   2.0000      -0.499770       -13.5994
  15   2.0000      -0.487555       -13.2670
  16   2.0000      -0.421679       -11.4745
  17   2.0000      -0.419653       -11.4194
  18   2.0000      -0.418917       -11.3993
  19   2.0000      -0.413257       -11.2453
  20   0.0000       0.109108         2.9690
  21   0.0000       0.153435         4.1752
  22   0.0000       0.163699         4.4545
  23   0.0000       0.195047         5.3075
  24   0.0000       0.262954         7.1554

MULLIKEN ATOMIC CHARGES
-----------------------
   0 O :   -0.769050
   1 H :    0.396360
   2 H :    0.370921
   3 O :   -0.767595
   4 H :    0.395012
   5 H :    0.374650
   6 O :   -0.769059
   7 H :    0.370430
   8 H :    0.396511
   9 O :   -0.768561
  10 H :    0.375186
  11 H :    0.395195
Sum of atomic charges:   -0.0000000

LOEWDIN ATOMIC CHARGES
----------------------
   0 O :   -0.324546
   1 H :    0.181789
   2 H :    0.141991
   3 O :   -0.323287
   4 H :    0.182048
   5 H :    0.142350
   6 O :   -0.324730
   7 H :    0.141627
   8 H :    0.181904
   9 O :   -0.323508
  10 H :    0.142404
  11 H :    0.181958

  Mayer bond orders larger than 0.1
B(  0-O ,  1-H ) :   0.8509 B(  0-O ,  2-H ) :   0.7855 B(  0-O , 10-H ) :   0.1278
B(  2-H ,  3-O ) :   0.1311 B(  3-O ,  4-H ) :   0.8524 B(  3-O ,  5-H ) :   0.7857
B(  5-H ,  6-O ) :   0.1271 B(  6-O ,  7-H ) :   0.7858 B(  6-O ,  8-H ) :   0.8508
B(  7-H ,  9-O ) :   0.1312 B(  9-O , 10-H ) :   0.7847 B(  9-O , 11-H ) :   0.8522

Dispersion correction           -0.003094704
FINAL SINGLE POINT ENERGY      -305.829481463510

DIPOLE MOMENT
-------------
                                X             Y             Z
Electronic contribution:     -0.00026      -0.00147      -0.00111
Nuclear contribution   :     -0.00120       0.00197       0.00096
                        -----------------------------------------
Total Dipole Moment    :     -0.00146       0.00050      -0.00015
                        -----------------------------------------
Magnitude (a.u.)       :      0.00155
Magnitude (Debye)      :      0.00394

                             ****ORCA TERMINATED NORMALLY****
TOTAL RUN TIME: 0 days 0 hours 0 minutes 53 seconds 169 msec
