                         Program Version 3.0.3 - RELEASE   -
|  1> ! wB97X-D3 MA-Def2-TZVP def2-TZVP/J RIJCOSX TightSCF Grid4
|  2>
|  3> %pal nprocs 1 end
|  4>
|  5> %scf
|  6>         maxiter 400
|  7> end
|  8>
|  9> %cosmo
| 10>         SMD true
| 11>         solvent "WATER"
| 12> end
| 13>
| 14> * xyz  0  1
| 15> O  1.792488	-0.596432	-0.398032
| 16> H  2.389463	0.119658	-0.664998
| 17> H  1.002959	-0.482795	-0.992114
| 18> O  -0.485978	-0.269787	-1.800694
| 19> H  -0.787003	-1.184950	-1.917909
| 20> H  -1.036017	0.058708	-1.039704
| 21> O  -1.793210	0.593528	0.398943
| 22> H  -1.002725	0.481762	0.991918
| 23> H  -2.389668	-0.121336	0.670223
| 24> O  0.487172	0.271899	1.799331
| 25> H  1.037079	-0.058558	1.038892
| 26> H  0.785410	1.188297	1.913943
| 27> **                         ****END OF INPUT****

CARTESIAN COORDINATES (ANGSTROEM)
---------------------------------
  O      1.792488   -0.596432   -0.398032
  H      2.389463    0.119658   -0.664998
  H      1.002959   -0.482795   -0.992114
  O     -0.485978   -0.269787   -1.800694
  H     -0.787003   -1.184950   -1.917909
  H     -1.036017    0.058708   -1.039704
  O     -1.793210    0.593528    0.398943
  H     -1.002725    0.481762    0.991918
  H     -2.389668   -0.121336    0.670223
  O      0.487172    0.271899    1.799331
  H      1.037079   -0.058558    1.038892
  H      0.785410    1.188297    1.913943

 Total Charge           Charge          ....    0
 Multiplicity           Mult            ....    1
 Number of Electrons    NEL             ....   40
 Basis Dimension        Dim             ....  188

ORBITAL ENERGIES
----------------

  NO   OCC          E(Eh)            E(eV)
   0   2.0000     -19.234977      -523.4103
   1   2.0000     -19.234881      -523.4077
   2   2.0000     -19.234519      -523.3979
   3   2.0000     -19.234433      -523.3955
   4   2.0000      -1.140939       -31.0465
   5   2.0000      -1.123479       -30.5714
   6   2.0000      -1.123113       -30.5614
   7   2.0000      -1.106094       -30.0983
   8   2.0000      -0.636259       -17.3135
   9   2.0000      -0.630512       -17.1571
  10   2.0000      -0.624688       -16.9986
  11   2.0000      -0.621964       -16.9245
  12   2.0000      -0.531166       -14.4538
  13   2.0000      -0.513347       -13.9689
  14   2.0000      -0.501565       -13.6483
  15   2.0000      -0.489393       -13.3171
  16   2.0000      -0.423653       -11.5282
  17   2.0000      -0.421651       -11.4737
  18   2.0000      -0.420827       -11.4513
  19   2.0000      -0.415192       -11.2979
  20   0.0000       0.074018         2.0141
  21   0.0000       0.111110         3.0234
  22   0.0000       0.112804         3.0696
  23   0.0000       0.132304         3.6002
  24   0.0000       0.143415         3.9025

MULLIKEN ATOMIC CHARGES
-----------------------
   0 O :   -0.798631
   1 H :    0.409774
   2 H :    0.393811
   3 O :   -0.819927
   4 H :    0.411902
   5 H :    0.403314
   6 O :   -0.798020
   7 H :    0.393212
   8 H :    0.409945
   9 O :   -0.822365
  10 H :    0.404589
  11 H :    0.412394
Sum of atomic charges:   -0.0000000

LOEWDIN ATOMIC CHARGES
----------------------
   0 O :   -0.398885
   1 H :    0.211262
   2 H :    0.186861
   3 O :   -0.399005
   4 H :    0.211925
   5 H :    0.188182
   6 O :   -0.399019
   7 H :    0.186474
   8 H :    0.211366
   9 O :   -0.399265
  10 H :    0.188243
  11 H :    0.211860

  Mayer bond orders larger than 0.1
B(  0-O ,  1-H ) :   0.8513 B(  0-O ,  2-H ) :   0.7935 B(  3-O ,  4-H ) :   0.8528
B(  3-O ,  5-H ) :   0.7907 B(  6-O ,  7-H ) :   0.7937 B(  6-O ,  8-H ) :   0.8511
B(  9-O , 10-H ) :   0.7895 B(  9-O , 11-H ) :   0.8525

Dispersion correction           -0.003094704
FINAL SINGLE POINT ENERGY      -305.832217475012

DIPOLE MOMENT
-------------
                                X             Y             Z
Electronic contribution:     -0.00036      -0.00169      -0.00086
Nuclear contribution   :     -0.00120       0.00197       0.00096
                        -----------------------------------------
Total Dipole Moment    :     -0.00156       0.00028       0.00010
                        -----------------------------------------
Magnitude (a.u.)       :      0.00159
Magnitude (Debye)      :      0.00405

                             ****ORCA TERMINATED NORMALLY****
TOTAL RUN TIME: 0 days 0 hours 1 minutes 7 seconds 711 msec
