                         Program Version 3.0.3 - RELEASE   -
|  1> ! B3LYP Def2-TZVP def2-TZVP/J RIJCOSX TightSCF Grid4 D3BJ COSMO
|  2>
|  3> %pal nprocs 12 end
|  4>
|  5> %scf
|  6>         maxiter 400
|  7> end
|  8>
|  9> %cosmo
| 10>         SMD true
| 11>         solvent "WATER"
| 12> end
| 13>
| 14> * xyz  0  1
| 15> O  1.744082	-0.595891	-0.374912
| 16> H  2.318017	0.157298	-0.621374
| 17> H  0.937967	-0.473602	-0.982694
| 18> O  -0.476056	-0.265192	-1.795583
| 19> H  -0.791044	-1.184464	-1.907292
| 20> H  -1.034207	0.075177	-1.017178
| 21> O  -1.743522	0.595862	0.374372
| 22> H  -0.937873	0.473649	0.982601
| 23> H  -2.319110	-0.155246	0.623313
| 24> O  0.476681	0.264358	1.795533
| 25> H  1.033643	-0.075716	1.016073
| 26> H  0.791391	1.183760	1.906940
| 27> **                         ****END OF INPUT****

CARTESIAN COORDINATES (ANGSTROEM)
---------------------------------
  O      1.744082   -0.595891   -0.374912
  H      2.318017    0.157298   -0.621374
  H      0.937967   -0.473602   -0.982694
  O     -0.476056   -0.265192   -1.795583
  H     -0.791044   -1.184464   -1.907292
  H     -1.034207    0.075177   -1.017178
  O     -1.743522    0.595862    0.374372
  H     -0.937873    0.473649    0.982601
  H     -2.319110   -0.155246    0.623313
  O      0.476681    0.264358    1.795533
  H      1.033643   -0.075716    1.016073
  H      0.791391    1.183760    1.906940

 Total Charge           Charge          ....    0
 Multiplicity           Mult            ....    1
 Number of Electrons    NEL             ....   40
 Basis Dimension        Dim             ....  172

ORBITAL ENERGIES
----------------

  NO   OCC          E(Eh)            E(eV)
   0   2.0000     -19.125951      -520.4436
   1   2.0000     -19.125871      -520.4414
   2   2.0000     -19.125748      -520.4381
   3   2.0000     -19.125716      -520.4372
   4   2.0000      -1.021957       -27.8089
   5   2.0000      -1.002409       -27.2769
   6   2.0000      -1.001977       -27.2652
   7   2.0000      -0.982734       -26.7416
   8   2.0000      -0.527564       -14.3557
   9   2.0000      -0.520178       -14.1548
  10   2.0000      -0.515482       -14.0270
  11   2.0000      -0.514183       -13.9916
  12   2.0000      -0.429768       -11.6946
  13   2.0000      -0.411251       -11.1907
  14   2.0000      -0.398859       -10.8535
  15   2.0000      -0.387536       -10.5454
  16   2.0000      -0.322651        -8.7798
  17   2.0000      -0.319189        -8.6856
  18   2.0000      -0.318571        -8.6688
  19   2.0000      -0.312925        -8.5151
  20   0.0000       0.020642         0.5617
  21   0.0000       0.062387         1.6976
  22   0.0000       0.073099         1.9891
  23   0.0000       0.103041         2.8039
  24   0.0000       0.177478         4.8294

MULLIKEN ATOMIC CHARGES
-----------------------
   0 O :   -0.753346
   1 H :    0.381123
   2 H :    0.368975
   3 O :   -0.752385
   4 H :    0.380501
   5 H :    0.375394
   6 O :   -0.753293
   7 H :    0.368822
   8 H :    0.381116
   9 O :   -0.752402
  10 H :    0.374957
  11 H :    0.380539
Sum of atomic charges:   -0.0000000

LOEWDIN ATOMIC CHARGES
----------------------
   0 O :   -0.332316
   1 H :    0.184200
   2 H :    0.147353
   3 O :   -0.330324
   4 H :    0.183837
   5 H :    0.147365
   6 O :   -0.332217
   7 H :    0.147365
   8 H :    0.184214
   9 O :   -0.330540
  10 H :    0.147227
  11 H :    0.183837

  Mayer bond orders larger than 0.1
B(  0-O ,  1-H ) :   0.8592 B(  0-O ,  2-H ) :   0.7583 B(  0-O , 10-H ) :   0.1592
B(  2-H ,  3-O ) :   0.1650 B(  3-O ,  4-H ) :   0.8600 B(  3-O ,  5-H ) :   0.7580
B(  5-H ,  6-O ) :   0.1586 B(  6-O ,  7-H ) :   0.7587 B(  6-O ,  8-H ) :   0.8592
B(  7-H ,  9-O ) :   0.1647 B(  9-O , 10-H ) :   0.7580 B(  9-O , 11-H ) :   0.8600

Dispersion correction           -0.008409916
FINAL SINGLE POINT ENERGY      -305.778956200113

DIPOLE MOMENT
-------------
                                X             Y             Z
Electronic contribution:     -0.00059       0.00035      -0.00078
Nuclear contribution   :     -0.00298       0.00215       0.00131
                        -----------------------------------------
Total Dipole Moment    :     -0.00358       0.00250       0.00052
                        -----------------------------------------
Magnitude (a.u.)       :      0.00440
Magnitude (Debye)      :      0.01117

                             ****ORCA TERMINATED NORMALLY****
TOTAL RUN TIME: 0 days 0 hours 0 minutes 52 seconds 996 msec
