                         Program Version 4.2.0 -  RELEASE  -
|  1> # 12h2o.su.etal.mol0,3,5,7,10,11
|  2> ! MP2 def2-TZVP EnGrad TightSCF
|  3>
|  4> %pal
|  5>     nprocs 6
|  6> end
|  7>
|  8> %maxcore 8000
|  9>
| 10> %scf
| 11>     ConvForced true
| 12> end
| 13>
| 14> *xyz 0 1
| 15> O   1.794470000   0.923410000   2.768350000
| 16> H   2.338250000   1.359750000   3.430940000
| 17> H   0.879480000   1.303000000   2.865760000
| 18> O  -1.752130000  -0.741530000  -2.896280000
| 19> H  -2.036450000  -0.920500000  -1.984040000
| 20> H  -0.921210000  -1.242140000  -2.984230000
| 21> O   0.885520000  -1.737840000   0.052730000
| 22> H   1.284090000  -0.839590000   0.017130000
| 23> H   1.032320000  -2.090180000  -0.841890000
| 24> O  -1.737840000  -0.885520000  -0.052730000
| 25> H  -2.090180000  -1.032320000   0.841890000
| 26> H  -0.839590000  -1.284090000  -0.017130000
| 27> O  -0.923410000   1.794470000  -2.768350000
| 28> H  -1.359750000   2.338250000  -3.430940000
| 29> H  -1.303000000   0.879480000  -2.865760000
| 30> O  -0.741530000   1.752130000   2.896280000
| 31> H  -0.920500000   2.036450000   1.984040000
| 32> H  -1.242140000   0.921210000   2.984230000
| 33> *
| 34>
| 35>                          ****END OF INPUT****

CARTESIAN COORDINATES (ANGSTROEM)
---------------------------------
  O      1.794470    0.923410    2.768350
  H      2.338250    1.359750    3.430940
  H      0.879480    1.303000    2.865760
  O     -1.752130   -0.741530   -2.896280
  H     -2.036450   -0.920500   -1.984040
  H     -0.921210   -1.242140   -2.984230
  O      0.885520   -1.737840    0.052730
  H      1.284090   -0.839590    0.017130
  H      1.032320   -2.090180   -0.841890
  O     -1.737840   -0.885520   -0.052730
  H     -2.090180   -1.032320    0.841890
  H     -0.839590   -1.284090   -0.017130
  O     -0.923410    1.794470   -2.768350
  H     -1.359750    2.338250   -3.430940
  H     -1.303000    0.879480   -2.865760
  O     -0.741530    1.752130    2.896280
  H     -0.920500    2.036450    1.984040
  H     -1.242140    0.921210    2.984230

 Total Charge           Charge          ....    0
 Multiplicity           Mult            ....    1
 Number of Electrons    NEL             ....   60
 Basis Dimension        Dim             ....  258

ORBITAL ENERGIES
----------------

  NO   OCC          E(Eh)            E(eV)
   0   2.0000     -20.602439      -560.6209
   1   2.0000     -20.598161      -560.5045
   2   2.0000     -20.572247      -559.7993
   3   2.0000     -20.569310      -559.7194
   4   2.0000     -20.523334      -558.4683
   5   2.0000     -20.510960      -558.1316
   6   2.0000      -1.383937       -37.6588
   7   2.0000      -1.383426       -37.6449
   8   2.0000      -1.362886       -37.0860
   9   2.0000      -1.348749       -36.7013
  10   2.0000      -1.305543       -35.5256
  11   2.0000      -1.293115       -35.1875
  12   2.0000      -0.740842       -20.1593
  13   2.0000      -0.739883       -20.1332
  14   2.0000      -0.729596       -19.8533
  15   2.0000      -0.717716       -19.5301
  16   2.0000      -0.695746       -18.9322
  17   2.0000      -0.681668       -18.5491
  18   2.0000      -0.630604       -17.1596
  19   2.0000      -0.619165       -16.8483
  20   2.0000      -0.607281       -16.5250
  21   2.0000      -0.584949       -15.9173
  22   2.0000      -0.561497       -15.2791
  23   2.0000      -0.544251       -14.8098
  24   2.0000      -0.536622       -14.6022
  25   2.0000      -0.518803       -14.1173
  26   2.0000      -0.517865       -14.0918
  27   2.0000      -0.499471       -13.5913
  28   2.0000      -0.473706       -12.8902
  29   2.0000      -0.461573       -12.5600
  30   0.0000       0.079990         2.1767
  31   0.0000       0.105591         2.8733
  32   0.0000       0.150557         4.0969
  33   0.0000       0.164969         4.4890
  34   0.0000       0.178615         4.8604

MULLIKEN ATOMIC CHARGES
-----------------------
   0 O :   -0.735534
   1 H :    0.328348
   2 H :    0.365978
   3 O :   -0.687973
   4 H :    0.388813
   5 H :    0.330614
   6 O :   -0.681403
   7 H :    0.381237
   8 H :    0.346212
   9 O :   -0.723349
  10 H :    0.335583
  11 H :    0.356977
  12 O :   -0.738408
  13 H :    0.322605
  14 H :    0.368515
  15 O :   -0.678467
  16 H :    0.369446
  17 H :    0.350806
Sum of atomic charges:    0.0000000

LOEWDIN ATOMIC CHARGES
----------------------
   0 O :   -0.373629
   1 H :    0.150488
   2 H :    0.141886
   3 O :   -0.275339
   4 H :    0.160362
   5 H :    0.162860
   6 O :   -0.285525
   7 H :    0.189738
   8 H :    0.167683
   9 O :   -0.338983
  10 H :    0.161592
  11 H :    0.143839
  12 O :   -0.376000
  13 H :    0.147043
  14 H :    0.142131
  15 O :   -0.269267
  16 H :    0.178970
  17 H :    0.172152

  Mayer bond orders larger than 0.100000
B(  0-O ,  1-H ) :   0.8589 B(  0-O ,  2-H ) :   0.7856 B(  3-O ,  4-H ) :   0.7963
B(  3-O ,  5-H ) :   0.8525 B(  6-O ,  7-H ) :   0.8167 B(  6-O ,  8-H ) :   0.8433
B(  9-O , 10-H ) :   0.8512 B(  9-O , 11-H ) :   0.7754 B( 12-O , 13-H ) :   0.8621
B( 12-O , 14-H ) :   0.7809 B( 15-O , 16-H ) :   0.8290 B( 15-O , 17-H ) :   0.8403

MP2 TOTAL ENERGY:     -457.913583611 Eh
FINAL SINGLE POINT ENERGY      -457.913583610758

DIPOLE MOMENT
-------------
                                X             Y             Z
Electronic contribution:     -0.08386      -0.15733       0.23171
Nuclear contribution   :     -0.19048      -0.65001       0.00000
                        -----------------------------------------
Total Dipole Moment    :     -0.27434      -0.80734       0.23171
                        -----------------------------------------
Magnitude (a.u.)       :      0.88360
Magnitude (Debye)      :      2.24593

Rotational constants in cm-1:     0.055117     0.021624     0.019383
Rotational constants in MHz :  1652.351805   648.279563   581.086907

                             ****ORCA TERMINATED NORMALLY****
TOTAL RUN TIME: 0 days 0 hours 0 minutes 56 seconds 970 msec
