                         Program Version 4.2.0 -  RELEASE  -
|  1> # 12meoh.boyd.etal.mol3,5,7
|  2> ! MP2 def2-TZVP EnGrad TightSCF
|  3>
|  4> %pal
|  5>     nprocs 6
|  6> end
|  7>
|  8> %maxcore 8000
|  9>
| 10> %scf
| 11>     ConvForced true
| 12> end
| 13>
| 14> *xyz 0 1
| 15> O  -3.821405976  -2.118091637   0.596795346
| 16> H  -4.342989117  -1.344303030   0.251966383
| 17> C  -3.443883586  -1.809641231   1.934889393
| 18> H  -2.831494349  -2.637429600   2.305201764
| 19> H  -4.325601146  -1.719364371   2.585074667
| 20> H  -2.858527126  -0.882644791   1.996110694
| 21> O  -0.662721750   1.449094618  -1.383082065
| 22> H   0.064188300   2.119867608  -1.465650660
| 23> C  -0.353319239   0.341218776  -2.229326771
| 24> H  -1.072358530  -0.454743281  -2.019906495
| 25> H   0.657636746  -0.044472139  -2.042736771
| 26> H  -0.434616607   0.624733901  -3.287793021
| 27> O   4.310535586  -1.588322800   0.656128299
| 28> H   3.804372199  -1.630404735  -0.196849819
| 29> C   4.312298137  -2.894980854   1.222112691
| 30> H   4.713177833  -2.819907076   2.237066773
| 31> H   4.957796734  -3.574699304   0.648211180
| 32> H   3.302735989  -3.324433205   1.269756773
| 33> *
| 34>
| 35>                          ****END OF INPUT****

CARTESIAN COORDINATES (ANGSTROEM)
---------------------------------
  O     -3.821406   -2.118092    0.596795
  H     -4.342989   -1.344303    0.251966
  C     -3.443884   -1.809641    1.934889
  H     -2.831494   -2.637430    2.305202
  H     -4.325601   -1.719364    2.585075
  H     -2.858527   -0.882645    1.996111
  O     -0.662722    1.449095   -1.383082
  H      0.064188    2.119868   -1.465651
  C     -0.353319    0.341219   -2.229327
  H     -1.072359   -0.454743   -2.019906
  H      0.657637   -0.044472   -2.042737
  H     -0.434617    0.624734   -3.287793
  O      4.310536   -1.588323    0.656128
  H      3.804372   -1.630405   -0.196850
  C      4.312298   -2.894981    1.222113
  H      4.713178   -2.819907    2.237067
  H      4.957797   -3.574699    0.648211
  H      3.302736   -3.324433    1.269757

 Total Charge           Charge          ....    0
 Multiplicity           Mult            ....    1
 Number of Electrons    NEL             ....   54
 Basis Dimension        Dim             ....  258

ORBITAL ENERGIES
----------------

  NO   OCC          E(Eh)            E(eV)
   0   2.0000     -20.558348      -559.4211
   1   2.0000     -20.557922      -559.4095
   2   2.0000     -20.554901      -559.3273
   3   2.0000     -11.272940      -306.7523
   4   2.0000     -11.272083      -306.7290
   5   2.0000     -11.268052      -306.6193
   6   2.0000      -1.347980       -36.6804
   7   2.0000      -1.346148       -36.6305
   8   2.0000      -1.343824       -36.5673
   9   2.0000      -0.921076       -25.0638
  10   2.0000      -0.920101       -25.0372
  11   2.0000      -0.915751       -24.9189
  12   2.0000      -0.682657       -18.5760
  13   2.0000      -0.681810       -18.5530
  14   2.0000      -0.678032       -18.4502
  15   2.0000      -0.617901       -16.8139
  16   2.0000      -0.617541       -16.8041
  17   2.0000      -0.613995       -16.7077
  18   2.0000      -0.591565       -16.0973
  19   2.0000      -0.591268       -16.0892
  20   2.0000      -0.587142       -15.9769
  21   2.0000      -0.501657       -13.6508
  22   2.0000      -0.501407       -13.6440
  23   2.0000      -0.497671       -13.5423
  24   2.0000      -0.450561       -12.2604
  25   2.0000      -0.449841       -12.2408
  26   2.0000      -0.446264       -12.1435
  27   0.0000       0.112428         3.0593
  28   0.0000       0.132703         3.6110
  29   0.0000       0.146330         3.9818
  30   0.0000       0.167752         4.5648
  31   0.0000       0.177286         4.8242

MULLIKEN ATOMIC CHARGES
-----------------------
   0 O :   -0.499081
   1 H :    0.323511
   2 C :   -0.176928
   3 H :    0.125716
   4 H :    0.108571
   5 H :    0.119525
   6 O :   -0.501032
   7 H :    0.322689
   8 C :   -0.173408
   9 H :    0.138023
  10 H :    0.101859
  11 H :    0.110496
  12 O :   -0.496297
  13 H :    0.320225
  14 C :   -0.175016
  15 H :    0.129365
  16 H :    0.109322
  17 H :    0.112459
Sum of atomic charges:    0.0000000

LOEWDIN ATOMIC CHARGES
----------------------
   0 O :   -0.111518
   1 H :    0.191597
   2 C :   -0.381783
   3 H :    0.109342
   4 H :    0.095182
   5 H :    0.097882
   6 O :   -0.113579
   7 H :    0.189107
   8 C :   -0.377236
   9 H :    0.111705
  10 H :    0.093627
  11 H :    0.095686
  12 O :   -0.109560
  13 H :    0.188687
  14 C :   -0.380981
  15 H :    0.110145
  16 H :    0.095388
  17 H :    0.096309

  Mayer bond orders larger than 0.100000
B(  0-O ,  1-H ) :   0.8415 B(  0-O ,  2-C ) :   0.9232 B(  2-C ,  3-H ) :   0.9378
B(  2-C ,  4-H ) :   0.9390 B(  2-C ,  5-H ) :   0.9383 B(  6-O ,  7-H ) :   0.8421
B(  6-O ,  8-C ) :   0.9237 B(  8-C ,  9-H ) :   0.9360 B(  8-C , 10-H ) :   0.9401
B(  8-C , 11-H ) :   0.9387 B( 12-O , 13-H ) :   0.8438 B( 12-O , 14-C ) :   0.9253
B( 14-C , 15-H ) :   0.9376 B( 14-C , 16-H ) :   0.9384 B( 14-C , 17-H ) :   0.9399

MP2 TOTAL ENERGY:     -346.520951719 Eh
FINAL SINGLE POINT ENERGY      -346.520951718501

DIPOLE MOMENT
-------------
                                X             Y             Z
Electronic contribution:     -0.84997       2.49028      -1.14375
Nuclear contribution   :      0.93612      -2.48337       0.80200
                        -----------------------------------------
Total Dipole Moment    :      0.08615       0.00691      -0.34175
                        -----------------------------------------
Magnitude (a.u.)       :      0.35251
Magnitude (Debye)      :      0.89601

Rotational constants in cm-1:     0.039747     0.015615     0.011751
Rotational constants in MHz :  1191.572831   468.123042   352.271308

                             ****ORCA TERMINATED NORMALLY****
TOTAL RUN TIME: 0 days 0 hours 1 minutes 2 seconds 986 msec
