                         Program Version 4.2.0 -  RELEASE  -
|  1> # 12mecn.remya.etal.2.mol4,11
|  2> ! MP2 def2-TZVP EnGrad TightSCF
|  3>
|  4> %pal
|  5>     nprocs 6
|  6> end
|  7>
|  8> %maxcore 8000
|  9>
| 10> %scf
| 11>     ConvForced true
| 12> end
| 13>
| 14> *xyz 0 1
| 15> C  -1.509690000  -0.693960000  -1.610140000
| 16> H  -1.327010000  -1.692700000  -2.017370000
| 17> H  -0.742170000  -0.000650000  -1.964400000
| 18> H  -2.491920000  -0.334310000  -1.929350000
| 19> C  -1.473570000  -0.748120000  -0.167200000
| 20> N  -1.447490000  -0.793720000   0.998938000
| 21> C   4.214163000   3.378139000   1.593627000
| 22> H   3.242643000   3.657109000   2.012358000
| 23> H   4.969258000   4.086643000   1.941290000
| 24> H   4.482966000   2.372549000   1.931698000
| 25> C   4.130759000   3.388436000   0.150192000
| 26> N   4.050180000   3.381449000  -1.013420000
| 27> *
| 28>
| 29>                          ****END OF INPUT****

CARTESIAN COORDINATES (ANGSTROEM)
---------------------------------
  C     -1.509690   -0.693960   -1.610140
  H     -1.327010   -1.692700   -2.017370
  H     -0.742170   -0.000650   -1.964400
  H     -2.491920   -0.334310   -1.929350
  C     -1.473570   -0.748120   -0.167200
  N     -1.447490   -0.793720    0.998938
  C      4.214163    3.378139    1.593627
  H      3.242643    3.657109    2.012358
  H      4.969258    4.086643    1.941290
  H      4.482966    2.372549    1.931698
  C      4.130759    3.388436    0.150192
  N      4.050180    3.381449   -1.013420

 Total Charge           Charge          ....    0
 Multiplicity           Mult            ....    1
 Number of Electrons    NEL             ....   44
 Basis Dimension        Dim             ....  222

ORBITAL ENERGIES
----------------

  NO   OCC          E(Eh)            E(eV)
   0   2.0000     -15.573377      -423.7731
   1   2.0000     -15.572577      -423.7514
   2   2.0000     -11.284160      -307.0576
   3   2.0000     -11.283425      -307.0376
   4   2.0000     -11.280763      -306.9652
   5   2.0000     -11.279919      -306.9422
   6   2.0000      -1.215152       -33.0660
   7   2.0000      -1.213873       -33.0312
   8   2.0000      -1.042973       -28.3807
   9   2.0000      -1.042963       -28.3805
  10   2.0000      -0.699984       -19.0475
  11   2.0000      -0.697880       -18.9903
  12   2.0000      -0.631880       -17.1943
  13   2.0000      -0.630943       -17.1688
  14   2.0000      -0.630081       -17.1454
  15   2.0000      -0.630019       -17.1437
  16   2.0000      -0.556650       -15.1472
  17   2.0000      -0.555570       -15.1178
  18   2.0000      -0.458250       -12.4696
  19   2.0000      -0.458083       -12.4651
  20   2.0000      -0.457091       -12.4381
  21   2.0000      -0.456782       -12.4297
  22   0.0000       0.118722         3.2306
  23   0.0000       0.122681         3.3383
  24   0.0000       0.171558         4.6683
  25   0.0000       0.172508         4.6942
  26   0.0000       0.172562         4.6957

MULLIKEN ATOMIC CHARGES
-----------------------
   0 C :   -0.278348
   1 H :    0.171753
   2 H :    0.177206
   3 H :    0.171402
   4 C :   -0.145743
   5 N :   -0.096278
   6 C :   -0.279277
   7 H :    0.174341
   8 H :    0.171624
   9 H :    0.173559
  10 C :   -0.145326
  11 N :   -0.094914
Sum of atomic charges:    0.0000000

LOEWDIN ATOMIC CHARGES
----------------------
   0 C :   -0.282954
   1 H :    0.152808
   2 H :    0.154308
   3 H :    0.152992
   4 C :   -0.219884
   5 N :    0.042727
   6 C :   -0.283246
   7 H :    0.153838
   8 H :    0.151000
   9 H :    0.153730
  10 C :   -0.218701
  11 N :    0.043384

  Mayer bond orders larger than 0.100000
B(  0-C ,  1-H ) :   0.9160 B(  0-C ,  2-H ) :   0.9153 B(  0-C ,  3-H ) :   0.9165
B(  0-C ,  4-C ) :   0.9005 B(  4-C ,  5-N ) :   2.8392 B(  6-C ,  7-H ) :   0.9155
B(  6-C ,  8-H ) :   0.9166 B(  6-C ,  9-H ) :   0.9157 B(  6-C , 10-C ) :   0.9027
B( 10-C , 11-N ) :   2.8393

MP2 TOTAL ENERGY:     -264.967226924 Eh
FINAL SINGLE POINT ENERGY      -264.967226923620

DIPOLE MOMENT
-------------
                                X             Y             Z
Electronic contribution:     -0.09227      -0.09874      -0.01832
Nuclear contribution   :      0.15407       0.15983       0.01912
                        -----------------------------------------
Total Dipole Moment    :      0.06180       0.06109       0.00079
                        -----------------------------------------
Magnitude (a.u.)       :      0.08690
Magnitude (Debye)      :      0.22088

Rotational constants in cm-1:     0.156438     0.016654     0.015139
Rotational constants in MHz :  4689.881772   499.265827   453.848061

                             ****ORCA TERMINATED NORMALLY****
TOTAL RUN TIME: 0 days 0 hours 0 minutes 44 seconds 4 msec
