                         Program Version 4.2.0 -  RELEASE  -
|  1> # 12meoh.boyd.etal.mol0,5,9
|  2> ! MP2 def2-TZVP EnGrad TightSCF
|  3>
|  4> %pal
|  5>     nprocs 6
|  6> end
|  7>
|  8> %maxcore 8000
|  9>
| 10> %scf
| 11>     ConvForced true
| 12> end
| 13>
| 14> *xyz 0 1
| 15> O  -1.776108874  -2.741384797  -1.019308298
| 16> H  -2.520094035  -2.452295987  -0.420778302
| 17> C  -2.174025166  -3.952700964  -1.647004581
| 18> H  -1.359803895  -4.272673416  -2.304149236
| 19> H  -3.075973971  -3.808692420  -2.256751112
| 20> H  -2.370225393  -4.752784761  -0.918966137
| 21> O  -0.662721750   1.449094618  -1.383082065
| 22> H   0.064188300   2.119867608  -1.465650660
| 23> C  -0.353319239   0.341218776  -2.229326771
| 24> H  -1.072358530  -0.454743281  -2.019906495
| 25> H   0.657636746  -0.044472139  -2.042736771
| 26> H  -0.434616607   0.624733901  -3.287793021
| 27> O   1.390610024   3.194080770  -1.536658882
| 28> H   2.162932299   2.881562730  -0.993525056
| 29> C   1.202977189   4.580367182  -1.302880219
| 30> H   0.374773115   4.915764831  -1.934164643
| 31> H   2.098649340   5.157710875  -1.570472348
| 32> H   0.950320401   4.800436015  -0.254328827
| 33> *
| 34>
| 35>                          ****END OF INPUT****

CARTESIAN COORDINATES (ANGSTROEM)
---------------------------------
  O     -1.776109   -2.741385   -1.019308
  H     -2.520094   -2.452296   -0.420778
  C     -2.174025   -3.952701   -1.647005
  H     -1.359804   -4.272673   -2.304149
  H     -3.075974   -3.808692   -2.256751
  H     -2.370225   -4.752785   -0.918966
  O     -0.662722    1.449095   -1.383082
  H      0.064188    2.119868   -1.465651
  C     -0.353319    0.341219   -2.229327
  H     -1.072359   -0.454743   -2.019906
  H      0.657637   -0.044472   -2.042737
  H     -0.434617    0.624734   -3.287793
  O      1.390610    3.194081   -1.536659
  H      2.162932    2.881563   -0.993525
  C      1.202977    4.580367   -1.302880
  H      0.374773    4.915765   -1.934165
  H      2.098649    5.157711   -1.570472
  H      0.950320    4.800436   -0.254329

 Total Charge           Charge          ....    0
 Multiplicity           Mult            ....    1
 Number of Electrons    NEL             ....   54
 Basis Dimension        Dim             ....  258

ORBITAL ENERGIES
----------------

  NO   OCC          E(Eh)            E(eV)
   0   2.0000     -20.584976      -560.1457
   1   2.0000     -20.554485      -559.3160
   2   2.0000     -20.502017      -557.8882
   3   2.0000     -11.286247      -307.1144
   4   2.0000     -11.268432      -306.6296
   5   2.0000     -11.232878      -305.6621
   6   2.0000      -1.379239       -37.5310
   7   2.0000      -1.343873       -36.5687
   8   2.0000      -1.297515       -35.3072
   9   2.0000      -0.937960       -25.5232
  10   2.0000      -0.916082       -24.9279
  11   2.0000      -0.881163       -23.9777
  12   2.0000      -0.711457       -19.3597
  13   2.0000      -0.678319       -18.4580
  14   2.0000      -0.662915       -18.0388
  15   2.0000      -0.631391       -17.1810
  16   2.0000      -0.614481       -16.7209
  17   2.0000      -0.603536       -16.4231
  18   2.0000      -0.589099       -16.0302
  19   2.0000      -0.576365       -15.6837
  20   2.0000      -0.546783       -14.8787
  21   2.0000      -0.522559       -14.2196
  22   2.0000      -0.497078       -13.5262
  23   2.0000      -0.477833       -13.0025
  24   2.0000      -0.450485       -12.2583
  25   2.0000      -0.441787       -12.0216
  26   2.0000      -0.404689       -11.0121
  27   0.0000       0.122257         3.3268
  28   0.0000       0.138183         3.7602
  29   0.0000       0.163100         4.4382
  30   0.0000       0.178060         4.8453
  31   0.0000       0.194932         5.3044

MULLIKEN ATOMIC CHARGES
-----------------------
   0 O :   -0.488123
   1 H :    0.326349
   2 C :   -0.173626
   3 H :    0.128501
   4 H :    0.110617
   5 H :    0.108361
   6 O :   -0.544344
   7 H :    0.345402
   8 C :   -0.159653
   9 H :    0.137001
  10 H :    0.084936
  11 H :    0.088595
  12 O :   -0.520219
  13 H :    0.341642
  14 C :   -0.176240
  15 H :    0.143683
  16 H :    0.122081
  17 H :    0.125037
Sum of atomic charges:    0.0000000

LOEWDIN ATOMIC CHARGES
----------------------
   0 O :   -0.099961
   1 H :    0.194678
   2 C :   -0.384936
   3 H :    0.110152
   4 H :    0.095546
   5 H :    0.095983
   6 O :   -0.132756
   7 H :    0.156555
   8 C :   -0.392369
   9 H :    0.106044
  10 H :    0.089870
  11 H :    0.089087
  12 O :   -0.073543
  13 H :    0.199628
  14 C :   -0.375353
  15 H :    0.116441
  16 H :    0.102809
  17 H :    0.102127

  Mayer bond orders larger than 0.100000
B(  0-O ,  1-H ) :   0.8374 B(  0-O ,  2-C ) :   0.9215 B(  2-C ,  3-H ) :   0.9394
B(  2-C ,  4-H ) :   0.9399 B(  2-C ,  5-H ) :   0.9338 B(  6-O ,  7-H ) :   0.7967
B(  6-O ,  8-C ) :   0.9364 B(  8-C ,  9-H ) :   0.9349 B(  8-C , 10-H ) :   0.9427
B(  8-C , 11-H ) :   0.9385 B( 12-O , 13-H ) :   0.8272 B( 12-O , 14-C ) :   0.8732
B( 14-C , 15-H ) :   0.9392 B( 14-C , 16-H ) :   0.9345 B( 14-C , 17-H ) :   0.9380

MP2 TOTAL ENERGY:     -346.529829919 Eh
FINAL SINGLE POINT ENERGY      -346.529829918910

DIPOLE MOMENT
-------------
                                X             Y             Z
Electronic contribution:      0.42175       1.33866       1.52034
Nuclear contribution   :      0.11812      -1.05356      -1.29198
                        -----------------------------------------
Total Dipole Moment    :      0.53987       0.28509       0.22836
                        -----------------------------------------
Magnitude (a.u.)       :      0.65183
Magnitude (Debye)      :      1.65683

Rotational constants in cm-1:     0.433454     0.015803     0.015697
Rotational constants in MHz : 12994.618274   473.754823   470.592916

                             ****ORCA TERMINATED NORMALLY****
TOTAL RUN TIME: 0 days 0 hours 1 minutes 7 seconds 542 msec
