                         Program Version 4.2.0 -  RELEASE  -
|  1> # 12h2o.su.etal.mol4,5,6,7,10
|  2> ! MP2 def2-TZVP EnGrad TightSCF
|  3>
|  4> %pal
|  5>     nprocs 6
|  6> end
|  7>
|  8> %maxcore 8000
|  9>
| 10> %scf
| 11>     ConvForced true
| 12> end
| 13>
| 14> *xyz 0 1
| 15> O  -0.885520000   1.737840000   0.052730000
| 16> H  -1.032320000   2.090180000  -0.841890000
| 17> H  -1.284090000   0.839590000   0.017130000
| 18> O   0.885520000  -1.737840000   0.052730000
| 19> H   1.284090000  -0.839590000   0.017130000
| 20> H   1.032320000  -2.090180000  -0.841890000
| 21> O   1.737840000   0.885520000  -0.052730000
| 22> H   2.090180000   1.032320000   0.841890000
| 23> H   0.839590000   1.284090000  -0.017130000
| 24> O  -1.737840000  -0.885520000  -0.052730000
| 25> H  -2.090180000  -1.032320000   0.841890000
| 26> H  -0.839590000  -1.284090000  -0.017130000
| 27> O  -0.923410000   1.794470000  -2.768350000
| 28> H  -1.359750000   2.338250000  -3.430940000
| 29> H  -1.303000000   0.879480000  -2.865760000
| 30> *
| 31>
| 32>                          ****END OF INPUT****

CARTESIAN COORDINATES (ANGSTROEM)
---------------------------------
  O     -0.885520    1.737840    0.052730
  H     -1.032320    2.090180   -0.841890
  H     -1.284090    0.839590    0.017130
  O      0.885520   -1.737840    0.052730
  H      1.284090   -0.839590    0.017130
  H      1.032320   -2.090180   -0.841890
  O      1.737840    0.885520   -0.052730
  H      2.090180    1.032320    0.841890
  H      0.839590    1.284090   -0.017130
  O     -1.737840   -0.885520   -0.052730
  H     -2.090180   -1.032320    0.841890
  H     -0.839590   -1.284090   -0.017130
  O     -0.923410    1.794470   -2.768350
  H     -1.359750    2.338250   -3.430940
  H     -1.303000    0.879480   -2.865760

 Total Charge           Charge          ....    0
 Multiplicity           Mult            ....    1
 Number of Electrons    NEL             ....   50
 Basis Dimension        Dim             ....  215

ORBITAL ENERGIES
----------------

  NO   OCC          E(Eh)            E(eV)
   0   2.0000     -20.586841      -560.1964
   1   2.0000     -20.560228      -559.4723
   2   2.0000     -20.559198      -559.4442
   3   2.0000     -20.550498      -559.2075
   4   2.0000     -20.532397      -558.7149
   5   2.0000      -1.365138       -37.1473
   6   2.0000      -1.356858       -36.9220
   7   2.0000      -1.341575       -36.5061
   8   2.0000      -1.334120       -36.3033
   9   2.0000      -1.314532       -35.7702
  10   2.0000      -0.731657       -19.9094
  11   2.0000      -0.713562       -19.4170
  12   2.0000      -0.711051       -19.3487
  13   2.0000      -0.701311       -19.0836
  14   2.0000      -0.694625       -18.9017
  15   2.0000      -0.617208       -16.7951
  16   2.0000      -0.603015       -16.4089
  17   2.0000      -0.586221       -15.9519
  18   2.0000      -0.578281       -15.7358
  19   2.0000      -0.558103       -15.1868
  20   2.0000      -0.524597       -14.2750
  21   2.0000      -0.504144       -13.7184
  22   2.0000      -0.501454       -13.6452
  23   2.0000      -0.495586       -13.4856
  24   2.0000      -0.480500       -13.0751
  25   0.0000       0.106673         2.9027
  26   0.0000       0.137100         3.7307
  27   0.0000       0.162404         4.4192
  28   0.0000       0.168664         4.5896
  29   0.0000       0.195451         5.3185

MULLIKEN ATOMIC CHARGES
-----------------------
   0 O :   -0.734145
   1 H :    0.374414
   2 H :    0.352448
   3 O :   -0.717996
   4 H :    0.369253
   5 H :    0.346364
   6 O :   -0.719702
   7 H :    0.344061
   8 H :    0.376816
   9 O :   -0.722877
  10 H :    0.350471
  11 H :    0.367225
  12 O :   -0.696686
  13 H :    0.350470
  14 H :    0.359883
Sum of atomic charges:    0.0000000

LOEWDIN ATOMIC CHARGES
----------------------
   0 O :   -0.319192
   1 H :    0.148957
   2 H :    0.138179
   3 O :   -0.312531
   4 H :    0.145197
   5 H :    0.165435
   6 O :   -0.311920
   7 H :    0.164549
   8 H :    0.146415
   9 O :   -0.316373
  10 H :    0.167654
  11 H :    0.144237
  12 O :   -0.310662
  13 H :    0.162722
  14 H :    0.187333

  Mayer bond orders larger than 0.100000
B(  0-O ,  1-H ) :   0.8101 B(  0-O ,  2-H ) :   0.7806 B(  0-O ,  8-H ) :   0.1153
B(  2-H ,  9-O ) :   0.1026 B(  3-O ,  4-H ) :   0.7594 B(  3-O ,  5-H ) :   0.8445
B(  3-O , 11-H ) :   0.1130 B(  4-H ,  6-O ) :   0.1177 B(  6-O ,  7-H ) :   0.8453
B(  6-O ,  8-H ) :   0.7552 B(  9-O , 10-H ) :   0.8426 B(  9-O , 11-H ) :   0.7640
B( 12-O , 13-H ) :   0.8428 B( 12-O , 14-H ) :   0.8304

MP2 TOTAL ENERGY:     -381.617638873 Eh
FINAL SINGLE POINT ENERGY      -381.617638873202

DIPOLE MOMENT
-------------
                                X             Y             Z
Electronic contribution:      0.10398       0.12182      -0.09125
Nuclear contribution   :     -0.67915      -0.30898      -0.63259
                        -----------------------------------------
Total Dipole Moment    :     -0.57517      -0.18716      -0.72385
                        -----------------------------------------
Magnitude (a.u.)       :      0.94330
Magnitude (Debye)      :      2.39767

Rotational constants in cm-1:     0.082717     0.053603     0.043594
Rotational constants in MHz :  2479.793944  1606.970259  1306.924687

                             ****ORCA TERMINATED NORMALLY****
TOTAL RUN TIME: 0 days 0 hours 0 minutes 42 seconds 531 msec
