                         Program Version 4.2.0 -  RELEASE  -
|  1> # 12h2o.su.etal.mol1,6,7
|  2> ! MP2 def2-TZVP EnGrad TightSCF
|  3>
|  4> %pal
|  5>     nprocs 6
|  6> end
|  7>
|  8> %maxcore 8000
|  9>
| 10> %scf
| 11>     ConvForced true
| 12> end
| 13>
| 14> *xyz 0 1
| 15> O  -1.794470000  -0.923410000   2.768350000
| 16> H  -2.338250000  -1.359750000   3.430940000
| 17> H  -0.879480000  -1.303000000   2.865760000
| 18> O   1.737840000   0.885520000  -0.052730000
| 19> H   2.090180000   1.032320000   0.841890000
| 20> H   0.839590000   1.284090000  -0.017130000
| 21> O  -1.737840000  -0.885520000  -0.052730000
| 22> H  -2.090180000  -1.032320000   0.841890000
| 23> H  -0.839590000  -1.284090000  -0.017130000
| 24> *
| 25>
| 26>                          ****END OF INPUT****

CARTESIAN COORDINATES (ANGSTROEM)
---------------------------------
  O     -1.794470   -0.923410    2.768350
  H     -2.338250   -1.359750    3.430940
  H     -0.879480   -1.303000    2.865760
  O      1.737840    0.885520   -0.052730
  H      2.090180    1.032320    0.841890
  H      0.839590    1.284090   -0.017130
  O     -1.737840   -0.885520   -0.052730
  H     -2.090180   -1.032320    0.841890
  H     -0.839590   -1.284090   -0.017130

 Total Charge           Charge          ....    0
 Multiplicity           Mult            ....    1
 Number of Electrons    NEL             ....   30
 Basis Dimension        Dim             ....  129

ORBITAL ENERGIES
----------------

  NO   OCC          E(Eh)            E(eV)
   0   2.0000     -20.596048      -560.4470
   1   2.0000     -20.561840      -559.5161
   2   2.0000     -20.533763      -558.7521
   3   2.0000      -1.373867       -37.3848
   4   2.0000      -1.337812       -36.4037
   5   2.0000      -1.312673       -35.7196
   6   2.0000      -0.740829       -20.1590
   7   2.0000      -0.699689       -19.0395
   8   2.0000      -0.682425       -18.5697
   9   2.0000      -0.610287       -16.6067
  10   2.0000      -0.577145       -15.7049
  11   2.0000      -0.562379       -15.3031
  12   2.0000      -0.528092       -14.3701
  13   2.0000      -0.504984       -13.7413
  14   2.0000      -0.479020       -13.0348
  15   0.0000       0.093877         2.5545
  16   0.0000       0.133010         3.6194
  17   0.0000       0.173808         4.7296
  18   0.0000       0.187962         5.1147
  19   0.0000       0.216516         5.8917

MULLIKEN ATOMIC CHARGES
-----------------------
   0 O :   -0.692087
   1 H :    0.352510
   2 H :    0.349342
   3 O :   -0.682050
   4 H :    0.332080
   5 H :    0.349141
   6 O :   -0.695865
   7 H :    0.364271
   8 H :    0.322657
Sum of atomic charges:   -0.0000000

LOEWDIN ATOMIC CHARGES
----------------------
   0 O :   -0.310270
   1 H :    0.163428
   2 H :    0.183274
   3 O :   -0.338390
   4 H :    0.162691
   5 H :    0.175266
   6 O :   -0.346272
   7 H :    0.148127
   8 H :    0.162146

  Mayer bond orders larger than 0.100000
B(  0-O ,  1-H ) :   0.8415 B(  0-O ,  2-H ) :   0.8373 B(  3-O ,  4-H ) :   0.8556
B(  3-O ,  5-H ) :   0.8402 B(  6-O ,  7-H ) :   0.8218 B(  6-O ,  8-H ) :   0.8561

MP2 TOTAL ENERGY:     -228.945510912 Eh
FINAL SINGLE POINT ENERGY      -228.945510911777

DIPOLE MOMENT
-------------
                                X             Y             Z
Electronic contribution:     -0.11003       0.12715      -0.17972
Nuclear contribution   :      0.30898      -0.67915       2.18115
                        -----------------------------------------
Total Dipole Moment    :      0.19895      -0.55199       2.00143
                        -----------------------------------------
Magnitude (a.u.)       :      2.08567
Magnitude (Debye)      :      5.30135

Rotational constants in cm-1:     0.274699     0.074878     0.059547
Rotational constants in MHz :  8235.269657  2244.786349  1785.176719

                             ****ORCA TERMINATED NORMALLY****
TOTAL RUN TIME: 0 days 0 hours 0 minutes 23 seconds 743 msec
