                         Program Version 4.2.0 -  RELEASE  -
|  1> # 12h2o.su.etal.mol0,1,5,9,10
|  2> ! MP2 def2-TZVP EnGrad TightSCF
|  3>
|  4> %pal
|  5>     nprocs 6
|  6> end
|  7>
|  8> %maxcore 8000
|  9>
| 10> %scf
| 11>     ConvForced true
| 12> end
| 13>
| 14> *xyz 0 1
| 15> O   1.794470000   0.923410000   2.768350000
| 16> H   2.338250000   1.359750000   3.430940000
| 17> H   0.879480000   1.303000000   2.865760000
| 18> O  -1.794470000  -0.923410000   2.768350000
| 19> H  -2.338250000  -1.359750000   3.430940000
| 20> H  -0.879480000  -1.303000000   2.865760000
| 21> O   0.885520000  -1.737840000   0.052730000
| 22> H   1.284090000  -0.839590000   0.017130000
| 23> H   1.032320000  -2.090180000  -0.841890000
| 24> O   0.741530000  -1.752130000   2.896280000
| 25> H   0.920500000  -2.036450000   1.984040000
| 26> H   1.242140000  -0.921210000   2.984230000
| 27> O  -0.923410000   1.794470000  -2.768350000
| 28> H  -1.359750000   2.338250000  -3.430940000
| 29> H  -1.303000000   0.879480000  -2.865760000
| 30> *
| 31>
| 32>                          ****END OF INPUT****

CARTESIAN COORDINATES (ANGSTROEM)
---------------------------------
  O      1.794470    0.923410    2.768350
  H      2.338250    1.359750    3.430940
  H      0.879480    1.303000    2.865760
  O     -1.794470   -0.923410    2.768350
  H     -2.338250   -1.359750    3.430940
  H     -0.879480   -1.303000    2.865760
  O      0.885520   -1.737840    0.052730
  H      1.284090   -0.839590    0.017130
  H      1.032320   -2.090180   -0.841890
  O      0.741530   -1.752130    2.896280
  H      0.920500   -2.036450    1.984040
  H      1.242140   -0.921210    2.984230
  O     -0.923410    1.794470   -2.768350
  H     -1.359750    2.338250   -3.430940
  H     -1.303000    0.879480   -2.865760

 Total Charge           Charge          ....    0
 Multiplicity           Mult            ....    1
 Number of Electrons    NEL             ....   50
 Basis Dimension        Dim             ....  215

ORBITAL ENERGIES
----------------

  NO   OCC          E(Eh)            E(eV)
   0   2.0000     -20.589784      -560.2765
   1   2.0000     -20.578901      -559.9804
   2   2.0000     -20.563953      -559.5736
   3   2.0000     -20.535819      -558.8080
   4   2.0000     -20.499094      -557.8087
   5   2.0000      -1.367771       -37.2189
   6   2.0000      -1.357593       -36.9420
   7   2.0000      -1.339306       -36.4444
   8   2.0000      -1.327145       -36.1135
   9   2.0000      -1.280629       -34.8477
  10   2.0000      -0.734715       -19.9926
  11   2.0000      -0.720654       -19.6100
  12   2.0000      -0.707760       -19.2591
  13   2.0000      -0.693662       -18.8755
  14   2.0000      -0.667115       -18.1531
  15   2.0000      -0.614697       -16.7267
  16   2.0000      -0.597037       -16.2462
  17   2.0000      -0.575468       -15.6593
  18   2.0000      -0.564986       -15.3740
  19   2.0000      -0.534114       -14.5340
  20   2.0000      -0.523832       -14.2542
  21   2.0000      -0.517864       -14.0918
  22   2.0000      -0.507160       -13.8005
  23   2.0000      -0.473980       -12.8977
  24   2.0000      -0.449940       -12.2435
  25   0.0000       0.103668         2.8210
  26   0.0000       0.120371         3.2755
  27   0.0000       0.140172         3.8143
  28   0.0000       0.177027         4.8172
  29   0.0000       0.195931         5.3315

MULLIKEN ATOMIC CHARGES
-----------------------
   0 O :   -0.706020
   1 H :    0.354951
   2 H :    0.372810
   3 O :   -0.739975
   4 H :    0.318122
   5 H :    0.368667
   6 O :   -0.693955
   7 H :    0.357489
   8 H :    0.346342
   9 O :   -0.716924
  10 H :    0.380623
  11 H :    0.358041
  12 O :   -0.683997
  13 H :    0.339771
  14 H :    0.344053
Sum of atomic charges:   -0.0000000

LOEWDIN ATOMIC CHARGES
----------------------
   0 O :   -0.313109
   1 H :    0.164848
   2 H :    0.193081
   3 O :   -0.377707
   4 H :    0.144867
   5 H :    0.141518
   6 O :   -0.317340
   7 H :    0.179749
   8 H :    0.169839
   9 O :   -0.288895
  10 H :    0.156464
  11 H :    0.146841
  12 O :   -0.339811
  13 H :    0.158293
  14 H :    0.181361

  Mayer bond orders larger than 0.100000
B(  0-O ,  1-H ) :   0.8404 B(  0-O ,  2-H ) :   0.8208 B(  3-O ,  4-H ) :   0.8641
B(  3-O ,  5-H ) :   0.7704 B(  5-H ,  9-O ) :   0.1023 B(  6-O ,  7-H ) :   0.8341
B(  6-O ,  8-H ) :   0.8448 B(  9-O , 10-H ) :   0.8088 B(  9-O , 11-H ) :   0.8120
B( 12-O , 13-H ) :   0.8528 B( 12-O , 14-H ) :   0.8448

MP2 TOTAL ENERGY:     -381.590945134 Eh
FINAL SINGLE POINT ENERGY      -381.590945134408

DIPOLE MOMENT
-------------
                                X             Y             Z
Electronic contribution:      0.33544       0.00901      -0.04785
Nuclear contribution   :      0.34045       0.60038      -0.82779
                        -----------------------------------------
Total Dipole Moment    :      0.67589       0.60939      -0.87564
                        -----------------------------------------
Magnitude (a.u.)       :      1.26291
Magnitude (Debye)      :      3.21006

Rotational constants in cm-1:     0.062363     0.025662     0.024470
Rotational constants in MHz :  1869.604340   769.328515   733.592605

                             ****ORCA TERMINATED NORMALLY****
TOTAL RUN TIME: 0 days 0 hours 0 minutes 47 seconds 178 msec
