                         Program Version 4.2.0 -  RELEASE  -
|  1> # 12h2o.su.etal.mol2,5,10
|  2> ! MP2 def2-TZVP EnGrad TightSCF
|  3>
|  4> %pal
|  5>     nprocs 6
|  6> end
|  7>
|  8> %maxcore 8000
|  9>
| 10> %scf
| 11>     ConvForced true
| 12> end
| 13>
| 14> *xyz 0 1
| 15> O   0.923410000  -1.794470000  -2.768350000
| 16> H   1.359750000  -2.338250000  -3.430940000
| 17> H   1.303000000  -0.879480000  -2.865760000
| 18> O   0.885520000  -1.737840000   0.052730000
| 19> H   1.284090000  -0.839590000   0.017130000
| 20> H   1.032320000  -2.090180000  -0.841890000
| 21> O  -0.923410000   1.794470000  -2.768350000
| 22> H  -1.359750000   2.338250000  -3.430940000
| 23> H  -1.303000000   0.879480000  -2.865760000
| 24> *
| 25>
| 26>                          ****END OF INPUT****

CARTESIAN COORDINATES (ANGSTROEM)
---------------------------------
  O      0.923410   -1.794470   -2.768350
  H      1.359750   -2.338250   -3.430940
  H      1.303000   -0.879480   -2.865760
  O      0.885520   -1.737840    0.052730
  H      1.284090   -0.839590    0.017130
  H      1.032320   -2.090180   -0.841890
  O     -0.923410    1.794470   -2.768350
  H     -1.359750    2.338250   -3.430940
  H     -1.303000    0.879480   -2.865760

 Total Charge           Charge          ....    0
 Multiplicity           Mult            ....    1
 Number of Electrons    NEL             ....   30
 Basis Dimension        Dim             ....  129

ORBITAL ENERGIES
----------------

  NO   OCC          E(Eh)            E(eV)
   0   2.0000     -20.591861      -560.3330
   1   2.0000     -20.567889      -559.6807
   2   2.0000     -20.528529      -558.6097
   3   2.0000      -1.369691       -37.2712
   4   2.0000      -1.343209       -36.5506
   5   2.0000      -1.307586       -35.5812
   6   2.0000      -0.736524       -20.0418
   7   2.0000      -0.711368       -19.3573
   8   2.0000      -0.677734       -18.4421
   9   2.0000      -0.606076       -16.4922
  10   2.0000      -0.579616       -15.7722
  11   2.0000      -0.557751       -15.1772
  12   2.0000      -0.523699       -14.2506
  13   2.0000      -0.511179       -13.9099
  14   2.0000      -0.474111       -12.9012
  15   0.0000       0.097722         2.6591
  16   0.0000       0.134486         3.6595
  17   0.0000       0.167465         4.5570
  18   0.0000       0.200937         5.4678
  19   0.0000       0.202879         5.5206

MULLIKEN ATOMIC CHARGES
-----------------------
   0 O :   -0.696917
   1 H :    0.350522
   2 H :    0.355693
   3 O :   -0.692658
   4 H :    0.319530
   5 H :    0.363257
   6 O :   -0.690010
   7 H :    0.340264
   8 H :    0.350320
Sum of atomic charges:    0.0000000

LOEWDIN ATOMIC CHARGES
----------------------
   0 O :   -0.311470
   1 H :    0.162677
   2 H :    0.184950
   3 O :   -0.347065
   4 H :    0.162852
   5 H :    0.147788
   6 O :   -0.341327
   7 H :    0.158755
   8 H :    0.182840

  Mayer bond orders larger than 0.100000
B(  0-O ,  1-H ) :   0.8423 B(  0-O ,  2-H ) :   0.8310 B(  3-O ,  4-H ) :   0.8611
B(  3-O ,  5-H ) :   0.8233 B(  6-O ,  7-H ) :   0.8521 B(  6-O ,  8-H ) :   0.8388

MP2 TOTAL ENERGY:     -228.944804947 Eh
FINAL SINGLE POINT ENERGY      -228.944804946936

DIPOLE MOMENT
-------------
                                X             Y             Z
Electronic contribution:     -0.10742      -0.10143       0.14341
Nuclear contribution   :      0.45394       0.45439      -2.03947
                        -----------------------------------------
Total Dipole Moment    :      0.34652       0.35296      -1.89605
                        -----------------------------------------
Magnitude (a.u.)       :      1.95951
Magnitude (Debye)      :      4.98068

Rotational constants in cm-1:     0.256304     0.073710     0.057921
Rotational constants in MHz :  7683.795565  2209.760801  1736.420977

                             ****ORCA TERMINATED NORMALLY****
TOTAL RUN TIME: 0 days 0 hours 0 minutes 10 seconds 357 msec
