                         Program Version 4.2.0 -  RELEASE  -
|  1> # 12mecn.remya.etal.2.mol4,6
|  2> ! MP2 def2-TZVP EnGrad TightSCF
|  3>
|  4> %pal
|  5>     nprocs 6
|  6> end
|  7>
|  8> %maxcore 8000
|  9>
| 10> %scf
| 11>     ConvForced true
| 12> end
| 13>
| 14> *xyz 0 1
| 15> C  -1.509690000  -0.693960000  -1.610140000
| 16> H  -1.327010000  -1.692700000  -2.017370000
| 17> H  -0.742170000  -0.000650000  -1.964400000
| 18> H  -2.491920000  -0.334310000  -1.929350000
| 19> C  -1.473570000  -0.748120000  -0.167200000
| 20> N  -1.447490000  -0.793720000   0.998938000
| 21> C   5.300864000  -2.920090000   1.401103000
| 22> H   5.986071000  -2.139770000   1.737487000
| 23> H   5.636642000  -3.888750000   1.778233000
| 24> H   4.307359000  -2.697240000   1.799307000
| 25> C   5.234791000  -2.933140000  -0.043290000
| 26> N   5.170868000  -2.941760000  -1.207750000
| 27> *
| 28>
| 29>                          ****END OF INPUT****

CARTESIAN COORDINATES (ANGSTROEM)
---------------------------------
  C     -1.509690   -0.693960   -1.610140
  H     -1.327010   -1.692700   -2.017370
  H     -0.742170   -0.000650   -1.964400
  H     -2.491920   -0.334310   -1.929350
  C     -1.473570   -0.748120   -0.167200
  N     -1.447490   -0.793720    0.998938
  C      5.300864   -2.920090    1.401103
  H      5.986071   -2.139770    1.737487
  H      5.636642   -3.888750    1.778233
  H      4.307359   -2.697240    1.799307
  C      5.234791   -2.933140   -0.043290
  N      5.170868   -2.941760   -1.207750

 Total Charge           Charge          ....    0
 Multiplicity           Mult            ....    1
 Number of Electrons    NEL             ....   44
 Basis Dimension        Dim             ....  222

ORBITAL ENERGIES
----------------

  NO   OCC          E(Eh)            E(eV)
   0   2.0000     -15.573125      -423.7663
   1   2.0000     -15.573063      -423.7646
   2   2.0000     -11.283952      -307.0520
   3   2.0000     -11.283504      -307.0398
   4   2.0000     -11.280469      -306.9572
   5   2.0000     -11.280397      -306.9552
   6   2.0000      -1.214975       -33.0611
   7   2.0000      -1.214355       -33.0443
   8   2.0000      -1.043459       -28.3940
   9   2.0000      -1.042921       -28.3793
  10   2.0000      -0.700383       -19.0584
  11   2.0000      -0.698374       -19.0037
  12   2.0000      -0.632278       -17.2052
  13   2.0000      -0.631719       -17.1900
  14   2.0000      -0.630635       -17.1605
  15   2.0000      -0.628842       -17.1117
  16   2.0000      -0.556430       -15.1412
  17   2.0000      -0.556046       -15.1308
  18   2.0000      -0.458311       -12.4713
  19   2.0000      -0.457686       -12.4543
  20   2.0000      -0.457550       -12.4506
  21   2.0000      -0.457289       -12.4435
  22   0.0000       0.118894         3.2353
  23   0.0000       0.122355         3.3294
  24   0.0000       0.171891         4.6774
  25   0.0000       0.172193         4.6856
  26   0.0000       0.172767         4.7012

MULLIKEN ATOMIC CHARGES
-----------------------
   0 C :   -0.276353
   1 H :    0.173927
   2 H :    0.173492
   3 H :    0.171329
   4 C :   -0.146134
   5 N :   -0.096257
   6 C :   -0.281230
   7 H :    0.171808
   8 H :    0.172085
   9 H :    0.176804
  10 C :   -0.145369
  11 N :   -0.094103
Sum of atomic charges:   -0.0000000

LOEWDIN ATOMIC CHARGES
----------------------
   0 C :   -0.282735
   1 H :    0.153540
   2 H :    0.153422
   3 H :    0.152892
   4 C :   -0.219885
   5 N :    0.042767
   6 C :   -0.283225
   7 H :    0.151661
   8 H :    0.151483
   9 H :    0.154552
  10 C :   -0.218314
  11 N :    0.043841

  Mayer bond orders larger than 0.100000
B(  0-C ,  1-H ) :   0.9154 B(  0-C ,  2-H ) :   0.9159 B(  0-C ,  3-H ) :   0.9167
B(  0-C ,  4-C ) :   0.9009 B(  4-C ,  5-N ) :   2.8391 B(  6-C ,  7-H ) :   0.9166
B(  6-C ,  8-H ) :   0.9159 B(  6-C ,  9-H ) :   0.9155 B(  6-C , 10-C ) :   0.9025
B( 10-C , 11-N ) :   2.8395

MP2 TOTAL ENERGY:     -264.967199940 Eh
FINAL SINGLE POINT ENERGY      -264.967199939572

DIPOLE MOMENT
-------------
                                X             Y             Z
Electronic contribution:     -0.05019      -0.17102      -0.02629
Nuclear contribution   :      0.08562       0.24872       0.02794
                        -----------------------------------------
Total Dipole Moment    :      0.03542       0.07770       0.00164
                        -----------------------------------------
Magnitude (a.u.)       :      0.08541
Magnitude (Debye)      :      0.21710

Rotational constants in cm-1:     0.155900     0.016274     0.014821
Rotational constants in MHz :  4673.750868   487.869864   444.312179

                             ****ORCA TERMINATED NORMALLY****
TOTAL RUN TIME: 0 days 0 hours 0 minutes 37 seconds 442 msec
