                         Program Version 3.0.3 - RELEASE   -
|  1> ! B3LYP Def2-TZVP def2-TZVP/J RIJCOSX TightSCF Grid4 D3BJ
|  2>
|  3> %pal nprocs 12 end
|  4>
|  5> %scf
|  6>         maxiter 400
|  7> end
|  8>
|  9> * xyz  0  1
| 10> O  1.506892	-2.630239	2.219880
| 11> H  1.045303	-2.923479	1.402751
| 12> H  0.829469	-2.205051	2.790602
| 13> O  2.713004	0.319673	-0.666626
| 14> H  2.652800	1.301201	-0.539321
| 15> H  3.070539	-0.063465	0.172596
| 16> O  1.149850	-3.069284	-2.742090
| 17> H  1.541568	-2.143485	-2.897033
| 18> H  1.712218	-3.682474	-3.232799
| 19> O  1.149396	2.916279	1.996855
| 20> H  1.357965	2.189148	2.645704
| 21> H  0.192378	3.100698	2.056855
| 22> O  1.852519	0.912518	3.604862
| 23> H  2.415135	0.400805	2.984723
| 24> H  1.186433	0.257729	3.893203
| 25> O  -3.259319	0.858592	-1.653766
| 26> H  -2.431210	0.664089	-2.138699
| 27> H  -3.080023	1.738684	-1.265446
| 28> O  1.950901	-0.628361	-3.092068
| 29> H  2.393124	-0.287853	-2.281561
| 30> H  1.074971	-0.186640	-3.081936
| 31> O  -1.231605	0.435012	1.931771
| 32> H  -1.401739	1.403213	1.974583
| 33> H  -0.577129	0.281406	1.195725
| 34> O  -3.019404	-0.958875	0.309741
| 35> H  -2.453756	-0.493380	0.961888
| 36> H  -3.187892	-0.291329	-0.409905
| 37> O  -1.589911	3.162051	1.852756
| 38> H  -2.217242	3.603173	2.439997
| 39> H  -1.909620	3.319820	0.918494
| 40> O  2.095821	2.877544	-0.352700
| 41> H  1.720596	2.900725	0.603303
| 42> H  2.695549	3.631985	-0.425335
| 43> O  0.229197	-0.368100	-0.084692
| 44> H  0.238983	-1.363900	-0.058810
| 45> H  1.169648	-0.102638	-0.284357
| 46> O  0.272666	-3.043510	-0.175429
| 47> H  -0.685088	-3.266892	-0.305204
| 48> H  0.697521	-3.191869	-1.055000
| 49> O  -1.446876	-2.257653	-3.145395
| 50> H  -1.896087	-2.637646	-2.359193
| 51> H  -0.577404	-2.708530	-3.168075
| 52> O  -0.680180	0.183464	-2.530281
| 53> H  -1.032584	-0.691852	-2.884593
| 54> H  -0.452951	-0.039071	-1.588918
| 55> O  3.177085	-0.724854	1.740334
| 56> H  4.030663	-1.034397	2.074402
| 57> H  2.537371	-1.505938	1.897346
| 58> O  -0.134279	2.865445	-2.018608
| 59> H  -0.242127	1.970264	-2.401527
| 60> H  0.692364	2.854824	-1.482187
| 61> O  -0.116945	-1.067068	3.767694
| 62> H  -0.736834	-1.352292	4.451129
| 63> H  -0.630900	-0.479157	3.140491
| 64> O  -2.277701	3.332078	-0.700956
| 65> H  -1.407299	3.178995	-1.215831
| 66> H  -2.696429	4.090648	-1.130933
| 67> O  -2.315847	-3.179740	-0.696961
| 68> H  -2.618516	-2.303183	-0.256059
| 69> H  -2.996432	-3.836715	-0.503022
| 70> **                         ****END OF INPUT****

CARTESIAN COORDINATES (ANGSTROEM)
---------------------------------
  O      1.506892   -2.630239    2.219880
  H      1.045303   -2.923479    1.402751
  H      0.829469   -2.205051    2.790602
  O      2.713004    0.319673   -0.666626
  H      2.652800    1.301201   -0.539321
  H      3.070539   -0.063465    0.172596
  O      1.149850   -3.069284   -2.742090
  H      1.541568   -2.143485   -2.897033
  H      1.712218   -3.682474   -3.232799
  O      1.149396    2.916279    1.996855
  H      1.357965    2.189148    2.645704
  H      0.192378    3.100698    2.056855
  O      1.852519    0.912518    3.604862
  H      2.415135    0.400805    2.984723
  H      1.186433    0.257729    3.893203
  O     -3.259319    0.858592   -1.653766
  H     -2.431210    0.664089   -2.138699
  H     -3.080023    1.738684   -1.265446
  O      1.950901   -0.628361   -3.092068
  H      2.393124   -0.287853   -2.281561
  H      1.074971   -0.186640   -3.081936
  O     -1.231605    0.435012    1.931771
  H     -1.401739    1.403213    1.974583
  H     -0.577129    0.281406    1.195725
  O     -3.019404   -0.958875    0.309741
  H     -2.453756   -0.493380    0.961888
  H     -3.187892   -0.291329   -0.409905
  O     -1.589911    3.162051    1.852756
  H     -2.217242    3.603173    2.439997
  H     -1.909620    3.319820    0.918494
  O      2.095821    2.877544   -0.352700
  H      1.720596    2.900725    0.603303
  H      2.695549    3.631985   -0.425335
  O      0.229197   -0.368100   -0.084692
  H      0.238983   -1.363900   -0.058810
  H      1.169648   -0.102638   -0.284357
  O      0.272666   -3.043510   -0.175429
  H     -0.685088   -3.266892   -0.305204
  H      0.697521   -3.191869   -1.055000
  O     -1.446876   -2.257653   -3.145395
  H     -1.896087   -2.637646   -2.359193
  H     -0.577404   -2.708530   -3.168075
  O     -0.680180    0.183464   -2.530281
  H     -1.032584   -0.691852   -2.884593
  H     -0.452951   -0.039071   -1.588918
  O      3.177085   -0.724854    1.740334
  H      4.030663   -1.034397    2.074402
  H      2.537371   -1.505938    1.897346
  O     -0.134279    2.865445   -2.018608
  H     -0.242127    1.970264   -2.401527
  H      0.692364    2.854824   -1.482187
  O     -0.116945   -1.067068    3.767694
  H     -0.736834   -1.352292    4.451129
  H     -0.630900   -0.479157    3.140491
  O     -2.277701    3.332078   -0.700956
  H     -1.407299    3.178995   -1.215831
  H     -2.696429    4.090648   -1.130933
  O     -2.315847   -3.179740   -0.696961
  H     -2.618516   -2.303183   -0.256059
  H     -2.996432   -3.836715   -0.503022

 Total Charge           Charge          ....    0
 Multiplicity           Mult            ....    1
 Number of Electrons    NEL             ....  200
 Basis Dimension        Dim             ....  860

ORBITAL ENERGIES
----------------

  NO   OCC          E(Eh)            E(eV)
   0   2.0000     -19.155543      -521.2488
   1   2.0000     -19.146214      -520.9950
   2   2.0000     -19.143112      -520.9106
   3   2.0000     -19.139081      -520.8009
   4   2.0000     -19.138542      -520.7862
   5   2.0000     -19.137092      -520.7467
   6   2.0000     -19.131832      -520.6036
   7   2.0000     -19.129520      -520.5407
   8   2.0000     -19.127246      -520.4788
   9   2.0000     -19.126990      -520.4718
  10   2.0000     -19.126508      -520.4587
  11   2.0000     -19.125516      -520.4318
  12   2.0000     -19.118114      -520.2303
  13   2.0000     -19.115871      -520.1693
  14   2.0000     -19.115395      -520.1563
  15   2.0000     -19.111092      -520.0392
  16   2.0000     -19.109399      -519.9932
  17   2.0000     -19.107130      -519.9315
  18   2.0000     -19.105848      -519.8966
  19   2.0000     -19.105733      -519.8934
  20   2.0000      -1.045399       -28.4467
  21   2.0000      -1.037654       -28.2360
  22   2.0000      -1.032356       -28.0918
  23   2.0000      -1.029138       -28.0043
  24   2.0000      -1.027687       -27.9648
  25   2.0000      -1.024151       -27.8686
  26   2.0000      -1.021470       -27.7956
  27   2.0000      -1.019911       -27.7532
  28   2.0000      -1.011411       -27.5219
  29   2.0000      -1.009110       -27.4593
  30   2.0000      -1.007676       -27.4203
  31   2.0000      -1.002927       -27.2910
  32   2.0000      -0.999187       -27.1893
  33   2.0000      -0.996398       -27.1134
  34   2.0000      -0.994123       -27.0515
  35   2.0000      -0.990604       -26.9557
  36   2.0000      -0.989560       -26.9273
  37   2.0000      -0.982894       -26.7459
  38   2.0000      -0.979229       -26.6462
  39   2.0000      -0.977162       -26.5899
  40   2.0000      -0.568990       -15.4830
  41   2.0000      -0.560957       -15.2644
  42   2.0000      -0.553678       -15.0663
  43   2.0000      -0.552639       -15.0381
  44   2.0000      -0.550015       -14.9667
  45   2.0000      -0.548038       -14.9129
  46   2.0000      -0.546121       -14.8607
  47   2.0000      -0.544769       -14.8239
  48   2.0000      -0.542361       -14.7584
  49   2.0000      -0.539933       -14.6923
  50   2.0000      -0.536520       -14.5995
  51   2.0000      -0.532832       -14.4991
  52   2.0000      -0.530984       -14.4488
  53   2.0000      -0.529023       -14.3954
  54   2.0000      -0.522477       -14.2173
  55   2.0000      -0.520592       -14.1660
  56   2.0000      -0.515764       -14.0346
  57   2.0000      -0.513035       -13.9604
  58   2.0000      -0.511444       -13.9171
  59   2.0000      -0.506305       -13.7773
  60   2.0000      -0.463896       -12.6233
  61   2.0000      -0.460045       -12.5184
  62   2.0000      -0.452736       -12.3196
  63   2.0000      -0.444570       -12.0974
  64   2.0000      -0.441659       -12.0181
  65   2.0000      -0.439079       -11.9479
  66   2.0000      -0.422228       -11.4894
  67   2.0000      -0.420275       -11.4363
  68   2.0000      -0.412841       -11.2340
  69   2.0000      -0.403216       -10.9721
  70   2.0000      -0.401804       -10.9337
  71   2.0000      -0.392770       -10.6878
  72   2.0000      -0.389641       -10.6027
  73   2.0000      -0.387264       -10.5380
  74   2.0000      -0.381465       -10.3802
  75   2.0000      -0.380209       -10.3460
  76   2.0000      -0.372625       -10.1396
  77   2.0000      -0.368921       -10.0389
  78   2.0000      -0.365069        -9.9340
  79   2.0000      -0.349747        -9.5171
  80   2.0000      -0.346989        -9.4421
  81   2.0000      -0.336731        -9.1629
  82   2.0000      -0.334890        -9.1128
  83   2.0000      -0.333256        -9.0684
  84   2.0000      -0.332185        -9.0392
  85   2.0000      -0.330445        -8.9919
  86   2.0000      -0.330300        -8.9879
  87   2.0000      -0.327590        -8.9142
  88   2.0000      -0.326796        -8.8926
  89   2.0000      -0.324814        -8.8386
  90   2.0000      -0.323607        -8.8058
  91   2.0000      -0.322493        -8.7755
  92   2.0000      -0.317930        -8.6513
  93   2.0000      -0.313108        -8.5201
  94   2.0000      -0.311577        -8.4784
  95   2.0000      -0.308457        -8.3935
  96   2.0000      -0.306771        -8.3476
  97   2.0000      -0.301923        -8.2157
  98   2.0000      -0.301028        -8.1914
  99   2.0000      -0.297128        -8.0853
 100   0.0000      -0.009294        -0.2529
 101   0.0000       0.009915         0.2698
 102   0.0000       0.019977         0.5436
 103   0.0000       0.022682         0.6172
 104   0.0000       0.035092         0.9549

MULLIKEN ATOMIC CHARGES
-----------------------
   0 O :   -0.696767
   1 H :    0.383355
   2 H :    0.355508
   3 O :   -0.743507
   4 H :    0.373831
   5 H :    0.372119
   6 O :   -0.726873
   7 H :    0.373858
   8 H :    0.332140
   9 O :   -0.721025
  10 H :    0.384883
  11 H :    0.361475
  12 O :   -0.694362
  13 H :    0.345524
  14 H :    0.345446
  15 O :   -0.691042
  16 H :    0.350662
  17 H :    0.343820
  18 O :   -0.693228
  19 H :    0.382604
  20 H :    0.353460
  21 O :   -0.755915
  22 H :    0.367264
  23 H :    0.391565
  24 O :   -0.720755
  25 H :    0.357256
  26 H :    0.380522
  27 O :   -0.712320
  28 H :    0.336735
  29 H :    0.377603
  30 O :   -0.739099
  31 H :    0.390614
  32 H :    0.336485
  33 O :   -0.774805
  34 H :    0.360423
  35 H :    0.363918
  36 O :   -0.747736
  37 H :    0.373061
  38 H :    0.372691
  39 O :   -0.696331
  40 H :    0.353610
  41 H :    0.345299
  42 O :   -0.825836
  43 H :    0.403463
  44 H :    0.365112
  45 O :   -0.729291
  46 H :    0.334642
  47 H :    0.374530
  48 O :   -0.696391
  49 H :    0.379525
  50 H :    0.365112
  51 O :   -0.714185
  52 H :    0.331062
  53 H :    0.382879
  54 O :   -0.729819
  55 H :    0.383855
  56 H :    0.336812
  57 O :   -0.736101
  58 H :    0.390831
  59 H :    0.331835
Sum of atomic charges:   -0.0000000

LOEWDIN ATOMIC CHARGES
----------------------
   0 O :   -0.270573
   1 H :    0.141940
   2 H :    0.137988
   3 O :   -0.275935
   4 H :    0.135363
   5 H :    0.136794
   6 O :   -0.297318
   7 H :    0.140367
   8 H :    0.156935
   9 O :   -0.273543
  10 H :    0.141859
  11 H :    0.135557
  12 O :   -0.290823
  13 H :    0.138586
  14 H :    0.139694
  15 O :   -0.289843
  16 H :    0.136771
  17 H :    0.137371
  18 O :   -0.270735
  19 H :    0.142860
  20 H :    0.139384
  21 O :   -0.274271
  22 H :    0.137756
  23 H :    0.133439
  24 O :   -0.277107
  25 H :    0.136281
  26 H :    0.141558
  27 O :   -0.277674
  28 H :    0.161130
  29 H :    0.145245
  30 O :   -0.289861
  31 H :    0.134737
  32 H :    0.157717
  33 O :   -0.270288
  34 H :    0.131544
  35 H :    0.126369
  36 O :   -0.278750
  37 H :    0.136867
  38 H :    0.141461
  39 O :   -0.282644
  40 H :    0.138020
  41 H :    0.135624
  42 O :   -0.315140
  43 H :    0.140586
  44 H :    0.122561
  45 O :   -0.292293
  46 H :    0.157541
  47 H :    0.138238
  48 O :   -0.260572
  49 H :    0.148854
  50 H :    0.144754
  51 O :   -0.287805
  52 H :    0.158364
  53 H :    0.139455
  54 O :   -0.288040
  55 H :    0.137533
  56 H :    0.158793
  57 O :   -0.294048
  58 H :    0.135978
  59 H :    0.155392

  Mayer bond orders larger than 0.1
B(  0-O ,  1-H ) :   0.8158 B(  0-O ,  2-H ) :   0.8209 B(  0-O , 47-H ) :   0.2016
B(  3-O ,  4-H ) :   0.7814 B(  3-O ,  5-H ) :   0.7915 B(  3-O , 35-H ) :   0.1861
B(  4-H , 30-O ) :   0.1246 B(  5-H , 45-O ) :   0.1168 B(  6-O ,  7-H ) :   0.7253
B(  6-O ,  8-H ) :   0.8906 B(  6-O , 38-H ) :   0.1086 B(  7-H , 18-O ) :   0.1835
B(  9-O , 10-H ) :   0.7670 B(  9-O , 11-H ) :   0.8317 B(  9-O , 31-H ) :   0.1980
B( 10-H , 12-O ) :   0.1318 B( 12-O , 13-H ) :   0.8359 B( 12-O , 14-H ) :   0.8449
B( 15-O , 16-H ) :   0.8395 B( 15-O , 17-H ) :   0.8472 B( 15-O , 26-H ) :   0.1292
B( 18-O , 19-H ) :   0.8184 B( 18-O , 20-H ) :   0.8370 B( 21-O , 22-H ) :   0.8043
B( 21-O , 23-H ) :   0.7694 B( 21-O , 53-H ) :   0.1217 B( 22-H , 27-O ) :   0.1041
B( 24-O , 25-H ) :   0.8264 B( 24-O , 26-H ) :   0.7760 B( 24-O , 58-H ) :   0.1889
B( 27-O , 28-H ) :   0.8889 B( 27-O , 29-H ) :   0.7653 B( 29-H , 54-O ) :   0.1328
B( 30-O , 31-H ) :   0.6964 B( 30-O , 32-H ) :   0.8892 B( 33-O , 34-H ) :   0.7623
B( 33-O , 35-H ) :   0.7439 B( 33-O , 44-H ) :   0.1058 B( 34-H , 36-O ) :   0.1547
B( 36-O , 37-H ) :   0.7806 B( 36-O , 38-H ) :   0.7982 B( 37-H , 57-O ) :   0.1296
B( 39-O , 40-H ) :   0.8263 B( 39-O , 41-H ) :   0.8362 B( 39-O , 43-H ) :   0.1495
B( 42-O , 43-H ) :   0.7426 B( 42-O , 44-H ) :   0.7661 B( 45-O , 46-H ) :   0.8906
B( 45-O , 47-H ) :   0.7110 B( 48-O , 49-H ) :   0.8281 B( 48-O , 50-H ) :   0.8125
B( 48-O , 55-H ) :   0.1931 B( 51-O , 52-H ) :   0.8910 B( 51-O , 53-H ) :   0.7623
B( 54-O , 55-H ) :   0.7078 B( 54-O , 56-H ) :   0.8892 B( 57-O , 58-H ) :   0.7040
B( 57-O , 59-H ) :   0.8907

Dispersion correction           -0.076406552
FINAL SINGLE POINT ENERGY     -1528.927484034175

DIPOLE MOMENT
-------------
                                X             Y             Z
Electronic contribution:      0.04222       0.21053      -0.01496
Nuclear contribution   :     -0.02263       0.18830       1.25637
                        -----------------------------------------
Total Dipole Moment    :      0.01959       0.39883       1.24141
                        -----------------------------------------
Magnitude (a.u.)       :      1.30405
Magnitude (Debye)      :      3.31463

                             ****ORCA TERMINATED NORMALLY****
TOTAL RUN TIME: 0 days 0 hours 4 minutes 48 seconds 60 msec
