                         Program Version 3.0.3 - RELEASE   -
|  1> ! B3LYP Def2-TZVP def2-TZVP/J RIJCOSX TightSCF Grid4 D3BJ COSMO
|  2>
|  3> %pal nprocs 12 end
|  4>
|  5> %scf
|  6>         maxiter 400
|  7> end
|  8>
|  9> %cosmo
| 10>         SMD true
| 11>         solvent "WATER"
| 12> end
| 13>
| 14> * xyz  0  1
| 15> O  1.607900	-2.608622	2.254672
| 16> H  1.097031	-2.838716	1.428354
| 17> H  0.968305	-2.055292	2.796400
| 18> O  2.602422	0.266801	-0.517914
| 19> H  2.480007	1.271212	-0.423467
| 20> H  3.024004	-0.088260	0.332294
| 21> O  1.119834	-2.980568	-2.542383
| 22> H  1.568421	-2.076142	-2.745100
| 23> H  1.665928	-3.663054	-2.979194
| 24> O  1.185537	3.057759	2.041718
| 25> H  1.495311	2.238982	2.564095
| 26> H  0.185915	2.997239	2.034674
| 27> O  2.046762	0.995020	3.445291
| 28> H  2.627098	0.418944	2.867606
| 29> H  1.287059	0.375594	3.644572
| 30> O  -3.222909	0.916904	-1.730807
| 31> H  -2.342493	0.657909	-2.121936
| 32> H  -3.000955	1.792903	-1.300597
| 33> O  1.991007	-0.575442	-2.979708
| 34> H  2.354543	-0.300925	-2.085382
| 35> H  1.080034	-0.172738	-2.970369
| 36> O  -1.523499	0.156448	1.835619
| 37> H  -1.587189	1.164242	1.918961
| 38> H  -0.849283	0.015043	1.085902
| 39> O  -3.463620	-0.837920	0.234183
| 40> H  -2.817022	-0.480233	0.913336
| 41> H  -3.409143	-0.154682	-0.518563
| 42> O  -1.488866	2.792454	1.840531
| 43> H  -2.085543	3.273494	2.447355
| 44> H  -1.799844	3.028813	0.896138
| 45> O  1.895039	2.767972	-0.371939
| 46> H  1.604518	2.915676	0.631714
| 47> H  2.573150	3.449536	-0.552466
| 48> O  0.125003	-0.425707	-0.085574
| 49> H  0.188734	-1.444567	-0.033813
| 50> H  1.099106	-0.128613	-0.175773
| 51> O  0.230997	-3.039771	-0.051348
| 52> H  -0.761619	-3.110882	-0.239234
| 53> H  0.661068	-3.129659	-0.960769
| 54> O  -1.374559	-2.224473	-3.246690
| 55> H  -1.821462	-2.495121	-2.386235
| 56> H  -0.466620	-2.635171	-3.141942
| 57> O  -0.678088	0.165516	-2.521235
| 58> H  -0.986181	-0.748254	-2.897449
| 59> H  -0.436991	-0.050907	-1.557820
| 60> O  3.313841	-0.734765	1.785453
| 61> H  4.213055	-1.055759	1.994595
| 62> H  2.681129	-1.543118	1.942783
| 63> O  -0.126779	2.852570	-2.120743
| 64> H  -0.262300	1.916388	-2.420943
| 65> H  0.656709	2.819739	-1.485474
| 66> O  0.082073	-0.858236	3.615364
| 67> H  -0.389845	-1.124474	4.428797
| 68> H  -0.633140	-0.474512	2.995420
| 69> O  -2.198288	3.170251	-0.629597
| 70> H  -1.349758	3.113872	-1.227731
| 71> H  -2.609651	4.029942	-0.849797
| 72> O  -2.286867	-2.860577	-0.797965
| 73> H  -2.787448	-2.054792	-0.353487
| 74> H  -2.902977	-3.618130	-0.750014
| 75> **                         ****END OF INPUT****

CARTESIAN COORDINATES (ANGSTROEM)
---------------------------------
  O      1.607900   -2.608622    2.254672
  H      1.097031   -2.838716    1.428354
  H      0.968305   -2.055292    2.796400
  O      2.602422    0.266801   -0.517914
  H      2.480007    1.271212   -0.423467
  H      3.024004   -0.088260    0.332294
  O      1.119834   -2.980568   -2.542383
  H      1.568421   -2.076142   -2.745100
  H      1.665928   -3.663054   -2.979194
  O      1.185537    3.057759    2.041718
  H      1.495311    2.238982    2.564095
  H      0.185915    2.997239    2.034674
  O      2.046762    0.995020    3.445291
  H      2.627098    0.418944    2.867606
  H      1.287059    0.375594    3.644572
  O     -3.222909    0.916904   -1.730807
  H     -2.342493    0.657909   -2.121936
  H     -3.000955    1.792903   -1.300597
  O      1.991007   -0.575442   -2.979708
  H      2.354543   -0.300925   -2.085382
  H      1.080034   -0.172738   -2.970369
  O     -1.523499    0.156448    1.835619
  H     -1.587189    1.164242    1.918961
  H     -0.849283    0.015043    1.085902
  O     -3.463620   -0.837920    0.234183
  H     -2.817022   -0.480233    0.913336
  H     -3.409143   -0.154682   -0.518563
  O     -1.488866    2.792454    1.840531
  H     -2.085543    3.273494    2.447355
  H     -1.799844    3.028813    0.896138
  O      1.895039    2.767972   -0.371939
  H      1.604518    2.915676    0.631714
  H      2.573150    3.449536   -0.552466
  O      0.125003   -0.425707   -0.085574
  H      0.188734   -1.444567   -0.033813
  H      1.099106   -0.128613   -0.175773
  O      0.230997   -3.039771   -0.051348
  H     -0.761619   -3.110882   -0.239234
  H      0.661068   -3.129659   -0.960769
  O     -1.374559   -2.224473   -3.246690
  H     -1.821462   -2.495121   -2.386235
  H     -0.466620   -2.635171   -3.141942
  O     -0.678088    0.165516   -2.521235
  H     -0.986181   -0.748254   -2.897449
  H     -0.436991   -0.050907   -1.557820
  O      3.313841   -0.734765    1.785453
  H      4.213055   -1.055759    1.994595
  H      2.681129   -1.543118    1.942783
  O     -0.126779    2.852570   -2.120743
  H     -0.262300    1.916388   -2.420943
  H      0.656709    2.819739   -1.485474
  O      0.082073   -0.858236    3.615364
  H     -0.389845   -1.124474    4.428797
  H     -0.633140   -0.474512    2.995420
  O     -2.198288    3.170251   -0.629597
  H     -1.349758    3.113872   -1.227731
  H     -2.609651    4.029942   -0.849797
  O     -2.286867   -2.860577   -0.797965
  H     -2.787448   -2.054792   -0.353487
  H     -2.902977   -3.618130   -0.750014

 Total Charge           Charge          ....    0
 Multiplicity           Mult            ....    1
 Number of Electrons    NEL             ....  200
 Basis Dimension        Dim             ....  860

ORBITAL ENERGIES
----------------

  NO   OCC          E(Eh)            E(eV)
   0   2.0000     -19.136332      -520.7261
   1   2.0000     -19.135331      -520.6988
   2   2.0000     -19.133114      -520.6385
   3   2.0000     -19.131650      -520.5987
   4   2.0000     -19.131372      -520.5911
   5   2.0000     -19.130285      -520.5615
   6   2.0000     -19.129327      -520.5354
   7   2.0000     -19.129008      -520.5268
   8   2.0000     -19.126800      -520.4667
   9   2.0000     -19.125693      -520.4366
  10   2.0000     -19.125395      -520.4284
  11   2.0000     -19.123794      -520.3849
  12   2.0000     -19.122519      -520.3502
  13   2.0000     -19.121990      -520.3358
  14   2.0000     -19.120144      -520.2856
  15   2.0000     -19.119805      -520.2764
  16   2.0000     -19.118278      -520.2348
  17   2.0000     -19.115438      -520.1575
  18   2.0000     -19.114627      -520.1355
  19   2.0000     -19.113437      -520.1031
  20   2.0000      -1.036755       -28.2115
  21   2.0000      -1.028410       -27.9845
  22   2.0000      -1.023939       -27.8628
  23   2.0000      -1.021352       -27.7924
  24   2.0000      -1.015564       -27.6349
  25   2.0000      -1.015299       -27.6277
  26   2.0000      -1.013114       -27.5682
  27   2.0000      -1.011639       -27.5281
  28   2.0000      -1.009068       -27.4581
  29   2.0000      -1.005269       -27.3548
  30   2.0000      -0.999942       -27.2098
  31   2.0000      -0.996592       -27.1186
  32   2.0000      -0.996124       -27.1059
  33   2.0000      -0.994751       -27.0685
  34   2.0000      -0.986792       -26.8520
  35   2.0000      -0.982038       -26.7226
  36   2.0000      -0.979502       -26.6536
  37   2.0000      -0.975737       -26.5512
  38   2.0000      -0.974787       -26.5253
  39   2.0000      -0.972880       -26.4734
  40   2.0000      -0.546715       -14.8769
  41   2.0000      -0.543044       -14.7770
  42   2.0000      -0.540723       -14.7138
  43   2.0000      -0.539943       -14.6926
  44   2.0000      -0.537064       -14.6142
  45   2.0000      -0.536984       -14.6121
  46   2.0000      -0.532743       -14.4967
  47   2.0000      -0.531930       -14.4745
  48   2.0000      -0.529515       -14.4088
  49   2.0000      -0.529085       -14.3971
  50   2.0000      -0.527656       -14.3582
  51   2.0000      -0.523792       -14.2531
  52   2.0000      -0.523095       -14.2341
  53   2.0000      -0.522461       -14.2169
  54   2.0000      -0.521001       -14.1772
  55   2.0000      -0.518107       -14.0984
  56   2.0000      -0.515892       -14.0381
  57   2.0000      -0.513856       -13.9827
  58   2.0000      -0.510978       -13.9044
  59   2.0000      -0.509311       -13.8590
  60   2.0000      -0.467235       -12.7141
  61   2.0000      -0.459465       -12.5027
  62   2.0000      -0.452504       -12.3133
  63   2.0000      -0.447296       -12.1715
  64   2.0000      -0.442531       -12.0419
  65   2.0000      -0.438658       -11.9365
  66   2.0000      -0.425045       -11.5661
  67   2.0000      -0.420800       -11.4505
  68   2.0000      -0.415077       -11.2948
  69   2.0000      -0.406961       -11.0740
  70   2.0000      -0.402575       -10.9546
  71   2.0000      -0.394595       -10.7375
  72   2.0000      -0.392051       -10.6682
  73   2.0000      -0.390461       -10.6250
  74   2.0000      -0.388826       -10.5805
  75   2.0000      -0.384443       -10.4612
  76   2.0000      -0.374109       -10.1800
  77   2.0000      -0.370169       -10.0728
  78   2.0000      -0.364486        -9.9182
  79   2.0000      -0.352899        -9.6029
  80   2.0000      -0.331786        -9.0284
  81   2.0000      -0.329725        -8.9723
  82   2.0000      -0.328272        -8.9327
  83   2.0000      -0.326342        -8.8802
  84   2.0000      -0.326082        -8.8731
  85   2.0000      -0.325226        -8.8498
  86   2.0000      -0.323717        -8.8088
  87   2.0000      -0.322899        -8.7865
  88   2.0000      -0.322398        -8.7729
  89   2.0000      -0.321953        -8.7608
  90   2.0000      -0.321625        -8.7518
  91   2.0000      -0.320085        -8.7099
  92   2.0000      -0.315914        -8.5964
  93   2.0000      -0.315600        -8.5879
  94   2.0000      -0.314491        -8.5577
  95   2.0000      -0.312745        -8.5102
  96   2.0000      -0.312405        -8.5010
  97   2.0000      -0.311368        -8.4727
  98   2.0000      -0.311225        -8.4689
  99   2.0000      -0.309214        -8.4141
 100   0.0000       0.004447         0.1210
 101   0.0000       0.032827         0.8933
 102   0.0000       0.037674         1.0252
 103   0.0000       0.044278         1.2049
 104   0.0000       0.060818         1.6549

MULLIKEN ATOMIC CHARGES
-----------------------
   0 O :   -0.750701
   1 H :    0.394948
   2 H :    0.371889
   3 O :   -0.782281
   4 H :    0.384656
   5 H :    0.391056
   6 O :   -0.752857
   7 H :    0.380972
   8 H :    0.389746
   9 O :   -0.760974
  10 H :    0.381148
  11 H :    0.377480
  12 O :   -0.769396
  13 H :    0.374242
  14 H :    0.370001
  15 O :   -0.761349
  16 H :    0.369158
  17 H :    0.376777
  18 O :   -0.749649
  19 H :    0.396908
  20 H :    0.370079
  21 O :   -0.789496
  22 H :    0.389422
  23 H :    0.393643
  24 O :   -0.769059
  25 H :    0.384813
  26 H :    0.379518
  27 O :   -0.738689
  28 H :    0.391891
  29 H :    0.386040
  30 O :   -0.757547
  31 H :    0.382854
  32 H :    0.389428
  33 O :   -0.793967
  34 H :    0.364429
  35 H :    0.366656
  36 O :   -0.771505
  37 H :    0.388333
  38 H :    0.390376
  39 O :   -0.755856
  40 H :    0.370168
  41 H :    0.369073
  42 O :   -0.860948
  43 H :    0.404971
  44 H :    0.377751
  45 O :   -0.750901
  46 H :    0.387727
  47 H :    0.379495
  48 O :   -0.745975
  49 H :    0.389444
  50 H :    0.380994
  51 O :   -0.748392
  52 H :    0.386982
  53 H :    0.391144
  54 O :   -0.745481
  55 H :    0.381986
  56 H :    0.391261
  57 O :   -0.760545
  58 H :    0.380015
  59 H :    0.388090
Sum of atomic charges:    0.0000000

LOEWDIN ATOMIC CHARGES
----------------------
   0 O :   -0.314677
   1 H :    0.148385
   2 H :    0.146138
   3 O :   -0.298700
   4 H :    0.140582
   5 H :    0.142284
   6 O :   -0.283912
   7 H :    0.149116
   8 H :    0.188503
   9 O :   -0.316490
  10 H :    0.143828
  11 H :    0.143527
  12 O :   -0.341469
  13 H :    0.145162
  14 H :    0.144502
  15 O :   -0.334461
  16 H :    0.142356
  17 H :    0.147068
  18 O :   -0.313996
  19 H :    0.147782
  20 H :    0.147417
  21 O :   -0.295972
  22 H :    0.144245
  23 H :    0.134930
  24 O :   -0.326947
  25 H :    0.142437
  26 H :    0.141701
  27 O :   -0.264454
  28 H :    0.191139
  29 H :    0.148412
  30 O :   -0.283044
  31 H :    0.141882
  32 H :    0.186094
  33 O :   -0.287523
  34 H :    0.135338
  35 H :    0.134471
  36 O :   -0.298490
  37 H :    0.145999
  38 H :    0.145605
  39 O :   -0.326161
  40 H :    0.143986
  41 H :    0.145739
  42 O :   -0.342657
  43 H :    0.141354
  44 H :    0.127367
  45 O :   -0.281604
  46 H :    0.186812
  47 H :    0.147647
  48 O :   -0.304759
  49 H :    0.150556
  50 H :    0.146570
  51 O :   -0.282895
  52 H :    0.187983
  53 H :    0.146698
  54 O :   -0.272134
  55 H :    0.147962
  56 H :    0.189395
  57 O :   -0.290746
  58 H :    0.144806
  59 H :    0.185316

  Mayer bond orders larger than 0.1
B(  0-O ,  1-H ) :   0.7990 B(  0-O ,  2-H ) :   0.7845 B(  0-O , 47-H ) :   0.1946
B(  2-H , 51-O ) :   0.1245 B(  3-O ,  4-H ) :   0.7376 B(  3-O ,  5-H ) :   0.7439
B(  3-O , 35-H ) :   0.2119 B(  4-H , 30-O ) :   0.1610 B(  5-H , 45-O ) :   0.1502
B(  6-O ,  7-H ) :   0.7242 B(  6-O ,  8-H ) :   0.8473 B(  6-O , 38-H ) :   0.1342
B(  6-O , 41-H ) :   0.1223 B(  7-H , 18-O ) :   0.1739 B(  9-O , 10-H ) :   0.7498
B(  9-O , 11-H ) :   0.7860 B(  9-O , 31-H ) :   0.2295 B( 10-H , 12-O ) :   0.1572
B( 11-H , 27-O ) :   0.1154 B( 12-O , 13-H ) :   0.7923 B( 12-O , 14-H ) :   0.7940
B( 13-H , 45-O ) :   0.1174 B( 14-H , 51-O ) :   0.1187 B( 15-O , 16-H ) :   0.8095
B( 15-O , 17-H ) :   0.7908 B( 15-O , 26-H ) :   0.1516 B( 17-H , 54-O ) :   0.1138
B( 18-O , 19-H ) :   0.7848 B( 18-O , 20-H ) :   0.8182 B( 21-O , 22-H ) :   0.7463
B( 21-O , 23-H ) :   0.7578 B( 21-O , 25-H ) :   0.1056 B( 21-O , 53-H ) :   0.1385
B( 22-H , 27-O ) :   0.1490 B( 23-H , 33-O ) :   0.1120 B( 24-O , 25-H ) :   0.7890
B( 24-O , 26-H ) :   0.7566 B( 24-O , 58-H ) :   0.2179 B( 27-O , 28-H ) :   0.8471
B( 27-O , 29-H ) :   0.7332 B( 29-H , 54-O ) :   0.1574 B( 30-O , 31-H ) :   0.6764
B( 30-O , 32-H ) :   0.8492 B( 30-O , 50-H ) :   0.1310 B( 33-O , 34-H ) :   0.7228
B( 33-O , 35-H ) :   0.7158 B( 33-O , 44-H ) :   0.1273 B( 34-H , 36-O ) :   0.2020
B( 36-O , 37-H ) :   0.7553 B( 36-O , 38-H ) :   0.7596 B( 37-H , 57-O ) :   0.1447
B( 39-O , 40-H ) :   0.7827 B( 39-O , 41-H ) :   0.7938 B( 39-O , 43-H ) :   0.1960
B( 40-H , 57-O ) :   0.1343 B( 42-O , 43-H ) :   0.7017 B( 42-O , 44-H ) :   0.7416
B( 45-O , 46-H ) :   0.8495 B( 45-O , 47-H ) :   0.7102 B( 48-O , 49-H ) :   0.8167
B( 48-O , 50-H ) :   0.7698 B( 48-O , 55-H ) :   0.1932 B( 51-O , 52-H ) :   0.8496
B( 51-O , 53-H ) :   0.7417 B( 54-O , 55-H ) :   0.7083 B( 54-O , 56-H ) :   0.8474
B( 57-O , 58-H ) :   0.6899 B( 57-O , 59-H ) :   0.8501

Dispersion correction           -0.078944362
FINAL SINGLE POINT ENERGY     -1528.965706838979

DIPOLE MOMENT
-------------
                                X             Y             Z
Electronic contribution:      0.14039       0.20086       0.38315
Nuclear contribution   :      0.44763       0.03687       1.52454
                        -----------------------------------------
Total Dipole Moment    :      0.58802       0.23773       1.90769
                        -----------------------------------------
Magnitude (a.u.)       :      2.01036
Magnitude (Debye)      :      5.10994

                             ****ORCA TERMINATED NORMALLY****
TOTAL RUN TIME: 0 days 0 hours 2 minutes 52 seconds 465 msec
