                         Program Version 3.0.3 - RELEASE   -
|  1> ! wB97X-D3 Def2-TZVP def2-TZVP/J RIJCOSX TightSCF Grid4 COSMO
|  2>
|  3> %pal nprocs 12 end
|  4>
|  5> %scf
|  6>         maxiter 400
|  7> end
|  8>
|  9> %cosmo
| 10>         SMD true
| 11>         solvent "WATER"
| 12> end
| 13>
| 14> * xyz  0  1
| 15> O  1.430385	-2.770675	2.383193
| 16> H  1.018824	-3.000182	1.519674
| 17> H  0.769319	-2.206507	2.851046
| 18> O  2.748550	0.263397	-0.690381
| 19> H  2.612374	1.225539	-0.474032
| 20> H  3.045492	-0.171495	0.150373
| 21> O  1.151690	-3.043885	-2.735956
| 22> H  1.557686	-2.148775	-2.924445
| 23> H  1.713438	-3.687244	-3.194533
| 24> O  1.225770	3.185628	2.198080
| 25> H  1.395557	2.334562	2.686558
| 26> H  0.248896	3.287450	2.174030
| 27> O  1.864638	0.924227	3.453643
| 28> H  2.384970	0.375212	2.821768
| 29> H  1.134807	0.318435	3.712485
| 30> O  -3.307394	0.879750	-1.760106
| 31> H  -2.444293	0.648608	-2.171444
| 32> H  -3.105554	1.731993	-1.307533
| 33> O  1.950035	-0.527876	-3.151943
| 34> H  2.360069	-0.253047	-2.298319
| 35> H  1.043091	-0.158482	-3.103848
| 36> O  -1.251466	0.524767	1.771573
| 37> H  -1.338784	1.505768	1.876260
| 38> H  -0.575180	0.331687	1.071366
| 39> O  -3.076903	-0.865578	0.279742
| 40> H  -2.470475	-0.370136	0.878547
| 41> H  -3.229712	-0.239399	-0.476381
| 42> O  -1.486968	3.219837	1.950422
| 43> H  -2.176217	3.486044	2.577935
| 44> H  -1.879982	3.332186	1.041640
| 45> O  2.008577	2.762088	-0.241332
| 46> H  1.707806	2.948520	0.710041
| 47> H  2.639887	3.466493	-0.455543
| 48> O  0.262774	-0.436728	-0.152830
| 49> H  0.302250	-1.429559	-0.067016
| 50> H  1.200497	-0.162742	-0.352868
| 51> O  0.380551	-3.108309	-0.127210
| 52> H  -0.591059	-3.250164	-0.285474
| 53> H  0.790079	-3.206817	-1.022620
| 54> O  -1.437415	-2.345591	-3.223659
| 55> H  -1.833579	-2.668304	-2.378246
| 56> H  -0.529980	-2.729702	-3.201355
| 57> O  -0.753589	0.119056	-2.531956
| 58> H  -1.049745	-0.768267	-2.899295
| 59> H  -0.473887	-0.099552	-1.600591
| 60> O  3.097056	-0.825798	1.706649
| 61> H  3.974204	-1.064171	2.045679
| 62> H  2.505963	-1.606646	1.938564
| 63> O  -0.141608	2.834557	-1.971360
| 64> H  -0.256269	1.938274	-2.343209
| 65> H  0.645299	2.789806	-1.373071
| 66> O  -0.133668	-0.936927	3.652471
| 67> H  -0.729276	-1.118594	4.395311
| 68> H  -0.658211	-0.379061	3.012638
| 69> O  -2.339894	3.189827	-0.580982
| 70> H  -1.488773	3.118389	-1.112273
| 71> H  -2.786059	3.978937	-0.927702
| 72> O  -2.196379	-3.080986	-0.722604
| 73> H  -2.556782	-2.239951	-0.288809
| 74> H  -2.822832	-3.788746	-0.508389
| 75> **                         ****END OF INPUT****

CARTESIAN COORDINATES (ANGSTROEM)
---------------------------------
  O      1.430385   -2.770675    2.383193
  H      1.018824   -3.000182    1.519674
  H      0.769319   -2.206507    2.851046
  O      2.748550    0.263397   -0.690381
  H      2.612374    1.225539   -0.474032
  H      3.045492   -0.171495    0.150373
  O      1.151690   -3.043885   -2.735956
  H      1.557686   -2.148775   -2.924445
  H      1.713438   -3.687244   -3.194533
  O      1.225770    3.185628    2.198080
  H      1.395557    2.334562    2.686558
  H      0.248896    3.287450    2.174030
  O      1.864638    0.924227    3.453643
  H      2.384970    0.375212    2.821768
  H      1.134807    0.318435    3.712485
  O     -3.307394    0.879750   -1.760106
  H     -2.444293    0.648608   -2.171444
  H     -3.105554    1.731993   -1.307533
  O      1.950035   -0.527876   -3.151943
  H      2.360069   -0.253047   -2.298319
  H      1.043091   -0.158482   -3.103848
  O     -1.251466    0.524767    1.771573
  H     -1.338784    1.505768    1.876260
  H     -0.575180    0.331687    1.071366
  O     -3.076903   -0.865578    0.279742
  H     -2.470475   -0.370136    0.878547
  H     -3.229712   -0.239399   -0.476381
  O     -1.486968    3.219837    1.950422
  H     -2.176217    3.486044    2.577935
  H     -1.879982    3.332186    1.041640
  O      2.008577    2.762088   -0.241332
  H      1.707806    2.948520    0.710041
  H      2.639887    3.466493   -0.455543
  O      0.262774   -0.436728   -0.152830
  H      0.302250   -1.429559   -0.067016
  H      1.200497   -0.162742   -0.352868
  O      0.380551   -3.108309   -0.127210
  H     -0.591059   -3.250164   -0.285474
  H      0.790079   -3.206817   -1.022620
  O     -1.437415   -2.345591   -3.223659
  H     -1.833579   -2.668304   -2.378246
  H     -0.529980   -2.729702   -3.201355
  O     -0.753589    0.119056   -2.531956
  H     -1.049745   -0.768267   -2.899295
  H     -0.473887   -0.099552   -1.600591
  O      3.097056   -0.825798    1.706649
  H      3.974204   -1.064171    2.045679
  H      2.505963   -1.606646    1.938564
  O     -0.141608    2.834557   -1.971360
  H     -0.256269    1.938274   -2.343209
  H      0.645299    2.789806   -1.373071
  O     -0.133668   -0.936927    3.652471
  H     -0.729276   -1.118594    4.395311
  H     -0.658211   -0.379061    3.012638
  O     -2.339894    3.189827   -0.580982
  H     -1.488773    3.118389   -1.112273
  H     -2.786059    3.978937   -0.927702
  O     -2.196379   -3.080986   -0.722604
  H     -2.556782   -2.239951   -0.288809
  H     -2.822832   -3.788746   -0.508389

 Total Charge           Charge          ....    0
 Multiplicity           Mult            ....    1
 Number of Electrons    NEL             ....  200
 Basis Dimension        Dim             ....  860

ORBITAL ENERGIES
----------------

  NO   OCC          E(Eh)            E(eV)
   0   2.0000     -19.243736      -523.6487
   1   2.0000     -19.241510      -523.5881
   2   2.0000     -19.241086      -523.5766
   3   2.0000     -19.240916      -523.5719
   4   2.0000     -19.240506      -523.5608
   5   2.0000     -19.239499      -523.5334
   6   2.0000     -19.238445      -523.5047
   7   2.0000     -19.237385      -523.4759
   8   2.0000     -19.237214      -523.4712
   9   2.0000     -19.235022      -523.4116
  10   2.0000     -19.234814      -523.4059
  11   2.0000     -19.234366      -523.3937
  12   2.0000     -19.233559      -523.3717
  13   2.0000     -19.232727      -523.3491
  14   2.0000     -19.227319      -523.2019
  15   2.0000     -19.226503      -523.1797
  16   2.0000     -19.226191      -523.1713
  17   2.0000     -19.223376      -523.0947
  18   2.0000     -19.223120      -523.0877
  19   2.0000     -19.222360      -523.0670
  20   2.0000      -1.157142       -31.4874
  21   2.0000      -1.146556       -31.1994
  22   2.0000      -1.143862       -31.1261
  23   2.0000      -1.142219       -31.0813
  24   2.0000      -1.137207       -30.9450
  25   2.0000      -1.135425       -30.8965
  26   2.0000      -1.134442       -30.8697
  27   2.0000      -1.132643       -30.8208
  28   2.0000      -1.130063       -30.7506
  29   2.0000      -1.126692       -30.6588
  30   2.0000      -1.121713       -30.5234
  31   2.0000      -1.120077       -30.4788
  32   2.0000      -1.118547       -30.4372
  33   2.0000      -1.117577       -30.4108
  34   2.0000      -1.110889       -30.2288
  35   2.0000      -1.107138       -30.1268
  36   2.0000      -1.105133       -30.0722
  37   2.0000      -1.100497       -29.9460
  38   2.0000      -1.100059       -29.9341
  39   2.0000      -1.099181       -29.9102
  40   2.0000      -0.660417       -17.9709
  41   2.0000      -0.653558       -17.7842
  42   2.0000      -0.649275       -17.6677
  43   2.0000      -0.649058       -17.6618
  44   2.0000      -0.645955       -17.5773
  45   2.0000      -0.644374       -17.5343
  46   2.0000      -0.642672       -17.4880
  47   2.0000      -0.640346       -17.4247
  48   2.0000      -0.638129       -17.3644
  49   2.0000      -0.637451       -17.3459
  50   2.0000      -0.636511       -17.3203
  51   2.0000      -0.635951       -17.3051
  52   2.0000      -0.634769       -17.2730
  53   2.0000      -0.632780       -17.2188
  54   2.0000      -0.631823       -17.1928
  55   2.0000      -0.629568       -17.1314
  56   2.0000      -0.625600       -17.0234
  57   2.0000      -0.623113       -16.9558
  58   2.0000      -0.618624       -16.8336
  59   2.0000      -0.618210       -16.8224
  60   2.0000      -0.567769       -15.4498
  61   2.0000      -0.558120       -15.1872
  62   2.0000      -0.553412       -15.0591
  63   2.0000      -0.547634       -14.9019
  64   2.0000      -0.542316       -14.7572
  65   2.0000      -0.539400       -14.6778
  66   2.0000      -0.527456       -14.3528
  67   2.0000      -0.522945       -14.2300
  68   2.0000      -0.514945       -14.0124
  69   2.0000      -0.509176       -13.8554
  70   2.0000      -0.506423       -13.7805
  71   2.0000      -0.498087       -13.5536
  72   2.0000      -0.496450       -13.5091
  73   2.0000      -0.492532       -13.4025
  74   2.0000      -0.489528       -13.3207
  75   2.0000      -0.485376       -13.2078
  76   2.0000      -0.476090       -12.9551
  77   2.0000      -0.472629       -12.8609
  78   2.0000      -0.466275       -12.6880
  79   2.0000      -0.455946       -12.4069
  80   2.0000      -0.434190       -11.8149
  81   2.0000      -0.432917       -11.7803
  82   2.0000      -0.429457       -11.6861
  83   2.0000      -0.428618       -11.6633
  84   2.0000      -0.427914       -11.6441
  85   2.0000      -0.426991       -11.6190
  86   2.0000      -0.426074       -11.5941
  87   2.0000      -0.425539       -11.5795
  88   2.0000      -0.424575       -11.5533
  89   2.0000      -0.424188       -11.5427
  90   2.0000      -0.423995       -11.5375
  91   2.0000      -0.422069       -11.4851
  92   2.0000      -0.419817       -11.4238
  93   2.0000      -0.417576       -11.3628
  94   2.0000      -0.416346       -11.3293
  95   2.0000      -0.415111       -11.2957
  96   2.0000      -0.413944       -11.2640
  97   2.0000      -0.413171       -11.2429
  98   2.0000      -0.412124       -11.2145
  99   2.0000      -0.411131       -11.1874
 100   0.0000       0.080809         2.1989
 101   0.0000       0.115241         3.1359
 102   0.0000       0.120374         3.2755
 103   0.0000       0.126721         3.4483
 104   0.0000       0.148151         4.0314

MULLIKEN ATOMIC CHARGES
-----------------------
   0 O :   -0.756982
   1 H :    0.395622
   2 H :    0.374126
   3 O :   -0.768408
   4 H :    0.388851
   5 H :    0.395456
   6 O :   -0.769962
   7 H :    0.378844
   8 H :    0.408459
   9 O :   -0.768070
  10 H :    0.381843
  11 H :    0.385048
  12 O :   -0.766943
  13 H :    0.371093
  14 H :    0.370700
  15 O :   -0.765182
  16 H :    0.373877
  17 H :    0.377943
  18 O :   -0.757485
  19 H :    0.398419
  20 H :    0.371701
  21 O :   -0.771218
  22 H :    0.381557
  23 H :    0.375152
  24 O :   -0.770082
  25 H :    0.377544
  26 H :    0.379703
  27 O :   -0.761695
  28 H :    0.410880
  29 H :    0.387225
  30 O :   -0.771753
  31 H :    0.382622
  32 H :    0.408266
  33 O :   -0.759613
  34 H :    0.353453
  35 H :    0.343988
  36 O :   -0.775523
  37 H :    0.393127
  38 H :    0.391604
  39 O :   -0.766301
  40 H :    0.374779
  41 H :    0.373902
  42 O :   -0.839887
  43 H :    0.411036
  44 H :    0.349522
  45 O :   -0.767296
  46 H :    0.408387
  47 H :    0.371442
  48 O :   -0.742806
  49 H :    0.387517
  50 H :    0.372811
  51 O :   -0.770646
  52 H :    0.405973
  53 H :    0.393284
  54 O :   -0.766933
  55 H :    0.382448
  56 H :    0.407840
  57 O :   -0.777053
  58 H :    0.390390
  59 H :    0.407404
Sum of atomic charges:   -0.0000000

LOEWDIN ATOMIC CHARGES
----------------------
   0 O :   -0.317066
   1 H :    0.143264
   2 H :    0.140443
   3 O :   -0.289568
   4 H :    0.138525
   5 H :    0.141279
   6 O :   -0.282784
   7 H :    0.147035
   8 H :    0.188034
   9 O :   -0.315331
  10 H :    0.137025
  11 H :    0.138886
  12 O :   -0.325356
  13 H :    0.141333
  14 H :    0.140965
  15 O :   -0.329034
  16 H :    0.138005
  17 H :    0.143230
  18 O :   -0.313623
  19 H :    0.142320
  20 H :    0.142382
  21 O :   -0.276808
  22 H :    0.139917
  23 H :    0.132892
  24 O :   -0.314042
  25 H :    0.137900
  26 H :    0.138027
  27 O :   -0.271975
  28 H :    0.189981
  29 H :    0.148295
  30 O :   -0.278256
  31 H :    0.140684
  32 H :    0.186268
  33 O :   -0.272500
  34 H :    0.134260
  35 H :    0.127062
  36 O :   -0.292222
  37 H :    0.139992
  38 H :    0.146021
  39 O :   -0.322505
  40 H :    0.139447
  41 H :    0.140953
  42 O :   -0.322184
  43 H :    0.140349
  44 H :    0.122919
  45 O :   -0.276259
  46 H :    0.187245
  47 H :    0.143222
  48 O :   -0.298352
  49 H :    0.148906
  50 H :    0.145633
  51 O :   -0.284257
  52 H :    0.186894
  53 H :    0.141599
  54 O :   -0.276195
  55 H :    0.142251
  56 H :    0.187642
  57 O :   -0.277538
  58 H :    0.139437
  59 H :    0.185335

  Mayer bond orders larger than 0.1
B(  0-O ,  1-H ) :   0.8132 B(  0-O ,  2-H ) :   0.8047 B(  0-O , 47-H ) :   0.1621
B(  3-O ,  4-H ) :   0.7694 B(  3-O ,  5-H ) :   0.7769 B(  3-O , 35-H ) :   0.2021
B(  4-H , 30-O ) :   0.1251 B(  5-H , 45-O ) :   0.1119 B(  6-O ,  7-H ) :   0.7676
B(  6-O ,  8-H ) :   0.8387 B(  6-O , 38-H ) :   0.1029 B(  6-O , 41-H ) :   0.1004
B(  7-H , 18-O ) :   0.1303 B(  9-O , 10-H ) :   0.7829 B(  9-O , 11-H ) :   0.8081
B(  9-O , 31-H ) :   0.1758 B( 10-H , 12-O ) :   0.1167 B( 12-O , 13-H ) :   0.8086
B( 12-O , 14-H ) :   0.8103 B( 13-H , 45-O ) :   0.1010 B( 14-H , 51-O ) :   0.1024
B( 15-O , 16-H ) :   0.8228 B( 15-O , 17-H ) :   0.8078 B( 15-O , 26-H ) :   0.1260
B( 18-O , 19-H ) :   0.8037 B( 18-O , 20-H ) :   0.8303 B( 21-O , 22-H ) :   0.7712
B( 21-O , 23-H ) :   0.7890 B( 21-O , 53-H ) :   0.1056 B( 22-H , 27-O ) :   0.1328
B( 24-O , 25-H ) :   0.8064 B( 24-O , 26-H ) :   0.7807 B( 24-O , 58-H ) :   0.1523
B( 27-O , 28-H ) :   0.8368 B( 27-O , 29-H ) :   0.7747 B( 29-H , 54-O ) :   0.1149
B( 30-O , 31-H ) :   0.7298 B( 30-O , 32-H ) :   0.8397 B( 30-O , 50-H ) :   0.1055
B( 33-O , 34-H ) :   0.7629 B( 33-O , 35-H ) :   0.7473 B( 33-O , 44-H ) :   0.1269
B( 34-H , 36-O ) :   0.1676 B( 36-O , 37-H ) :   0.7682 B( 36-O , 38-H ) :   0.7884
B( 37-H , 57-O ) :   0.1244 B( 39-O , 40-H ) :   0.8013 B( 39-O , 41-H ) :   0.8077
B( 39-O , 43-H ) :   0.1470 B( 40-H , 57-O ) :   0.1070 B( 42-O , 43-H ) :   0.7408
B( 42-O , 44-H ) :   0.7677 B( 45-O , 46-H ) :   0.8394 B( 45-O , 47-H ) :   0.7517
B( 48-O , 49-H ) :   0.8329 B( 48-O , 50-H ) :   0.7997 B( 48-O , 55-H ) :   0.1398
B( 51-O , 52-H ) :   0.8401 B( 51-O , 53-H ) :   0.7725 B( 54-O , 55-H ) :   0.7561
B( 54-O , 56-H ) :   0.8397 B( 57-O , 58-H ) :   0.7386 B( 57-O , 59-H ) :   0.8396

Dispersion correction           -0.041615488
FINAL SINGLE POINT ENERGY     -1529.213556731168

DIPOLE MOMENT
-------------
                                X             Y             Z
Electronic contribution:      0.08214       0.18074       0.37787
Nuclear contribution   :      0.05358       0.12385       1.40337
                        -----------------------------------------
Total Dipole Moment    :      0.13573       0.30459       1.78124
                        -----------------------------------------
Magnitude (a.u.)       :      1.81218
Magnitude (Debye)      :      4.60620

                             ****ORCA TERMINATED NORMALLY****
TOTAL RUN TIME: 0 days 0 hours 3 minutes 2 seconds 399 msec
