                         Program Version 3.0.3 - RELEASE   -
|  1> ! wB97X-D3 Def2-TZVP def2-TZVP/J RIJCOSX TightSCF Grid4
|  2>
|  3> %pal nprocs 12 end
|  4>
|  5> %scf
|  6>         maxiter 400
|  7> end
|  8>
|  9> * xyz  0  1
| 10> O  1.506892	-2.630239	2.219880
| 11> H  1.045303	-2.923479	1.402751
| 12> H  0.829469	-2.205051	2.790602
| 13> O  2.713004	0.319673	-0.666626
| 14> H  2.652800	1.301201	-0.539321
| 15> H  3.070539	-0.063465	0.172596
| 16> O  1.149850	-3.069284	-2.742090
| 17> H  1.541568	-2.143485	-2.897033
| 18> H  1.712218	-3.682474	-3.232799
| 19> O  1.149396	2.916279	1.996855
| 20> H  1.357965	2.189148	2.645704
| 21> H  0.192378	3.100698	2.056855
| 22> O  1.852519	0.912518	3.604862
| 23> H  2.415135	0.400805	2.984723
| 24> H  1.186433	0.257729	3.893203
| 25> O  -3.259319	0.858592	-1.653766
| 26> H  -2.431210	0.664089	-2.138699
| 27> H  -3.080023	1.738684	-1.265446
| 28> O  1.950901	-0.628361	-3.092068
| 29> H  2.393124	-0.287853	-2.281561
| 30> H  1.074971	-0.186640	-3.081936
| 31> O  -1.231605	0.435012	1.931771
| 32> H  -1.401739	1.403213	1.974583
| 33> H  -0.577129	0.281406	1.195725
| 34> O  -3.019404	-0.958875	0.309741
| 35> H  -2.453756	-0.493380	0.961888
| 36> H  -3.187892	-0.291329	-0.409905
| 37> O  -1.589911	3.162051	1.852756
| 38> H  -2.217242	3.603173	2.439997
| 39> H  -1.909620	3.319820	0.918494
| 40> O  2.095821	2.877544	-0.352700
| 41> H  1.720596	2.900725	0.603303
| 42> H  2.695549	3.631985	-0.425335
| 43> O  0.229197	-0.368100	-0.084692
| 44> H  0.238983	-1.363900	-0.058810
| 45> H  1.169648	-0.102638	-0.284357
| 46> O  0.272666	-3.043510	-0.175429
| 47> H  -0.685088	-3.266892	-0.305204
| 48> H  0.697521	-3.191869	-1.055000
| 49> O  -1.446876	-2.257653	-3.145395
| 50> H  -1.896087	-2.637646	-2.359193
| 51> H  -0.577404	-2.708530	-3.168075
| 52> O  -0.680180	0.183464	-2.530281
| 53> H  -1.032584	-0.691852	-2.884593
| 54> H  -0.452951	-0.039071	-1.588918
| 55> O  3.177085	-0.724854	1.740334
| 56> H  4.030663	-1.034397	2.074402
| 57> H  2.537371	-1.505938	1.897346
| 58> O  -0.134279	2.865445	-2.018608
| 59> H  -0.242127	1.970264	-2.401527
| 60> H  0.692364	2.854824	-1.482187
| 61> O  -0.116945	-1.067068	3.767694
| 62> H  -0.736834	-1.352292	4.451129
| 63> H  -0.630900	-0.479157	3.140491
| 64> O  -2.277701	3.332078	-0.700956
| 65> H  -1.407299	3.178995	-1.215831
| 66> H  -2.696429	4.090648	-1.130933
| 67> O  -2.315847	-3.179740	-0.696961
| 68> H  -2.618516	-2.303183	-0.256059
| 69> H  -2.996432	-3.836715	-0.503022
| 70> **                         ****END OF INPUT****

CARTESIAN COORDINATES (ANGSTROEM)
---------------------------------
  O      1.506892   -2.630239    2.219880
  H      1.045303   -2.923479    1.402751
  H      0.829469   -2.205051    2.790602
  O      2.713004    0.319673   -0.666626
  H      2.652800    1.301201   -0.539321
  H      3.070539   -0.063465    0.172596
  O      1.149850   -3.069284   -2.742090
  H      1.541568   -2.143485   -2.897033
  H      1.712218   -3.682474   -3.232799
  O      1.149396    2.916279    1.996855
  H      1.357965    2.189148    2.645704
  H      0.192378    3.100698    2.056855
  O      1.852519    0.912518    3.604862
  H      2.415135    0.400805    2.984723
  H      1.186433    0.257729    3.893203
  O     -3.259319    0.858592   -1.653766
  H     -2.431210    0.664089   -2.138699
  H     -3.080023    1.738684   -1.265446
  O      1.950901   -0.628361   -3.092068
  H      2.393124   -0.287853   -2.281561
  H      1.074971   -0.186640   -3.081936
  O     -1.231605    0.435012    1.931771
  H     -1.401739    1.403213    1.974583
  H     -0.577129    0.281406    1.195725
  O     -3.019404   -0.958875    0.309741
  H     -2.453756   -0.493380    0.961888
  H     -3.187892   -0.291329   -0.409905
  O     -1.589911    3.162051    1.852756
  H     -2.217242    3.603173    2.439997
  H     -1.909620    3.319820    0.918494
  O      2.095821    2.877544   -0.352700
  H      1.720596    2.900725    0.603303
  H      2.695549    3.631985   -0.425335
  O      0.229197   -0.368100   -0.084692
  H      0.238983   -1.363900   -0.058810
  H      1.169648   -0.102638   -0.284357
  O      0.272666   -3.043510   -0.175429
  H     -0.685088   -3.266892   -0.305204
  H      0.697521   -3.191869   -1.055000
  O     -1.446876   -2.257653   -3.145395
  H     -1.896087   -2.637646   -2.359193
  H     -0.577404   -2.708530   -3.168075
  O     -0.680180    0.183464   -2.530281
  H     -1.032584   -0.691852   -2.884593
  H     -0.452951   -0.039071   -1.588918
  O      3.177085   -0.724854    1.740334
  H      4.030663   -1.034397    2.074402
  H      2.537371   -1.505938    1.897346
  O     -0.134279    2.865445   -2.018608
  H     -0.242127    1.970264   -2.401527
  H      0.692364    2.854824   -1.482187
  O     -0.116945   -1.067068    3.767694
  H     -0.736834   -1.352292    4.451129
  H     -0.630900   -0.479157    3.140491
  O     -2.277701    3.332078   -0.700956
  H     -1.407299    3.178995   -1.215831
  H     -2.696429    4.090648   -1.130933
  O     -2.315847   -3.179740   -0.696961
  H     -2.618516   -2.303183   -0.256059
  H     -2.996432   -3.836715   -0.503022

 Total Charge           Charge          ....    0
 Multiplicity           Mult            ....    1
 Number of Electrons    NEL             ....  200
 Basis Dimension        Dim             ....  860

ORBITAL ENERGIES
----------------

  NO   OCC          E(Eh)            E(eV)
   0   2.0000     -19.262941      -524.1713
   1   2.0000     -19.253409      -523.9119
   2   2.0000     -19.250650      -523.8368
   3   2.0000     -19.246498      -523.7238
   4   2.0000     -19.245714      -523.7025
   5   2.0000     -19.244615      -523.6726
   6   2.0000     -19.239260      -523.5269
   7   2.0000     -19.237882      -523.4894
   8   2.0000     -19.236306      -523.4465
   9   2.0000     -19.234778      -523.4049
  10   2.0000     -19.234733      -523.4037
  11   2.0000     -19.233644      -523.3741
  12   2.0000     -19.226725      -523.1858
  13   2.0000     -19.223846      -523.1075
  14   2.0000     -19.223239      -523.0909
  15   2.0000     -19.218962      -522.9745
  16   2.0000     -19.217277      -522.9287
  17   2.0000     -19.215180      -522.8716
  18   2.0000     -19.214260      -522.8466
  19   2.0000     -19.213684      -522.8309
  20   2.0000      -1.161317       -31.6010
  21   2.0000      -1.154127       -31.4054
  22   2.0000      -1.148324       -31.2475
  23   2.0000      -1.145120       -31.1603
  24   2.0000      -1.143284       -31.1103
  25   2.0000      -1.139814       -31.0159
  26   2.0000      -1.137319       -30.9480
  27   2.0000      -1.135843       -30.9079
  28   2.0000      -1.127435       -30.6791
  29   2.0000      -1.124962       -30.6118
  30   2.0000      -1.123313       -30.5669
  31   2.0000      -1.118441       -30.4343
  32   2.0000      -1.114752       -30.3339
  33   2.0000      -1.111984       -30.2586
  34   2.0000      -1.109658       -30.1953
  35   2.0000      -1.106097       -30.0984
  36   2.0000      -1.104811       -30.0634
  37   2.0000      -1.098103       -29.8809
  38   2.0000      -1.094596       -29.7855
  39   2.0000      -1.092594       -29.7310
  40   2.0000      -0.672405       -18.2971
  41   2.0000      -0.665186       -18.1006
  42   2.0000      -0.658025       -17.9058
  43   2.0000      -0.656634       -17.8679
  44   2.0000      -0.653688       -17.7878
  45   2.0000      -0.652748       -17.7622
  46   2.0000      -0.650144       -17.6913
  47   2.0000      -0.648581       -17.6488
  48   2.0000      -0.646453       -17.5909
  49   2.0000      -0.644166       -17.5286
  50   2.0000      -0.640516       -17.4293
  51   2.0000      -0.637248       -17.3404
  52   2.0000      -0.635077       -17.2813
  53   2.0000      -0.632814       -17.2197
  54   2.0000      -0.626267       -17.0416
  55   2.0000      -0.624549       -16.9948
  56   2.0000      -0.619760       -16.8645
  57   2.0000      -0.616659       -16.7801
  58   2.0000      -0.614532       -16.7223
  59   2.0000      -0.609323       -16.5805
  60   2.0000      -0.568858       -15.4794
  61   2.0000      -0.563921       -15.3451
  62   2.0000      -0.556045       -15.1308
  63   2.0000      -0.547808       -14.9066
  64   2.0000      -0.545432       -14.8420
  65   2.0000      -0.541978       -14.7480
  66   2.0000      -0.523537       -14.2462
  67   2.0000      -0.523117       -14.2347
  68   2.0000      -0.513023       -13.9601
  69   2.0000      -0.505311       -13.7502
  70   2.0000      -0.503512       -13.7013
  71   2.0000      -0.493107       -13.4181
  72   2.0000      -0.490843       -13.3565
  73   2.0000      -0.488181       -13.2841
  74   2.0000      -0.481991       -13.1156
  75   2.0000      -0.480650       -13.0792
  76   2.0000      -0.472662       -12.8618
  77   2.0000      -0.468869       -12.7586
  78   2.0000      -0.464509       -12.6399
  79   2.0000      -0.448078       -12.1928
  80   2.0000      -0.445653       -12.1268
  81   2.0000      -0.435058       -11.8385
  82   2.0000      -0.433562       -11.7978
  83   2.0000      -0.431447       -11.7403
  84   2.0000      -0.430969       -11.7273
  85   2.0000      -0.428921       -11.6715
  86   2.0000      -0.428536       -11.6611
  87   2.0000      -0.426389       -11.6026
  88   2.0000      -0.425529       -11.5792
  89   2.0000      -0.423466       -11.5231
  90   2.0000      -0.422521       -11.4974
  91   2.0000      -0.421200       -11.4614
  92   2.0000      -0.416340       -11.3292
  93   2.0000      -0.412211       -11.2168
  94   2.0000      -0.410118       -11.1599
  95   2.0000      -0.406945       -11.0735
  96   2.0000      -0.406270       -11.0552
  97   2.0000      -0.401395       -10.9225
  98   2.0000      -0.399781       -10.8786
  99   2.0000      -0.396208       -10.7814
 100   0.0000       0.072257         1.9662
 101   0.0000       0.095346         2.5945
 102   0.0000       0.105625         2.8742
 103   0.0000       0.108868         2.9625
 104   0.0000       0.123636         3.3643

MULLIKEN ATOMIC CHARGES
-----------------------
   0 O :   -0.703470
   1 H :    0.389226
   2 H :    0.360757
   3 O :   -0.750020
   4 H :    0.380879
   5 H :    0.381913
   6 O :   -0.754927
   7 H :    0.376786
   8 H :    0.353362
   9 O :   -0.726864
  10 H :    0.386624
  11 H :    0.366542
  12 O :   -0.702126
  13 H :    0.349571
  14 H :    0.353291
  15 O :   -0.698641
  16 H :    0.355603
  17 H :    0.350828
  18 O :   -0.703572
  19 H :    0.390320
  20 H :    0.361747
  21 O :   -0.762154
  22 H :    0.375073
  23 H :    0.382551
  24 O :   -0.728219
  25 H :    0.363051
  26 H :    0.385622
  27 O :   -0.735962
  28 H :    0.356098
  29 H :    0.382174
  30 O :   -0.763322
  31 H :    0.393500
  32 H :    0.356314
  33 O :   -0.757120
  34 H :    0.349447
  35 H :    0.349539
  36 O :   -0.757292
  37 H :    0.382753
  38 H :    0.383065
  39 O :   -0.706853
  40 H :    0.360291
  41 H :    0.353177
  42 O :   -0.836725
  43 H :    0.416121
  44 H :    0.344142
  45 O :   -0.753490
  46 H :    0.354727
  47 H :    0.375441
  48 O :   -0.702114
  49 H :    0.388365
  50 H :    0.367312
  51 O :   -0.739237
  52 H :    0.351676
  53 H :    0.385106
  54 O :   -0.754000
  55 H :    0.383697
  56 H :    0.356218
  57 O :   -0.763715
  58 H :    0.394112
  59 H :    0.352801
Sum of atomic charges:   -0.0000000

LOEWDIN ATOMIC CHARGES
----------------------
   0 O :   -0.271763
   1 H :    0.142891
   2 H :    0.138758
   3 O :   -0.278510
   4 H :    0.136591
   5 H :    0.138419
   6 O :   -0.301732
   7 H :    0.141236
   8 H :    0.160103
   9 O :   -0.274589
  10 H :    0.142649
  11 H :    0.136291
  12 O :   -0.291776
  13 H :    0.139403
  14 H :    0.140824
  15 O :   -0.290745
  16 H :    0.137939
  17 H :    0.138441
  18 O :   -0.272113
  19 H :    0.143950
  20 H :    0.140941
  21 O :   -0.277579
  22 H :    0.139068
  23 H :    0.133950
  24 O :   -0.278041
  25 H :    0.137752
  26 H :    0.142898
  27 O :   -0.281063
  28 H :    0.163861
  29 H :    0.145993
  30 O :   -0.294422
  31 H :    0.135456
  32 H :    0.160581
  33 O :   -0.272489
  34 H :    0.132380
  35 H :    0.127369
  36 O :   -0.281387
  37 H :    0.138290
  38 H :    0.142984
  39 O :   -0.283974
  40 H :    0.139137
  41 H :    0.136813
  42 O :   -0.319857
  43 H :    0.142475
  44 H :    0.122632
  45 O :   -0.296770
  46 H :    0.160547
  47 H :    0.139054
  48 O :   -0.261449
  49 H :    0.149878
  50 H :    0.145501
  51 O :   -0.291711
  52 H :    0.161360
  53 H :    0.140060
  54 O :   -0.292723
  55 H :    0.138119
  56 H :    0.161554
  57 O :   -0.298680
  58 H :    0.136708
  59 H :    0.158519

  Mayer bond orders larger than 0.1
B(  0-O ,  1-H ) :   0.8170 B(  0-O ,  2-H ) :   0.8225 B(  0-O , 47-H ) :   0.1966
B(  3-O ,  4-H ) :   0.7824 B(  3-O ,  5-H ) :   0.7916 B(  3-O , 35-H ) :   0.1936
B(  4-H , 30-O ) :   0.1184 B(  5-H , 45-O ) :   0.1085 B(  6-O ,  7-H ) :   0.7298
B(  6-O ,  8-H ) :   0.8810 B(  6-O , 38-H ) :   0.1011 B(  7-H , 18-O ) :   0.1783
B(  9-O , 10-H ) :   0.7703 B(  9-O , 11-H ) :   0.8327 B(  9-O , 31-H ) :   0.1932
B( 10-H , 12-O ) :   0.1272 B( 12-O , 13-H ) :   0.8374 B( 12-O , 14-H ) :   0.8438
B( 15-O , 16-H ) :   0.8414 B( 15-O , 17-H ) :   0.8471 B( 15-O , 26-H ) :   0.1228
B( 18-O , 19-H ) :   0.8174 B( 18-O , 20-H ) :   0.8366 B( 21-O , 22-H ) :   0.8042
B( 21-O , 23-H ) :   0.7751 B( 21-O , 53-H ) :   0.1167 B( 23-H , 33-O ) :   0.1025
B( 24-O , 25-H ) :   0.8275 B( 24-O , 26-H ) :   0.7770 B( 24-O , 58-H ) :   0.1839
B( 27-O , 28-H ) :   0.8798 B( 27-O , 29-H ) :   0.7700 B( 29-H , 54-O ) :   0.1258
B( 30-O , 31-H ) :   0.7010 B( 30-O , 32-H ) :   0.8800 B( 33-O , 34-H ) :   0.7674
B( 33-O , 35-H ) :   0.7506 B( 33-O , 44-H ) :   0.1173 B( 34-H , 36-O ) :   0.1610
B( 36-O , 37-H ) :   0.7797 B( 36-O , 38-H ) :   0.7967 B( 37-H , 57-O ) :   0.1223
B( 39-O , 40-H ) :   0.8264 B( 39-O , 41-H ) :   0.8354 B( 39-O , 43-H ) :   0.1429
B( 42-O , 43-H ) :   0.7384 B( 42-O , 44-H ) :   0.7746 B( 45-O , 46-H ) :   0.8812
B( 45-O , 47-H ) :   0.7167 B( 48-O , 49-H ) :   0.8271 B( 48-O , 50-H ) :   0.8156
B( 48-O , 55-H ) :   0.1903 B( 51-O , 52-H ) :   0.8818 B( 51-O , 53-H ) :   0.7675
B( 54-O , 55-H ) :   0.7125 B( 54-O , 56-H ) :   0.8801 B( 57-O , 58-H ) :   0.7085
B( 57-O , 59-H ) :   0.8813

Dispersion correction           -0.041331313
FINAL SINGLE POINT ENERGY     -1529.157306097831

DIPOLE MOMENT
-------------
                                X             Y             Z
Electronic contribution:      0.03528       0.20215      -0.00626
Nuclear contribution   :     -0.02263       0.18830       1.25637
                        -----------------------------------------
Total Dipole Moment    :      0.01265       0.39045       1.25011
                        -----------------------------------------
Magnitude (a.u.)       :      1.30973
Magnitude (Debye)      :      3.32907

                             ****ORCA TERMINATED NORMALLY****
TOTAL RUN TIME: 0 days 0 hours 2 minutes 53 seconds 145 msec
