                         Program Version 3.0.3 - RELEASE   -
|  1> ! B3LYP Def2-TZVP def2-TZVP/J RIJCOSX TightSCF Grid4 D3BJ
|  2>
|  3> %pal nprocs 12 end
|  4>
|  5> %scf
|  6>         maxiter 400
|  7> end
|  8>
|  9> * xyz  0  1
| 10> O  1.634229	-2.591927	2.215864
| 11> H  1.120775	-2.859767	1.401502
| 12> H  0.979530	-2.091298	2.779809
| 13> O  2.583728	0.263933	-0.496517
| 14> H  2.514829	1.272150	-0.429770
| 15> H  3.046057	-0.098151	0.323547
| 16> O  1.151428	-3.001516	-2.552452
| 17> H  1.575141	-2.054950	-2.734158
| 18> H  1.712863	-3.650860	-3.012825
| 19> O  1.158358	3.018337	1.937672
| 20> H  1.476663	2.225924	2.505456
| 21> H  0.165332	3.005897	1.982837
| 22> O  2.000654	1.001483	3.363536
| 23> H  2.611593	0.416059	2.837992
| 24> H  1.276120	0.372872	3.622655
| 25> O  -3.210371	0.894350	-1.604123
| 26> H  -2.376857	0.661976	-2.091245
| 27> H  -2.985289	1.782509	-1.221680
| 28> O  1.986922	-0.640694	-2.947194
| 29> H  2.368953	-0.323880	-2.077087
| 30> H  1.099098	-0.187738	-2.969553
| 31> O  -1.504085	0.167988	1.887947
| 32> H  -1.611926	1.163615	1.956852
| 33> H  -0.842609	0.037256	1.117323
| 34> O  -3.401870	-0.944221	0.255880
| 35> H  -2.809833	-0.569581	0.965463
| 36> H  -3.395540	-0.218344	-0.462994
| 37> O  -1.572278	2.848356	1.831452
| 38> H  -2.156687	3.372648	2.408613
| 39> H  -1.836337	3.082612	0.863374
| 40> O  1.940867	2.790868	-0.403854
| 41> H  1.588780	2.908592	0.619420
| 42> H  2.586664	3.507298	-0.549040
| 43> O  0.094597	-0.387419	-0.056595
| 44> H  0.156416	-1.409261	-0.038805
| 45> H  1.069035	-0.095269	-0.137116
| 46> O  0.233809	-2.993957	-0.069333
| 47> H  -0.753506	-3.137649	-0.245173
| 48> H  0.672546	-3.124176	-0.967774
| 49> O  -1.365681	-2.154542	-3.214815
| 50> H  -1.826472	-2.464950	-2.381432
| 51> H  -0.482386	-2.608767	-3.148187
| 52> O  -0.645561	0.217915	-2.530957
| 53> H  -0.974428	-0.695532	-2.908610
| 54> H  -0.442894	-0.000339	-1.564574
| 55> O  3.349780	-0.785543	1.782081
| 56> H  4.226625	-1.126184	2.036221
| 57> H  2.672341	-1.584557	1.933003
| 58> O  -0.155356	2.850637	-2.083962
| 59> H  -0.288142	1.924302	-2.429965
| 60> H  0.669205	2.824601	-1.506897
| 61> O  0.044566	-0.906494	3.638448
| 62> H  -0.439724	-1.173271	4.440632
| 63> H  -0.652885	-0.487744	3.006615
| 64> O  -2.149202	3.253625	-0.639915
| 65> H  -1.272794	3.118449	-1.255458
| 66> H  -2.558366	4.082127	-0.951166
| 67> O  -2.290513	-2.930030	-0.773754
| 68> H  -2.775653	-2.081835	-0.311909
| 69> H  -2.941656	-3.654791	-0.742939
| 70> **                         ****END OF INPUT****

CARTESIAN COORDINATES (ANGSTROEM)
---------------------------------
  O      1.634229   -2.591927    2.215864
  H      1.120775   -2.859767    1.401502
  H      0.979530   -2.091298    2.779809
  O      2.583728    0.263933   -0.496517
  H      2.514829    1.272150   -0.429770
  H      3.046057   -0.098151    0.323547
  O      1.151428   -3.001516   -2.552452
  H      1.575141   -2.054950   -2.734158
  H      1.712863   -3.650860   -3.012825
  O      1.158358    3.018337    1.937672
  H      1.476663    2.225924    2.505456
  H      0.165332    3.005897    1.982837
  O      2.000654    1.001483    3.363536
  H      2.611593    0.416059    2.837992
  H      1.276120    0.372872    3.622655
  O     -3.210371    0.894350   -1.604123
  H     -2.376857    0.661976   -2.091245
  H     -2.985289    1.782509   -1.221680
  O      1.986922   -0.640694   -2.947194
  H      2.368953   -0.323880   -2.077087
  H      1.099098   -0.187738   -2.969553
  O     -1.504085    0.167988    1.887947
  H     -1.611926    1.163615    1.956852
  H     -0.842609    0.037256    1.117323
  O     -3.401870   -0.944221    0.255880
  H     -2.809833   -0.569581    0.965463
  H     -3.395540   -0.218344   -0.462994
  O     -1.572278    2.848356    1.831452
  H     -2.156687    3.372648    2.408613
  H     -1.836337    3.082612    0.863374
  O      1.940867    2.790868   -0.403854
  H      1.588780    2.908592    0.619420
  H      2.586664    3.507298   -0.549040
  O      0.094597   -0.387419   -0.056595
  H      0.156416   -1.409261   -0.038805
  H      1.069035   -0.095269   -0.137116
  O      0.233809   -2.993957   -0.069333
  H     -0.753506   -3.137649   -0.245173
  H      0.672546   -3.124176   -0.967774
  O     -1.365681   -2.154542   -3.214815
  H     -1.826472   -2.464950   -2.381432
  H     -0.482386   -2.608767   -3.148187
  O     -0.645561    0.217915   -2.530957
  H     -0.974428   -0.695532   -2.908610
  H     -0.442894   -0.000339   -1.564574
  O      3.349780   -0.785543    1.782081
  H      4.226625   -1.126184    2.036221
  H      2.672341   -1.584557    1.933003
  O     -0.155356    2.850637   -2.083962
  H     -0.288142    1.924302   -2.429965
  H      0.669205    2.824601   -1.506897
  O      0.044566   -0.906494    3.638448
  H     -0.439724   -1.173271    4.440632
  H     -0.652885   -0.487744    3.006615
  O     -2.149202    3.253625   -0.639915
  H     -1.272794    3.118449   -1.255458
  H     -2.558366    4.082127   -0.951166
  O     -2.290513   -2.930030   -0.773754
  H     -2.775653   -2.081835   -0.311909
  H     -2.941656   -3.654791   -0.742939

 Total Charge           Charge          ....    0
 Multiplicity           Mult            ....    1
 Number of Electrons    NEL             ....  200
 Basis Dimension        Dim             ....  860

ORBITAL ENERGIES
----------------

  NO   OCC          E(Eh)            E(eV)
   0   2.0000     -19.155612      -521.2507
   1   2.0000     -19.144717      -520.9542
   2   2.0000     -19.144688      -520.9534
   3   2.0000     -19.138641      -520.7889
   4   2.0000     -19.137804      -520.7661
   5   2.0000     -19.135868      -520.7134
   6   2.0000     -19.130699      -520.5728
   7   2.0000     -19.130009      -520.5540
   8   2.0000     -19.129304      -520.5348
   9   2.0000     -19.128651      -520.5171
  10   2.0000     -19.128233      -520.5057
  11   2.0000     -19.127237      -520.4786
  12   2.0000     -19.122803      -520.3579
  13   2.0000     -19.122591      -520.3521
  14   2.0000     -19.118057      -520.2288
  15   2.0000     -19.117822      -520.2224
  16   2.0000     -19.112436      -520.0758
  17   2.0000     -19.111310      -520.0452
  18   2.0000     -19.109963      -520.0085
  19   2.0000     -19.109890      -520.0065
  20   2.0000      -1.043684       -28.4001
  21   2.0000      -1.036359       -28.2008
  22   2.0000      -1.030533       -28.0422
  23   2.0000      -1.026378       -27.9292
  24   2.0000      -1.023340       -27.8465
  25   2.0000      -1.020261       -27.7627
  26   2.0000      -1.018493       -27.7146
  27   2.0000      -1.014629       -27.6095
  28   2.0000      -1.009478       -27.4693
  29   2.0000      -1.004539       -27.3349
  30   2.0000      -1.001321       -27.2473
  31   2.0000      -0.999843       -27.2071
  32   2.0000      -0.996334       -27.1116
  33   2.0000      -0.994541       -27.0628
  34   2.0000      -0.990635       -26.9566
  35   2.0000      -0.984754       -26.7965
  36   2.0000      -0.981955       -26.7203
  37   2.0000      -0.977639       -26.6029
  38   2.0000      -0.971832       -26.4449
  39   2.0000      -0.970978       -26.4217
  40   2.0000      -0.565054       -15.3759
  41   2.0000      -0.555363       -15.1122
  42   2.0000      -0.553075       -15.0499
  43   2.0000      -0.547744       -14.9049
  44   2.0000      -0.545701       -14.8493
  45   2.0000      -0.545391       -14.8408
  46   2.0000      -0.542804       -14.7704
  47   2.0000      -0.540839       -14.7170
  48   2.0000      -0.537450       -14.6248
  49   2.0000      -0.535977       -14.5847
  50   2.0000      -0.530196       -14.4274
  51   2.0000      -0.528120       -14.3709
  52   2.0000      -0.527143       -14.3443
  53   2.0000      -0.523683       -14.2501
  54   2.0000      -0.521341       -14.1864
  55   2.0000      -0.515948       -14.0397
  56   2.0000      -0.513917       -13.9844
  57   2.0000      -0.512293       -13.9402
  58   2.0000      -0.509579       -13.8664
  59   2.0000      -0.504929       -13.7398
  60   2.0000      -0.472126       -12.8472
  61   2.0000      -0.467923       -12.7328
  62   2.0000      -0.457626       -12.4526
  63   2.0000      -0.452521       -12.3137
  64   2.0000      -0.447383       -12.1739
  65   2.0000      -0.443956       -12.0806
  66   2.0000      -0.425383       -11.5753
  67   2.0000      -0.424416       -11.5490
  68   2.0000      -0.412159       -11.2154
  69   2.0000      -0.406723       -11.0675
  70   2.0000      -0.405482       -11.0337
  71   2.0000      -0.394191       -10.7265
  72   2.0000      -0.390539       -10.6271
  73   2.0000      -0.389680       -10.6037
  74   2.0000      -0.384033       -10.4501
  75   2.0000      -0.381489       -10.3808
  76   2.0000      -0.373918       -10.1748
  77   2.0000      -0.369603       -10.0574
  78   2.0000      -0.366339        -9.9686
  79   2.0000      -0.348616        -9.4863
  80   2.0000      -0.344582        -9.3766
  81   2.0000      -0.335060        -9.1174
  82   2.0000      -0.333200        -9.0668
  83   2.0000      -0.331281        -9.0146
  84   2.0000      -0.330167        -8.9843
  85   2.0000      -0.328715        -8.9448
  86   2.0000      -0.327725        -8.9178
  87   2.0000      -0.325424        -8.8552
  88   2.0000      -0.324171        -8.8211
  89   2.0000      -0.323803        -8.8111
  90   2.0000      -0.322503        -8.7757
  91   2.0000      -0.320521        -8.7218
  92   2.0000      -0.317874        -8.6498
  93   2.0000      -0.314670        -8.5626
  94   2.0000      -0.314289        -8.5522
  95   2.0000      -0.310313        -8.4440
  96   2.0000      -0.306392        -8.3374
  97   2.0000      -0.303411        -8.2562
  98   2.0000      -0.301834        -8.2133
  99   2.0000      -0.298803        -8.1309
 100   0.0000      -0.010976        -0.2987
 101   0.0000       0.008824         0.2401
 102   0.0000       0.018662         0.5078
 103   0.0000       0.022634         0.6159
 104   0.0000       0.034232         0.9315

MULLIKEN ATOMIC CHARGES
-----------------------
   0 O :   -0.691187
   1 H :    0.392745
   2 H :    0.358268
   3 O :   -0.761313
   4 H :    0.374563
   5 H :    0.382160
   6 O :   -0.743853
   7 H :    0.373212
   8 H :    0.334716
   9 O :   -0.699509
  10 H :    0.393438
  11 H :    0.359764
  12 O :   -0.708336
  13 H :    0.357624
  14 H :    0.352797
  15 O :   -0.698917
  16 H :    0.355662
  17 H :    0.352155
  18 O :   -0.685524
  19 H :    0.386788
  20 H :    0.359742
  21 O :   -0.770406
  22 H :    0.376173
  23 H :    0.398694
  24 O :   -0.701718
  25 H :    0.369065
  26 H :    0.387421
  27 O :   -0.723993
  28 H :    0.337722
  29 H :    0.382266
  30 O :   -0.760263
  31 H :    0.380683
  32 H :    0.338332
  33 O :   -0.793099
  34 H :    0.364050
  35 H :    0.366983
  36 O :   -0.753613
  37 H :    0.378662
  38 H :    0.380870
  39 O :   -0.688457
  40 H :    0.353475
  41 H :    0.346761
  42 O :   -0.858015
  43 H :    0.410414
  44 H :    0.371193
  45 O :   -0.743347
  46 H :    0.335359
  47 H :    0.376757
  48 O :   -0.684776
  49 H :    0.394050
  50 H :    0.372152
  51 O :   -0.729631
  52 H :    0.334420
  53 H :    0.384214
  54 O :   -0.746888
  55 H :    0.377266
  56 H :    0.337875
  57 O :   -0.759823
  58 H :    0.379525
  59 H :    0.334652
Sum of atomic charges:   -0.0000000

LOEWDIN ATOMIC CHARGES
----------------------
   0 O :   -0.265722
   1 H :    0.150862
   2 H :    0.145415
   3 O :   -0.288055
   4 H :    0.139027
   5 H :    0.141434
   6 O :   -0.313193
   7 H :    0.141386
   8 H :    0.159266
   9 O :   -0.257141
  10 H :    0.148563
  11 H :    0.142268
  12 O :   -0.297974
  13 H :    0.143709
  14 H :    0.143249
  15 O :   -0.293233
  16 H :    0.144772
  17 H :    0.142587
  18 O :   -0.264027
  19 H :    0.148409
  20 H :    0.148367
  21 O :   -0.285652
  22 H :    0.142969
  23 H :    0.135458
  24 O :   -0.264226
  25 H :    0.143378
  26 H :    0.146822
  27 O :   -0.288598
  28 H :    0.163410
  29 H :    0.143827
  30 O :   -0.317480
  31 H :    0.135189
  32 H :    0.158005
  33 O :   -0.287810
  34 H :    0.134231
  35 H :    0.133714
  36 O :   -0.287632
  37 H :    0.143662
  38 H :    0.143585
  39 O :   -0.281649
  40 H :    0.143107
  41 H :    0.142355
  42 O :   -0.342346
  43 H :    0.142907
  44 H :    0.125738
  45 O :   -0.308868
  46 H :    0.159347
  47 H :    0.142680
  48 O :   -0.243704
  49 H :    0.153744
  50 H :    0.146858
  51 O :   -0.300563
  52 H :    0.161560
  53 H :    0.142330
  54 O :   -0.305500
  55 H :    0.139273
  56 H :    0.159240
  57 O :   -0.325368
  58 H :    0.139367
  59 H :    0.156668

  Mayer bond orders larger than 0.1
B(  0-O ,  1-H ) :   0.8013 B(  0-O ,  2-H ) :   0.8088 B(  0-O , 47-H ) :   0.2395
B(  2-H , 51-O ) :   0.1070 B(  3-O ,  4-H ) :   0.7518 B(  3-O ,  5-H ) :   0.7612
B(  3-O , 35-H ) :   0.2048 B(  4-H , 30-O ) :   0.1548 B(  5-H , 45-O ) :   0.1383
B(  6-O ,  7-H ) :   0.6812 B(  6-O ,  8-H ) :   0.8864 B(  6-O , 38-H ) :   0.1319
B(  6-O , 41-H ) :   0.1036 B(  7-H , 18-O ) :   0.2313 B(  9-O , 10-H ) :   0.7338
B(  9-O , 11-H ) :   0.8150 B(  9-O , 31-H ) :   0.2910 B( 10-H , 12-O ) :   0.1609
B( 12-O , 13-H ) :   0.8166 B( 12-O , 14-H ) :   0.8241 B( 13-H , 45-O ) :   0.1035
B( 15-O , 16-H ) :   0.8288 B( 15-O , 17-H ) :   0.8277 B( 15-O , 26-H ) :   0.1482
B( 18-O , 19-H ) :   0.7986 B( 18-O , 20-H ) :   0.8244 B( 21-O , 22-H ) :   0.7796
B( 21-O , 23-H ) :   0.7431 B( 21-O , 53-H ) :   0.1622 B( 22-H , 27-O ) :   0.1222
B( 23-H , 33-O ) :   0.1226 B( 24-O , 25-H ) :   0.8161 B( 24-O , 26-H ) :   0.7515
B( 24-O , 58-H ) :   0.2813 B( 27-O , 28-H ) :   0.8863 B( 27-O , 29-H ) :   0.7200
B( 29-H , 54-O ) :   0.1759 B( 30-O , 31-H ) :   0.6219 B( 30-O , 32-H ) :   0.8863
B( 30-O , 50-H ) :   0.1246 B( 33-O , 34-H ) :   0.7207 B( 33-O , 35-H ) :   0.7210
B( 33-O , 44-H ) :   0.1095 B( 34-H , 36-O ) :   0.2044 B( 36-O , 37-H ) :   0.7596
B( 36-O , 38-H ) :   0.7702 B( 37-H , 57-O ) :   0.1500 B( 39-O , 40-H ) :   0.8067
B( 39-O , 41-H ) :   0.8254 B( 39-O , 43-H ) :   0.2024 B( 40-H , 57-O ) :   0.1208
B( 42-O , 43-H ) :   0.6906 B( 42-O , 44-H ) :   0.7542 B( 45-O , 46-H ) :   0.8872
B( 45-O , 47-H ) :   0.6736 B( 48-O , 49-H ) :   0.8031 B( 48-O , 50-H ) :   0.7813
B( 48-O , 55-H ) :   0.2775 B( 51-O , 52-H ) :   0.8870 B( 51-O , 53-H ) :   0.7267
B( 54-O , 55-H ) :   0.6375 B( 54-O , 56-H ) :   0.8861 B( 57-O , 58-H ) :   0.6336
B( 57-O , 59-H ) :   0.8882

Dispersion correction           -0.078791909
FINAL SINGLE POINT ENERGY     -1528.908776659616

DIPOLE MOMENT
-------------
                                X             Y             Z
Electronic contribution:     -0.00580       0.21227      -0.02766
Nuclear contribution   :      0.33006       0.09796       1.31857
                        -----------------------------------------
Total Dipole Moment    :      0.32427       0.31024       1.29091
                        -----------------------------------------
Magnitude (a.u.)       :      1.36670
Magnitude (Debye)      :      3.47386

                             ****ORCA TERMINATED NORMALLY****
TOTAL RUN TIME: 0 days 0 hours 2 minutes 43 seconds 534 msec
