                         Program Version 3.0.3 - RELEASE   -
|  1> ! wB97X-D3 Def2-TZVP def2-TZVP/J RIJCOSX TightSCF Grid4 COSMO
|  2>
|  3> %pal nprocs 12 end
|  4>
|  5> %scf
|  6>         maxiter 400
|  7> end
|  8>
|  9> %cosmo
| 10>         SMD true
| 11>         solvent "WATER"
| 12> end
| 13>
| 14> * xyz  0  1
| 15> O  1.607900	-2.608622	2.254672
| 16> H  1.097031	-2.838716	1.428354
| 17> H  0.968305	-2.055292	2.796400
| 18> O  2.602422	0.266801	-0.517914
| 19> H  2.480007	1.271212	-0.423467
| 20> H  3.024004	-0.088260	0.332294
| 21> O  1.119834	-2.980568	-2.542383
| 22> H  1.568421	-2.076142	-2.745100
| 23> H  1.665928	-3.663054	-2.979194
| 24> O  1.185537	3.057759	2.041718
| 25> H  1.495311	2.238982	2.564095
| 26> H  0.185915	2.997239	2.034674
| 27> O  2.046762	0.995020	3.445291
| 28> H  2.627098	0.418944	2.867606
| 29> H  1.287059	0.375594	3.644572
| 30> O  -3.222909	0.916904	-1.730807
| 31> H  -2.342493	0.657909	-2.121936
| 32> H  -3.000955	1.792903	-1.300597
| 33> O  1.991007	-0.575442	-2.979708
| 34> H  2.354543	-0.300925	-2.085382
| 35> H  1.080034	-0.172738	-2.970369
| 36> O  -1.523499	0.156448	1.835619
| 37> H  -1.587189	1.164242	1.918961
| 38> H  -0.849283	0.015043	1.085902
| 39> O  -3.463620	-0.837920	0.234183
| 40> H  -2.817022	-0.480233	0.913336
| 41> H  -3.409143	-0.154682	-0.518563
| 42> O  -1.488866	2.792454	1.840531
| 43> H  -2.085543	3.273494	2.447355
| 44> H  -1.799844	3.028813	0.896138
| 45> O  1.895039	2.767972	-0.371939
| 46> H  1.604518	2.915676	0.631714
| 47> H  2.573150	3.449536	-0.552466
| 48> O  0.125003	-0.425707	-0.085574
| 49> H  0.188734	-1.444567	-0.033813
| 50> H  1.099106	-0.128613	-0.175773
| 51> O  0.230997	-3.039771	-0.051348
| 52> H  -0.761619	-3.110882	-0.239234
| 53> H  0.661068	-3.129659	-0.960769
| 54> O  -1.374559	-2.224473	-3.246690
| 55> H  -1.821462	-2.495121	-2.386235
| 56> H  -0.466620	-2.635171	-3.141942
| 57> O  -0.678088	0.165516	-2.521235
| 58> H  -0.986181	-0.748254	-2.897449
| 59> H  -0.436991	-0.050907	-1.557820
| 60> O  3.313841	-0.734765	1.785453
| 61> H  4.213055	-1.055759	1.994595
| 62> H  2.681129	-1.543118	1.942783
| 63> O  -0.126779	2.852570	-2.120743
| 64> H  -0.262300	1.916388	-2.420943
| 65> H  0.656709	2.819739	-1.485474
| 66> O  0.082073	-0.858236	3.615364
| 67> H  -0.389845	-1.124474	4.428797
| 68> H  -0.633140	-0.474512	2.995420
| 69> O  -2.198288	3.170251	-0.629597
| 70> H  -1.349758	3.113872	-1.227731
| 71> H  -2.609651	4.029942	-0.849797
| 72> O  -2.286867	-2.860577	-0.797965
| 73> H  -2.787448	-2.054792	-0.353487
| 74> H  -2.902977	-3.618130	-0.750014
| 75> **                         ****END OF INPUT****

CARTESIAN COORDINATES (ANGSTROEM)
---------------------------------
  O      1.607900   -2.608622    2.254672
  H      1.097031   -2.838716    1.428354
  H      0.968305   -2.055292    2.796400
  O      2.602422    0.266801   -0.517914
  H      2.480007    1.271212   -0.423467
  H      3.024004   -0.088260    0.332294
  O      1.119834   -2.980568   -2.542383
  H      1.568421   -2.076142   -2.745100
  H      1.665928   -3.663054   -2.979194
  O      1.185537    3.057759    2.041718
  H      1.495311    2.238982    2.564095
  H      0.185915    2.997239    2.034674
  O      2.046762    0.995020    3.445291
  H      2.627098    0.418944    2.867606
  H      1.287059    0.375594    3.644572
  O     -3.222909    0.916904   -1.730807
  H     -2.342493    0.657909   -2.121936
  H     -3.000955    1.792903   -1.300597
  O      1.991007   -0.575442   -2.979708
  H      2.354543   -0.300925   -2.085382
  H      1.080034   -0.172738   -2.970369
  O     -1.523499    0.156448    1.835619
  H     -1.587189    1.164242    1.918961
  H     -0.849283    0.015043    1.085902
  O     -3.463620   -0.837920    0.234183
  H     -2.817022   -0.480233    0.913336
  H     -3.409143   -0.154682   -0.518563
  O     -1.488866    2.792454    1.840531
  H     -2.085543    3.273494    2.447355
  H     -1.799844    3.028813    0.896138
  O      1.895039    2.767972   -0.371939
  H      1.604518    2.915676    0.631714
  H      2.573150    3.449536   -0.552466
  O      0.125003   -0.425707   -0.085574
  H      0.188734   -1.444567   -0.033813
  H      1.099106   -0.128613   -0.175773
  O      0.230997   -3.039771   -0.051348
  H     -0.761619   -3.110882   -0.239234
  H      0.661068   -3.129659   -0.960769
  O     -1.374559   -2.224473   -3.246690
  H     -1.821462   -2.495121   -2.386235
  H     -0.466620   -2.635171   -3.141942
  O     -0.678088    0.165516   -2.521235
  H     -0.986181   -0.748254   -2.897449
  H     -0.436991   -0.050907   -1.557820
  O      3.313841   -0.734765    1.785453
  H      4.213055   -1.055759    1.994595
  H      2.681129   -1.543118    1.942783
  O     -0.126779    2.852570   -2.120743
  H     -0.262300    1.916388   -2.420943
  H      0.656709    2.819739   -1.485474
  O      0.082073   -0.858236    3.615364
  H     -0.389845   -1.124474    4.428797
  H     -0.633140   -0.474512    2.995420
  O     -2.198288    3.170251   -0.629597
  H     -1.349758    3.113872   -1.227731
  H     -2.609651    4.029942   -0.849797
  O     -2.286867   -2.860577   -0.797965
  H     -2.787448   -2.054792   -0.353487
  H     -2.902977   -3.618130   -0.750014

 Total Charge           Charge          ....    0
 Multiplicity           Mult            ....    1
 Number of Electrons    NEL             ....  200
 Basis Dimension        Dim             ....  860

ORBITAL ENERGIES
----------------

  NO   OCC          E(Eh)            E(eV)
   0   2.0000     -19.244238      -523.6624
   1   2.0000     -19.243286      -523.6364
   2   2.0000     -19.241353      -523.5838
   3   2.0000     -19.239860      -523.5432
   4   2.0000     -19.239576      -523.5355
   5   2.0000     -19.239269      -523.5271
   6   2.0000     -19.238384      -523.5031
   7   2.0000     -19.237614      -523.4821
   8   2.0000     -19.235879      -523.4349
   9   2.0000     -19.235036      -523.4119
  10   2.0000     -19.234691      -523.4026
  11   2.0000     -19.233560      -523.3718
  12   2.0000     -19.231653      -523.3199
  13   2.0000     -19.231264      -523.3093
  14   2.0000     -19.229350      -523.2572
  15   2.0000     -19.229032      -523.2486
  16   2.0000     -19.227731      -523.2132
  17   2.0000     -19.224620      -523.1285
  18   2.0000     -19.224053      -523.1131
  19   2.0000     -19.222731      -523.0771
  20   2.0000      -1.154764       -31.4227
  21   2.0000      -1.145408       -31.1681
  22   2.0000      -1.141238       -31.0547
  23   2.0000      -1.138559       -30.9818
  24   2.0000      -1.132544       -30.8181
  25   2.0000      -1.132239       -30.8098
  26   2.0000      -1.130089       -30.7513
  27   2.0000      -1.128534       -30.7090
  28   2.0000      -1.125919       -30.6378
  29   2.0000      -1.122338       -30.5404
  30   2.0000      -1.116859       -30.3913
  31   2.0000      -1.113148       -30.2903
  32   2.0000      -1.112825       -30.2815
  33   2.0000      -1.111425       -30.2434
  34   2.0000      -1.103117       -30.0173
  35   2.0000      -1.098467       -29.8908
  36   2.0000      -1.095847       -29.8195
  37   2.0000      -1.092190       -29.7200
  38   2.0000      -1.091217       -29.6935
  39   2.0000      -1.089289       -29.6411
  40   2.0000      -0.653788       -17.7905
  41   2.0000      -0.648875       -17.6568
  42   2.0000      -0.646173       -17.5833
  43   2.0000      -0.645147       -17.5553
  44   2.0000      -0.642620       -17.4866
  45   2.0000      -0.641965       -17.4688
  46   2.0000      -0.638039       -17.3619
  47   2.0000      -0.636463       -17.3190
  48   2.0000      -0.634315       -17.2606
  49   2.0000      -0.634103       -17.2548
  50   2.0000      -0.632968       -17.2239
  51   2.0000      -0.629275       -17.1234
  52   2.0000      -0.628185       -17.0938
  53   2.0000      -0.627778       -17.0827
  54   2.0000      -0.625961       -17.0333
  55   2.0000      -0.623475       -16.9656
  56   2.0000      -0.620931       -16.8964
  57   2.0000      -0.618886       -16.8407
  58   2.0000      -0.615933       -16.7604
  59   2.0000      -0.613956       -16.7066
  60   2.0000      -0.573838       -15.6149
  61   2.0000      -0.564984       -15.3740
  62   2.0000      -0.557953       -15.1827
  63   2.0000      -0.552207       -15.0263
  64   2.0000      -0.547148       -14.8886
  65   2.0000      -0.543056       -14.7773
  66   2.0000      -0.528800       -14.3894
  67   2.0000      -0.523873       -14.2553
  68   2.0000      -0.519186       -14.1278
  69   2.0000      -0.510002       -13.8779
  70   2.0000      -0.504510       -13.7284
  71   2.0000      -0.496429       -13.5085
  72   2.0000      -0.493669       -13.4334
  73   2.0000      -0.491952       -13.3867
  74   2.0000      -0.490059       -13.3352
  75   2.0000      -0.486358       -13.2345
  76   2.0000      -0.474419       -12.9096
  77   2.0000      -0.470171       -12.7940
  78   2.0000      -0.464474       -12.6390
  79   2.0000      -0.452808       -12.3215
  80   2.0000      -0.431018       -11.7286
  81   2.0000      -0.428912       -11.6713
  82   2.0000      -0.427454       -11.6316
  83   2.0000      -0.425680       -11.5834
  84   2.0000      -0.424923       -11.5627
  85   2.0000      -0.424515       -11.5516
  86   2.0000      -0.422745       -11.5035
  87   2.0000      -0.422013       -11.4836
  88   2.0000      -0.421451       -11.4683
  89   2.0000      -0.420525       -11.4431
  90   2.0000      -0.420079       -11.4309
  91   2.0000      -0.418737       -11.3944
  92   2.0000      -0.414704       -11.2847
  93   2.0000      -0.414319       -11.2742
  94   2.0000      -0.413466       -11.2510
  95   2.0000      -0.411430       -11.1956
  96   2.0000      -0.410854       -11.1799
  97   2.0000      -0.410415       -11.1680
  98   2.0000      -0.409762       -11.1502
  99   2.0000      -0.408704       -11.1214
 100   0.0000       0.081992         2.2311
 101   0.0000       0.116564         3.1719
 102   0.0000       0.120614         3.2821
 103   0.0000       0.128157         3.4873
 104   0.0000       0.148610         4.0439

MULLIKEN ATOMIC CHARGES
-----------------------
   0 O :   -0.757363
   1 H :    0.399732
   2 H :    0.376719
   3 O :   -0.791559
   4 H :    0.391662
   5 H :    0.401312
   6 O :   -0.782824
   7 H :    0.385744
   8 H :    0.411535
   9 O :   -0.766487
  10 H :    0.383401
  11 H :    0.381621
  12 O :   -0.778244
  13 H :    0.380590
  14 H :    0.377069
  15 O :   -0.768485
  16 H :    0.372250
  17 H :    0.385666
  18 O :   -0.759452
  19 H :    0.404656
  20 H :    0.377570
  21 O :   -0.795618
  22 H :    0.398393
  23 H :    0.381918
  24 O :   -0.777401
  25 H :    0.392469
  26 H :    0.384160
  27 O :   -0.764153
  28 H :    0.411706
  29 H :    0.390429
  30 O :   -0.783486
  31 H :    0.387504
  32 H :    0.409863
  33 O :   -0.776138
  34 H :    0.349906
  35 H :    0.357201
  36 O :   -0.780548
  37 H :    0.399041
  38 H :    0.400371
  39 O :   -0.765703
  40 H :    0.375782
  41 H :    0.377345
  42 O :   -0.871519
  43 H :    0.418809
  44 H :    0.355911
  45 O :   -0.779007
  46 H :    0.408777
  47 H :    0.383713
  48 O :   -0.751829
  49 H :    0.397472
  50 H :    0.383108
  51 O :   -0.775664
  52 H :    0.408233
  53 H :    0.395608
  54 O :   -0.772143
  55 H :    0.383843
  56 H :    0.411483
  57 O :   -0.789137
  58 H :    0.384512
  59 H :    0.409676
Sum of atomic charges:    0.0000000

LOEWDIN ATOMIC CHARGES
----------------------
   0 O :   -0.315851
   1 H :    0.149293
   2 H :    0.147158
   3 O :   -0.302288
   4 H :    0.142129
   5 H :    0.144140
   6 O :   -0.289247
   7 H :    0.150251
   8 H :    0.191923
   9 O :   -0.317543
  10 H :    0.145059
  11 H :    0.144489
  12 O :   -0.342609
  13 H :    0.146318
  14 H :    0.145822
  15 O :   -0.335415
  16 H :    0.143712
  17 H :    0.148637
  18 O :   -0.315177
  19 H :    0.149069
  20 H :    0.149065
  21 O :   -0.299985
  22 H :    0.145844
  23 H :    0.135559
  24 O :   -0.328165
  25 H :    0.144213
  26 H :    0.143275
  27 O :   -0.269392
  28 H :    0.194049
  29 H :    0.149254
  30 O :   -0.288509
  31 H :    0.143136
  32 H :    0.189231
  33 O :   -0.290516
  34 H :    0.136561
  35 H :    0.136032
  36 O :   -0.301830
  37 H :    0.147693
  38 H :    0.147147
  39 O :   -0.327669
  40 H :    0.145293
  41 H :    0.147293
  42 O :   -0.347738
  43 H :    0.143744
  44 H :    0.127830
  45 O :   -0.286879
  46 H :    0.190125
  47 H :    0.148723
  48 O :   -0.305896
  49 H :    0.151691
  50 H :    0.147512
  51 O :   -0.287899
  52 H :    0.191272
  53 H :    0.147858
  54 O :   -0.277649
  55 H :    0.148856
  56 H :    0.192445
  57 O :   -0.296313
  58 H :    0.146083
  59 H :    0.188783

  Mayer bond orders larger than 0.1
B(  0-O ,  1-H ) :   0.8010 B(  0-O ,  2-H ) :   0.7863 B(  0-O , 47-H ) :   0.1867
B(  2-H , 51-O ) :   0.1170 B(  3-O ,  4-H ) :   0.7397 B(  3-O ,  5-H ) :   0.7436
B(  3-O , 35-H ) :   0.2145 B(  4-H , 30-O ) :   0.1535 B(  5-H , 45-O ) :   0.1419
B(  6-O ,  7-H ) :   0.7285 B(  6-O ,  8-H ) :   0.8341 B(  6-O , 38-H ) :   0.1260
B(  6-O , 41-H ) :   0.1128 B(  7-H , 18-O ) :   0.1672 B(  9-O , 10-H ) :   0.7540
B(  9-O , 11-H ) :   0.7884 B(  9-O , 31-H ) :   0.2230 B( 10-H , 12-O ) :   0.1503
B( 11-H , 27-O ) :   0.1090 B( 12-O , 13-H ) :   0.7932 B( 12-O , 14-H ) :   0.7945
B( 13-H , 45-O ) :   0.1093 B( 14-H , 51-O ) :   0.1105 B( 15-O , 16-H ) :   0.8131
B( 15-O , 17-H ) :   0.7905 B( 15-O , 26-H ) :   0.1437 B( 17-H , 54-O ) :   0.1045
B( 18-O , 19-H ) :   0.7846 B( 18-O , 20-H ) :   0.8182 B( 21-O , 22-H ) :   0.7465
B( 21-O , 23-H ) :   0.7659 B( 21-O , 53-H ) :   0.1311 B( 22-H , 27-O ) :   0.1411
B( 23-H , 33-O ) :   0.1169 B( 24-O , 25-H ) :   0.7898 B( 24-O , 26-H ) :   0.7588
B( 24-O , 58-H ) :   0.2113 B( 27-O , 28-H ) :   0.8350 B( 27-O , 29-H ) :   0.7386
B( 29-H , 54-O ) :   0.1494 B( 30-O , 31-H ) :   0.6810 B( 30-O , 32-H ) :   0.8367
B( 30-O , 50-H ) :   0.1244 B( 33-O , 34-H ) :   0.7298 B( 33-O , 35-H ) :   0.7217
B( 33-O , 44-H ) :   0.1393 B( 34-H , 36-O ) :   0.2071 B( 36-O , 37-H ) :   0.7548
B( 36-O , 38-H ) :   0.7585 B( 37-H , 57-O ) :   0.1352 B( 39-O , 40-H ) :   0.7845
B( 39-O , 41-H ) :   0.7936 B( 39-O , 43-H ) :   0.1886 B( 40-H , 57-O ) :   0.1251
B( 42-O , 43-H ) :   0.6972 B( 42-O , 44-H ) :   0.7510 B( 45-O , 46-H ) :   0.8368
B( 45-O , 47-H ) :   0.7155 B( 48-O , 49-H ) :   0.8166 B( 48-O , 50-H ) :   0.7734
B( 48-O , 55-H ) :   0.1876 B( 51-O , 52-H ) :   0.8369 B( 51-O , 53-H ) :   0.7470
B( 54-O , 55-H ) :   0.7137 B( 54-O , 56-H ) :   0.8350 B( 57-O , 58-H ) :   0.6950
B( 57-O , 59-H ) :   0.8369

Dispersion correction           -0.042554583
FINAL SINGLE POINT ENERGY     -1529.190018044390

DIPOLE MOMENT
-------------
                                X             Y             Z
Electronic contribution:      0.13743       0.19093       0.38513
Nuclear contribution   :      0.44763       0.03687       1.52454
                        -----------------------------------------
Total Dipole Moment    :      0.58506       0.22781       1.90967
                        -----------------------------------------
Magnitude (a.u.)       :      2.01023
Magnitude (Debye)      :      5.10961

                             ****ORCA TERMINATED NORMALLY****
TOTAL RUN TIME: 0 days 0 hours 3 minutes 5 seconds 989 msec
