                         Program Version 3.0.3 - RELEASE   -
|  1> ! wB97X-D3 Def2-TZVP def2-TZVP/J RIJCOSX TightSCF Grid4
|  2>
|  3> %pal nprocs 12 end
|  4>
|  5> %scf
|  6>         maxiter 400
|  7> end
|  8>
|  9> * xyz  0  1
| 10> O  1.634229	-2.591927	2.215864
| 11> H  1.120775	-2.859767	1.401502
| 12> H  0.979530	-2.091298	2.779809
| 13> O  2.583728	0.263933	-0.496517
| 14> H  2.514829	1.272150	-0.429770
| 15> H  3.046057	-0.098151	0.323547
| 16> O  1.151428	-3.001516	-2.552452
| 17> H  1.575141	-2.054950	-2.734158
| 18> H  1.712863	-3.650860	-3.012825
| 19> O  1.158358	3.018337	1.937672
| 20> H  1.476663	2.225924	2.505456
| 21> H  0.165332	3.005897	1.982837
| 22> O  2.000654	1.001483	3.363536
| 23> H  2.611593	0.416059	2.837992
| 24> H  1.276120	0.372872	3.622655
| 25> O  -3.210371	0.894350	-1.604123
| 26> H  -2.376857	0.661976	-2.091245
| 27> H  -2.985289	1.782509	-1.221680
| 28> O  1.986922	-0.640694	-2.947194
| 29> H  2.368953	-0.323880	-2.077087
| 30> H  1.099098	-0.187738	-2.969553
| 31> O  -1.504085	0.167988	1.887947
| 32> H  -1.611926	1.163615	1.956852
| 33> H  -0.842609	0.037256	1.117323
| 34> O  -3.401870	-0.944221	0.255880
| 35> H  -2.809833	-0.569581	0.965463
| 36> H  -3.395540	-0.218344	-0.462994
| 37> O  -1.572278	2.848356	1.831452
| 38> H  -2.156687	3.372648	2.408613
| 39> H  -1.836337	3.082612	0.863374
| 40> O  1.940867	2.790868	-0.403854
| 41> H  1.588780	2.908592	0.619420
| 42> H  2.586664	3.507298	-0.549040
| 43> O  0.094597	-0.387419	-0.056595
| 44> H  0.156416	-1.409261	-0.038805
| 45> H  1.069035	-0.095269	-0.137116
| 46> O  0.233809	-2.993957	-0.069333
| 47> H  -0.753506	-3.137649	-0.245173
| 48> H  0.672546	-3.124176	-0.967774
| 49> O  -1.365681	-2.154542	-3.214815
| 50> H  -1.826472	-2.464950	-2.381432
| 51> H  -0.482386	-2.608767	-3.148187
| 52> O  -0.645561	0.217915	-2.530957
| 53> H  -0.974428	-0.695532	-2.908610
| 54> H  -0.442894	-0.000339	-1.564574
| 55> O  3.349780	-0.785543	1.782081
| 56> H  4.226625	-1.126184	2.036221
| 57> H  2.672341	-1.584557	1.933003
| 58> O  -0.155356	2.850637	-2.083962
| 59> H  -0.288142	1.924302	-2.429965
| 60> H  0.669205	2.824601	-1.506897
| 61> O  0.044566	-0.906494	3.638448
| 62> H  -0.439724	-1.173271	4.440632
| 63> H  -0.652885	-0.487744	3.006615
| 64> O  -2.149202	3.253625	-0.639915
| 65> H  -1.272794	3.118449	-1.255458
| 66> H  -2.558366	4.082127	-0.951166
| 67> O  -2.290513	-2.930030	-0.773754
| 68> H  -2.775653	-2.081835	-0.311909
| 69> H  -2.941656	-3.654791	-0.742939
| 70> **                         ****END OF INPUT****

CARTESIAN COORDINATES (ANGSTROEM)
---------------------------------
  O      1.634229   -2.591927    2.215864
  H      1.120775   -2.859767    1.401502
  H      0.979530   -2.091298    2.779809
  O      2.583728    0.263933   -0.496517
  H      2.514829    1.272150   -0.429770
  H      3.046057   -0.098151    0.323547
  O      1.151428   -3.001516   -2.552452
  H      1.575141   -2.054950   -2.734158
  H      1.712863   -3.650860   -3.012825
  O      1.158358    3.018337    1.937672
  H      1.476663    2.225924    2.505456
  H      0.165332    3.005897    1.982837
  O      2.000654    1.001483    3.363536
  H      2.611593    0.416059    2.837992
  H      1.276120    0.372872    3.622655
  O     -3.210371    0.894350   -1.604123
  H     -2.376857    0.661976   -2.091245
  H     -2.985289    1.782509   -1.221680
  O      1.986922   -0.640694   -2.947194
  H      2.368953   -0.323880   -2.077087
  H      1.099098   -0.187738   -2.969553
  O     -1.504085    0.167988    1.887947
  H     -1.611926    1.163615    1.956852
  H     -0.842609    0.037256    1.117323
  O     -3.401870   -0.944221    0.255880
  H     -2.809833   -0.569581    0.965463
  H     -3.395540   -0.218344   -0.462994
  O     -1.572278    2.848356    1.831452
  H     -2.156687    3.372648    2.408613
  H     -1.836337    3.082612    0.863374
  O      1.940867    2.790868   -0.403854
  H      1.588780    2.908592    0.619420
  H      2.586664    3.507298   -0.549040
  O      0.094597   -0.387419   -0.056595
  H      0.156416   -1.409261   -0.038805
  H      1.069035   -0.095269   -0.137116
  O      0.233809   -2.993957   -0.069333
  H     -0.753506   -3.137649   -0.245173
  H      0.672546   -3.124176   -0.967774
  O     -1.365681   -2.154542   -3.214815
  H     -1.826472   -2.464950   -2.381432
  H     -0.482386   -2.608767   -3.148187
  O     -0.645561    0.217915   -2.530957
  H     -0.974428   -0.695532   -2.908610
  H     -0.442894   -0.000339   -1.564574
  O      3.349780   -0.785543    1.782081
  H      4.226625   -1.126184    2.036221
  H      2.672341   -1.584557    1.933003
  O     -0.155356    2.850637   -2.083962
  H     -0.288142    1.924302   -2.429965
  H      0.669205    2.824601   -1.506897
  O      0.044566   -0.906494    3.638448
  H     -0.439724   -1.173271    4.440632
  H     -0.652885   -0.487744    3.006615
  O     -2.149202    3.253625   -0.639915
  H     -1.272794    3.118449   -1.255458
  H     -2.558366    4.082127   -0.951166
  O     -2.290513   -2.930030   -0.773754
  H     -2.775653   -2.081835   -0.311909
  H     -2.941656   -3.654791   -0.742939

 Total Charge           Charge          ....    0
 Multiplicity           Mult            ....    1
 Number of Electrons    NEL             ....  200
 Basis Dimension        Dim             ....  860

ORBITAL ENERGIES
----------------

  NO   OCC          E(Eh)            E(eV)
   0   2.0000     -19.262894      -524.1700
   1   2.0000     -19.252229      -523.8798
   2   2.0000     -19.251733      -523.8663
   3   2.0000     -19.245976      -523.7096
   4   2.0000     -19.245258      -523.6901
   5   2.0000     -19.242842      -523.6244
   6   2.0000     -19.238760      -523.5133
   7   2.0000     -19.238302      -523.5008
   8   2.0000     -19.238023      -523.4932
   9   2.0000     -19.236338      -523.4474
  10   2.0000     -19.235884      -523.4350
  11   2.0000     -19.235340      -523.4202
  12   2.0000     -19.230948      -523.3007
  13   2.0000     -19.230567      -523.2903
  14   2.0000     -19.226229      -523.1723
  15   2.0000     -19.226041      -523.1672
  16   2.0000     -19.220426      -523.0144
  17   2.0000     -19.219269      -522.9829
  18   2.0000     -19.218082      -522.9506
  19   2.0000     -19.218071      -522.9503
  20   2.0000      -1.159831       -31.5606
  21   2.0000      -1.152790       -31.3690
  22   2.0000      -1.146693       -31.2031
  23   2.0000      -1.142416       -31.0867
  24   2.0000      -1.139129       -30.9973
  25   2.0000      -1.136129       -30.9156
  26   2.0000      -1.134406       -30.8688
  27   2.0000      -1.130622       -30.7658
  28   2.0000      -1.125508       -30.6266
  29   2.0000      -1.120483       -30.4899
  30   2.0000      -1.116866       -30.3915
  31   2.0000      -1.115469       -30.3534
  32   2.0000      -1.112004       -30.2592
  33   2.0000      -1.110067       -30.2064
  34   2.0000      -1.106031       -30.0966
  35   2.0000      -1.100059       -29.9341
  36   2.0000      -1.097285       -29.8586
  37   2.0000      -1.092846       -29.7379
  38   2.0000      -1.087114       -29.5819
  39   2.0000      -1.086328       -29.5605
  40   2.0000      -0.668509       -18.1911
  41   2.0000      -0.660045       -17.9607
  42   2.0000      -0.657812       -17.9000
  43   2.0000      -0.652106       -17.7447
  44   2.0000      -0.650445       -17.6995
  45   2.0000      -0.649633       -17.6774
  46   2.0000      -0.646980       -17.6052
  47   2.0000      -0.645550       -17.5663
  48   2.0000      -0.641926       -17.4677
  49   2.0000      -0.640258       -17.4223
  50   2.0000      -0.634550       -17.2670
  51   2.0000      -0.632757       -17.2182
  52   2.0000      -0.631348       -17.1799
  53   2.0000      -0.627641       -17.0790
  54   2.0000      -0.625420       -17.0185
  55   2.0000      -0.620277       -16.8786
  56   2.0000      -0.618320       -16.8254
  57   2.0000      -0.616091       -16.7647
  58   2.0000      -0.613282       -16.6883
  59   2.0000      -0.608229       -16.5508
  60   2.0000      -0.577240       -15.7075
  61   2.0000      -0.571816       -15.5599
  62   2.0000      -0.560899       -15.2628
  63   2.0000      -0.555711       -15.1217
  64   2.0000      -0.551101       -14.9962
  65   2.0000      -0.546816       -14.8796
  66   2.0000      -0.527175       -14.3452
  67   2.0000      -0.526546       -14.3280
  68   2.0000      -0.512884       -13.9563
  69   2.0000      -0.508308       -13.8318
  70   2.0000      -0.506924       -13.7941
  71   2.0000      -0.494022       -13.4430
  72   2.0000      -0.491224       -13.3669
  73   2.0000      -0.490755       -13.3541
  74   2.0000      -0.484573       -13.1859
  75   2.0000      -0.482367       -13.1259
  76   2.0000      -0.473769       -12.8919
  77   2.0000      -0.469380       -12.7725
  78   2.0000      -0.465604       -12.6697
  79   2.0000      -0.447293       -12.1715
  80   2.0000      -0.442878       -12.0513
  81   2.0000      -0.433255       -11.7895
  82   2.0000      -0.430960       -11.7270
  83   2.0000      -0.429471       -11.6865
  84   2.0000      -0.427818       -11.6415
  85   2.0000      -0.426626       -11.6091
  86   2.0000      -0.425323       -11.5736
  87   2.0000      -0.423347       -11.5199
  88   2.0000      -0.422225       -11.4893
  89   2.0000      -0.421595       -11.4722
  90   2.0000      -0.420490       -11.4421
  91   2.0000      -0.417706       -11.3664
  92   2.0000      -0.415553       -11.3078
  93   2.0000      -0.412004       -11.2112
  94   2.0000      -0.411746       -11.2042
  95   2.0000      -0.407994       -11.1021
  96   2.0000      -0.403847       -10.9892
  97   2.0000      -0.402515       -10.9530
  98   2.0000      -0.399387       -10.8679
  99   2.0000      -0.397704       -10.8221
 100   0.0000       0.070375         1.9150
 101   0.0000       0.094072         2.5598
 102   0.0000       0.104205         2.8356
 103   0.0000       0.108746         2.9591
 104   0.0000       0.122836         3.3425

MULLIKEN ATOMIC CHARGES
-----------------------
   0 O :   -0.698329
   1 H :    0.398475
   2 H :    0.363294
   3 O :   -0.770620
   4 H :    0.382142
   5 H :    0.392451
   6 O :   -0.773437
   7 H :    0.378101
   8 H :    0.355703
   9 O :   -0.704476
  10 H :    0.395817
  11 H :    0.363515
  12 O :   -0.716596
  13 H :    0.363363
  14 H :    0.359436
  15 O :   -0.706197
  16 H :    0.360403
  17 H :    0.359399
  18 O :   -0.696105
  19 H :    0.394919
  20 H :    0.368178
  21 O :   -0.776275
  22 H :    0.385130
  23 H :    0.386061
  24 O :   -0.710481
  25 H :    0.377119
  26 H :    0.392072
  27 O :   -0.748144
  28 H :    0.356887
  29 H :    0.387343
  30 O :   -0.786486
  31 H :    0.385117
  32 H :    0.357843
  33 O :   -0.774161
  34 H :    0.348860
  35 H :    0.357523
  36 O :   -0.762820
  37 H :    0.390037
  38 H :    0.391259
  39 O :   -0.698264
  40 H :    0.358800
  41 H :    0.354868
  42 O :   -0.869643
  43 H :    0.424463
  44 H :    0.347475
  45 O :   -0.771013
  46 H :    0.355507
  47 H :    0.381196
  48 O :   -0.691155
  49 H :    0.403826
  50 H :    0.375002
  51 O :   -0.755803
  52 H :    0.354834
  53 H :    0.389009
  54 O :   -0.773605
  55 H :    0.379716
  56 H :    0.357330
  57 O :   -0.788724
  58 H :    0.384719
  59 H :    0.355139
Sum of atomic charges:   -0.0000000

LOEWDIN ATOMIC CHARGES
----------------------
   0 O :   -0.267005
   1 H :    0.151962
   2 H :    0.146405
   3 O :   -0.291534
   4 H :    0.140626
   5 H :    0.143317
   6 O :   -0.318454
   7 H :    0.142659
   8 H :    0.162682
   9 O :   -0.258088
  10 H :    0.149784
  11 H :    0.143210
  12 O :   -0.299273
  13 H :    0.144757
  14 H :    0.144400
  15 O :   -0.294393
  16 H :    0.146119
  17 H :    0.143886
  18 O :   -0.265493
  19 H :    0.149789
  20 H :    0.150155
  21 O :   -0.289663
  22 H :    0.144484
  23 H :    0.136268
  24 O :   -0.265533
  25 H :    0.145168
  26 H :    0.148310
  27 O :   -0.292930
  28 H :    0.166382
  29 H :    0.144893
  30 O :   -0.323289
  31 H :    0.136478
  32 H :    0.161041
  33 O :   -0.290844
  34 H :    0.135471
  35 H :    0.135246
  36 O :   -0.291023
  37 H :    0.145521
  38 H :    0.145230
  39 O :   -0.283361
  40 H :    0.144333
  41 H :    0.143831
  42 O :   -0.347797
  43 H :    0.145184
  44 H :    0.125957
  45 O :   -0.314090
  46 H :    0.162587
  47 H :    0.143876
  48 O :   -0.244764
  49 H :    0.155201
  50 H :    0.147949
  51 O :   -0.305135
  52 H :    0.164848
  53 H :    0.143679
  54 O :   -0.311235
  55 H :    0.140429
  56 H :    0.162286
  57 O :   -0.331227
  58 H :    0.140734
  59 H :    0.159989

  Mayer bond orders larger than 0.1
B(  0-O ,  1-H ) :   0.8029 B(  0-O ,  2-H ) :   0.8106 B(  0-O , 47-H ) :   0.2331
B(  3-O ,  4-H ) :   0.7538 B(  3-O ,  5-H ) :   0.7612 B(  3-O , 35-H ) :   0.2082
B(  4-H , 30-O ) :   0.1472 B(  5-H , 45-O ) :   0.1302 B(  6-O ,  7-H ) :   0.6846
B(  6-O ,  8-H ) :   0.8771 B(  6-O , 38-H ) :   0.1235 B(  7-H , 18-O ) :   0.2259
B(  9-O , 10-H ) :   0.7374 B(  9-O , 11-H ) :   0.8176 B(  9-O , 31-H ) :   0.2870
B( 10-H , 12-O ) :   0.1549 B( 12-O , 13-H ) :   0.8180 B( 12-O , 14-H ) :   0.8247
B( 15-O , 16-H ) :   0.8312 B( 15-O , 17-H ) :   0.8282 B( 15-O , 26-H ) :   0.1411
B( 18-O , 19-H ) :   0.7983 B( 18-O , 20-H ) :   0.8245 B( 21-O , 22-H ) :   0.7798
B( 21-O , 23-H ) :   0.7511 B( 21-O , 53-H ) :   0.1552 B( 22-H , 27-O ) :   0.1151
B( 23-H , 33-O ) :   0.1285 B( 24-O , 25-H ) :   0.8166 B( 24-O , 26-H ) :   0.7533
B( 24-O , 58-H ) :   0.2765 B( 27-O , 28-H ) :   0.8776 B( 27-O , 29-H ) :   0.7251
B( 29-H , 54-O ) :   0.1682 B( 30-O , 31-H ) :   0.6250 B( 30-O , 32-H ) :   0.8773
B( 30-O , 50-H ) :   0.1178 B( 33-O , 34-H ) :   0.7279 B( 33-O , 35-H ) :   0.7267
B( 33-O , 44-H ) :   0.1230 B( 34-H , 36-O ) :   0.2102 B( 36-O , 37-H ) :   0.7592
B( 36-O , 38-H ) :   0.7694 B( 37-H , 57-O ) :   0.1405 B( 39-O , 40-H ) :   0.8086
B( 39-O , 41-H ) :   0.8253 B( 39-O , 43-H ) :   0.1949 B( 40-H , 57-O ) :   0.1121
B( 42-O , 43-H ) :   0.6858 B( 42-O , 44-H ) :   0.7638 B( 45-O , 46-H ) :   0.8782
B( 45-O , 47-H ) :   0.6778 B( 48-O , 49-H ) :   0.8026 B( 48-O , 50-H ) :   0.7849
B( 48-O , 55-H ) :   0.2740 B( 51-O , 52-H ) :   0.8779 B( 51-O , 53-H ) :   0.7318
B( 54-O , 55-H ) :   0.6408 B( 54-O , 56-H ) :   0.8773 B( 57-O , 58-H ) :   0.6370
B( 57-O , 59-H ) :   0.8789

Dispersion correction           -0.042592302
FINAL SINGLE POINT ENERGY     -1529.131293994766

DIPOLE MOMENT
-------------
                                X             Y             Z
Electronic contribution:     -0.00645       0.20666      -0.01836
Nuclear contribution   :      0.33006       0.09796       1.31857
                        -----------------------------------------
Total Dipole Moment    :      0.32361       0.30462       1.30022
                        -----------------------------------------
Magnitude (a.u.)       :      1.37408
Magnitude (Debye)      :      3.49262

                             ****ORCA TERMINATED NORMALLY****
TOTAL RUN TIME: 0 days 0 hours 2 minutes 46 seconds 754 msec
