                         Program Version 4.2.0 -  RELEASE  -
|  1> # 12h2o.su.etal.mol2,3,6,8,9,10
|  2> ! MP2 def2-TZVP EnGrad TightSCF
|  3>
|  4> %pal
|  5>     nprocs 6
|  6> end
|  7>
|  8> %maxcore 8000
|  9>
| 10> %scf
| 11>     ConvForced true
| 12> end
| 13>
| 14> *xyz 0 1
| 15> O   0.923410000  -1.794470000  -2.768350000
| 16> H   1.359750000  -2.338250000  -3.430940000
| 17> H   1.303000000  -0.879480000  -2.865760000
| 18> O  -1.752130000  -0.741530000  -2.896280000
| 19> H  -2.036450000  -0.920500000  -1.984040000
| 20> H  -0.921210000  -1.242140000  -2.984230000
| 21> O   1.737840000   0.885520000  -0.052730000
| 22> H   2.090180000   1.032320000   0.841890000
| 23> H   0.839590000   1.284090000  -0.017130000
| 24> O   1.752130000   0.741530000  -2.896280000
| 25> H   2.036450000   0.920500000  -1.984040000
| 26> H   0.921210000   1.242140000  -2.984230000
| 27> O   0.741530000  -1.752130000   2.896280000
| 28> H   0.920500000  -2.036450000   1.984040000
| 29> H   1.242140000  -0.921210000   2.984230000
| 30> O  -0.923410000   1.794470000  -2.768350000
| 31> H  -1.359750000   2.338250000  -3.430940000
| 32> H  -1.303000000   0.879480000  -2.865760000
| 33> *
| 34>
| 35>                          ****END OF INPUT****

CARTESIAN COORDINATES (ANGSTROEM)
---------------------------------
  O      0.923410   -1.794470   -2.768350
  H      1.359750   -2.338250   -3.430940
  H      1.303000   -0.879480   -2.865760
  O     -1.752130   -0.741530   -2.896280
  H     -2.036450   -0.920500   -1.984040
  H     -0.921210   -1.242140   -2.984230
  O      1.737840    0.885520   -0.052730
  H      2.090180    1.032320    0.841890
  H      0.839590    1.284090   -0.017130
  O      1.752130    0.741530   -2.896280
  H      2.036450    0.920500   -1.984040
  H      0.921210    1.242140   -2.984230
  O      0.741530   -1.752130    2.896280
  H      0.920500   -2.036450    1.984040
  H      1.242140   -0.921210    2.984230
  O     -0.923410    1.794470   -2.768350
  H     -1.359750    2.338250   -3.430940
  H     -1.303000    0.879480   -2.865760

 Total Charge           Charge          ....    0
 Multiplicity           Mult            ....    1
 Number of Electrons    NEL             ....   60
 Basis Dimension        Dim             ....  258

ORBITAL ENERGIES
----------------

  NO   OCC          E(Eh)            E(eV)
   0   2.0000     -20.597008      -560.4731
   1   2.0000     -20.569229      -559.7172
   2   2.0000     -20.566854      -559.6525
   3   2.0000     -20.549824      -559.1891
   4   2.0000     -20.545503      -559.0716
   5   2.0000     -20.540732      -558.9417
   6   2.0000      -1.375554       -37.4307
   7   2.0000      -1.361906       -37.0594
   8   2.0000      -1.346003       -36.6266
   9   2.0000      -1.341666       -36.5086
  10   2.0000      -1.331488       -36.2316
  11   2.0000      -1.317914       -35.8623
  12   2.0000      -0.738032       -20.0829
  13   2.0000      -0.721320       -19.6281
  14   2.0000      -0.717412       -19.5218
  15   2.0000      -0.708798       -19.2874
  16   2.0000      -0.703518       -19.1437
  17   2.0000      -0.700435       -19.0598
  18   2.0000      -0.625925       -17.0323
  19   2.0000      -0.610579       -16.6147
  20   2.0000      -0.583484       -15.8774
  21   2.0000      -0.582108       -15.8400
  22   2.0000      -0.577438       -15.7129
  23   2.0000      -0.549355       -14.9487
  24   2.0000      -0.538880       -14.6637
  25   2.0000      -0.510829       -13.9004
  26   2.0000      -0.509918       -13.8756
  27   2.0000      -0.499416       -13.5898
  28   2.0000      -0.491564       -13.3761
  29   2.0000      -0.489949       -13.3322
  30   0.0000       0.084204         2.2913
  31   0.0000       0.125018         3.4019
  32   0.0000       0.153962         4.1895
  33   0.0000       0.163064         4.4372
  34   0.0000       0.168098         4.5742

MULLIKEN ATOMIC CHARGES
-----------------------
   0 O :   -0.747540
   1 H :    0.338661
   2 H :    0.383603
   3 O :   -0.708290
   4 H :    0.351178
   5 H :    0.379344
   6 O :   -0.695817
   7 H :    0.342660
   8 H :    0.360481
   9 O :   -0.724424
  10 H :    0.381499
  11 H :    0.365937
  12 O :   -0.671739
  13 H :    0.345572
  14 H :    0.325024
  15 O :   -0.748235
  16 H :    0.342914
  17 H :    0.379174
Sum of atomic charges:   -0.0000000

LOEWDIN ATOMIC CHARGES
----------------------
   0 O :   -0.343507
   1 H :    0.154334
   2 H :    0.145618
   3 O :   -0.284415
   4 H :    0.169997
   5 H :    0.154814
   6 O :   -0.316532
   7 H :    0.166813
   8 H :    0.180893
   9 O :   -0.288577
  10 H :    0.156264
  11 H :    0.148934
  12 O :   -0.329780
  13 H :    0.168228
  14 H :    0.160399
  15 O :   -0.344677
  16 H :    0.156415
  17 H :    0.144779

  Mayer bond orders larger than 0.100000
B(  0-O ,  1-H ) :   0.8496 B(  0-O ,  2-H ) :   0.7409 B(  2-H ,  9-O ) :   0.1163
B(  3-O ,  4-H ) :   0.8417 B(  3-O ,  5-H ) :   0.7780 B(  3-O , 17-H ) :   0.1105
B(  6-O ,  7-H ) :   0.8455 B(  6-O ,  8-H ) :   0.8309 B(  9-O , 10-H ) :   0.8101
B(  9-O , 11-H ) :   0.7944 B( 12-O , 13-H ) :   0.8476 B( 12-O , 14-H ) :   0.8595
B( 15-O , 16-H ) :   0.8477 B( 15-O , 17-H ) :   0.7482

MP2 TOTAL ENERGY:     -457.932706648 Eh
FINAL SINGLE POINT ENERGY      -457.932706648325

DIPOLE MOMENT
-------------
                                X             Y             Z
Electronic contribution:      0.01238      -0.14475       0.07793
Nuclear contribution   :      0.11126       0.90891       0.19520
                        -----------------------------------------
Total Dipole Moment    :      0.12364       0.76416       0.27313
                        -----------------------------------------
Magnitude (a.u.)       :      0.82087
Magnitude (Debye)      :      2.08649

Rotational constants in cm-1:     0.050506     0.023653     0.021991
Rotational constants in MHz :  1514.133365   709.110460   659.274128

                             ****ORCA TERMINATED NORMALLY****
TOTAL RUN TIME: 0 days 0 hours 1 minutes 1 seconds 49 msec
