                         Program Version 4.2.0 -  RELEASE  -
|  1> # 12h2o.su.etal.mol0,2,6,8
|  2> ! MP2 def2-TZVP EnGrad TightSCF
|  3>
|  4> %pal
|  5>     nprocs 6
|  6> end
|  7>
|  8> %maxcore 8000
|  9>
| 10> %scf
| 11>     ConvForced true
| 12> end
| 13>
| 14> *xyz 0 1
| 15> O   1.794470000   0.923410000   2.768350000
| 16> H   2.338250000   1.359750000   3.430940000
| 17> H   0.879480000   1.303000000   2.865760000
| 18> O   0.923410000  -1.794470000  -2.768350000
| 19> H   1.359750000  -2.338250000  -3.430940000
| 20> H   1.303000000  -0.879480000  -2.865760000
| 21> O   1.737840000   0.885520000  -0.052730000
| 22> H   2.090180000   1.032320000   0.841890000
| 23> H   0.839590000   1.284090000  -0.017130000
| 24> O   1.752130000   0.741530000  -2.896280000
| 25> H   2.036450000   0.920500000  -1.984040000
| 26> H   0.921210000   1.242140000  -2.984230000
| 27> *
| 28>
| 29>                          ****END OF INPUT****

CARTESIAN COORDINATES (ANGSTROEM)
---------------------------------
  O      1.794470    0.923410    2.768350
  H      2.338250    1.359750    3.430940
  H      0.879480    1.303000    2.865760
  O      0.923410   -1.794470   -2.768350
  H      1.359750   -2.338250   -3.430940
  H      1.303000   -0.879480   -2.865760
  O      1.737840    0.885520   -0.052730
  H      2.090180    1.032320    0.841890
  H      0.839590    1.284090   -0.017130
  O      1.752130    0.741530   -2.896280
  H      2.036450    0.920500   -1.984040
  H      0.921210    1.242140   -2.984230

 Total Charge           Charge          ....    0
 Multiplicity           Mult            ....    1
 Number of Electrons    NEL             ....   40
 Basis Dimension        Dim             ....  172

ORBITAL ENERGIES
----------------

  NO   OCC          E(Eh)            E(eV)
   0   2.0000     -20.601416      -560.5930
   1   2.0000     -20.564152      -559.5790
   2   2.0000     -20.559115      -559.4420
   3   2.0000     -20.496558      -557.7397
   4   2.0000      -1.379441       -37.5365
   5   2.0000      -1.351596       -36.7788
   6   2.0000      -1.340472       -36.4761
   7   2.0000      -1.278764       -34.7969
   8   2.0000      -0.746291       -20.3076
   9   2.0000      -0.718898       -19.5622
  10   2.0000      -0.703052       -19.1310
  11   2.0000      -0.667468       -18.1627
  12   2.0000      -0.620724       -16.8907
  13   2.0000      -0.599084       -16.3019
  14   2.0000      -0.573637       -15.6095
  15   2.0000      -0.540406       -14.7052
  16   2.0000      -0.528468       -14.3803
  17   2.0000      -0.510457       -13.8902
  18   2.0000      -0.485964       -13.2238
  19   2.0000      -0.447002       -12.1635
  20   0.0000       0.091570         2.4917
  21   0.0000       0.130687         3.5562
  22   0.0000       0.163708         4.4547
  23   0.0000       0.188518         5.1298
  24   0.0000       0.200398         5.4531

MULLIKEN ATOMIC CHARGES
-----------------------
   0 O :   -0.689700
   1 H :    0.354141
   2 H :    0.351444
   3 O :   -0.733089
   4 H :    0.317781
   5 H :    0.368436
   6 O :   -0.701506
   7 H :    0.378143
   8 H :    0.323819
   9 O :   -0.693584
  10 H :    0.386720
  11 H :    0.337395
Sum of atomic charges:   -0.0000000

LOEWDIN ATOMIC CHARGES
----------------------
   0 O :   -0.307813
   1 H :    0.164598
   2 H :    0.184551
   3 O :   -0.373755
   4 H :    0.144861
   5 H :    0.142461
   6 O :   -0.322151
   7 H :    0.155418
   8 H :    0.165111
   9 O :   -0.278583
  10 H :    0.159018
  11 H :    0.166284

  Mayer bond orders larger than 0.100000
B(  0-O ,  1-H ) :   0.8407 B(  0-O ,  2-H ) :   0.8367 B(  3-O ,  4-H ) :   0.8646
B(  3-O ,  5-H ) :   0.7822 B(  6-O ,  7-H ) :   0.8054 B(  6-O ,  8-H ) :   0.8539
B(  9-O , 10-H ) :   0.7970 B(  9-O , 11-H ) :   0.8493

MP2 TOTAL ENERGY:     -305.271506190 Eh
FINAL SINGLE POINT ENERGY      -305.271506189670

DIPOLE MOMENT
-------------
                                X             Y             Z
Electronic contribution:      0.25206      -0.03869       0.22839
Nuclear contribution   :     -0.53919       2.00773       1.46039
                        -----------------------------------------
Total Dipole Moment    :     -0.28713       1.96904       1.68878
                        -----------------------------------------
Magnitude (a.u.)       :      2.60989
Magnitude (Debye)      :      6.63382

Rotational constants in cm-1:     0.245523     0.038264     0.033551
Rotational constants in MHz :  7360.597239  1147.135697  1005.846802

                             ****ORCA TERMINATED NORMALLY****
TOTAL RUN TIME: 0 days 0 hours 0 minutes 20 seconds 789 msec
