                         Program Version 4.2.0 -  RELEASE  -
|  1> # 12h2o.su.etal.mol1,2,3,6,7,9
|  2> ! MP2 def2-TZVP EnGrad TightSCF
|  3>
|  4> %pal
|  5>     nprocs 6
|  6> end
|  7>
|  8> %maxcore 8000
|  9>
| 10> %scf
| 11>     ConvForced true
| 12> end
| 13>
| 14> *xyz 0 1
| 15> O  -1.794470000  -0.923410000   2.768350000
| 16> H  -2.338250000  -1.359750000   3.430940000
| 17> H  -0.879480000  -1.303000000   2.865760000
| 18> O   0.923410000  -1.794470000  -2.768350000
| 19> H   1.359750000  -2.338250000  -3.430940000
| 20> H   1.303000000  -0.879480000  -2.865760000
| 21> O  -1.752130000  -0.741530000  -2.896280000
| 22> H  -2.036450000  -0.920500000  -1.984040000
| 23> H  -0.921210000  -1.242140000  -2.984230000
| 24> O   1.737840000   0.885520000  -0.052730000
| 25> H   2.090180000   1.032320000   0.841890000
| 26> H   0.839590000   1.284090000  -0.017130000
| 27> O  -1.737840000  -0.885520000  -0.052730000
| 28> H  -2.090180000  -1.032320000   0.841890000
| 29> H  -0.839590000  -1.284090000  -0.017130000
| 30> O   0.741530000  -1.752130000   2.896280000
| 31> H   0.920500000  -2.036450000   1.984040000
| 32> H   1.242140000  -0.921210000   2.984230000
| 33> *
| 34>
| 35>                          ****END OF INPUT****

CARTESIAN COORDINATES (ANGSTROEM)
---------------------------------
  O     -1.794470   -0.923410    2.768350
  H     -2.338250   -1.359750    3.430940
  H     -0.879480   -1.303000    2.865760
  O      0.923410   -1.794470   -2.768350
  H      1.359750   -2.338250   -3.430940
  H      1.303000   -0.879480   -2.865760
  O     -1.752130   -0.741530   -2.896280
  H     -2.036450   -0.920500   -1.984040
  H     -0.921210   -1.242140   -2.984230
  O      1.737840    0.885520   -0.052730
  H      2.090180    1.032320    0.841890
  H      0.839590    1.284090   -0.017130
  O     -1.737840   -0.885520   -0.052730
  H     -2.090180   -1.032320    0.841890
  H     -0.839590   -1.284090   -0.017130
  O      0.741530   -1.752130    2.896280
  H      0.920500   -2.036450    1.984040
  H      1.242140   -0.921210    2.984230

 Total Charge           Charge          ....    0
 Multiplicity           Mult            ....    1
 Number of Electrons    NEL             ....   60
 Basis Dimension        Dim             ....  258

ORBITAL ENERGIES
----------------

  NO   OCC          E(Eh)            E(eV)
   0   2.0000     -20.619163      -561.0760
   1   2.0000     -20.581754      -560.0580
   2   2.0000     -20.579781      -560.0043
   3   2.0000     -20.554377      -559.3130
   4   2.0000     -20.546217      -559.0910
   5   2.0000     -20.490671      -557.5795
   6   2.0000      -1.404563       -38.2201
   7   2.0000      -1.357709       -36.9451
   8   2.0000      -1.357318       -36.9345
   9   2.0000      -1.340802       -36.4851
  10   2.0000      -1.325510       -36.0690
  11   2.0000      -1.276047       -34.7230
  12   2.0000      -0.761734       -20.7278
  13   2.0000      -0.725547       -19.7431
  14   2.0000      -0.724481       -19.7141
  15   2.0000      -0.719168       -19.5695
  16   2.0000      -0.695660       -18.9299
  17   2.0000      -0.653375       -17.7792
  18   2.0000      -0.641992       -17.4695
  19   2.0000      -0.598355       -16.2821
  20   2.0000      -0.597194       -16.2505
  21   2.0000      -0.591320       -16.0906
  22   2.0000      -0.570559       -15.5257
  23   2.0000      -0.543275       -14.7833
  24   2.0000      -0.530372       -14.4322
  25   2.0000      -0.524467       -14.2715
  26   2.0000      -0.506783       -13.7903
  27   2.0000      -0.500702       -13.6248
  28   2.0000      -0.488768       -13.3001
  29   2.0000      -0.440856       -11.9963
  30   0.0000       0.071230         1.9383
  31   0.0000       0.121491         3.3059
  32   0.0000       0.130910         3.5622
  33   0.0000       0.154360         4.2003
  34   0.0000       0.159673         4.3449

MULLIKEN ATOMIC CHARGES
-----------------------
   0 O :   -0.735109
   1 H :    0.340404
   2 H :    0.367282
   3 O :   -0.699912
   4 H :    0.349362
   5 H :    0.367618
   6 O :   -0.730480
   7 H :    0.367355
   8 H :    0.337931
   9 O :   -0.684759
  10 H :    0.327225
  11 H :    0.359769
  12 O :   -0.708178
  13 H :    0.375480
  14 H :    0.320178
  15 O :   -0.673010
  16 H :    0.361909
  17 H :    0.356935
Sum of atomic charges:   -0.0000000

LOEWDIN ATOMIC CHARGES
----------------------
   0 O :   -0.339387
   1 H :    0.155543
   2 H :    0.142541
   3 O :   -0.313566
   4 H :    0.161820
   5 H :    0.190202
   6 O :   -0.359290
   7 H :    0.149283
   8 H :    0.138812
   9 O :   -0.336935
  10 H :    0.159764
  11 H :    0.179986
  12 O :   -0.325070
  13 H :    0.152691
  14 H :    0.158909
  15 O :   -0.264822
  16 H :    0.174314
  17 H :    0.175206

  Mayer bond orders larger than 0.100000
B(  0-O ,  1-H ) :   0.8488 B(  0-O ,  2-H ) :   0.7729 B(  3-O ,  4-H ) :   0.8434
B(  3-O ,  5-H ) :   0.8245 B(  6-O ,  7-H ) :   0.8230 B(  6-O ,  8-H ) :   0.8348
B(  9-O , 10-H ) :   0.8572 B(  9-O , 11-H ) :   0.8328 B( 12-O , 13-H ) :   0.8003
B( 12-O , 14-H ) :   0.8514 B( 15-O , 16-H ) :   0.8334 B( 15-O , 17-H ) :   0.8362

MP2 TOTAL ENERGY:     -457.910646324 Eh
FINAL SINGLE POINT ENERGY      -457.910646323895

DIPOLE MOMENT
-------------
                                X             Y             Z
Electronic contribution:      0.08367      -0.00632       0.11655
Nuclear contribution   :      2.00875      -0.48085       1.54856
                        -----------------------------------------
Total Dipole Moment    :      2.09242      -0.48718       1.66510
                        -----------------------------------------
Magnitude (a.u.)       :      2.71812
Magnitude (Debye)      :      6.90890

Rotational constants in cm-1:     0.051718     0.025349     0.020442
Rotational constants in MHz :  1550.476312   759.931201   612.850090

                             ****ORCA TERMINATED NORMALLY****
TOTAL RUN TIME: 0 days 0 hours 0 minutes 57 seconds 426 msec
