                         Program Version 3.0.3 - RELEASE   -
|  1> ! B3LYP Def2-TZVP def2-TZVP/J RIJCOSX TightSCF Grid4 D3BJ COSMO
|  2>
|  3> %pal nprocs 12 end
|  4>
|  5> %scf
|  6>         maxiter 400
|  7> end
|  8>
|  9> %cosmo
| 10>         SMD true
| 11>         solvent "WATER"
| 12> end
| 13>
| 14> * xyz  0  1
| 15> O  1.725910	-2.392689	2.410985
| 16> H  1.328094	-2.724746	1.576326
| 17> H  0.990845	-1.960631	2.907734
| 18> O  2.927224	0.458101	-0.674358
| 19> H  2.666809	1.414328	-0.574626
| 20> H  3.185853	0.167648	0.239060
| 21> O  1.301345	-3.091578	-2.658339
| 22> H  1.679280	-2.187020	-2.848786
| 23> H  1.878890	-3.719569	-3.118605
| 24> O  0.879454	3.214054	1.932157
| 25> H  1.098075	2.479653	2.565253
| 26> H  -0.101034	3.235775	1.871548
| 27> O  1.687277	1.291748	3.632241
| 28> H  2.292805	0.803284	3.026280
| 29> H  1.015818	0.610066	3.853474
| 30> O  -3.244922	0.649310	-1.481403
| 31> H  -3.923667	0.495333	-2.157851
| 32> H  -2.386428	0.417278	-1.925161
| 33> O  2.028127	-0.544382	-3.073802
| 34> H  2.442138	-0.206911	-2.246518
| 35> H  1.121910	-0.179864	-3.067380
| 36> O  -1.089273	0.482284	1.682747
| 37> H  -1.353841	1.438523	1.643774
| 38> H  -0.433094	0.297259	0.961812
| 39> O  -3.094525	-0.996845	0.672641
| 40> H  -2.379987	-0.483016	1.126342
| 41> H  -3.296408	-0.434227	-0.112339
| 42> O  -1.805182	3.059847	1.544410
| 43> H  -2.519876	3.286572	2.158777
| 44> H  -2.181172	3.189826	0.616522
| 45> O  1.877480	2.870012	-0.436672
| 46> H  1.506483	3.011479	0.495796
| 47> H  2.402764	3.661386	-0.632077
| 48> O  0.471829	-0.434006	-0.220374
| 49> H  0.562837	-1.418949	-0.083148
| 50> H  1.396853	-0.099351	-0.382819
| 51> O  0.605742	-3.077095	-0.024288
| 52> H  -0.375901	-3.201744	-0.127552
| 53> H  0.976189	-3.223352	-0.929931
| 54> O  -1.339344	-2.553904	-3.053348
| 55> H  -1.682822	-2.808573	-2.163353
| 56> H  -0.411998	-2.888330	-3.047688
| 57> O  -0.807745	-0.029255	-2.487571
| 58> H  -1.039079	-0.946018	-2.829268
| 59> H  -0.380108	-0.213072	-1.604669
| 60> O  3.163474	-0.235611	1.885473
| 61> H  4.049564	-0.376425	2.254945
| 62> H  2.667662	-1.093529	2.063970
| 63> O  -0.309795	2.749536	-2.115307
| 64> H  -0.420623	1.823850	-2.403715
| 65> H  0.476766	2.762876	-1.518523
| 66> O  -0.074881	-0.832725	3.709728
| 67> H  -0.738193	-1.084747	4.369666
| 68> H  -0.566705	-0.332106	3.001479
| 69> O  -2.655761	3.272169	-0.940788
| 70> H  -1.772162	3.195897	-1.389028
| 71> H  -3.038116	2.381254	-1.112858
| 72> O  -2.012269	-3.067575	-0.458182
| 73> H  -2.451512	-2.286227	0.010627
| 74> H  -2.535349	-3.849240	-0.222374
| 75> **                         ****END OF INPUT****

CARTESIAN COORDINATES (ANGSTROEM)
---------------------------------
  O      1.725910   -2.392689    2.410985
  H      1.328094   -2.724746    1.576326
  H      0.990845   -1.960631    2.907734
  O      2.927224    0.458101   -0.674358
  H      2.666809    1.414328   -0.574626
  H      3.185853    0.167648    0.239060
  O      1.301345   -3.091578   -2.658339
  H      1.679280   -2.187020   -2.848786
  H      1.878890   -3.719569   -3.118605
  O      0.879454    3.214054    1.932157
  H      1.098075    2.479653    2.565253
  H     -0.101034    3.235775    1.871548
  O      1.687277    1.291748    3.632241
  H      2.292805    0.803284    3.026280
  H      1.015818    0.610066    3.853474
  O     -3.244922    0.649310   -1.481403
  H     -3.923667    0.495333   -2.157851
  H     -2.386428    0.417278   -1.925161
  O      2.028127   -0.544382   -3.073802
  H      2.442138   -0.206911   -2.246518
  H      1.121910   -0.179864   -3.067380
  O     -1.089273    0.482284    1.682747
  H     -1.353841    1.438523    1.643774
  H     -0.433094    0.297259    0.961812
  O     -3.094525   -0.996845    0.672641
  H     -2.379987   -0.483016    1.126342
  H     -3.296408   -0.434227   -0.112339
  O     -1.805182    3.059847    1.544410
  H     -2.519876    3.286572    2.158777
  H     -2.181172    3.189826    0.616522
  O      1.877480    2.870012   -0.436672
  H      1.506483    3.011479    0.495796
  H      2.402764    3.661386   -0.632077
  O      0.471829   -0.434006   -0.220374
  H      0.562837   -1.418949   -0.083148
  H      1.396853   -0.099351   -0.382819
  O      0.605742   -3.077095   -0.024288
  H     -0.375901   -3.201744   -0.127552
  H      0.976189   -3.223352   -0.929931
  O     -1.339344   -2.553904   -3.053348
  H     -1.682822   -2.808573   -2.163353
  H     -0.411998   -2.888330   -3.047688
  O     -0.807745   -0.029255   -2.487571
  H     -1.039079   -0.946018   -2.829268
  H     -0.380108   -0.213072   -1.604669
  O      3.163474   -0.235611    1.885473
  H      4.049564   -0.376425    2.254945
  H      2.667662   -1.093529    2.063970
  O     -0.309795    2.749536   -2.115307
  H     -0.420623    1.823850   -2.403715
  H      0.476766    2.762876   -1.518523
  O     -0.074881   -0.832725    3.709728
  H     -0.738193   -1.084747    4.369666
  H     -0.566705   -0.332106    3.001479
  O     -2.655761    3.272169   -0.940788
  H     -1.772162    3.195897   -1.389028
  H     -3.038116    2.381254   -1.112858
  O     -2.012269   -3.067575   -0.458182
  H     -2.451512   -2.286227    0.010627
  H     -2.535349   -3.849240   -0.222374

 Total Charge           Charge          ....    0
 Multiplicity           Mult            ....    1
 Number of Electrons    NEL             ....  200
 Basis Dimension        Dim             ....  860

ORBITAL ENERGIES
----------------

  NO   OCC          E(Eh)            E(eV)
   0   2.0000     -19.138215      -520.7773
   1   2.0000     -19.134146      -520.6666
   2   2.0000     -19.133016      -520.6358
   3   2.0000     -19.132945      -520.6339
   4   2.0000     -19.132215      -520.6140
   5   2.0000     -19.130726      -520.5735
   6   2.0000     -19.130533      -520.5683
   7   2.0000     -19.130381      -520.5641
   8   2.0000     -19.129261      -520.5337
   9   2.0000     -19.127030      -520.4730
  10   2.0000     -19.127019      -520.4726
  11   2.0000     -19.125312      -520.4262
  12   2.0000     -19.123398      -520.3741
  13   2.0000     -19.122028      -520.3368
  14   2.0000     -19.119139      -520.2582
  15   2.0000     -19.118450      -520.2395
  16   2.0000     -19.116719      -520.1924
  17   2.0000     -19.113910      -520.1159
  18   2.0000     -19.113567      -520.1066
  19   2.0000     -19.113558      -520.1064
  20   2.0000      -1.041083       -28.3293
  21   2.0000      -1.028670       -27.9915
  22   2.0000      -1.028237       -27.9798
  23   2.0000      -1.024994       -27.8915
  24   2.0000      -1.021493       -27.7962
  25   2.0000      -1.020932       -27.7810
  26   2.0000      -1.019155       -27.7326
  27   2.0000      -1.014660       -27.6103
  28   2.0000      -1.013635       -27.5824
  29   2.0000      -1.011421       -27.5222
  30   2.0000      -1.007585       -27.4178
  31   2.0000      -1.004786       -27.3416
  32   2.0000      -1.001574       -27.2542
  33   2.0000      -1.000422       -27.2229
  34   2.0000      -0.992262       -27.0008
  35   2.0000      -0.990416       -26.9506
  36   2.0000      -0.989147       -26.9161
  37   2.0000      -0.986929       -26.8557
  38   2.0000      -0.984186       -26.7811
  39   2.0000      -0.983494       -26.7622
  40   2.0000      -0.554575       -15.0908
  41   2.0000      -0.548421       -14.9233
  42   2.0000      -0.545721       -14.8498
  43   2.0000      -0.543988       -14.8027
  44   2.0000      -0.540217       -14.7000
  45   2.0000      -0.539126       -14.6704
  46   2.0000      -0.537305       -14.6208
  47   2.0000      -0.536780       -14.6065
  48   2.0000      -0.535387       -14.5686
  49   2.0000      -0.534176       -14.5357
  50   2.0000      -0.533198       -14.5090
  51   2.0000      -0.532047       -14.4777
  52   2.0000      -0.529677       -14.4132
  53   2.0000      -0.528447       -14.3798
  54   2.0000      -0.527432       -14.3522
  55   2.0000      -0.524856       -14.2821
  56   2.0000      -0.522585       -14.2203
  57   2.0000      -0.521521       -14.1913
  58   2.0000      -0.515910       -14.0386
  59   2.0000      -0.512239       -13.9387
  60   2.0000      -0.462356       -12.5813
  61   2.0000      -0.453962       -12.3529
  62   2.0000      -0.449418       -12.2293
  63   2.0000      -0.441504       -12.0139
  64   2.0000      -0.439262       -11.9529
  65   2.0000      -0.437195       -11.8967
  66   2.0000      -0.423814       -11.5326
  67   2.0000      -0.422030       -11.4840
  68   2.0000      -0.412454       -11.2234
  69   2.0000      -0.406320       -11.0565
  70   2.0000      -0.404230       -10.9996
  71   2.0000      -0.395341       -10.7578
  72   2.0000      -0.394168       -10.7259
  73   2.0000      -0.391124       -10.6430
  74   2.0000      -0.388009       -10.5583
  75   2.0000      -0.384492       -10.4626
  76   2.0000      -0.374296       -10.1851
  77   2.0000      -0.373707       -10.1691
  78   2.0000      -0.367356        -9.9963
  79   2.0000      -0.357759        -9.7351
  80   2.0000      -0.337452        -9.1825
  81   2.0000      -0.331476        -9.0199
  82   2.0000      -0.331378        -9.0172
  83   2.0000      -0.330305        -8.9881
  84   2.0000      -0.328843        -8.9483
  85   2.0000      -0.327520        -8.9123
  86   2.0000      -0.326772        -8.8919
  87   2.0000      -0.326579        -8.8867
  88   2.0000      -0.326165        -8.8754
  89   2.0000      -0.325969        -8.8701
  90   2.0000      -0.323972        -8.8157
  91   2.0000      -0.322441        -8.7741
  92   2.0000      -0.320556        -8.7228
  93   2.0000      -0.318815        -8.6754
  94   2.0000      -0.317340        -8.6353
  95   2.0000      -0.316261        -8.6059
  96   2.0000      -0.315251        -8.5784
  97   2.0000      -0.313635        -8.5344
  98   2.0000      -0.311548        -8.4776
  99   2.0000      -0.311380        -8.4731
 100   0.0000       0.002472         0.0673
 101   0.0000       0.033611         0.9146
 102   0.0000       0.036617         0.9964
 103   0.0000       0.040728         1.1083
 104   0.0000       0.057815         1.5732

MULLIKEN ATOMIC CHARGES
-----------------------
   0 O :   -0.750418
   1 H :    0.389202
   2 H :    0.369401
   3 O :   -0.763693
   4 H :    0.386146
   5 H :    0.377991
   6 O :   -0.741123
   7 H :    0.378913
   8 H :    0.387852
   9 O :   -0.758321
  10 H :    0.372939
  11 H :    0.377117
  12 O :   -0.755813
  13 H :    0.367021
  14 H :    0.362487
  15 O :   -0.734941
  16 H :    0.388481
  17 H :    0.377868
  18 O :   -0.735525
  19 H :    0.389898
  20 H :    0.357214
  21 O :   -0.770164
  22 H :    0.373097
  23 H :    0.384246
  24 O :   -0.755076
  25 H :    0.376058
  26 H :    0.373482
  27 O :   -0.748261
  28 H :    0.389030
  29 H :    0.379226
  30 O :   -0.748550
  31 H :    0.383991
  32 H :    0.387485
  33 O :   -0.773347
  34 H :    0.360341
  35 H :    0.356851
  36 O :   -0.763239
  37 H :    0.383643
  38 H :    0.381951
  39 O :   -0.756813
  40 H :    0.369374
  41 H :    0.369235
  42 O :   -0.823135
  43 H :    0.396074
  44 H :    0.376680
  45 O :   -0.738292
  46 H :    0.386539
  47 H :    0.375902
  48 O :   -0.753883
  49 H :    0.376187
  50 H :    0.366473
  51 O :   -0.745628
  52 H :    0.384046
  53 H :    0.393067
  54 O :   -0.761389
  55 H :    0.382210
  56 H :    0.373198
  57 O :   -0.748330
  58 H :    0.377751
  59 H :    0.387270
Sum of atomic charges:   -0.0000000

LOEWDIN ATOMIC CHARGES
----------------------
   0 O :   -0.312566
   1 H :    0.143529
   2 H :    0.139843
   3 O :   -0.299623
   4 H :    0.136807
   5 H :    0.138809
   6 O :   -0.276043
   7 H :    0.147543
   8 H :    0.185928
   9 O :   -0.310904
  10 H :    0.136914
  11 H :    0.136416
  12 O :   -0.328484
  13 H :    0.139209
  14 H :    0.140865
  15 O :   -0.263741
  16 H :    0.187382
  17 H :    0.144249
  18 O :   -0.302178
  19 H :    0.145462
  20 H :    0.145294
  21 O :   -0.265211
  22 H :    0.134747
  23 H :    0.130253
  24 O :   -0.313399
  25 H :    0.134096
  26 H :    0.138810
  27 O :   -0.276299
  28 H :    0.184308
  29 H :    0.144573
  30 O :   -0.271400
  31 H :    0.139122
  32 H :    0.183332
  33 O :   -0.263988
  34 H :    0.131102
  35 H :    0.127905
  36 O :   -0.288483
  37 H :    0.138353
  38 H :    0.145012
  39 O :   -0.319496
  40 H :    0.138409
  41 H :    0.140029
  42 O :   -0.316644
  43 H :    0.138016
  44 H :    0.121461
  45 O :   -0.268037
  46 H :    0.184003
  47 H :    0.143140
  48 O :   -0.314900
  49 H :    0.144529
  50 H :    0.141365
  51 O :   -0.282768
  52 H :    0.183342
  53 H :    0.139564
  54 O :   -0.326472
  55 H :    0.138579
  56 H :    0.140260
  57 O :   -0.273355
  58 H :    0.138077
  59 H :    0.183350

  Mayer bond orders larger than 0.1
B(  0-O ,  1-H ) :   0.8156 B(  0-O ,  2-H ) :   0.8003 B(  0-O , 47-H ) :   0.1562
B(  2-H , 51-O ) :   0.1078 B(  3-O ,  4-H ) :   0.7677 B(  3-O ,  5-H ) :   0.7791
B(  3-O , 35-H ) :   0.1953 B(  4-H , 30-O ) :   0.1296 B(  5-H , 45-O ) :   0.1280
B(  6-O ,  7-H ) :   0.7684 B(  6-O ,  8-H ) :   0.8513 B(  6-O , 38-H ) :   0.1095
B(  6-O , 41-H ) :   0.1065 B(  7-H , 18-O ) :   0.1247 B(  9-O , 10-H ) :   0.7795
B(  9-O , 11-H ) :   0.8066 B(  9-O , 31-H ) :   0.1701 B( 10-H , 12-O ) :   0.1322
B( 12-O , 13-H ) :   0.8053 B( 12-O , 14-H ) :   0.8177 B( 13-H , 45-O ) :   0.1117
B( 14-H , 51-O ) :   0.1028 B( 15-O , 16-H ) :   0.8509 B( 15-O , 17-H ) :   0.7821
B( 15-O , 26-H ) :   0.1041 B( 17-H , 42-O ) :   0.1030 B( 18-O , 19-H ) :   0.8084
B( 18-O , 20-H ) :   0.8435 B( 21-O , 22-H ) :   0.7637 B( 21-O , 23-H ) :   0.7790
B( 21-O , 25-H ) :   0.1132 B( 21-O , 53-H ) :   0.1020 B( 22-H , 27-O ) :   0.1439
B( 24-O , 25-H ) :   0.7948 B( 24-O , 26-H ) :   0.8034 B( 24-O , 58-H ) :   0.1745
B( 27-O , 28-H ) :   0.8502 B( 27-O , 29-H ) :   0.7387 B( 29-H , 54-O ) :   0.1679
B( 30-O , 31-H ) :   0.7282 B( 30-O , 32-H ) :   0.8524 B( 30-O , 50-H ) :   0.1111
B( 33-O , 34-H ) :   0.7497 B( 33-O , 35-H ) :   0.7406 B( 33-O , 44-H ) :   0.1204
B( 34-H , 36-O ) :   0.1735 B( 36-O , 37-H ) :   0.7682 B( 36-O , 38-H ) :   0.7907
B( 37-H , 57-O ) :   0.1336 B( 39-O , 40-H ) :   0.8041 B( 39-O , 41-H ) :   0.8066
B( 39-O , 43-H ) :   0.1560 B( 40-H , 57-O ) :   0.1086 B( 42-O , 43-H ) :   0.7446
B( 42-O , 44-H ) :   0.7561 B( 45-O , 46-H ) :   0.8530 B( 45-O , 47-H ) :   0.7479
B( 48-O , 49-H ) :   0.8374 B( 48-O , 50-H ) :   0.7995 B( 48-O , 55-H ) :   0.1102
B( 51-O , 52-H ) :   0.8535 B( 51-O , 53-H ) :   0.7697 B( 54-O , 55-H ) :   0.7925
B( 54-O , 56-H ) :   0.8137 B( 57-O , 58-H ) :   0.7307 B( 57-O , 59-H ) :   0.8523

Dispersion correction           -0.077125432
FINAL SINGLE POINT ENERGY     -1528.981186700168

DIPOLE MOMENT
-------------
                                X             Y             Z
Electronic contribution:      0.02481      -0.22237       0.14775
Nuclear contribution   :     -0.59661      -2.18757       0.46048
                        -----------------------------------------
Total Dipole Moment    :     -0.57180      -2.40994       0.60823
                        -----------------------------------------
Magnitude (a.u.)       :      2.55043
Magnitude (Debye)      :      6.48269

                             ****ORCA TERMINATED NORMALLY****
TOTAL RUN TIME: 0 days 0 hours 2 minutes 44 seconds 690 msec
