                         Program Version 3.0.3 - RELEASE   -
|  1> ! wB97X-D3 MA-Def2-TZVP def2-TZVP/J RIJCOSX TightSCF Grid4
|  2>
|  3> %pal nprocs 1 end
|  4>
|  5> %scf
|  6>         maxiter 400
|  7> end
|  8>
|  9> %cosmo
| 10>         SMD true
| 11>         solvent "WATER"
| 12> end
| 13>
| 14> * xyz  0  1
| 15> O  1.725910	-2.392689	2.410985
| 16> H  1.328094	-2.724746	1.576326
| 17> H  0.990845	-1.960631	2.907734
| 18> O  2.927224	0.458101	-0.674358
| 19> H  2.666809	1.414328	-0.574626
| 20> H  3.185853	0.167648	0.239060
| 21> O  1.301345	-3.091578	-2.658339
| 22> H  1.679280	-2.187020	-2.848786
| 23> H  1.878890	-3.719569	-3.118605
| 24> O  0.879454	3.214054	1.932157
| 25> H  1.098075	2.479653	2.565253
| 26> H  -0.101034	3.235775	1.871548
| 27> O  1.687277	1.291748	3.632241
| 28> H  2.292805	0.803284	3.026280
| 29> H  1.015818	0.610066	3.853474
| 30> O  -3.244922	0.649310	-1.481403
| 31> H  -3.923667	0.495333	-2.157851
| 32> H  -2.386428	0.417278	-1.925161
| 33> O  2.028127	-0.544382	-3.073802
| 34> H  2.442138	-0.206911	-2.246518
| 35> H  1.121910	-0.179864	-3.067380
| 36> O  -1.089273	0.482284	1.682747
| 37> H  -1.353841	1.438523	1.643774
| 38> H  -0.433094	0.297259	0.961812
| 39> O  -3.094525	-0.996845	0.672641
| 40> H  -2.379987	-0.483016	1.126342
| 41> H  -3.296408	-0.434227	-0.112339
| 42> O  -1.805182	3.059847	1.544410
| 43> H  -2.519876	3.286572	2.158777
| 44> H  -2.181172	3.189826	0.616522
| 45> O  1.877480	2.870012	-0.436672
| 46> H  1.506483	3.011479	0.495796
| 47> H  2.402764	3.661386	-0.632077
| 48> O  0.471829	-0.434006	-0.220374
| 49> H  0.562837	-1.418949	-0.083148
| 50> H  1.396853	-0.099351	-0.382819
| 51> O  0.605742	-3.077095	-0.024288
| 52> H  -0.375901	-3.201744	-0.127552
| 53> H  0.976189	-3.223352	-0.929931
| 54> O  -1.339344	-2.553904	-3.053348
| 55> H  -1.682822	-2.808573	-2.163353
| 56> H  -0.411998	-2.888330	-3.047688
| 57> O  -0.807745	-0.029255	-2.487571
| 58> H  -1.039079	-0.946018	-2.829268
| 59> H  -0.380108	-0.213072	-1.604669
| 60> O  3.163474	-0.235611	1.885473
| 61> H  4.049564	-0.376425	2.254945
| 62> H  2.667662	-1.093529	2.063970
| 63> O  -0.309795	2.749536	-2.115307
| 64> H  -0.420623	1.823850	-2.403715
| 65> H  0.476766	2.762876	-1.518523
| 66> O  -0.074881	-0.832725	3.709728
| 67> H  -0.738193	-1.084747	4.369666
| 68> H  -0.566705	-0.332106	3.001479
| 69> O  -2.655761	3.272169	-0.940788
| 70> H  -1.772162	3.195897	-1.389028
| 71> H  -3.038116	2.381254	-1.112858
| 72> O  -2.012269	-3.067575	-0.458182
| 73> H  -2.451512	-2.286227	0.010627
| 74> H  -2.535349	-3.849240	-0.222374
| 75> **                         ****END OF INPUT****

CARTESIAN COORDINATES (ANGSTROEM)
---------------------------------
  O      1.725910   -2.392689    2.410985
  H      1.328094   -2.724746    1.576326
  H      0.990845   -1.960631    2.907734
  O      2.927224    0.458101   -0.674358
  H      2.666809    1.414328   -0.574626
  H      3.185853    0.167648    0.239060
  O      1.301345   -3.091578   -2.658339
  H      1.679280   -2.187020   -2.848786
  H      1.878890   -3.719569   -3.118605
  O      0.879454    3.214054    1.932157
  H      1.098075    2.479653    2.565253
  H     -0.101034    3.235775    1.871548
  O      1.687277    1.291748    3.632241
  H      2.292805    0.803284    3.026280
  H      1.015818    0.610066    3.853474
  O     -3.244922    0.649310   -1.481403
  H     -3.923667    0.495333   -2.157851
  H     -2.386428    0.417278   -1.925161
  O      2.028127   -0.544382   -3.073802
  H      2.442138   -0.206911   -2.246518
  H      1.121910   -0.179864   -3.067380
  O     -1.089273    0.482284    1.682747
  H     -1.353841    1.438523    1.643774
  H     -0.433094    0.297259    0.961812
  O     -3.094525   -0.996845    0.672641
  H     -2.379987   -0.483016    1.126342
  H     -3.296408   -0.434227   -0.112339
  O     -1.805182    3.059847    1.544410
  H     -2.519876    3.286572    2.158777
  H     -2.181172    3.189826    0.616522
  O      1.877480    2.870012   -0.436672
  H      1.506483    3.011479    0.495796
  H      2.402764    3.661386   -0.632077
  O      0.471829   -0.434006   -0.220374
  H      0.562837   -1.418949   -0.083148
  H      1.396853   -0.099351   -0.382819
  O      0.605742   -3.077095   -0.024288
  H     -0.375901   -3.201744   -0.127552
  H      0.976189   -3.223352   -0.929931
  O     -1.339344   -2.553904   -3.053348
  H     -1.682822   -2.808573   -2.163353
  H     -0.411998   -2.888330   -3.047688
  O     -0.807745   -0.029255   -2.487571
  H     -1.039079   -0.946018   -2.829268
  H     -0.380108   -0.213072   -1.604669
  O      3.163474   -0.235611    1.885473
  H      4.049564   -0.376425    2.254945
  H      2.667662   -1.093529    2.063970
  O     -0.309795    2.749536   -2.115307
  H     -0.420623    1.823850   -2.403715
  H      0.476766    2.762876   -1.518523
  O     -0.074881   -0.832725    3.709728
  H     -0.738193   -1.084747    4.369666
  H     -0.566705   -0.332106    3.001479
  O     -2.655761    3.272169   -0.940788
  H     -1.772162    3.195897   -1.389028
  H     -3.038116    2.381254   -1.112858
  O     -2.012269   -3.067575   -0.458182
  H     -2.451512   -2.286227    0.010627
  H     -2.535349   -3.849240   -0.222374

 Total Charge           Charge          ....    0
 Multiplicity           Mult            ....    1
 Number of Electrons    NEL             ....  200
 Basis Dimension        Dim             ....  940
Dispersion correction           -0.041756890
FINAL SINGLE POINT ENERGY     -1529.221209078259
                             ****ORCA TERMINATED NORMALLY****
TOTAL RUN TIME: 0 days 0 hours 56 minutes 37 seconds 554 msec

ORBITAL ENERGIES
----------------

  NO   OCC          E(Eh)            E(eV)
   0   2.0000     -19.247883      -523.7615
   1   2.0000     -19.244539      -523.6705
   2   2.0000     -19.244144      -523.6598
   3   2.0000     -19.242859      -523.6248
   4   2.0000     -19.242343      -523.6108
   5   2.0000     -19.240555      -523.5621
   6   2.0000     -19.240499      -523.5606
   7   2.0000     -19.240383      -523.5574
   8   2.0000     -19.240380      -523.5573
   9   2.0000     -19.237749      -523.4858
  10   2.0000     -19.237517      -523.4794
  11   2.0000     -19.236365      -523.4481
  12   2.0000     -19.234070      -523.3857
  13   2.0000     -19.233984      -523.3833
  14   2.0000     -19.230598      -523.2912
  15   2.0000     -19.229600      -523.2640
  16   2.0000     -19.228225      -523.2266
  17   2.0000     -19.225992      -523.1658
  18   2.0000     -19.225618      -523.1557
  19   2.0000     -19.224939      -523.1372
  20   2.0000      -1.159894       -31.5623
  21   2.0000      -1.146705       -31.2034
  22   2.0000      -1.146519       -31.1984
  23   2.0000      -1.143148       -31.1066
  24   2.0000      -1.139257       -31.0008
  25   2.0000      -1.138827       -30.9890
  26   2.0000      -1.136925       -30.9373
  27   2.0000      -1.132403       -30.8143
  28   2.0000      -1.131729       -30.7959
  29   2.0000      -1.128999       -30.7216
  30   2.0000      -1.125814       -30.6350
  31   2.0000      -1.122464       -30.5438
  32   2.0000      -1.119630       -30.4667
  33   2.0000      -1.118322       -30.4311
  34   2.0000      -1.109840       -30.2003
  35   2.0000      -1.107907       -30.1477
  36   2.0000      -1.106537       -30.1104
  37   2.0000      -1.104498       -30.0549
  38   2.0000      -1.101533       -29.9742
  39   2.0000      -1.101400       -29.9706
  40   2.0000      -0.661840       -18.0096
  41   2.0000      -0.655603       -17.8399
  42   2.0000      -0.652243       -17.7484
  43   2.0000      -0.650328       -17.6963
  44   2.0000      -0.646229       -17.5848
  45   2.0000      -0.644684       -17.5427
  46   2.0000      -0.643535       -17.5115
  47   2.0000      -0.642502       -17.4834
  48   2.0000      -0.640849       -17.4384
  49   2.0000      -0.639392       -17.3987
  50   2.0000      -0.638594       -17.3770
  51   2.0000      -0.637250       -17.3405
  52   2.0000      -0.635060       -17.2809
  53   2.0000      -0.634033       -17.2529
  54   2.0000      -0.633697       -17.2438
  55   2.0000      -0.630706       -17.1624
  56   2.0000      -0.628295       -17.0968
  57   2.0000      -0.627500       -17.0751
  58   2.0000      -0.621985       -16.9251
  59   2.0000      -0.618085       -16.8189
  60   2.0000      -0.569792       -15.5048
  61   2.0000      -0.560275       -15.2459
  62   2.0000      -0.555988       -15.1292
  63   2.0000      -0.547296       -14.8927
  64   2.0000      -0.545075       -14.8322
  65   2.0000      -0.542876       -14.7724
  66   2.0000      -0.529237       -14.4013
  67   2.0000      -0.526618       -14.3300
  68   2.0000      -0.517412       -14.0795
  69   2.0000      -0.509823       -13.8730
  70   2.0000      -0.506919       -13.7940
  71   2.0000      -0.498576       -13.5669
  72   2.0000      -0.497144       -13.5280
  73   2.0000      -0.493485       -13.4284
  74   2.0000      -0.490832       -13.3562
  75   2.0000      -0.487312       -13.2604
  76   2.0000      -0.475689       -12.9441
  77   2.0000      -0.475545       -12.9402
  78   2.0000      -0.469132       -12.7657
  79   2.0000      -0.459073       -12.4920
  80   2.0000      -0.438430       -11.9303
  81   2.0000      -0.432414       -11.7666
  82   2.0000      -0.432149       -11.7594
  83   2.0000      -0.430842       -11.7238
  84   2.0000      -0.429408       -11.6848
  85   2.0000      -0.428291       -11.6544
  86   2.0000      -0.427549       -11.6342
  87   2.0000      -0.427185       -11.6243
  88   2.0000      -0.426702       -11.6112
  89   2.0000      -0.426289       -11.5999
  90   2.0000      -0.424347       -11.5471
  91   2.0000      -0.422935       -11.5086
  92   2.0000      -0.421254       -11.4629
  93   2.0000      -0.419583       -11.4174
  94   2.0000      -0.418235       -11.3808
  95   2.0000      -0.416893       -11.3442
  96   2.0000      -0.415763       -11.3135
  97   2.0000      -0.414795       -11.2872
  98   2.0000      -0.413059       -11.2399
  99   2.0000      -0.412563       -11.2264
 100   0.0000       0.054913         1.4943
 101   0.0000       0.077724         2.1150
 102   0.0000       0.078572         2.1381
 103   0.0000       0.080596         2.1931
 104   0.0000       0.098968         2.6931

MULLIKEN ATOMIC CHARGES
-----------------------
   0 O :   -0.822603
   1 H :    0.420546
   2 H :    0.419682
   3 O :   -0.835554
   4 H :    0.435972
   5 H :    0.426488
   6 O :   -0.858731
   7 H :    0.428018
   8 H :    0.420914
   9 O :   -0.845870
  10 H :    0.421535
  11 H :    0.414272
  12 O :   -0.798003
  13 H :    0.397173
  14 H :    0.406795
  15 O :   -0.805246
  16 H :    0.424147
  17 H :    0.425011
  18 O :   -0.788390
  19 H :    0.427836
  20 H :    0.374498
  21 O :   -0.921991
  22 H :    0.432152
  23 H :    0.433232
  24 O :   -0.840961
  25 H :    0.418795
  26 H :    0.422300
  27 O :   -0.814509
  28 H :    0.421980
  29 H :    0.429613
  30 O :   -0.818749
  31 H :    0.433949
  32 H :    0.417549
  33 O :   -0.756986
  34 H :    0.341886
  35 H :    0.314742
  36 O :   -0.832489
  37 H :    0.439591
  38 H :    0.435117
  39 O :   -0.807444
  40 H :    0.414509
  41 H :    0.422230
  42 O :   -0.932413
  43 H :    0.477180
  44 H :    0.371353
  45 O :   -0.814582
  46 H :    0.418491
  47 H :    0.402502
  48 O :   -0.830865
  49 H :    0.407818
  50 H :    0.404417
  51 O :   -0.848832
  52 H :    0.418179
  53 H :    0.433782
  54 O :   -0.853466
  55 H :    0.446758
  56 H :    0.416808
  57 O :   -0.842179
  58 H :    0.433520
  59 H :    0.418525
Sum of atomic charges:    0.0000000

LOEWDIN ATOMIC CHARGES
----------------------
   0 O :   -0.397926
   1 H :    0.193220
   2 H :    0.191704
   3 O :   -0.403681
   4 H :    0.189232
   5 H :    0.191339
   6 O :   -0.373891
   7 H :    0.196626
   8 H :    0.216856
   9 O :   -0.398844
  10 H :    0.188616
  11 H :    0.188005
  12 O :   -0.413186
  13 H :    0.190584
  14 H :    0.193183
  15 O :   -0.361196
  16 H :    0.218994
  17 H :    0.195143
  18 O :   -0.387774
  19 H :    0.195808
  20 H :    0.196923
  21 O :   -0.383228
  22 H :    0.188722
  23 H :    0.188281
  24 O :   -0.397475
  25 H :    0.186307
  26 H :    0.190504
  27 O :   -0.372995
  28 H :    0.216907
  29 H :    0.193310
  30 O :   -0.370499
  31 H :    0.188952
  32 H :    0.216165
  33 O :   -0.392011
  34 H :    0.188277
  35 H :    0.183612
  36 O :   -0.394075
  37 H :    0.191565
  38 H :    0.199111
  39 O :   -0.404711
  40 H :    0.191833
  41 H :    0.192674
  42 O :   -0.440732
  43 H :    0.192973
  44 H :    0.180562
  45 O :   -0.367442
  46 H :    0.216470
  47 H :    0.193436
  48 O :   -0.397728
  49 H :    0.195302
  50 H :    0.192002
  51 O :   -0.378372
  52 H :    0.214933
  53 H :    0.189361
  54 O :   -0.411818
  55 H :    0.189012
  56 H :    0.191075
  57 O :   -0.373447
  58 H :    0.187472
  59 H :    0.215981

  Mayer bond orders larger than 0.1
B(  0-O ,  1-H ) :   0.8376 B(  0-O ,  2-H ) :   0.8163 B(  0-O , 47-H ) :   0.1040
B(  3-O ,  4-H ) :   0.7915 B(  3-O ,  5-H ) :   0.7928 B(  3-O , 33-O ) :  -0.1219
B(  3-O , 35-H ) :   0.2384 B(  6-O ,  7-H ) :   0.7855 B(  6-O ,  8-H ) :   0.8322
B(  9-O , 10-H ) :   0.7938 B(  9-O , 11-H ) :   0.8197 B( 12-O , 13-H ) :   0.8218
B( 12-O , 14-H ) :   0.8258 B( 15-O , 16-H ) :   0.8365 B( 15-O , 17-H ) :   0.8236
B( 18-O , 19-H ) :   0.8207 B( 18-O , 20-H ) :   0.8464 B( 21-O , 22-H ) :   0.7716
B( 21-O , 23-H ) :   0.8191 B( 24-O , 25-H ) :   0.8162 B( 24-O , 26-H ) :   0.8207
B( 27-O , 28-H ) :   0.8344 B( 27-O , 29-H ) :   0.7533 B( 30-O , 31-H ) :   0.7621
B( 30-O , 32-H ) :   0.8375 B( 33-O , 34-H ) :   0.7698 B( 33-O , 35-H ) :   0.7506
B( 33-O , 42-O ) :  -0.1124 B( 33-O , 44-H ) :   0.1241 B( 34-H , 36-O ) :   0.1894
B( 36-O , 37-H ) :   0.7886 B( 36-O , 38-H ) :   0.8033 B( 39-O , 40-H ) :   0.8262
B( 39-O , 41-H ) :   0.8217 B( 39-O , 42-O ) :   0.1028 B( 42-O , 43-H ) :   0.7683
B( 42-O , 44-H ) :   0.8160 B( 45-O , 46-H ) :   0.8399 B( 45-O , 47-H ) :   0.7800
B( 48-O , 49-H ) :   0.8265 B( 48-O , 50-H ) :   0.8142 B( 51-O , 52-H ) :   0.8339
B( 51-O , 53-H ) :   0.7902 B( 54-O , 55-H ) :   0.8087 B( 54-O , 56-H ) :   0.8259
B( 57-O , 58-H ) :   0.7509 B( 57-O , 59-H ) :   0.8355

Dispersion correction           -0.041756890
FINAL SINGLE POINT ENERGY     -1529.221209078259

DIPOLE MOMENT
-------------
                                X             Y             Z
Electronic contribution:      0.01806      -0.21763       0.13359
Nuclear contribution   :     -0.59661      -2.18757       0.46048
                        -----------------------------------------
Total Dipole Moment    :     -0.57855      -2.40520       0.59406
                        -----------------------------------------
Magnitude (a.u.)       :      2.54413
Magnitude (Debye)      :      6.46667

                             ****ORCA TERMINATED NORMALLY****
TOTAL RUN TIME: 0 days 0 hours 49 minutes 46 seconds 939 msec
