                         Program Version 3.0.3 - RELEASE   -
|  1> ! wB97X-D3 MA-Def2-TZVP def2-TZVP/J RIJCOSX TightSCF Grid4
|  2>
|  3> %pal nprocs 1 end
|  4>
|  5> %scf
|  6>         maxiter 400
|  7> end
|  8>
|  9> %cosmo
| 10>         SMD true
| 11>         solvent "WATER"
| 12> end
| 13>
| 14> * xyz  0  1
| 15> O  1.817869	-2.316276	2.412570
| 16> H  1.338673	-2.641333	1.600213
| 17> H  1.129474	-1.783221	2.913686
| 18> O  2.602603	0.460913	-0.525459
| 19> H  2.407964	1.459144	-0.478255
| 20> H  3.054009	0.185501	0.338476
| 21> O  1.296872	-2.984759	-2.410684
| 22> H  1.677040	-2.057525	-2.637899
| 23> H  1.889206	-3.634558	-2.837124
| 24> O  0.920285	3.310569	1.859007
| 25> H  1.287371	2.547542	2.424697
| 26> H  -0.066733	3.138984	1.796300
| 27> O  1.946939	1.397260	3.365560
| 28> H  2.577716	0.835876	2.828625
| 29> H  1.247430	0.726135	3.612661
| 30> O  -3.196679	0.658697	-1.569516
| 31> H  -3.820913	0.627791	-2.322194
| 32> H  -2.291001	0.436658	-1.971010
| 33> O  1.990290	-0.531650	-2.933911
| 34> H  2.349836	-0.191797	-2.060292
| 35> H  1.062037	-0.181396	-2.937260
| 36> O  -1.517384	0.145131	1.831953
| 37> H  -1.651127	1.153941	1.798923
| 38> H  -0.826153	-0.015828	1.103274
| 39> O  -3.403225	-1.145184	0.427806
| 40> H  -2.764680	-0.682841	1.055929
| 41> H  -3.447187	-0.495774	-0.334669
| 42> O  -1.689468	2.741443	1.537311
| 43> H  -2.317014	3.222563	2.112432
| 44> H  -2.004023	2.938614	0.559355
| 45> O  1.745763	2.913082	-0.500927
| 46> H  1.414436	3.107865	0.481599
| 47> H  2.380068	3.627058	-0.711826
| 48> O  0.208984	-0.426079	-0.032031
| 49> H  0.358109	-1.433146	0.056930
| 50> H  1.152210	-0.042223	-0.143308
| 51> O  0.507120	-3.017353	0.117979
| 52> H  -0.480898	-3.166400	-0.042384
| 53> H  0.918796	-3.113844	-0.798643
| 54> O  -1.250358	-2.414947	-3.081534
| 55> H  -1.653692	-2.701687	-2.205087
| 56> H  -0.315228	-2.764115	-2.992581
| 57> O  -0.757984	0.032825	-2.418779
| 58> H  -0.979598	-0.915384	-2.779818
| 59> H  -0.421432	-0.160776	-1.474432
| 60> O  3.373545	-0.338657	1.835323
| 61> H  4.291814	-0.568871	2.078026
| 62> H  2.805832	-1.182282	2.039333
| 63> O  -0.239232	2.787713	-2.309028
| 64> H  -0.360369	1.823583	-2.497253
| 65> H  0.514992	2.829293	-1.644392
| 66> O  0.161425	-0.607230	3.672487
| 67> H  -0.283677	-0.858492	4.505546
| 68> H  -0.584643	-0.321257	3.035820
| 69> O  -2.442652	3.168995	-0.868517
| 70> H  -1.590916	3.122467	-1.421370
| 71> H  -2.872226	2.296664	-1.105742
| 72> O  -2.035718	-3.066390	-0.591953
| 73> H  -2.605101	-2.309786	-0.157333
| 74> H  -2.573676	-3.879208	-0.515538
| 75> **                         ****END OF INPUT****

CARTESIAN COORDINATES (ANGSTROEM)
---------------------------------
  O      1.817869   -2.316276    2.412570
  H      1.338673   -2.641333    1.600213
  H      1.129474   -1.783221    2.913686
  O      2.602603    0.460913   -0.525459
  H      2.407964    1.459144   -0.478255
  H      3.054009    0.185501    0.338476
  O      1.296872   -2.984759   -2.410684
  H      1.677040   -2.057525   -2.637899
  H      1.889206   -3.634558   -2.837124
  O      0.920285    3.310569    1.859007
  H      1.287371    2.547542    2.424697
  H     -0.066733    3.138984    1.796300
  O      1.946939    1.397260    3.365560
  H      2.577716    0.835876    2.828625
  H      1.247430    0.726135    3.612661
  O     -3.196679    0.658697   -1.569516
  H     -3.820913    0.627791   -2.322194
  H     -2.291001    0.436658   -1.971010
  O      1.990290   -0.531650   -2.933911
  H      2.349836   -0.191797   -2.060292
  H      1.062037   -0.181396   -2.937260
  O     -1.517384    0.145131    1.831953
  H     -1.651127    1.153941    1.798923
  H     -0.826153   -0.015828    1.103274
  O     -3.403225   -1.145184    0.427806
  H     -2.764680   -0.682841    1.055929
  H     -3.447187   -0.495774   -0.334669
  O     -1.689468    2.741443    1.537311
  H     -2.317014    3.222563    2.112432
  H     -2.004023    2.938614    0.559355
  O      1.745763    2.913082   -0.500927
  H      1.414436    3.107865    0.481599
  H      2.380068    3.627058   -0.711826
  O      0.208984   -0.426079   -0.032031
  H      0.358109   -1.433146    0.056930
  H      1.152210   -0.042223   -0.143308
  O      0.507120   -3.017353    0.117979
  H     -0.480898   -3.166400   -0.042384
  H      0.918796   -3.113844   -0.798643
  O     -1.250358   -2.414947   -3.081534
  H     -1.653692   -2.701687   -2.205087
  H     -0.315228   -2.764115   -2.992581
  O     -0.757984    0.032825   -2.418779
  H     -0.979598   -0.915384   -2.779818
  H     -0.421432   -0.160776   -1.474432
  O      3.373545   -0.338657    1.835323
  H      4.291814   -0.568871    2.078026
  H      2.805832   -1.182282    2.039333
  O     -0.239232    2.787713   -2.309028
  H     -0.360369    1.823583   -2.497253
  H      0.514992    2.829293   -1.644392
  O      0.161425   -0.607230    3.672487
  H     -0.283677   -0.858492    4.505546
  H     -0.584643   -0.321257    3.035820
  O     -2.442652    3.168995   -0.868517
  H     -1.590916    3.122467   -1.421370
  H     -2.872226    2.296664   -1.105742
  O     -2.035718   -3.066390   -0.591953
  H     -2.605101   -2.309786   -0.157333
  H     -2.573676   -3.879208   -0.515538

 Total Charge           Charge          ....    0
 Multiplicity           Mult            ....    1
 Number of Electrons    NEL             ....  200
 Basis Dimension        Dim             ....  940

ORBITAL ENERGIES
----------------

  NO   OCC          E(Eh)            E(eV)
   0   2.0000     -19.249176      -523.7967
   1   2.0000     -19.243968      -523.6550
   2   2.0000     -19.241248      -523.5810
   3   2.0000     -19.241246      -523.5809
   4   2.0000     -19.240914      -523.5719
   5   2.0000     -19.240701      -523.5661
   6   2.0000     -19.239694      -523.5387
   7   2.0000     -19.239542      -523.5346
   8   2.0000     -19.238531      -523.5070
   9   2.0000     -19.237141      -523.4692
  10   2.0000     -19.236675      -523.4565
  11   2.0000     -19.232357      -523.3390
  12   2.0000     -19.232291      -523.3372
  13   2.0000     -19.232015      -523.3297
  14   2.0000     -19.231880      -523.3261
  15   2.0000     -19.231815      -523.3243
  16   2.0000     -19.230213      -523.2807
  17   2.0000     -19.229164      -523.2522
  18   2.0000     -19.225948      -523.1646
  19   2.0000     -19.224755      -523.1322
  20   2.0000      -1.156622       -31.4733
  21   2.0000      -1.143864       -31.1261
  22   2.0000      -1.143318       -31.1113
  23   2.0000      -1.139342       -31.0031
  24   2.0000      -1.134651       -30.8754
  25   2.0000      -1.133401       -30.8414
  26   2.0000      -1.132317       -30.8119
  27   2.0000      -1.128045       -30.6957
  28   2.0000      -1.126725       -30.6597
  29   2.0000      -1.123965       -30.5846
  30   2.0000      -1.120727       -30.4965
  31   2.0000      -1.115063       -30.3424
  32   2.0000      -1.112576       -30.2747
  33   2.0000      -1.111737       -30.2519
  34   2.0000      -1.101747       -29.9801
  35   2.0000      -1.098860       -29.9015
  36   2.0000      -1.097665       -29.8690
  37   2.0000      -1.095774       -29.8175
  38   2.0000      -1.092098       -29.7175
  39   2.0000      -1.089703       -29.6523
  40   2.0000      -0.654029       -17.7970
  41   2.0000      -0.649925       -17.6854
  42   2.0000      -0.646476       -17.5915
  43   2.0000      -0.643921       -17.5220
  44   2.0000      -0.642691       -17.4885
  45   2.0000      -0.640229       -17.4215
  46   2.0000      -0.638964       -17.3871
  47   2.0000      -0.635676       -17.2976
  48   2.0000      -0.634456       -17.2644
  49   2.0000      -0.633264       -17.2320
  50   2.0000      -0.632679       -17.2161
  51   2.0000      -0.629536       -17.1305
  52   2.0000      -0.629119       -17.1192
  53   2.0000      -0.627566       -17.0769
  54   2.0000      -0.626530       -17.0487
  55   2.0000      -0.625341       -17.0164
  56   2.0000      -0.621323       -16.9071
  57   2.0000      -0.620532       -16.8855
  58   2.0000      -0.618018       -16.8171
  59   2.0000      -0.615615       -16.7517
  60   2.0000      -0.575327       -15.6554
  61   2.0000      -0.567062       -15.4305
  62   2.0000      -0.559172       -15.2158
  63   2.0000      -0.553326       -15.0568
  64   2.0000      -0.549191       -14.9442
  65   2.0000      -0.545880       -14.8542
  66   2.0000      -0.530528       -14.4364
  67   2.0000      -0.527283       -14.3481
  68   2.0000      -0.521546       -14.1920
  69   2.0000      -0.509354       -13.8602
  70   2.0000      -0.504740       -13.7347
  71   2.0000      -0.498649       -13.5689
  72   2.0000      -0.497610       -13.5407
  73   2.0000      -0.492753       -13.4085
  74   2.0000      -0.489542       -13.3211
  75   2.0000      -0.485742       -13.2177
  76   2.0000      -0.474828       -12.9207
  77   2.0000      -0.471613       -12.8332
  78   2.0000      -0.467441       -12.7197
  79   2.0000      -0.454609       -12.3705
  80   2.0000      -0.431748       -11.7485
  81   2.0000      -0.429334       -11.6828
  82   2.0000      -0.428520       -11.6606
  83   2.0000      -0.426525       -11.6063
  84   2.0000      -0.426263       -11.5992
  85   2.0000      -0.425151       -11.5690
  86   2.0000      -0.424554       -11.5527
  87   2.0000      -0.423945       -11.5361
  88   2.0000      -0.422606       -11.4997
  89   2.0000      -0.420852       -11.4520
  90   2.0000      -0.419883       -11.4256
  91   2.0000      -0.418304       -11.3826
  92   2.0000      -0.416564       -11.3353
  93   2.0000      -0.415918       -11.3177
  94   2.0000      -0.414555       -11.2806
  95   2.0000      -0.414444       -11.2776
  96   2.0000      -0.412395       -11.2218
  97   2.0000      -0.411264       -11.1911
  98   2.0000      -0.409690       -11.1482
  99   2.0000      -0.409335       -11.1386
 100   0.0000       0.055906         1.5213
 101   0.0000       0.077616         2.1120
 102   0.0000       0.080139         2.1807
 103   0.0000       0.082442         2.2434
 104   0.0000       0.100672         2.7394

MULLIKEN ATOMIC CHARGES
-----------------------
   0 O :   -0.832418
   1 H :    0.429697
   2 H :    0.417799
   3 O :   -0.905364
   4 H :    0.452620
   5 H :    0.453988
   6 O :   -0.878812
   7 H :    0.440166
   8 H :    0.424377
   9 O :   -0.854015
  10 H :    0.447139
  11 H :    0.421571
  12 O :   -0.835978
  13 H :    0.419943
  14 H :    0.420144
  15 O :   -0.805223
  16 H :    0.429577
  17 H :    0.425764
  18 O :   -0.817590
  19 H :    0.446281
  20 H :    0.401763
  21 O :   -0.883161
  22 H :    0.466222
  23 H :    0.416344
  24 O :   -0.859764
  25 H :    0.431438
  26 H :    0.432612
  27 O :   -0.835043
  28 H :    0.417612
  29 H :    0.442190
  30 O :   -0.828488
  31 H :    0.431924
  32 H :    0.419190
  33 O :   -0.796899
  34 H :    0.355545
  35 H :    0.360732
  36 O :   -0.841984
  37 H :    0.448399
  38 H :    0.451049
  39 O :   -0.795117
  40 H :    0.419409
  41 H :    0.427033
  42 O :   -1.063459
  43 H :    0.499279
  44 H :    0.406919
  45 O :   -0.866702
  46 H :    0.420605
  47 H :    0.434355
  48 O :   -0.847335
  49 H :    0.422128
  50 H :    0.421554
  51 O :   -0.865743
  52 H :    0.420832
  53 H :    0.432126
  54 O :   -0.873385
  55 H :    0.456522
  56 H :    0.422256
  57 O :   -0.860825
  58 H :    0.439497
  59 H :    0.420704
Sum of atomic charges:   -0.0000000

LOEWDIN ATOMIC CHARGES
----------------------
   0 O :   -0.401978
   1 H :    0.200138
   2 H :    0.199277
   3 O :   -0.410594
   4 H :    0.194097
   5 H :    0.196682
   6 O :   -0.384157
   7 H :    0.199467
   8 H :    0.221803
   9 O :   -0.403459
  10 H :    0.194988
  11 H :    0.194966
  12 O :   -0.427374
  13 H :    0.198285
  14 H :    0.197522
  15 O :   -0.373419
  16 H :    0.224540
  17 H :    0.198019
  18 O :   -0.395827
  19 H :    0.202032
  20 H :    0.202486
  21 O :   -0.406096
  22 H :    0.197418
  23 H :    0.191436
  24 O :   -0.405522
  25 H :    0.198623
  26 H :    0.197807
  27 O :   -0.383057
  28 H :    0.220343
  29 H :    0.193761
  30 O :   -0.387139
  31 H :    0.190834
  32 H :    0.219933
  33 O :   -0.409792
  34 H :    0.191589
  35 H :    0.193283
  36 O :   -0.405854
  37 H :    0.201829
  38 H :    0.201577
  39 O :   -0.408063
  40 H :    0.199000
  41 H :    0.200499
  42 O :   -0.465295
  43 H :    0.197094
  44 H :    0.188638
  45 O :   -0.384076
  46 H :    0.219947
  47 H :    0.198557
  48 O :   -0.418389
  49 H :    0.199565
  50 H :    0.195425
  51 O :   -0.383738
  52 H :    0.220639
  53 H :    0.197718
  54 O :   -0.408123
  55 H :    0.198272
  56 H :    0.198027
  57 O :   -0.390564
  58 H :    0.195834
  59 H :    0.220567

  Mayer bond orders larger than 0.1
B(  0-O ,  1-H ) :   0.8229 B(  0-O ,  2-H ) :   0.7990 B(  0-O , 47-H ) :   0.1169
B(  3-O ,  4-H ) :   0.7539 B(  3-O ,  5-H ) :   0.7534 B(  3-O , 33-O ) :  -0.1221
B(  3-O , 35-H ) :   0.2347 B(  4-H , 30-O ) :   0.1101 B(  6-O ,  7-H ) :   0.7412
B(  6-O ,  8-H ) :   0.8280 B(  7-H , 18-O ) :   0.1049 B(  9-O , 10-H ) :   0.7736
B(  9-O , 11-H ) :   0.7998 B(  9-O , 31-H ) :   0.1633 B( 12-O , 13-H ) :   0.8030
B( 12-O , 14-H ) :   0.8007 B( 15-O , 16-H ) :   0.8323 B( 15-O , 17-H ) :   0.7963
B( 18-O , 19-H ) :   0.7926 B( 18-O , 20-H ) :   0.8300 B( 21-O , 22-H ) :   0.7511
B( 21-O , 23-H ) :   0.8076 B( 22-H , 27-O ) :   0.1001 B( 24-O , 25-H ) :   0.7934
B( 24-O , 26-H ) :   0.8095 B( 24-O , 58-H ) :   0.1384 B( 27-O , 28-H ) :   0.8349
B( 27-O , 29-H ) :   0.7119 B( 29-H , 54-O ) :   0.1420 B( 30-O , 31-H ) :   0.6975
B( 30-O , 32-H ) :   0.8338 B( 33-O , 34-H ) :   0.7334 B( 33-O , 35-H ) :   0.7225
B( 33-O , 42-O ) :  -0.1269 B( 33-O , 44-H ) :   0.1485 B( 34-H , 36-O ) :   0.2262
B( 36-O , 37-H ) :   0.7727 B( 36-O , 38-H ) :   0.7777 B( 39-O , 40-H ) :   0.8048
B( 39-O , 41-H ) :   0.8061 B( 39-O , 42-O ) :   0.1306 B( 42-O , 43-H ) :   0.7237
B( 42-O , 44-H ) :   0.7857 B( 45-O , 46-H ) :   0.8311 B( 45-O , 47-H ) :   0.7358
B( 48-O , 49-H ) :   0.8249 B( 48-O , 50-H ) :   0.7989 B( 51-O , 52-H ) :   0.8304
B( 51-O , 53-H ) :   0.7578 B( 54-O , 55-H ) :   0.7750 B( 54-O , 56-H ) :   0.8094
B( 57-O , 58-H ) :   0.7143 B( 57-O , 59-H ) :   0.8325

Dispersion correction           -0.042622639
FINAL SINGLE POINT ENERGY     -1529.198021154914

DIPOLE MOMENT
-------------
                                X             Y             Z
Electronic contribution:      0.00362      -0.30760       0.19570
Nuclear contribution   :     -0.10926      -2.12940       0.53113
                        -----------------------------------------
Total Dipole Moment    :     -0.10564      -2.43701       0.72683
                        -----------------------------------------
Magnitude (a.u.)       :      2.54528
Magnitude (Debye)      :      6.46959

                             ****ORCA TERMINATED NORMALLY****
TOTAL RUN TIME: 0 days 0 hours 52 minutes 51 seconds 535 msec
