                         Program Version 3.0.3 - RELEASE   -
|  1> ! wB97X-D3 Def2-TZVP def2-TZVP/J RIJCOSX TightSCF Grid4
|  2>
|  3> %pal nprocs 12 end
|  4>
|  5> %scf
|  6>         maxiter 400
|  7> end
|  8>
|  9> * xyz  0  1
| 10> O  1.748114	-2.332155	2.454696
| 11> H  1.353154	-2.700622	1.634508
| 12> H  1.007584	-1.929562	2.960836
| 13> O  2.694181	0.506458	-0.647431
| 14> H  2.665373	1.498196	-0.646703
| 15> H  3.081047	0.207668	0.212893
| 16> O  1.441636	-2.991264	-2.570180
| 17> H  1.715590	-2.034747	-2.777347
| 18> H  2.063600	-3.558625	-3.043940
| 19> O  0.887308	2.677552	1.529772
| 20> H  1.183097	2.190884	2.344401
| 21> H  -0.047727	2.942781	1.654819
| 22> O  1.771996	1.229043	3.595010
| 23> H  2.409162	0.730063	3.041799
| 24> H  1.114879	0.549587	3.848416
| 25> O  -3.312915	0.676737	-1.557957
| 26> H  -3.946448	0.576001	-2.282315
| 27> H  -2.421853	0.449734	-1.959847
| 28> O  1.945824	-0.498778	-3.025507
| 29> H  2.349194	-0.121984	-2.206516
| 30> H  1.043830	-0.127868	-3.049110
| 31> O  -1.399170	0.390783	1.851764
| 32> H  -1.624355	1.356983	1.852480
| 33> H  -0.702755	0.272882	1.148231
| 34> O  -3.149853	-1.171610	0.480232
| 35> H  -2.587203	-0.626441	1.082940
| 36> H  -3.354971	-0.553035	-0.255739
| 37> O  -1.790055	3.025577	1.590518
| 38> H  -2.348625	3.597858	2.131667
| 39> H  -2.104900	3.148356	0.617594
| 40> O  2.068952	3.049441	-0.667738
| 41> H  1.620158	2.989140	0.247521
| 42> H  2.572494	3.873237	-0.690014
| 43> O  0.246567	-0.308868	-0.065183
| 44> H  0.423139	-1.285453	0.019216
| 45> H  1.144416	0.098584	-0.212984
| 46> O  0.648041	-2.946666	0.022751
| 47> H  -0.301728	-3.212060	-0.069090
| 48> H  1.057379	-3.099163	-0.863055
| 49> O  -1.242235	-2.538463	-2.950744
| 50> H  -1.602649	-2.891643	-2.107503
| 51> H  -0.319043	-2.870249	-2.974334
| 52> O  -0.896016	0.011479	-2.430914
| 53> H  -1.051904	-0.938399	-2.730271
| 54> H  -0.492841	-0.093002	-1.523555
| 55> O  3.267007	-0.341735	1.827181
| 56> H  4.148197	-0.552925	2.165892
| 57> H  2.694938	-1.154226	2.058822
| 58> O  -0.277892	2.822669	-2.222882
| 59> H  -0.368639	1.897253	-2.510127
| 60> H  0.578405	2.891513	-1.748211
| 61> O  -0.117630	-0.821390	3.767222
| 62> H  -0.699084	-1.066221	4.498606
| 63> H  -0.690405	-0.344546	3.094311
| 64> O  -2.517232	3.253430	-0.845066
| 65> H  -1.676692	3.221881	-1.376511
| 66> H  -2.965648	2.418197	-1.092906
| 67> O  -1.972124	-3.259773	-0.382278
| 68> H  -2.446322	-2.426666	-0.018926
| 69> H  -2.530621	-4.009789	-0.138146
| 70> **                         ****END OF INPUT****

CARTESIAN COORDINATES (ANGSTROEM)
---------------------------------
  O      1.748114   -2.332155    2.454696
  H      1.353154   -2.700622    1.634508
  H      1.007584   -1.929562    2.960836
  O      2.694181    0.506458   -0.647431
  H      2.665373    1.498196   -0.646703
  H      3.081047    0.207668    0.212893
  O      1.441636   -2.991264   -2.570180
  H      1.715590   -2.034747   -2.777347
  H      2.063600   -3.558625   -3.043940
  O      0.887308    2.677552    1.529772
  H      1.183097    2.190884    2.344401
  H     -0.047727    2.942781    1.654819
  O      1.771996    1.229043    3.595010
  H      2.409162    0.730063    3.041799
  H      1.114879    0.549587    3.848416
  O     -3.312915    0.676737   -1.557957
  H     -3.946448    0.576001   -2.282315
  H     -2.421853    0.449734   -1.959847
  O      1.945824   -0.498778   -3.025507
  H      2.349194   -0.121984   -2.206516
  H      1.043830   -0.127868   -3.049110
  O     -1.399170    0.390783    1.851764
  H     -1.624355    1.356983    1.852480
  H     -0.702755    0.272882    1.148231
  O     -3.149853   -1.171610    0.480232
  H     -2.587203   -0.626441    1.082940
  H     -3.354971   -0.553035   -0.255739
  O     -1.790055    3.025577    1.590518
  H     -2.348625    3.597858    2.131667
  H     -2.104900    3.148356    0.617594
  O      2.068952    3.049441   -0.667738
  H      1.620158    2.989140    0.247521
  H      2.572494    3.873237   -0.690014
  O      0.246567   -0.308868   -0.065183
  H      0.423139   -1.285453    0.019216
  H      1.144416    0.098584   -0.212984
  O      0.648041   -2.946666    0.022751
  H     -0.301728   -3.212060   -0.069090
  H      1.057379   -3.099163   -0.863055
  O     -1.242235   -2.538463   -2.950744
  H     -1.602649   -2.891643   -2.107503
  H     -0.319043   -2.870249   -2.974334
  O     -0.896016    0.011479   -2.430914
  H     -1.051904   -0.938399   -2.730271
  H     -0.492841   -0.093002   -1.523555
  O      3.267007   -0.341735    1.827181
  H      4.148197   -0.552925    2.165892
  H      2.694938   -1.154226    2.058822
  O     -0.277892    2.822669   -2.222882
  H     -0.368639    1.897253   -2.510127
  H      0.578405    2.891513   -1.748211
  O     -0.117630   -0.821390    3.767222
  H     -0.699084   -1.066221    4.498606
  H     -0.690405   -0.344546    3.094311
  O     -2.517232    3.253430   -0.845066
  H     -1.676692    3.221881   -1.376511
  H     -2.965648    2.418197   -1.092906
  O     -1.972124   -3.259773   -0.382278
  H     -2.446322   -2.426666   -0.018926
  H     -2.530621   -4.009789   -0.138146

 Total Charge           Charge          ....    0
 Multiplicity           Mult            ....    1
 Number of Electrons    NEL             ....  200
 Basis Dimension        Dim             ....  860

ORBITAL ENERGIES
----------------

  NO   OCC          E(Eh)            E(eV)
   0   2.0000     -19.253536      -523.9154
   1   2.0000     -19.250557      -523.8343
   2   2.0000     -19.248461      -523.7773
   3   2.0000     -19.248076      -523.7668
   4   2.0000     -19.246579      -523.7260
   5   2.0000     -19.240319      -523.5557
   6   2.0000     -19.240284      -523.5547
   7   2.0000     -19.239523      -523.5340
   8   2.0000     -19.239467      -523.5325
   9   2.0000     -19.234797      -523.4054
  10   2.0000     -19.234602      -523.4001
  11   2.0000     -19.234306      -523.3921
  12   2.0000     -19.234155      -523.3880
  13   2.0000     -19.226501      -523.1797
  14   2.0000     -19.225576      -523.1545
  15   2.0000     -19.225218      -523.1448
  16   2.0000     -19.220542      -523.0175
  17   2.0000     -19.214701      -522.8586
  18   2.0000     -19.213148      -522.8163
  19   2.0000     -19.210612      -522.7473
  20   2.0000      -1.159618       -31.5548
  21   2.0000      -1.149720       -31.2855
  22   2.0000      -1.149290       -31.2738
  23   2.0000      -1.145990       -31.1840
  24   2.0000      -1.142655       -31.0932
  25   2.0000      -1.140844       -31.0440
  26   2.0000      -1.137950       -30.9652
  27   2.0000      -1.134473       -30.8706
  28   2.0000      -1.131143       -30.7800
  29   2.0000      -1.128747       -30.7148
  30   2.0000      -1.123017       -30.5589
  31   2.0000      -1.117287       -30.4029
  32   2.0000      -1.115721       -30.3603
  33   2.0000      -1.113313       -30.2948
  34   2.0000      -1.109656       -30.1953
  35   2.0000      -1.107514       -30.1370
  36   2.0000      -1.105300       -30.0767
  37   2.0000      -1.102142       -29.9908
  38   2.0000      -1.095838       -29.8193
  39   2.0000      -1.091124       -29.6910
  40   2.0000      -0.664301       -18.0766
  41   2.0000      -0.662802       -18.0358
  42   2.0000      -0.661363       -17.9966
  43   2.0000      -0.656797       -17.8724
  44   2.0000      -0.653676       -17.7874
  45   2.0000      -0.650776       -17.7085
  46   2.0000      -0.648207       -17.6386
  47   2.0000      -0.647150       -17.6099
  48   2.0000      -0.645276       -17.5589
  49   2.0000      -0.642650       -17.4874
  50   2.0000      -0.641497       -17.4560
  51   2.0000      -0.638922       -17.3859
  52   2.0000      -0.636792       -17.3280
  53   2.0000      -0.632610       -17.2142
  54   2.0000      -0.628782       -17.1100
  55   2.0000      -0.626957       -17.0604
  56   2.0000      -0.625511       -17.0210
  57   2.0000      -0.623185       -16.9577
  58   2.0000      -0.616400       -16.7731
  59   2.0000      -0.611154       -16.6304
  60   2.0000      -0.574242       -15.6259
  61   2.0000      -0.562205       -15.2984
  62   2.0000      -0.552738       -15.0408
  63   2.0000      -0.547044       -14.8858
  64   2.0000      -0.546376       -14.8676
  65   2.0000      -0.538815       -14.6619
  66   2.0000      -0.530278       -14.4296
  67   2.0000      -0.523589       -14.2476
  68   2.0000      -0.511757       -13.9256
  69   2.0000      -0.506930       -13.7943
  70   2.0000      -0.505751       -13.7622
  71   2.0000      -0.494215       -13.4483
  72   2.0000      -0.491988       -13.3877
  73   2.0000      -0.490172       -13.3383
  74   2.0000      -0.482044       -13.1171
  75   2.0000      -0.478690       -13.0258
  76   2.0000      -0.473228       -12.8772
  77   2.0000      -0.470039       -12.7904
  78   2.0000      -0.461403       -12.5554
  79   2.0000      -0.448302       -12.1989
  80   2.0000      -0.437344       -11.9007
  81   2.0000      -0.435885       -11.8610
  82   2.0000      -0.433755       -11.8031
  83   2.0000      -0.433120       -11.7858
  84   2.0000      -0.430993       -11.7279
  85   2.0000      -0.429246       -11.6804
  86   2.0000      -0.427255       -11.6262
  87   2.0000      -0.427025       -11.6199
  88   2.0000      -0.426104       -11.5949
  89   2.0000      -0.424352       -11.5472
  90   2.0000      -0.424067       -11.5395
  91   2.0000      -0.420444       -11.4409
  92   2.0000      -0.416695       -11.3388
  93   2.0000      -0.415738       -11.3128
  94   2.0000      -0.412463       -11.2237
  95   2.0000      -0.410823       -11.1791
  96   2.0000      -0.408501       -11.1159
  97   2.0000      -0.405541       -11.0353
  98   2.0000      -0.398514       -10.8441
  99   2.0000      -0.396450       -10.7880
 100   0.0000       0.074022         2.0142
 101   0.0000       0.101334         2.7574
 102   0.0000       0.105068         2.8591
 103   0.0000       0.108484         2.9520
 104   0.0000       0.120521         3.2795

MULLIKEN ATOMIC CHARGES
-----------------------
   0 O :   -0.702082
   1 H :    0.388234
   2 H :    0.362966
   3 O :   -0.759531
   4 H :    0.384785
   5 H :    0.383445
   6 O :   -0.756937
   7 H :    0.378992
   8 H :    0.354840
   9 O :   -0.749476
  10 H :    0.381098
  11 H :    0.370393
  12 O :   -0.695385
  13 H :    0.345159
  14 H :    0.351593
  15 O :   -0.737553
  16 H :    0.354834
  17 H :    0.377657
  18 O :   -0.695559
  19 H :    0.395968
  20 H :    0.348006
  21 O :   -0.773608
  22 H :    0.386543
  23 H :    0.387578
  24 O :   -0.712194
  25 H :    0.380867
  26 H :    0.365371
  27 O :   -0.761806
  28 H :    0.352010
  29 H :    0.386074
  30 O :   -0.755012
  31 H :    0.398256
  32 H :    0.353040
  33 O :   -0.755065
  34 H :    0.348746
  35 H :    0.362017
  36 O :   -0.754229
  37 H :    0.381473
  38 H :    0.384030
  39 O :   -0.703035
  40 H :    0.354673
  41 H :    0.356757
  42 O :   -0.821051
  43 H :    0.403575
  44 H :    0.355592
  45 O :   -0.751373
  46 H :    0.354520
  47 H :    0.373404
  48 O :   -0.705784
  49 H :    0.359013
  50 H :    0.359737
  51 O :   -0.742694
  52 H :    0.351650
  53 H :    0.382188
  54 O :   -0.710408
  55 H :    0.388663
  56 H :    0.360249
  57 O :   -0.764037
  58 H :    0.387730
  59 H :    0.355091
Sum of atomic charges:   -0.0000000

LOEWDIN ATOMIC CHARGES
----------------------
   0 O :   -0.271251
   1 H :    0.143699
   2 H :    0.139962
   3 O :   -0.276390
   4 H :    0.137361
   5 H :    0.140354
   6 O :   -0.300644
   7 H :    0.139545
   8 H :    0.160837
   9 O :   -0.284745
  10 H :    0.139601
  11 H :    0.134833
  12 O :   -0.292427
  13 H :    0.136254
  14 H :    0.138172
  15 O :   -0.285749
  16 H :    0.163625
  17 H :    0.140702
  18 O :   -0.262054
  19 H :    0.144517
  20 H :    0.143492
  21 O :   -0.270852
  22 H :    0.139705
  23 H :    0.133645
  24 O :   -0.271928
  25 H :    0.142174
  26 H :    0.141300
  27 O :   -0.298472
  28 H :    0.158051
  29 H :    0.139674
  30 O :   -0.292334
  31 H :    0.134039
  32 H :    0.159554
  33 O :   -0.264266
  34 H :    0.131453
  35 H :    0.131742
  36 O :   -0.279485
  37 H :    0.137797
  38 H :    0.142921
  39 O :   -0.283509
  40 H :    0.137517
  41 H :    0.138439
  42 O :   -0.312753
  43 H :    0.137092
  44 H :    0.123202
  45 O :   -0.295847
  46 H :    0.160323
  47 H :    0.138273
  48 O :   -0.285734
  49 H :    0.142605
  50 H :    0.143974
  51 O :   -0.293179
  52 H :    0.160822
  53 H :    0.137636
  54 O :   -0.272858
  55 H :    0.144016
  56 H :    0.139407
  57 O :   -0.300471
  58 H :    0.136588
  59 H :    0.160043

  Mayer bond orders larger than 0.1
B(  0-O ,  1-H ) :   0.8226 B(  0-O ,  2-H ) :   0.8220 B(  0-O , 47-H ) :   0.1947
B(  3-O ,  4-H ) :   0.7733 B(  3-O ,  5-H ) :   0.7914 B(  3-O , 35-H ) :   0.1780
B(  4-H , 30-O ) :   0.1250 B(  5-H , 45-O ) :   0.1061 B(  6-O ,  7-H ) :   0.7298
B(  6-O ,  8-H ) :   0.8800 B(  7-H , 18-O ) :   0.1756 B(  9-O , 10-H ) :   0.7664
B(  9-O , 11-H ) :   0.8122 B(  9-O , 31-H ) :   0.1591 B( 10-H , 12-O ) :   0.1440
B( 12-O , 13-H ) :   0.8401 B( 12-O , 14-H ) :   0.8428 B( 15-O , 16-H ) :   0.8802
B( 15-O , 17-H ) :   0.7665 B( 17-H , 42-O ) :   0.1222 B( 18-O , 19-H ) :   0.8026
B( 18-O , 20-H ) :   0.8563 B( 21-O , 22-H ) :   0.7760 B( 21-O , 23-H ) :   0.7768
B( 21-O , 53-H ) :   0.1307 B( 22-H , 27-O ) :   0.1229 B( 24-O , 25-H ) :   0.8074
B( 24-O , 26-H ) :   0.8228 B( 24-O , 58-H ) :   0.1966 B( 27-O , 28-H ) :   0.8819
B( 27-O , 29-H ) :   0.6979 B( 29-H , 54-O ) :   0.2096 B( 30-O , 31-H ) :   0.7210
B( 30-O , 32-H ) :   0.8809 B( 33-O , 34-H ) :   0.7671 B( 33-O , 35-H ) :   0.7520
B( 33-O , 44-H ) :   0.1311 B( 34-H , 36-O ) :   0.1643 B( 36-O , 37-H ) :   0.7877
B( 36-O , 38-H ) :   0.7975 B( 37-H , 57-O ) :   0.1117 B( 39-O , 40-H ) :   0.8294
B( 39-O , 41-H ) :   0.8310 B( 39-O , 43-H ) :   0.1596 B( 42-O , 43-H ) :   0.7358
B( 42-O , 44-H ) :   0.7618 B( 45-O , 46-H ) :   0.8814 B( 45-O , 47-H ) :   0.7196
B( 48-O , 49-H ) :   0.8588 B( 48-O , 50-H ) :   0.8301 B( 48-O , 55-H ) :   0.1042
B( 51-O , 52-H ) :   0.8818 B( 51-O , 53-H ) :   0.7593 B( 54-O , 55-H ) :   0.7903
B( 54-O , 56-H ) :   0.8402 B( 57-O , 58-H ) :   0.7062 B( 57-O , 59-H ) :   0.8805

Dispersion correction           -0.041867257
FINAL SINGLE POINT ENERGY     -1529.157470236912

DIPOLE MOMENT
-------------
                                X             Y             Z
Electronic contribution:      0.00657       0.19956      -0.07608
Nuclear contribution   :     -0.12301      -1.29129       0.69192
                        -----------------------------------------
Total Dipole Moment    :     -0.11644      -1.09174       0.61584
                        -----------------------------------------
Magnitude (a.u.)       :      1.25885
Magnitude (Debye)      :      3.19974

                             ****ORCA TERMINATED NORMALLY****
TOTAL RUN TIME: 0 days 0 hours 2 minutes 52 seconds 286 msec
