                         Program Version 3.0.3 - RELEASE   -
|  1> ! B3LYP Def2-TZVP def2-TZVP/J RIJCOSX TightSCF Grid4 D3BJ
|  2>
|  3> %pal nprocs 12 end
|  4>
|  5> %scf
|  6>         maxiter 400
|  7> end
|  8>
|  9> * xyz  0  1
| 10> O  1.842899	-2.299950	2.390281
| 11> H  1.367317	-2.670824	1.596202
| 12> H  1.138588	-1.812962	2.905525
| 13> O  2.573762	0.481785	-0.531310
| 14> H  2.441273	1.493514	-0.499255
| 15> H  3.072820	0.184914	0.292722
| 16> O  1.335547	-3.002339	-2.409026
| 17> H  1.674216	-2.030132	-2.623527
| 18> H  1.957773	-3.612348	-2.844917
| 19> O  0.924544	3.269210	1.770586
| 20> H  1.296666	2.535925	2.375068
| 21> H  -0.067691	3.140934	1.762392
| 22> O  1.917773	1.366400	3.282505
| 23> H  2.570697	0.806323	2.783641
| 24> H  1.240899	0.700001	3.571351
| 25> O  -3.190365	0.632552	-1.660208
| 26> H  -3.782983	0.607427	-2.434703
| 27> H  -2.256447	0.422094	-2.032143
| 28> O  1.974384	-0.595125	-2.898099
| 29> H  2.349736	-0.194857	-2.055884
| 30> H  1.068561	-0.196267	-2.949374
| 31> O  -1.527352	0.189091	1.856018
| 32> H  -1.685508	1.196224	1.858426
| 33> H  -0.833345	0.059795	1.120655
| 34> O  -3.320485	-1.161429	0.379754
| 35> H  -2.741258	-0.670570	1.040585
| 36> H  -3.405117	-0.512989	-0.375431
| 37> O  -1.732239	2.776417	1.598199
| 38> H  -2.325009	3.334075	2.134922
| 39> H  -2.040644	2.935259	0.570965
| 40> O  1.817932	2.949373	-0.511850
| 41> H  1.419531	3.113763	0.495046
| 42> H  2.404003	3.705773	-0.699158
| 43> O  0.176614	-0.366981	-0.020255
| 44> H  0.329236	-1.372795	0.061470
| 45> H  1.120216	0.018580	-0.127992
| 46> O  0.505849	-2.960369	0.110810
| 47> H  -0.469026	-3.179092	-0.027491
| 48> H  0.927861	-3.100501	-0.792988
| 49> O  -1.250439	-2.429203	-3.031011
| 50> H  -1.658437	-2.751317	-2.176182
| 51> H  -0.328095	-2.803014	-2.977444
| 52> O  -0.769991	0.028967	-2.435529
| 53> H  -0.975062	-0.937526	-2.766660
| 54> H  -0.434826	-0.130406	-1.486390
| 55> O  3.419379	-0.403288	1.791037
| 56> H  4.315579	-0.645292	2.086867
| 57> H  2.807541	-1.230716	2.014729
| 58> O  -0.284615	2.836717	-2.227265
| 59> H  -0.353314	1.893171	-2.502555
| 60> H  0.520601	2.877825	-1.632590
| 61> O  0.093611	-0.660918	3.668729
| 62> H  -0.361218	-0.886139	4.500318
| 63> H  -0.635934	-0.331310	3.020063
| 64> O  -2.438683	3.116027	-0.763971
| 65> H  -1.594951	3.120208	-1.343858
| 66> H  -2.879398	2.273896	-1.057214
| 67> O  -2.054639	-3.139931	-0.528603
| 68> H  -2.593089	-2.314756	-0.124164
| 69> H  -2.629523	-3.916855	-0.400754
| 70> **                         ****END OF INPUT****

CARTESIAN COORDINATES (ANGSTROEM)
---------------------------------
  O      1.842899   -2.299950    2.390281
  H      1.367317   -2.670824    1.596202
  H      1.138588   -1.812962    2.905525
  O      2.573762    0.481785   -0.531310
  H      2.441273    1.493514   -0.499255
  H      3.072820    0.184914    0.292722
  O      1.335547   -3.002339   -2.409026
  H      1.674216   -2.030132   -2.623527
  H      1.957773   -3.612348   -2.844917
  O      0.924544    3.269210    1.770586
  H      1.296666    2.535925    2.375068
  H     -0.067691    3.140934    1.762392
  O      1.917773    1.366400    3.282505
  H      2.570697    0.806323    2.783641
  H      1.240899    0.700001    3.571351
  O     -3.190365    0.632552   -1.660208
  H     -3.782983    0.607427   -2.434703
  H     -2.256447    0.422094   -2.032143
  O      1.974384   -0.595125   -2.898099
  H      2.349736   -0.194857   -2.055884
  H      1.068561   -0.196267   -2.949374
  O     -1.527352    0.189091    1.856018
  H     -1.685508    1.196224    1.858426
  H     -0.833345    0.059795    1.120655
  O     -3.320485   -1.161429    0.379754
  H     -2.741258   -0.670570    1.040585
  H     -3.405117   -0.512989   -0.375431
  O     -1.732239    2.776417    1.598199
  H     -2.325009    3.334075    2.134922
  H     -2.040644    2.935259    0.570965
  O      1.817932    2.949373   -0.511850
  H      1.419531    3.113763    0.495046
  H      2.404003    3.705773   -0.699158
  O      0.176614   -0.366981   -0.020255
  H      0.329236   -1.372795    0.061470
  H      1.120216    0.018580   -0.127992
  O      0.505849   -2.960369    0.110810
  H     -0.469026   -3.179092   -0.027491
  H      0.927861   -3.100501   -0.792988
  O     -1.250439   -2.429203   -3.031011
  H     -1.658437   -2.751317   -2.176182
  H     -0.328095   -2.803014   -2.977444
  O     -0.769991    0.028967   -2.435529
  H     -0.975062   -0.937526   -2.766660
  H     -0.434826   -0.130406   -1.486390
  O      3.419379   -0.403288    1.791037
  H      4.315579   -0.645292    2.086867
  H      2.807541   -1.230716    2.014729
  O     -0.284615    2.836717   -2.227265
  H     -0.353314    1.893171   -2.502555
  H      0.520601    2.877825   -1.632590
  O      0.093611   -0.660918    3.668729
  H     -0.361218   -0.886139    4.500318
  H     -0.635934   -0.331310    3.020063
  O     -2.438683    3.116027   -0.763971
  H     -1.594951    3.120208   -1.343858
  H     -2.879398    2.273896   -1.057214
  O     -2.054639   -3.139931   -0.528603
  H     -2.593089   -2.314756   -0.124164
  H     -2.629523   -3.916855   -0.400754

 Total Charge           Charge          ....    0
 Multiplicity           Mult            ....    1
 Number of Electrons    NEL             ....  200
 Basis Dimension        Dim             ....  860

ORBITAL ENERGIES
----------------

  NO   OCC          E(Eh)            E(eV)
   0   2.0000     -19.150585      -521.1139
   1   2.0000     -19.145010      -520.9622
   2   2.0000     -19.144149      -520.9388
   3   2.0000     -19.142109      -520.8833
   4   2.0000     -19.138917      -520.7964
   5   2.0000     -19.134562      -520.6779
   6   2.0000     -19.133109      -520.6384
   7   2.0000     -19.131561      -520.5963
   8   2.0000     -19.130797      -520.5755
   9   2.0000     -19.129309      -520.5350
  10   2.0000     -19.128342      -520.5086
  11   2.0000     -19.126984      -520.4717
  12   2.0000     -19.126842      -520.4678
  13   2.0000     -19.124628      -520.4076
  14   2.0000     -19.123616      -520.3801
  15   2.0000     -19.123125      -520.3667
  16   2.0000     -19.115477      -520.1586
  17   2.0000     -19.112037      -520.0650
  18   2.0000     -19.110368      -520.0195
  19   2.0000     -19.108206      -519.9607
  20   2.0000      -1.043818       -28.4037
  21   2.0000      -1.033778       -28.1305
  22   2.0000      -1.032236       -28.0886
  23   2.0000      -1.027300       -27.9543
  24   2.0000      -1.023734       -27.8572
  25   2.0000      -1.022078       -27.8122
  26   2.0000      -1.018951       -27.7271
  27   2.0000      -1.015773       -27.6406
  28   2.0000      -1.012089       -27.5404
  29   2.0000      -1.010810       -27.5055
  30   2.0000      -1.003909       -27.3177
  31   2.0000      -0.998447       -27.1691
  32   2.0000      -0.997733       -27.1497
  33   2.0000      -0.994456       -27.0605
  34   2.0000      -0.989098       -26.9147
  35   2.0000      -0.987509       -26.8715
  36   2.0000      -0.984419       -26.7874
  37   2.0000      -0.979090       -26.6424
  38   2.0000      -0.974663       -26.5219
  39   2.0000      -0.970538       -26.4097
  40   2.0000      -0.556006       -15.1297
  41   2.0000      -0.555082       -15.1045
  42   2.0000      -0.551846       -15.0165
  43   2.0000      -0.550854       -14.9895
  44   2.0000      -0.547599       -14.9009
  45   2.0000      -0.544215       -14.8088
  46   2.0000      -0.540511       -14.7081
  47   2.0000      -0.537554       -14.6276
  48   2.0000      -0.536464       -14.5979
  49   2.0000      -0.533158       -14.5080
  50   2.0000      -0.532368       -14.4865
  51   2.0000      -0.529354       -14.4045
  52   2.0000      -0.528756       -14.3882
  53   2.0000      -0.525324       -14.2948
  54   2.0000      -0.522955       -14.2303
  55   2.0000      -0.520641       -14.1674
  56   2.0000      -0.519312       -14.1312
  57   2.0000      -0.514874       -14.0104
  58   2.0000      -0.512783       -13.9535
  59   2.0000      -0.509754       -13.8711
  60   2.0000      -0.476543       -12.9674
  61   2.0000      -0.467289       -12.7156
  62   2.0000      -0.455936       -12.4067
  63   2.0000      -0.452320       -12.3082
  64   2.0000      -0.449360       -12.2277
  65   2.0000      -0.444509       -12.0957
  66   2.0000      -0.432415       -11.7666
  67   2.0000      -0.424272       -11.5450
  68   2.0000      -0.415376       -11.3030
  69   2.0000      -0.409214       -11.1353
  70   2.0000      -0.406968       -11.0742
  71   2.0000      -0.396485       -10.7889
  72   2.0000      -0.393181       -10.6990
  73   2.0000      -0.390970       -10.6388
  74   2.0000      -0.383261       -10.4291
  75   2.0000      -0.382702       -10.4138
  76   2.0000      -0.373487       -10.1631
  77   2.0000      -0.371768       -10.1163
  78   2.0000      -0.363624        -9.8947
  79   2.0000      -0.349337        -9.5060
  80   2.0000      -0.338184        -9.2025
  81   2.0000      -0.337996        -9.1973
  82   2.0000      -0.335188        -9.1209
  83   2.0000      -0.334589        -9.1046
  84   2.0000      -0.332373        -9.0443
  85   2.0000      -0.331159        -9.0113
  86   2.0000      -0.328425        -8.9369
  87   2.0000      -0.326740        -8.8910
  88   2.0000      -0.326326        -8.8798
  89   2.0000      -0.324679        -8.8350
  90   2.0000      -0.320923        -8.7327
  91   2.0000      -0.320535        -8.7222
  92   2.0000      -0.318883        -8.6772
  93   2.0000      -0.318381        -8.6636
  94   2.0000      -0.316048        -8.6001
  95   2.0000      -0.313404        -8.5281
  96   2.0000      -0.311110        -8.4657
  97   2.0000      -0.306578        -8.3424
  98   2.0000      -0.300368        -8.1734
  99   2.0000      -0.299178        -8.1411
 100   0.0000      -0.008714        -0.2371
 101   0.0000       0.013216         0.3596
 102   0.0000       0.017157         0.4669
 103   0.0000       0.023394         0.6366
 104   0.0000       0.030385         0.8268

MULLIKEN ATOMIC CHARGES
-----------------------
   0 O :   -0.691992
   1 H :    0.390002
   2 H :    0.359454
   3 O :   -0.766375
   4 H :    0.379790
   5 H :    0.382801
   6 O :   -0.744047
   7 H :    0.374718
   8 H :    0.336765
   9 O :   -0.694438
  10 H :    0.391544
  11 H :    0.361421
  12 O :   -0.708809
  13 H :    0.354462
  14 H :    0.351473
  15 O :   -0.729163
  16 H :    0.339926
  17 H :    0.380623
  18 O :   -0.683285
  19 H :    0.392295
  20 H :    0.354889
  21 O :   -0.779783
  22 H :    0.381491
  23 H :    0.398907
  24 O :   -0.697204
  25 H :    0.386032
  26 H :    0.367065
  27 O :   -0.754224
  28 H :    0.335109
  29 H :    0.378469
  30 O :   -0.760875
  31 H :    0.379730
  32 H :    0.336890
  33 O :   -0.793556
  34 H :    0.361336
  35 H :    0.373457
  36 O :   -0.749532
  37 H :    0.376978
  38 H :    0.379249
  39 O :   -0.688797
  40 H :    0.351498
  41 H :    0.352198
  42 O :   -0.838596
  43 H :    0.396954
  44 H :    0.377797
  45 O :   -0.741143
  46 H :    0.335372
  47 H :    0.376470
  48 O :   -0.704693
  49 H :    0.359920
  50 H :    0.361509
  51 O :   -0.729485
  52 H :    0.334358
  53 H :    0.384324
  54 O :   -0.689217
  55 H :    0.386693
  56 H :    0.358437
  57 O :   -0.752171
  58 H :    0.379700
  59 H :    0.337279
Sum of atomic charges:   -0.0000000

LOEWDIN ATOMIC CHARGES
----------------------
   0 O :   -0.269116
   1 H :    0.150668
   2 H :    0.145789
   3 O :   -0.287743
   4 H :    0.139025
   5 H :    0.142117
   6 O :   -0.311513
   7 H :    0.141882
   8 H :    0.160558
   9 O :   -0.251416
  10 H :    0.148105
  11 H :    0.142424
  12 O :   -0.301269
  13 H :    0.143127
  14 H :    0.142648
  15 O :   -0.291851
  16 H :    0.165557
  17 H :    0.144017
  18 O :   -0.259867
  19 H :    0.150598
  20 H :    0.149309
  21 O :   -0.288492
  22 H :    0.141624
  23 H :    0.135311
  24 O :   -0.265996
  25 H :    0.148535
  26 H :    0.145820
  27 O :   -0.315638
  28 H :    0.157250
  29 H :    0.137389
  30 O :   -0.319889
  31 H :    0.134122
  32 H :    0.156643
  33 O :   -0.284728
  34 H :    0.133173
  35 H :    0.134663
  36 O :   -0.287203
  37 H :    0.143760
  38 H :    0.144125
  39 O :   -0.283213
  40 H :    0.141880
  41 H :    0.143788
  42 O :   -0.328160
  43 H :    0.139691
  44 H :    0.127354
  45 O :   -0.307806
  46 H :    0.159729
  47 H :    0.142849
  48 O :   -0.293667
  49 H :    0.145993
  50 H :    0.143587
  51 O :   -0.300976
  52 H :    0.161541
  53 H :    0.143286
  54 O :   -0.257802
  55 H :    0.150314
  56 H :    0.143936
  57 O :   -0.316456
  58 H :    0.141196
  59 H :    0.159422

  Mayer bond orders larger than 0.1
B(  0-O ,  1-H ) :   0.8092 B(  0-O ,  2-H ) :   0.8073 B(  0-O , 47-H ) :   0.2311
B(  2-H , 51-O ) :   0.1068 B(  3-O ,  4-H ) :   0.7320 B(  3-O ,  5-H ) :   0.7639
B(  3-O , 35-H ) :   0.2137 B(  4-H , 30-O ) :   0.1728 B(  5-H , 45-O ) :   0.1340
B(  6-O ,  7-H ) :   0.6839 B(  6-O ,  8-H ) :   0.8854 B(  6-O , 38-H ) :   0.1305
B(  6-O , 41-H ) :   0.1063 B(  7-H , 18-O ) :   0.2257 B(  9-O , 10-H ) :   0.7478
B(  9-O , 11-H ) :   0.7973 B(  9-O , 31-H ) :   0.3035 B( 10-H , 12-O ) :   0.1460
B( 11-H , 27-O ) :   0.1168 B( 12-O , 13-H ) :   0.8220 B( 12-O , 14-H ) :   0.8266
B( 15-O , 16-H ) :   0.8845 B( 15-O , 17-H ) :   0.7315 B( 17-H , 42-O ) :   0.1560
B( 18-O , 19-H ) :   0.7872 B( 18-O , 20-H ) :   0.8405 B( 21-O , 22-H ) :   0.7389
B( 21-O , 23-H ) :   0.7549 B( 21-O , 25-H ) :   0.1069 B( 21-O , 53-H ) :   0.1619
B( 22-H , 27-O ) :   0.1656 B( 23-H , 33-O ) :   0.1091 B( 24-O , 25-H ) :   0.7883
B( 24-O , 26-H ) :   0.8086 B( 24-O , 58-H ) :   0.2549 B( 27-O , 28-H ) :   0.8874
B( 27-O , 29-H ) :   0.6276 B( 29-H , 54-O ) :   0.2872 B( 30-O , 31-H ) :   0.6122
B( 30-O , 32-H ) :   0.8867 B( 30-O , 50-H ) :   0.1159 B( 33-O , 34-H ) :   0.7262
B( 33-O , 35-H ) :   0.7084 B( 33-O , 44-H ) :   0.1356 B( 34-H , 36-O ) :   0.1971
B( 36-O , 37-H ) :   0.7716 B( 36-O , 38-H ) :   0.7735 B( 37-H , 57-O ) :   0.1371
B( 39-O , 40-H ) :   0.8097 B( 39-O , 41-H ) :   0.8194 B( 39-O , 43-H ) :   0.2113
B( 40-H , 57-O ) :   0.1181 B( 42-O , 43-H ) :   0.6933 B( 42-O , 44-H ) :   0.7367
B( 45-O , 46-H ) :   0.8875 B( 45-O , 47-H ) :   0.6813 B( 48-O , 49-H ) :   0.8534
B( 48-O , 50-H ) :   0.7975 B( 48-O , 55-H ) :   0.1553 B( 51-O , 52-H ) :   0.8870
B( 51-O , 53-H ) :   0.7271 B( 54-O , 55-H ) :   0.7488 B( 54-O , 56-H ) :   0.8243
B( 57-O , 58-H ) :   0.6567 B( 57-O , 59-H ) :   0.8867

Dispersion correction           -0.078806633
FINAL SINGLE POINT ENERGY     -1528.910387981778

DIPOLE MOMENT
-------------
                                X             Y             Z
Electronic contribution:     -0.06645       0.32557       0.00919
Nuclear contribution   :     -0.04556      -1.77707       0.49833
                        -----------------------------------------
Total Dipole Moment    :     -0.11201      -1.45150       0.50752
                        -----------------------------------------
Magnitude (a.u.)       :      1.54174
Magnitude (Debye)      :      3.91880

                             ****ORCA TERMINATED NORMALLY****
TOTAL RUN TIME: 0 days 0 hours 3 minutes 37 seconds 193 msec
