                         Program Version 3.0.3 - RELEASE   -
|  1> ! B3LYP Def2-TZVP def2-TZVP/J RIJCOSX TightSCF Grid4 D3BJ COSMO
|  2>
|  3> %pal nprocs 12 end
|  4>
|  5> %scf
|  6>         maxiter 400
|  7> end
|  8>
|  9> %cosmo
| 10>         SMD true
| 11>         solvent "WATER"
| 12> end
| 13>
| 14> * xyz  0  1
| 15> O  1.817869	-2.316276	2.412570
| 16> H  1.338673	-2.641333	1.600213
| 17> H  1.129474	-1.783221	2.913686
| 18> O  2.602603	0.460913	-0.525459
| 19> H  2.407964	1.459144	-0.478255
| 20> H  3.054009	0.185501	0.338476
| 21> O  1.296872	-2.984759	-2.410684
| 22> H  1.677040	-2.057525	-2.637899
| 23> H  1.889206	-3.634558	-2.837124
| 24> O  0.920285	3.310569	1.859007
| 25> H  1.287371	2.547542	2.424697
| 26> H  -0.066733	3.138984	1.796300
| 27> O  1.946939	1.397260	3.365560
| 28> H  2.577716	0.835876	2.828625
| 29> H  1.247430	0.726135	3.612661
| 30> O  -3.196679	0.658697	-1.569516
| 31> H  -3.820913	0.627791	-2.322194
| 32> H  -2.291001	0.436658	-1.971010
| 33> O  1.990290	-0.531650	-2.933911
| 34> H  2.349836	-0.191797	-2.060292
| 35> H  1.062037	-0.181396	-2.937260
| 36> O  -1.517384	0.145131	1.831953
| 37> H  -1.651127	1.153941	1.798923
| 38> H  -0.826153	-0.015828	1.103274
| 39> O  -3.403225	-1.145184	0.427806
| 40> H  -2.764680	-0.682841	1.055929
| 41> H  -3.447187	-0.495774	-0.334669
| 42> O  -1.689468	2.741443	1.537311
| 43> H  -2.317014	3.222563	2.112432
| 44> H  -2.004023	2.938614	0.559355
| 45> O  1.745763	2.913082	-0.500927
| 46> H  1.414436	3.107865	0.481599
| 47> H  2.380068	3.627058	-0.711826
| 48> O  0.208984	-0.426079	-0.032031
| 49> H  0.358109	-1.433146	0.056930
| 50> H  1.152210	-0.042223	-0.143308
| 51> O  0.507120	-3.017353	0.117979
| 52> H  -0.480898	-3.166400	-0.042384
| 53> H  0.918796	-3.113844	-0.798643
| 54> O  -1.250358	-2.414947	-3.081534
| 55> H  -1.653692	-2.701687	-2.205087
| 56> H  -0.315228	-2.764115	-2.992581
| 57> O  -0.757984	0.032825	-2.418779
| 58> H  -0.979598	-0.915384	-2.779818
| 59> H  -0.421432	-0.160776	-1.474432
| 60> O  3.373545	-0.338657	1.835323
| 61> H  4.291814	-0.568871	2.078026
| 62> H  2.805832	-1.182282	2.039333
| 63> O  -0.239232	2.787713	-2.309028
| 64> H  -0.360369	1.823583	-2.497253
| 65> H  0.514992	2.829293	-1.644392
| 66> O  0.161425	-0.607230	3.672487
| 67> H  -0.283677	-0.858492	4.505546
| 68> H  -0.584643	-0.321257	3.035820
| 69> O  -2.442652	3.168995	-0.868517
| 70> H  -1.590916	3.122467	-1.421370
| 71> H  -2.872226	2.296664	-1.105742
| 72> O  -2.035718	-3.066390	-0.591953
| 73> H  -2.605101	-2.309786	-0.157333
| 74> H  -2.573676	-3.879208	-0.515538
| 75> **                         ****END OF INPUT****

CARTESIAN COORDINATES (ANGSTROEM)
---------------------------------
  O      1.817869   -2.316276    2.412570
  H      1.338673   -2.641333    1.600213
  H      1.129474   -1.783221    2.913686
  O      2.602603    0.460913   -0.525459
  H      2.407964    1.459144   -0.478255
  H      3.054009    0.185501    0.338476
  O      1.296872   -2.984759   -2.410684
  H      1.677040   -2.057525   -2.637899
  H      1.889206   -3.634558   -2.837124
  O      0.920285    3.310569    1.859007
  H      1.287371    2.547542    2.424697
  H     -0.066733    3.138984    1.796300
  O      1.946939    1.397260    3.365560
  H      2.577716    0.835876    2.828625
  H      1.247430    0.726135    3.612661
  O     -3.196679    0.658697   -1.569516
  H     -3.820913    0.627791   -2.322194
  H     -2.291001    0.436658   -1.971010
  O      1.990290   -0.531650   -2.933911
  H      2.349836   -0.191797   -2.060292
  H      1.062037   -0.181396   -2.937260
  O     -1.517384    0.145131    1.831953
  H     -1.651127    1.153941    1.798923
  H     -0.826153   -0.015828    1.103274
  O     -3.403225   -1.145184    0.427806
  H     -2.764680   -0.682841    1.055929
  H     -3.447187   -0.495774   -0.334669
  O     -1.689468    2.741443    1.537311
  H     -2.317014    3.222563    2.112432
  H     -2.004023    2.938614    0.559355
  O      1.745763    2.913082   -0.500927
  H      1.414436    3.107865    0.481599
  H      2.380068    3.627058   -0.711826
  O      0.208984   -0.426079   -0.032031
  H      0.358109   -1.433146    0.056930
  H      1.152210   -0.042223   -0.143308
  O      0.507120   -3.017353    0.117979
  H     -0.480898   -3.166400   -0.042384
  H      0.918796   -3.113844   -0.798643
  O     -1.250358   -2.414947   -3.081534
  H     -1.653692   -2.701687   -2.205087
  H     -0.315228   -2.764115   -2.992581
  O     -0.757984    0.032825   -2.418779
  H     -0.979598   -0.915384   -2.779818
  H     -0.421432   -0.160776   -1.474432
  O      3.373545   -0.338657    1.835323
  H      4.291814   -0.568871    2.078026
  H      2.805832   -1.182282    2.039333
  O     -0.239232    2.787713   -2.309028
  H     -0.360369    1.823583   -2.497253
  H      0.514992    2.829293   -1.644392
  O      0.161425   -0.607230    3.672487
  H     -0.283677   -0.858492    4.505546
  H     -0.584643   -0.321257    3.035820
  O     -2.442652    3.168995   -0.868517
  H     -1.590916    3.122467   -1.421370
  H     -2.872226    2.296664   -1.105742
  O     -2.035718   -3.066390   -0.591953
  H     -2.605101   -2.309786   -0.157333
  H     -2.573676   -3.879208   -0.515538

 Total Charge           Charge          ....    0
 Multiplicity           Mult            ....    1
 Number of Electrons    NEL             ....  200
 Basis Dimension        Dim             ....  860

ORBITAL ENERGIES
----------------

  NO   OCC          E(Eh)            E(eV)
   0   2.0000     -19.139652      -520.8164
   1   2.0000     -19.134187      -520.6677
   2   2.0000     -19.131419      -520.5924
   3   2.0000     -19.131349      -520.5905
   4   2.0000     -19.131021      -520.5816
   5   2.0000     -19.129886      -520.5507
   6   2.0000     -19.129326      -520.5354
   7   2.0000     -19.128840      -520.5222
   8   2.0000     -19.128604      -520.5158
   9   2.0000     -19.126816      -520.4671
  10   2.0000     -19.126089      -520.4473
  11   2.0000     -19.121710      -520.3282
  12   2.0000     -19.121472      -520.3217
  13   2.0000     -19.121347      -520.3183
  14   2.0000     -19.120400      -520.2925
  15   2.0000     -19.120359      -520.2914
  16   2.0000     -19.118932      -520.2526
  17   2.0000     -19.117792      -520.2216
  18   2.0000     -19.114137      -520.1221
  19   2.0000     -19.112633      -520.0812
  20   2.0000      -1.037836       -28.2409
  21   2.0000      -1.025837       -27.9144
  22   2.0000      -1.025034       -27.8926
  23   2.0000      -1.021092       -27.7853
  24   2.0000      -1.016899       -27.6712
  25   2.0000      -1.015464       -27.6322
  26   2.0000      -1.014479       -27.6054
  27   2.0000      -1.010089       -27.4859
  28   2.0000      -1.008673       -27.4474
  29   2.0000      -1.006451       -27.3869
  30   2.0000      -1.002478       -27.2788
  31   2.0000      -0.997443       -27.1418
  32   2.0000      -0.994397       -27.0589
  33   2.0000      -0.993939       -27.0465
  34   2.0000      -0.984143       -26.7799
  35   2.0000      -0.981632       -26.7116
  36   2.0000      -0.980350       -26.6767
  37   2.0000      -0.978331       -26.6217
  38   2.0000      -0.974353       -26.5135
  39   2.0000      -0.972455       -26.4618
  40   2.0000      -0.546220       -14.8634
  41   2.0000      -0.543127       -14.7792
  42   2.0000      -0.540188       -14.6993
  43   2.0000      -0.537480       -14.6256
  44   2.0000      -0.537098       -14.6152
  45   2.0000      -0.533945       -14.5294
  46   2.0000      -0.532808       -14.4984
  47   2.0000      -0.529718       -14.4144
  48   2.0000      -0.528949       -14.3934
  49   2.0000      -0.527370       -14.3505
  50   2.0000      -0.527078       -14.3425
  51   2.0000      -0.523343       -14.2409
  52   2.0000      -0.522744       -14.2246
  53   2.0000      -0.521939       -14.2027
  54   2.0000      -0.520404       -14.1609
  55   2.0000      -0.519203       -14.1282
  56   2.0000      -0.515609       -14.0304
  57   2.0000      -0.514270       -13.9940
  58   2.0000      -0.512131       -13.9358
  59   2.0000      -0.509497       -13.8641
  60   2.0000      -0.467843       -12.7307
  61   2.0000      -0.460466       -12.5299
  62   2.0000      -0.452616       -12.3163
  63   2.0000      -0.447218       -12.1694
  64   2.0000      -0.443455       -12.0670
  65   2.0000      -0.440344       -11.9824
  66   2.0000      -0.425610       -11.5814
  67   2.0000      -0.422805       -11.5051
  68   2.0000      -0.416305       -11.3282
  69   2.0000      -0.406214       -11.0537
  70   2.0000      -0.401866       -10.9353
  71   2.0000      -0.395826       -10.7710
  72   2.0000      -0.394236       -10.7277
  73   2.0000      -0.390298       -10.6205
  74   2.0000      -0.387232       -10.5371
  75   2.0000      -0.383181       -10.4269
  76   2.0000      -0.373394       -10.1606
  77   2.0000      -0.370427       -10.0798
  78   2.0000      -0.365870        -9.9558
  79   2.0000      -0.353447        -9.6178
  80   2.0000      -0.331900        -9.0315
  81   2.0000      -0.329143        -8.9564
  82   2.0000      -0.328194        -8.9306
  83   2.0000      -0.326826        -8.8934
  84   2.0000      -0.326108        -8.8739
  85   2.0000      -0.325018        -8.8442
  86   2.0000      -0.324530        -8.8309
  87   2.0000      -0.324041        -8.8176
  88   2.0000      -0.322775        -8.7832
  89   2.0000      -0.321188        -8.7400
  90   2.0000      -0.320181        -8.7126
  91   2.0000      -0.318463        -8.6658
  92   2.0000      -0.316816        -8.6210
  93   2.0000      -0.315862        -8.5950
  94   2.0000      -0.314875        -8.5682
  95   2.0000      -0.314413        -8.5556
  96   2.0000      -0.312859        -8.5133
  97   2.0000      -0.311244        -8.4694
  98   2.0000      -0.310164        -8.4400
  99   2.0000      -0.308427        -8.3927
 100   0.0000       0.004207         0.1145
 101   0.0000       0.033999         0.9252
 102   0.0000       0.037836         1.0296
 103   0.0000       0.043669         1.1883
 104   0.0000       0.058098         1.5809

MULLIKEN ATOMIC CHARGES
-----------------------
   0 O :   -0.750052
   1 H :    0.394073
   2 H :    0.371061
   3 O :   -0.782885
   4 H :    0.385662
   5 H :    0.391061
   6 O :   -0.750712
   7 H :    0.381250
   8 H :    0.390458
   9 O :   -0.761290
  10 H :    0.381871
  11 H :    0.375474
  12 O :   -0.770342
  13 H :    0.373446
  14 H :    0.370403
  15 O :   -0.742435
  16 H :    0.391972
  17 H :    0.379119
  18 O :   -0.744686
  19 H :    0.398274
  20 H :    0.366033
  21 O :   -0.790189
  22 H :    0.388591
  23 H :    0.394695
  24 O :   -0.758354
  25 H :    0.391082
  26 H :    0.378237
  27 O :   -0.752047
  28 H :    0.387903
  29 H :    0.379663
  30 O :   -0.756977
  31 H :    0.380939
  32 H :    0.388361
  33 O :   -0.794699
  34 H :    0.365009
  35 H :    0.370141
  36 O :   -0.767382
  37 H :    0.387755
  38 H :    0.388659
  39 O :   -0.752364
  40 H :    0.369431
  41 H :    0.370414
  42 O :   -0.853610
  43 H :    0.404105
  44 H :    0.382136
  45 O :   -0.750529
  46 H :    0.387096
  47 H :    0.380919
  48 O :   -0.764711
  49 H :    0.380589
  50 H :    0.375810
  51 O :   -0.747718
  52 H :    0.386678
  53 H :    0.391434
  54 O :   -0.757486
  55 H :    0.379624
  56 H :    0.378293
  57 O :   -0.756840
  58 H :    0.378271
  59 H :    0.389316
Sum of atomic charges:    0.0000000

LOEWDIN ATOMIC CHARGES
----------------------
   0 O :   -0.315035
   1 H :    0.149291
   2 H :    0.146481
   3 O :   -0.298542
   4 H :    0.140363
   5 H :    0.142725
   6 O :   -0.282023
   7 H :    0.149619
   8 H :    0.189232
   9 O :   -0.318381
  10 H :    0.143592
  11 H :    0.142739
  12 O :   -0.342721
  13 H :    0.145408
  14 H :    0.144306
  15 O :   -0.273454
  16 H :    0.191749
  17 H :    0.146208
  18 O :   -0.309390
  19 H :    0.149090
  20 H :    0.148783
  21 O :   -0.295506
  22 H :    0.143572
  23 H :    0.135144
  24 O :   -0.319622
  25 H :    0.146034
  26 H :    0.145056
  27 O :   -0.280613
  28 H :    0.186232
  29 H :    0.144456
  30 O :   -0.283945
  31 H :    0.141183
  32 H :    0.185332
  33 O :   -0.284103
  34 H :    0.134708
  35 H :    0.134916
  36 O :   -0.298123
  37 H :    0.146904
  38 H :    0.146380
  39 O :   -0.321958
  40 H :    0.144518
  41 H :    0.146504
  42 O :   -0.334273
  43 H :    0.141172
  44 H :    0.127782
  45 O :   -0.281309
  46 H :    0.186525
  47 H :    0.148199
  48 O :   -0.334478
  49 H :    0.146696
  50 H :    0.143741
  51 O :   -0.282580
  52 H :    0.187778
  53 H :    0.147295
  54 O :   -0.321726
  55 H :    0.146330
  56 H :    0.146455
  57 O :   -0.286950
  58 H :    0.145539
  59 H :    0.186697

  Mayer bond orders larger than 0.1
B(  0-O ,  1-H ) :   0.8022 B(  0-O ,  2-H ) :   0.7847 B(  0-O , 47-H ) :   0.1910
B(  2-H , 51-O ) :   0.1251 B(  3-O ,  4-H ) :   0.7343 B(  3-O ,  5-H ) :   0.7448
B(  3-O , 35-H ) :   0.2158 B(  4-H , 30-O ) :   0.1636 B(  5-H , 45-O ) :   0.1501
B(  6-O ,  7-H ) :   0.7290 B(  6-O ,  8-H ) :   0.8469 B(  6-O , 38-H ) :   0.1337
B(  6-O , 41-H ) :   0.1225 B(  7-H , 18-O ) :   0.1675 B(  9-O , 10-H ) :   0.7531
B(  9-O , 11-H ) :   0.7813 B(  9-O , 31-H ) :   0.2325 B( 10-H , 12-O ) :   0.1526
B( 11-H , 27-O ) :   0.1240 B( 12-O , 13-H ) :   0.7944 B( 12-O , 14-H ) :   0.7932
B( 13-H , 45-O ) :   0.1153 B( 14-H , 51-O ) :   0.1196 B( 15-O , 16-H ) :   0.8467
B( 15-O , 17-H ) :   0.7574 B( 15-O , 26-H ) :   0.1096 B( 15-O , 56-H ) :   0.1062
B( 17-H , 42-O ) :   0.1285 B( 18-O , 19-H ) :   0.7828 B( 18-O , 20-H ) :   0.8290
B( 21-O , 22-H ) :   0.7372 B( 21-O , 23-H ) :   0.7606 B( 21-O , 25-H ) :   0.1123
B( 21-O , 53-H ) :   0.1386 B( 22-H , 27-O ) :   0.1586 B( 23-H , 33-O ) :   0.1092
B( 24-O , 25-H ) :   0.7806 B( 24-O , 26-H ) :   0.7913 B( 24-O , 58-H ) :   0.2093
B( 27-O , 28-H ) :   0.8501 B( 27-O , 29-H ) :   0.6909 B( 29-H , 54-O ) :   0.2171
B( 30-O , 31-H ) :   0.6760 B( 30-O , 32-H ) :   0.8499 B( 30-O , 50-H ) :   0.1261
B( 33-O , 34-H ) :   0.7203 B( 33-O , 35-H ) :   0.7103 B( 33-O , 44-H ) :   0.1415
B( 34-H , 36-O ) :   0.2038 B( 36-O , 37-H ) :   0.7586 B( 36-O , 38-H ) :   0.7623
B( 37-H , 57-O ) :   0.1413 B( 39-O , 40-H ) :   0.7836 B( 39-O , 41-H ) :   0.7923
B( 39-O , 43-H ) :   0.2007 B( 40-H , 57-O ) :   0.1336 B( 42-O , 43-H ) :   0.6961
B( 42-O , 44-H ) :   0.7329 B( 45-O , 46-H ) :   0.8500 B( 45-O , 47-H ) :   0.7124
B( 48-O , 49-H ) :   0.8288 B( 48-O , 50-H ) :   0.7778 B( 48-O , 55-H ) :   0.1450
B( 51-O , 52-H ) :   0.8498 B( 51-O , 53-H ) :   0.7415 B( 54-O , 55-H ) :   0.7638
B( 54-O , 56-H ) :   0.7961 B( 57-O , 58-H ) :   0.6983 B( 57-O , 59-H ) :   0.8494

Dispersion correction           -0.078969374
FINAL SINGLE POINT ENERGY     -1528.965138339978

DIPOLE MOMENT
-------------
                                X             Y             Z
Electronic contribution:      0.00324      -0.31294       0.20554
Nuclear contribution   :     -0.10926      -2.12940       0.53113
                        -----------------------------------------
Total Dipole Moment    :     -0.10602      -2.44234       0.73667
                        -----------------------------------------
Magnitude (a.u.)       :      2.55322
Magnitude (Debye)      :      6.48978

                             ****ORCA TERMINATED NORMALLY****
TOTAL RUN TIME: 0 days 0 hours 2 minutes 46 seconds 325 msec
