                         Program Version 3.0.3 - RELEASE   -
|  1> ! wB97X-D3 MA-Def2-TZVP def2-TZVP/J RIJCOSX TightSCF Grid4
|  2>
|  3> %pal nprocs 1 end
|  4>
|  5> %scf
|  6>         maxiter 400
|  7> end
|  8>
|  9> * xyz  0  1
| 10> O  1.748114	-2.332155	2.454696
| 11> H  1.353154	-2.700622	1.634508
| 12> H  1.007584	-1.929562	2.960836
| 13> O  2.694181	0.506458	-0.647431
| 14> H  2.665373	1.498196	-0.646703
| 15> H  3.081047	0.207668	0.212893
| 16> O  1.441636	-2.991264	-2.570180
| 17> H  1.715590	-2.034747	-2.777347
| 18> H  2.063600	-3.558625	-3.043940
| 19> O  0.887308	2.677552	1.529772
| 20> H  1.183097	2.190884	2.344401
| 21> H  -0.047727	2.942781	1.654819
| 22> O  1.771996	1.229043	3.595010
| 23> H  2.409162	0.730063	3.041799
| 24> H  1.114879	0.549587	3.848416
| 25> O  -3.312915	0.676737	-1.557957
| 26> H  -3.946448	0.576001	-2.282315
| 27> H  -2.421853	0.449734	-1.959847
| 28> O  1.945824	-0.498778	-3.025507
| 29> H  2.349194	-0.121984	-2.206516
| 30> H  1.043830	-0.127868	-3.049110
| 31> O  -1.399170	0.390783	1.851764
| 32> H  -1.624355	1.356983	1.852480
| 33> H  -0.702755	0.272882	1.148231
| 34> O  -3.149853	-1.171610	0.480232
| 35> H  -2.587203	-0.626441	1.082940
| 36> H  -3.354971	-0.553035	-0.255739
| 37> O  -1.790055	3.025577	1.590518
| 38> H  -2.348625	3.597858	2.131667
| 39> H  -2.104900	3.148356	0.617594
| 40> O  2.068952	3.049441	-0.667738
| 41> H  1.620158	2.989140	0.247521
| 42> H  2.572494	3.873237	-0.690014
| 43> O  0.246567	-0.308868	-0.065183
| 44> H  0.423139	-1.285453	0.019216
| 45> H  1.144416	0.098584	-0.212984
| 46> O  0.648041	-2.946666	0.022751
| 47> H  -0.301728	-3.212060	-0.069090
| 48> H  1.057379	-3.099163	-0.863055
| 49> O  -1.242235	-2.538463	-2.950744
| 50> H  -1.602649	-2.891643	-2.107503
| 51> H  -0.319043	-2.870249	-2.974334
| 52> O  -0.896016	0.011479	-2.430914
| 53> H  -1.051904	-0.938399	-2.730271
| 54> H  -0.492841	-0.093002	-1.523555
| 55> O  3.267007	-0.341735	1.827181
| 56> H  4.148197	-0.552925	2.165892
| 57> H  2.694938	-1.154226	2.058822
| 58> O  -0.277892	2.822669	-2.222882
| 59> H  -0.368639	1.897253	-2.510127
| 60> H  0.578405	2.891513	-1.748211
| 61> O  -0.117630	-0.821390	3.767222
| 62> H  -0.699084	-1.066221	4.498606
| 63> H  -0.690405	-0.344546	3.094311
| 64> O  -2.517232	3.253430	-0.845066
| 65> H  -1.676692	3.221881	-1.376511
| 66> H  -2.965648	2.418197	-1.092906
| 67> O  -1.972124	-3.259773	-0.382278
| 68> H  -2.446322	-2.426666	-0.018926
| 69> H  -2.530621	-4.009789	-0.138146
| 70> **                         ****END OF INPUT****

CARTESIAN COORDINATES (ANGSTROEM)
---------------------------------
  O      1.748114   -2.332155    2.454696
  H      1.353154   -2.700622    1.634508
  H      1.007584   -1.929562    2.960836
  O      2.694181    0.506458   -0.647431
  H      2.665373    1.498196   -0.646703
  H      3.081047    0.207668    0.212893
  O      1.441636   -2.991264   -2.570180
  H      1.715590   -2.034747   -2.777347
  H      2.063600   -3.558625   -3.043940
  O      0.887308    2.677552    1.529772
  H      1.183097    2.190884    2.344401
  H     -0.047727    2.942781    1.654819
  O      1.771996    1.229043    3.595010
  H      2.409162    0.730063    3.041799
  H      1.114879    0.549587    3.848416
  O     -3.312915    0.676737   -1.557957
  H     -3.946448    0.576001   -2.282315
  H     -2.421853    0.449734   -1.959847
  O      1.945824   -0.498778   -3.025507
  H      2.349194   -0.121984   -2.206516
  H      1.043830   -0.127868   -3.049110
  O     -1.399170    0.390783    1.851764
  H     -1.624355    1.356983    1.852480
  H     -0.702755    0.272882    1.148231
  O     -3.149853   -1.171610    0.480232
  H     -2.587203   -0.626441    1.082940
  H     -3.354971   -0.553035   -0.255739
  O     -1.790055    3.025577    1.590518
  H     -2.348625    3.597858    2.131667
  H     -2.104900    3.148356    0.617594
  O      2.068952    3.049441   -0.667738
  H      1.620158    2.989140    0.247521
  H      2.572494    3.873237   -0.690014
  O      0.246567   -0.308868   -0.065183
  H      0.423139   -1.285453    0.019216
  H      1.144416    0.098584   -0.212984
  O      0.648041   -2.946666    0.022751
  H     -0.301728   -3.212060   -0.069090
  H      1.057379   -3.099163   -0.863055
  O     -1.242235   -2.538463   -2.950744
  H     -1.602649   -2.891643   -2.107503
  H     -0.319043   -2.870249   -2.974334
  O     -0.896016    0.011479   -2.430914
  H     -1.051904   -0.938399   -2.730271
  H     -0.492841   -0.093002   -1.523555
  O      3.267007   -0.341735    1.827181
  H      4.148197   -0.552925    2.165892
  H      2.694938   -1.154226    2.058822
  O     -0.277892    2.822669   -2.222882
  H     -0.368639    1.897253   -2.510127
  H      0.578405    2.891513   -1.748211
  O     -0.117630   -0.821390    3.767222
  H     -0.699084   -1.066221    4.498606
  H     -0.690405   -0.344546    3.094311
  O     -2.517232    3.253430   -0.845066
  H     -1.676692    3.221881   -1.376511
  H     -2.965648    2.418197   -1.092906
  O     -1.972124   -3.259773   -0.382278
  H     -2.446322   -2.426666   -0.018926
  H     -2.530621   -4.009789   -0.138146

 Total Charge           Charge          ....    0
 Multiplicity           Mult            ....    1
 Number of Electrons    NEL             ....  200
 Basis Dimension        Dim             ....  940

ORBITAL ENERGIES
----------------

  NO   OCC          E(Eh)            E(eV)
   0   2.0000     -19.256023      -523.9830
   1   2.0000     -19.253412      -523.9120
   2   2.0000     -19.251523      -523.8606
   3   2.0000     -19.250833      -523.8418
   4   2.0000     -19.249395      -523.8027
   5   2.0000     -19.243264      -523.6358
   6   2.0000     -19.242678      -523.6199
   7   2.0000     -19.242645      -523.6190
   8   2.0000     -19.241666      -523.5924
   9   2.0000     -19.237107      -523.4683
  10   2.0000     -19.237041      -523.4665
  11   2.0000     -19.236831      -523.4608
  12   2.0000     -19.236758      -523.4588
  13   2.0000     -19.229910      -523.2724
  14   2.0000     -19.228721      -523.2401
  15   2.0000     -19.228617      -523.2373
  16   2.0000     -19.224621      -523.1285
  17   2.0000     -19.218373      -522.9585
  18   2.0000     -19.217181      -522.9261
  19   2.0000     -19.214871      -522.8632
  20   2.0000      -1.161443       -31.6045
  21   2.0000      -1.151601       -31.3366
  22   2.0000      -1.151287       -31.3281
  23   2.0000      -1.147913       -31.2363
  24   2.0000      -1.144618       -31.1466
  25   2.0000      -1.142862       -31.0989
  26   2.0000      -1.139938       -31.0193
  27   2.0000      -1.136621       -30.9290
  28   2.0000      -1.133130       -30.8340
  29   2.0000      -1.130757       -30.7695
  30   2.0000      -1.125132       -30.6164
  31   2.0000      -1.119599       -30.4658
  32   2.0000      -1.118308       -30.4307
  33   2.0000      -1.115851       -30.3639
  34   2.0000      -1.111697       -30.2508
  35   2.0000      -1.109720       -30.1970
  36   2.0000      -1.107549       -30.1379
  37   2.0000      -1.104247       -30.0481
  38   2.0000      -1.098464       -29.8907
  39   2.0000      -1.094084       -29.7715
  40   2.0000      -0.666199       -18.1282
  41   2.0000      -0.664747       -18.0887
  42   2.0000      -0.663223       -18.0472
  43   2.0000      -0.658532       -17.9196
  44   2.0000      -0.655389       -17.8341
  45   2.0000      -0.652639       -17.7592
  46   2.0000      -0.650208       -17.6931
  47   2.0000      -0.649143       -17.6641
  48   2.0000      -0.647117       -17.6089
  49   2.0000      -0.644618       -17.5409
  50   2.0000      -0.643415       -17.5082
  51   2.0000      -0.640891       -17.4395
  52   2.0000      -0.638864       -17.3844
  53   2.0000      -0.634690       -17.2708
  54   2.0000      -0.631067       -17.1722
  55   2.0000      -0.629455       -17.1283
  56   2.0000      -0.627588       -17.0775
  57   2.0000      -0.625638       -17.0245
  58   2.0000      -0.618985       -16.8434
  59   2.0000      -0.613915       -16.7055
  60   2.0000      -0.576264       -15.6809
  61   2.0000      -0.564273       -15.3547
  62   2.0000      -0.554743       -15.0953
  63   2.0000      -0.549146       -14.9430
  64   2.0000      -0.548488       -14.9251
  65   2.0000      -0.541079       -14.7235
  66   2.0000      -0.532371       -14.4866
  67   2.0000      -0.526030       -14.3140
  68   2.0000      -0.513792       -13.9810
  69   2.0000      -0.509075       -13.8526
  70   2.0000      -0.507892       -13.8205
  71   2.0000      -0.496368       -13.5069
  72   2.0000      -0.494187       -13.4475
  73   2.0000      -0.492621       -13.4049
  74   2.0000      -0.484290       -13.1782
  75   2.0000      -0.481133       -13.0923
  76   2.0000      -0.475640       -12.9428
  77   2.0000      -0.472526       -12.8581
  78   2.0000      -0.463799       -12.6206
  79   2.0000      -0.450748       -12.2655
  80   2.0000      -0.439435       -11.9576
  81   2.0000      -0.437876       -11.9152
  82   2.0000      -0.435788       -11.8584
  83   2.0000      -0.435384       -11.8474
  84   2.0000      -0.432768       -11.7762
  85   2.0000      -0.431232       -11.7344
  86   2.0000      -0.429584       -11.6896
  87   2.0000      -0.429233       -11.6800
  88   2.0000      -0.428259       -11.6535
  89   2.0000      -0.426470       -11.6048
  90   2.0000      -0.426039       -11.5931
  91   2.0000      -0.422448       -11.4954
  92   2.0000      -0.418788       -11.3958
  93   2.0000      -0.418011       -11.3746
  94   2.0000      -0.414776       -11.2866
  95   2.0000      -0.413273       -11.2457
  96   2.0000      -0.411081       -11.1861
  97   2.0000      -0.408386       -11.1127
  98   2.0000      -0.401259       -10.9188
  99   2.0000      -0.399311       -10.8658
 100   0.0000       0.046847         1.2748
 101   0.0000       0.064821         1.7639
 102   0.0000       0.066464         1.8086
 103   0.0000       0.069910         1.9023
 104   0.0000       0.080337         2.1861

MULLIKEN ATOMIC CHARGES
-----------------------
   0 O :   -0.757790
   1 H :    0.414917
   2 H :    0.409343
   3 O :   -0.816599
   4 H :    0.425651
   5 H :    0.414782
   6 O :   -0.847366
   7 H :    0.418894
   8 H :    0.363913
   9 O :   -0.844070
  10 H :    0.434444
  11 H :    0.413559
  12 O :   -0.721658
  13 H :    0.368338
  14 H :    0.391894
  15 O :   -0.779939
  16 H :    0.365007
  17 H :    0.419078
  18 O :   -0.721415
  19 H :    0.429472
  20 H :    0.352890
  21 O :   -0.855634
  22 H :    0.446867
  23 H :    0.422504
  24 O :   -0.767113
  25 H :    0.400589
  26 H :    0.405622
  27 O :   -0.832062
  28 H :    0.361033
  29 H :    0.432134
  30 O :   -0.809124
  31 H :    0.434678
  32 H :    0.361915
  33 O :   -0.775763
  34 H :    0.367240
  35 H :    0.343060
  36 O :   -0.817566
  37 H :    0.430019
  38 H :    0.427549
  39 O :   -0.725522
  40 H :    0.393794
  41 H :    0.397482
  42 O :   -0.935938
  43 H :    0.468690
  44 H :    0.389310
  45 O :   -0.809794
  46 H :    0.360000
  47 H :    0.400491
  48 O :   -0.760093
  49 H :    0.362502
  50 H :    0.405942
  51 O :   -0.827483
  52 H :    0.361515
  53 H :    0.408297
  54 O :   -0.791968
  55 H :    0.448399
  56 H :    0.389236
  57 O :   -0.842886
  58 H :    0.434783
  59 H :    0.363948
Sum of atomic charges:   -0.0000000

LOEWDIN ATOMIC CHARGES
----------------------
   0 O :   -0.356358
   1 H :    0.191883
   2 H :    0.190906
   3 O :   -0.384160
   4 H :    0.188734
   5 H :    0.192384
   6 O :   -0.395666
   7 H :    0.187846
   8 H :    0.191331
   9 O :   -0.378688
  10 H :    0.190946
  11 H :    0.186989
  12 O :   -0.373517
  13 H :    0.185862
  14 H :    0.188714
  15 O :   -0.378425
  16 H :    0.194289
  17 H :    0.191203
  18 O :   -0.346490
  19 H :    0.194104
  20 H :    0.193275
  21 O :   -0.384146
  22 H :    0.193385
  23 H :    0.191897
  24 O :   -0.356092
  25 H :    0.191910
  26 H :    0.191472
  27 O :   -0.393165
  28 H :    0.189809
  29 H :    0.187072
  30 O :   -0.386409
  31 H :    0.184113
  32 H :    0.190963
  33 O :   -0.390607
  34 H :    0.188900
  35 H :    0.189320
  36 O :   -0.384954
  37 H :    0.190604
  38 H :    0.196159
  39 O :   -0.366991
  40 H :    0.189503
  41 H :    0.189527
  42 O :   -0.434301
  43 H :    0.190219
  44 H :    0.182553
  45 O :   -0.390785
  46 H :    0.191855
  47 H :    0.187943
  48 O :   -0.366678
  49 H :    0.191290
  50 H :    0.193688
  51 O :   -0.386903
  52 H :    0.191227
  53 H :    0.187522
  54 O :   -0.356336
  55 H :    0.192224
  56 H :    0.188587
  57 O :   -0.396233
  58 H :    0.185139
  59 H :    0.191553

  Mayer bond orders larger than 0.1
B(  0-O ,  1-H ) :   0.8501 B(  0-O ,  2-H ) :   0.8491 B(  0-O , 47-H ) :   0.1536
B(  3-O ,  4-H ) :   0.7996 B(  3-O ,  5-H ) :   0.8152 B(  3-O , 33-O ) :  -0.1616
B(  3-O , 35-H ) :   0.2034 B(  6-O ,  7-H ) :   0.7432 B(  6-O ,  8-H ) :   0.8744
B(  7-H , 18-O ) :   0.1256 B(  9-O , 10-H ) :   0.7711 B(  9-O , 11-H ) :   0.8236
B( 12-O , 13-H ) :   0.8696 B( 12-O , 14-H ) :   0.8665 B( 15-O , 16-H ) :   0.8818
B( 15-O , 17-H ) :   0.8042 B( 18-O , 19-H ) :   0.8212 B( 18-O , 20-H ) :   0.8679
B( 21-O , 22-H ) :   0.7896 B( 21-O , 23-H ) :   0.8161 B( 24-O , 25-H ) :   0.8279
B( 24-O , 26-H ) :   0.8446 B( 24-O , 58-H ) :   0.1284 B( 27-O , 28-H ) :   0.8747
B( 27-O , 29-H ) :   0.7103 B( 29-H , 54-O ) :   0.1521 B( 30-O , 31-H ) :   0.7387
B( 30-O , 32-H ) :   0.8770 B( 33-O , 34-H ) :   0.7875 B( 33-O , 35-H ) :   0.7717
B( 33-O , 44-H ) :   0.1214 B( 34-H , 36-O ) :   0.1402 B( 36-O , 37-H ) :   0.8138
B( 36-O , 38-H ) :   0.8204 B( 39-O , 40-H ) :   0.8604 B( 39-O , 41-H ) :   0.8586
B( 39-O , 42-O ) :   0.1100 B( 42-O , 43-H ) :   0.7736 B( 42-O , 44-H ) :   0.8186
B( 45-O , 46-H ) :   0.8801 B( 45-O , 47-H ) :   0.7426 B( 48-O , 49-H ) :   0.8628
B( 48-O , 50-H ) :   0.8452 B( 51-O , 52-H ) :   0.8750 B( 51-O , 53-H ) :   0.7749
B( 54-O , 55-H ) :   0.8154 B( 54-O , 56-H ) :   0.8638 B( 57-O , 58-H ) :   0.7225
B( 57-O , 59-H ) :   0.8756

Dispersion correction           -0.041867257
FINAL SINGLE POINT ENERGY     -1529.167813398303

DIPOLE MOMENT
-------------
                                X             Y             Z
Electronic contribution:      0.00722       0.22395      -0.10317
Nuclear contribution   :     -0.12301      -1.29129       0.69192
                        -----------------------------------------
Total Dipole Moment    :     -0.11579      -1.06734       0.58875
                        -----------------------------------------
Magnitude (a.u.)       :      1.22443
Magnitude (Debye)      :      3.11226

                             ****ORCA TERMINATED NORMALLY****
TOTAL RUN TIME: 0 days 0 hours 48 minutes 47 seconds 219 msec
