                         Program Version 3.0.3 - RELEASE   -
|  1> ! wB97X-D3 Def2-TZVP def2-TZVP/J RIJCOSX TightSCF Grid4
|  2>
|  3> %pal nprocs 12 end
|  4>
|  5> %scf
|  6>         maxiter 400
|  7> end
|  8>
|  9> * xyz  0  1
| 10> O  1.842899	-2.299950	2.390281
| 11> H  1.367317	-2.670824	1.596202
| 12> H  1.138588	-1.812962	2.905525
| 13> O  2.573762	0.481785	-0.531310
| 14> H  2.441273	1.493514	-0.499255
| 15> H  3.072820	0.184914	0.292722
| 16> O  1.335547	-3.002339	-2.409026
| 17> H  1.674216	-2.030132	-2.623527
| 18> H  1.957773	-3.612348	-2.844917
| 19> O  0.924544	3.269210	1.770586
| 20> H  1.296666	2.535925	2.375068
| 21> H  -0.067691	3.140934	1.762392
| 22> O  1.917773	1.366400	3.282505
| 23> H  2.570697	0.806323	2.783641
| 24> H  1.240899	0.700001	3.571351
| 25> O  -3.190365	0.632552	-1.660208
| 26> H  -3.782983	0.607427	-2.434703
| 27> H  -2.256447	0.422094	-2.032143
| 28> O  1.974384	-0.595125	-2.898099
| 29> H  2.349736	-0.194857	-2.055884
| 30> H  1.068561	-0.196267	-2.949374
| 31> O  -1.527352	0.189091	1.856018
| 32> H  -1.685508	1.196224	1.858426
| 33> H  -0.833345	0.059795	1.120655
| 34> O  -3.320485	-1.161429	0.379754
| 35> H  -2.741258	-0.670570	1.040585
| 36> H  -3.405117	-0.512989	-0.375431
| 37> O  -1.732239	2.776417	1.598199
| 38> H  -2.325009	3.334075	2.134922
| 39> H  -2.040644	2.935259	0.570965
| 40> O  1.817932	2.949373	-0.511850
| 41> H  1.419531	3.113763	0.495046
| 42> H  2.404003	3.705773	-0.699158
| 43> O  0.176614	-0.366981	-0.020255
| 44> H  0.329236	-1.372795	0.061470
| 45> H  1.120216	0.018580	-0.127992
| 46> O  0.505849	-2.960369	0.110810
| 47> H  -0.469026	-3.179092	-0.027491
| 48> H  0.927861	-3.100501	-0.792988
| 49> O  -1.250439	-2.429203	-3.031011
| 50> H  -1.658437	-2.751317	-2.176182
| 51> H  -0.328095	-2.803014	-2.977444
| 52> O  -0.769991	0.028967	-2.435529
| 53> H  -0.975062	-0.937526	-2.766660
| 54> H  -0.434826	-0.130406	-1.486390
| 55> O  3.419379	-0.403288	1.791037
| 56> H  4.315579	-0.645292	2.086867
| 57> H  2.807541	-1.230716	2.014729
| 58> O  -0.284615	2.836717	-2.227265
| 59> H  -0.353314	1.893171	-2.502555
| 60> H  0.520601	2.877825	-1.632590
| 61> O  0.093611	-0.660918	3.668729
| 62> H  -0.361218	-0.886139	4.500318
| 63> H  -0.635934	-0.331310	3.020063
| 64> O  -2.438683	3.116027	-0.763971
| 65> H  -1.594951	3.120208	-1.343858
| 66> H  -2.879398	2.273896	-1.057214
| 67> O  -2.054639	-3.139931	-0.528603
| 68> H  -2.593089	-2.314756	-0.124164
| 69> H  -2.629523	-3.916855	-0.400754
| 70> **                         ****END OF INPUT****

CARTESIAN COORDINATES (ANGSTROEM)
---------------------------------
  O      1.842899   -2.299950    2.390281
  H      1.367317   -2.670824    1.596202
  H      1.138588   -1.812962    2.905525
  O      2.573762    0.481785   -0.531310
  H      2.441273    1.493514   -0.499255
  H      3.072820    0.184914    0.292722
  O      1.335547   -3.002339   -2.409026
  H      1.674216   -2.030132   -2.623527
  H      1.957773   -3.612348   -2.844917
  O      0.924544    3.269210    1.770586
  H      1.296666    2.535925    2.375068
  H     -0.067691    3.140934    1.762392
  O      1.917773    1.366400    3.282505
  H      2.570697    0.806323    2.783641
  H      1.240899    0.700001    3.571351
  O     -3.190365    0.632552   -1.660208
  H     -3.782983    0.607427   -2.434703
  H     -2.256447    0.422094   -2.032143
  O      1.974384   -0.595125   -2.898099
  H      2.349736   -0.194857   -2.055884
  H      1.068561   -0.196267   -2.949374
  O     -1.527352    0.189091    1.856018
  H     -1.685508    1.196224    1.858426
  H     -0.833345    0.059795    1.120655
  O     -3.320485   -1.161429    0.379754
  H     -2.741258   -0.670570    1.040585
  H     -3.405117   -0.512989   -0.375431
  O     -1.732239    2.776417    1.598199
  H     -2.325009    3.334075    2.134922
  H     -2.040644    2.935259    0.570965
  O      1.817932    2.949373   -0.511850
  H      1.419531    3.113763    0.495046
  H      2.404003    3.705773   -0.699158
  O      0.176614   -0.366981   -0.020255
  H      0.329236   -1.372795    0.061470
  H      1.120216    0.018580   -0.127992
  O      0.505849   -2.960369    0.110810
  H     -0.469026   -3.179092   -0.027491
  H      0.927861   -3.100501   -0.792988
  O     -1.250439   -2.429203   -3.031011
  H     -1.658437   -2.751317   -2.176182
  H     -0.328095   -2.803014   -2.977444
  O     -0.769991    0.028967   -2.435529
  H     -0.975062   -0.937526   -2.766660
  H     -0.434826   -0.130406   -1.486390
  O      3.419379   -0.403288    1.791037
  H      4.315579   -0.645292    2.086867
  H      2.807541   -1.230716    2.014729
  O     -0.284615    2.836717   -2.227265
  H     -0.353314    1.893171   -2.502555
  H      0.520601    2.877825   -1.632590
  O      0.093611   -0.660918    3.668729
  H     -0.361218   -0.886139    4.500318
  H     -0.635934   -0.331310    3.020063
  O     -2.438683    3.116027   -0.763971
  H     -1.594951    3.120208   -1.343858
  H     -2.879398    2.273896   -1.057214
  O     -2.054639   -3.139931   -0.528603
  H     -2.593089   -2.314756   -0.124164
  H     -2.629523   -3.916855   -0.400754

 Total Charge           Charge          ....    0
 Multiplicity           Mult            ....    1
 Number of Electrons    NEL             ....  200
 Basis Dimension        Dim             ....  860

ORBITAL ENERGIES
----------------

  NO   OCC          E(Eh)            E(eV)
   0   2.0000     -19.258286      -524.0446
   1   2.0000     -19.252447      -523.8857
   2   2.0000     -19.251690      -523.8651
   3   2.0000     -19.249418      -523.8033
   4   2.0000     -19.246319      -523.7190
   5   2.0000     -19.242703      -523.6206
   6   2.0000     -19.242046      -523.6027
   7   2.0000     -19.238891      -523.5168
   8   2.0000     -19.238588      -523.5086
   9   2.0000     -19.237766      -523.4862
  10   2.0000     -19.236295      -523.4462
  11   2.0000     -19.234798      -523.4055
  12   2.0000     -19.233896      -523.3809
  13   2.0000     -19.232687      -523.3480
  14   2.0000     -19.231608      -523.3187
  15   2.0000     -19.231132      -523.3057
  16   2.0000     -19.223482      -523.0975
  17   2.0000     -19.219970      -523.0020
  18   2.0000     -19.218431      -522.9601
  19   2.0000     -19.216196      -522.8993
  20   2.0000      -1.160620       -31.5821
  21   2.0000      -1.149889       -31.2901
  22   2.0000      -1.148405       -31.2497
  23   2.0000      -1.143387       -31.1131
  24   2.0000      -1.139577       -31.0095
  25   2.0000      -1.138035       -30.9675
  26   2.0000      -1.134885       -30.8818
  27   2.0000      -1.131677       -30.7945
  28   2.0000      -1.128032       -30.6953
  29   2.0000      -1.126455       -30.6524
  30   2.0000      -1.119564       -30.4649
  31   2.0000      -1.114134       -30.3171
  32   2.0000      -1.113361       -30.2961
  33   2.0000      -1.110046       -30.2059
  34   2.0000      -1.104495       -30.0548
  35   2.0000      -1.102748       -30.0073
  36   2.0000      -1.099776       -29.9264
  37   2.0000      -1.094341       -29.7785
  38   2.0000      -1.089831       -29.6558
  39   2.0000      -1.085694       -29.5432
  40   2.0000      -0.660543       -17.9743
  41   2.0000      -0.660234       -17.9659
  42   2.0000      -0.655594       -17.8396
  43   2.0000      -0.655046       -17.8247
  44   2.0000      -0.651997       -17.7417
  45   2.0000      -0.648317       -17.6416
  46   2.0000      -0.645159       -17.5557
  47   2.0000      -0.641736       -17.4625
  48   2.0000      -0.641077       -17.4446
  49   2.0000      -0.637546       -17.3485
  50   2.0000      -0.636651       -17.3242
  51   2.0000      -0.633782       -17.2461
  52   2.0000      -0.632612       -17.2143
  53   2.0000      -0.629174       -17.1207
  54   2.0000      -0.627073       -17.0635
  55   2.0000      -0.624279       -16.9875
  56   2.0000      -0.623947       -16.9785
  57   2.0000      -0.618857       -16.8400
  58   2.0000      -0.616530       -16.7766
  59   2.0000      -0.613490       -16.6939
  60   2.0000      -0.581805       -15.8317
  61   2.0000      -0.571634       -15.5549
  62   2.0000      -0.560212       -15.2441
  63   2.0000      -0.555962       -15.1285
  64   2.0000      -0.552734       -15.0407
  65   2.0000      -0.547444       -14.8967
  66   2.0000      -0.533914       -14.5285
  67   2.0000      -0.526112       -14.3162
  68   2.0000      -0.517171       -14.0729
  69   2.0000      -0.510688       -13.8965
  70   2.0000      -0.507323       -13.8050
  71   2.0000      -0.497381       -13.5344
  72   2.0000      -0.493979       -13.4419
  73   2.0000      -0.491800       -13.3826
  74   2.0000      -0.483480       -13.1561
  75   2.0000      -0.482681       -13.1344
  76   2.0000      -0.472580       -12.8596
  77   2.0000      -0.471961       -12.8427
  78   2.0000      -0.463122       -12.6022
  79   2.0000      -0.448389       -12.2013
  80   2.0000      -0.436248       -11.8709
  81   2.0000      -0.436147       -11.8682
  82   2.0000      -0.433566       -11.7979
  83   2.0000      -0.432830       -11.7779
  84   2.0000      -0.430171       -11.7056
  85   2.0000      -0.429068       -11.6755
  86   2.0000      -0.426614       -11.6088
  87   2.0000      -0.424348       -11.5471
  88   2.0000      -0.423917       -11.5354
  89   2.0000      -0.422161       -11.4876
  90   2.0000      -0.418360       -11.3842
  91   2.0000      -0.417709       -11.3664
  92   2.0000      -0.416796       -11.3416
  93   2.0000      -0.415971       -11.3191
  94   2.0000      -0.413735       -11.2583
  95   2.0000      -0.411169       -11.1885
  96   2.0000      -0.408565       -11.1176
  97   2.0000      -0.403301       -10.9744
  98   2.0000      -0.399046       -10.8586
  99   2.0000      -0.398277       -10.8377
 100   0.0000       0.071297         1.9401
 101   0.0000       0.098366         2.6767
 102   0.0000       0.102856         2.7989
 103   0.0000       0.109338         2.9752
 104   0.0000       0.118674         3.2293

MULLIKEN ATOMIC CHARGES
-----------------------
   0 O :   -0.698968
   1 H :    0.395917
   2 H :    0.364116
   3 O :   -0.776250
   4 H :    0.387764
   5 H :    0.393197
   6 O :   -0.773645
   7 H :    0.378956
   8 H :    0.357708
   9 O :   -0.699512
  10 H :    0.394040
  11 H :    0.365802
  12 O :   -0.716589
  13 H :    0.359939
  14 H :    0.357613
  15 O :   -0.751024
  16 H :    0.360225
  17 H :    0.378791
  18 O :   -0.693640
  19 H :    0.400089
  20 H :    0.363309
  21 O :   -0.787338
  22 H :    0.392312
  23 H :    0.385797
  24 O :   -0.706184
  25 H :    0.394040
  26 H :    0.373137
  27 O :   -0.781677
  28 H :    0.354647
  29 H :    0.383634
  30 O :   -0.787763
  31 H :    0.384531
  32 H :    0.356461
  33 O :   -0.774744
  34 H :    0.346162
  35 H :    0.365050
  36 O :   -0.758190
  37 H :    0.387662
  38 H :    0.389938
  39 O :   -0.698186
  40 H :    0.356938
  41 H :    0.360590
  42 O :   -0.847423
  43 H :    0.410185
  44 H :    0.355012
  45 O :   -0.768636
  46 H :    0.355671
  47 H :    0.380442
  48 O :   -0.712301
  49 H :    0.367417
  50 H :    0.364380
  51 O :   -0.755540
  52 H :    0.354753
  53 H :    0.389689
  54 O :   -0.699675
  55 H :    0.393649
  56 H :    0.366165
  57 O :   -0.780018
  58 H :    0.384027
  59 H :    0.357550
Sum of atomic charges:   -0.0000000

LOEWDIN ATOMIC CHARGES
----------------------
   0 O :   -0.270438
   1 H :    0.151768
   2 H :    0.146733
   3 O :   -0.291423
   4 H :    0.140725
   5 H :    0.143959
   6 O :   -0.316866
   7 H :    0.143081
   8 H :    0.163931
   9 O :   -0.252259
  10 H :    0.149307
  11 H :    0.143575
  12 O :   -0.302454
  13 H :    0.144165
  14 H :    0.143732
  15 O :   -0.296503
  16 H :    0.168819
  17 H :    0.145177
  18 O :   -0.261349
  19 H :    0.151984
  20 H :    0.150943
  21 O :   -0.292973
  22 H :    0.143526
  23 H :    0.135968
  24 O :   -0.267322
  25 H :    0.150244
  26 H :    0.147117
  27 O :   -0.321218
  28 H :    0.160365
  29 H :    0.138758
  30 O :   -0.325847
  31 H :    0.135441
  32 H :    0.159727
  33 O :   -0.287839
  34 H :    0.134326
  35 H :    0.136281
  36 O :   -0.290375
  37 H :    0.145495
  38 H :    0.145813
  39 O :   -0.284837
  40 H :    0.143125
  41 H :    0.145342
  42 O :   -0.333660
  43 H :    0.142002
  44 H :    0.127886
  45 O :   -0.312948
  46 H :    0.162985
  47 H :    0.143997
  48 O :   -0.294735
  49 H :    0.146937
  50 H :    0.144461
  51 O :   -0.305496
  52 H :    0.164839
  53 H :    0.144755
  54 O :   -0.259235
  55 H :    0.151873
  56 H :    0.145405
  57 O :   -0.321902
  58 H :    0.142460
  59 H :    0.162649

  Mayer bond orders larger than 0.1
B(  0-O ,  1-H ) :   0.8103 B(  0-O ,  2-H ) :   0.8094 B(  0-O , 47-H ) :   0.2252
B(  3-O ,  4-H ) :   0.7342 B(  3-O ,  5-H ) :   0.7638 B(  3-O , 35-H ) :   0.2161
B(  4-H , 30-O ) :   0.1649 B(  5-H , 45-O ) :   0.1259 B(  6-O ,  7-H ) :   0.6874
B(  6-O ,  8-H ) :   0.8759 B(  6-O , 38-H ) :   0.1218 B(  7-H , 18-O ) :   0.2209
B(  9-O , 10-H ) :   0.7512 B(  9-O , 11-H ) :   0.8004 B(  9-O , 31-H ) :   0.2998
B( 10-H , 12-O ) :   0.1400 B( 11-H , 27-O ) :   0.1096 B( 12-O , 13-H ) :   0.8233
B( 12-O , 14-H ) :   0.8273 B( 15-O , 16-H ) :   0.8751 B( 15-O , 17-H ) :   0.7404
B( 17-H , 42-O ) :   0.1505 B( 18-O , 19-H ) :   0.7871 B( 18-O , 20-H ) :   0.8395
B( 21-O , 22-H ) :   0.7391 B( 21-O , 23-H ) :   0.7628 B( 21-O , 53-H ) :   0.1543
B( 22-H , 27-O ) :   0.1567 B( 23-H , 33-O ) :   0.1155 B( 24-O , 25-H ) :   0.7892
B( 24-O , 26-H ) :   0.8097 B( 24-O , 58-H ) :   0.2499 B( 27-O , 28-H ) :   0.8788
B( 27-O , 29-H ) :   0.6307 B( 29-H , 54-O ) :   0.2822 B( 30-O , 31-H ) :   0.6147
B( 30-O , 32-H ) :   0.8779 B( 30-O , 50-H ) :   0.1089 B( 33-O , 34-H ) :   0.7331
B( 33-O , 35-H ) :   0.7140 B( 33-O , 44-H ) :   0.1480 B( 34-H , 36-O ) :   0.2032
B( 36-O , 37-H ) :   0.7714 B( 36-O , 38-H ) :   0.7726 B( 37-H , 57-O ) :   0.1279
B( 39-O , 40-H ) :   0.8114 B( 39-O , 41-H ) :   0.8193 B( 39-O , 43-H ) :   0.2045
B( 40-H , 57-O ) :   0.1097 B( 42-O , 43-H ) :   0.6891 B( 42-O , 44-H ) :   0.7461
B( 45-O , 46-H ) :   0.8783 B( 45-O , 47-H ) :   0.6855 B( 48-O , 49-H ) :   0.8526
B( 48-O , 50-H ) :   0.8011 B( 48-O , 55-H ) :   0.1468 B( 51-O , 52-H ) :   0.8779
B( 51-O , 53-H ) :   0.7322 B( 54-O , 55-H ) :   0.7499 B( 54-O , 56-H ) :   0.8248
B( 57-O , 58-H ) :   0.6606 B( 57-O , 59-H ) :   0.8774

Dispersion correction           -0.042660554
FINAL SINGLE POINT ENERGY     -1529.132758791675

DIPOLE MOMENT
-------------
                                X             Y             Z
Electronic contribution:     -0.07048       0.31360       0.01493
Nuclear contribution   :     -0.04556      -1.77707       0.49833
                        -----------------------------------------
Total Dipole Moment    :     -0.11604      -1.46347       0.51326
                        -----------------------------------------
Magnitude (a.u.)       :      1.55520
Magnitude (Debye)      :      3.95300

                             ****ORCA TERMINATED NORMALLY****
TOTAL RUN TIME: 0 days 0 hours 2 minutes 49 seconds 398 msec
