                         Program Version 3.0.3 - RELEASE   -
|  1> ! wB97X-D3 Def2-TZVP def2-TZVP/J RIJCOSX TightSCF Grid4 COSMO
|  2>
|  3> %pal nprocs 12 end
|  4>
|  5> %scf
|  6>         maxiter 400
|  7> end
|  8>
|  9> %cosmo
| 10>         SMD true
| 11>         solvent "WATER"
| 12> end
| 13>
| 14> * xyz  0  1
| 15> O  1.817869	-2.316276	2.412570
| 16> H  1.338673	-2.641333	1.600213
| 17> H  1.129474	-1.783221	2.913686
| 18> O  2.602603	0.460913	-0.525459
| 19> H  2.407964	1.459144	-0.478255
| 20> H  3.054009	0.185501	0.338476
| 21> O  1.296872	-2.984759	-2.410684
| 22> H  1.677040	-2.057525	-2.637899
| 23> H  1.889206	-3.634558	-2.837124
| 24> O  0.920285	3.310569	1.859007
| 25> H  1.287371	2.547542	2.424697
| 26> H  -0.066733	3.138984	1.796300
| 27> O  1.946939	1.397260	3.365560
| 28> H  2.577716	0.835876	2.828625
| 29> H  1.247430	0.726135	3.612661
| 30> O  -3.196679	0.658697	-1.569516
| 31> H  -3.820913	0.627791	-2.322194
| 32> H  -2.291001	0.436658	-1.971010
| 33> O  1.990290	-0.531650	-2.933911
| 34> H  2.349836	-0.191797	-2.060292
| 35> H  1.062037	-0.181396	-2.937260
| 36> O  -1.517384	0.145131	1.831953
| 37> H  -1.651127	1.153941	1.798923
| 38> H  -0.826153	-0.015828	1.103274
| 39> O  -3.403225	-1.145184	0.427806
| 40> H  -2.764680	-0.682841	1.055929
| 41> H  -3.447187	-0.495774	-0.334669
| 42> O  -1.689468	2.741443	1.537311
| 43> H  -2.317014	3.222563	2.112432
| 44> H  -2.004023	2.938614	0.559355
| 45> O  1.745763	2.913082	-0.500927
| 46> H  1.414436	3.107865	0.481599
| 47> H  2.380068	3.627058	-0.711826
| 48> O  0.208984	-0.426079	-0.032031
| 49> H  0.358109	-1.433146	0.056930
| 50> H  1.152210	-0.042223	-0.143308
| 51> O  0.507120	-3.017353	0.117979
| 52> H  -0.480898	-3.166400	-0.042384
| 53> H  0.918796	-3.113844	-0.798643
| 54> O  -1.250358	-2.414947	-3.081534
| 55> H  -1.653692	-2.701687	-2.205087
| 56> H  -0.315228	-2.764115	-2.992581
| 57> O  -0.757984	0.032825	-2.418779
| 58> H  -0.979598	-0.915384	-2.779818
| 59> H  -0.421432	-0.160776	-1.474432
| 60> O  3.373545	-0.338657	1.835323
| 61> H  4.291814	-0.568871	2.078026
| 62> H  2.805832	-1.182282	2.039333
| 63> O  -0.239232	2.787713	-2.309028
| 64> H  -0.360369	1.823583	-2.497253
| 65> H  0.514992	2.829293	-1.644392
| 66> O  0.161425	-0.607230	3.672487
| 67> H  -0.283677	-0.858492	4.505546
| 68> H  -0.584643	-0.321257	3.035820
| 69> O  -2.442652	3.168995	-0.868517
| 70> H  -1.590916	3.122467	-1.421370
| 71> H  -2.872226	2.296664	-1.105742
| 72> O  -2.035718	-3.066390	-0.591953
| 73> H  -2.605101	-2.309786	-0.157333
| 74> H  -2.573676	-3.879208	-0.515538
| 75> **                         ****END OF INPUT****

CARTESIAN COORDINATES (ANGSTROEM)
---------------------------------
  O      1.817869   -2.316276    2.412570
  H      1.338673   -2.641333    1.600213
  H      1.129474   -1.783221    2.913686
  O      2.602603    0.460913   -0.525459
  H      2.407964    1.459144   -0.478255
  H      3.054009    0.185501    0.338476
  O      1.296872   -2.984759   -2.410684
  H      1.677040   -2.057525   -2.637899
  H      1.889206   -3.634558   -2.837124
  O      0.920285    3.310569    1.859007
  H      1.287371    2.547542    2.424697
  H     -0.066733    3.138984    1.796300
  O      1.946939    1.397260    3.365560
  H      2.577716    0.835876    2.828625
  H      1.247430    0.726135    3.612661
  O     -3.196679    0.658697   -1.569516
  H     -3.820913    0.627791   -2.322194
  H     -2.291001    0.436658   -1.971010
  O      1.990290   -0.531650   -2.933911
  H      2.349836   -0.191797   -2.060292
  H      1.062037   -0.181396   -2.937260
  O     -1.517384    0.145131    1.831953
  H     -1.651127    1.153941    1.798923
  H     -0.826153   -0.015828    1.103274
  O     -3.403225   -1.145184    0.427806
  H     -2.764680   -0.682841    1.055929
  H     -3.447187   -0.495774   -0.334669
  O     -1.689468    2.741443    1.537311
  H     -2.317014    3.222563    2.112432
  H     -2.004023    2.938614    0.559355
  O      1.745763    2.913082   -0.500927
  H      1.414436    3.107865    0.481599
  H      2.380068    3.627058   -0.711826
  O      0.208984   -0.426079   -0.032031
  H      0.358109   -1.433146    0.056930
  H      1.152210   -0.042223   -0.143308
  O      0.507120   -3.017353    0.117979
  H     -0.480898   -3.166400   -0.042384
  H      0.918796   -3.113844   -0.798643
  O     -1.250358   -2.414947   -3.081534
  H     -1.653692   -2.701687   -2.205087
  H     -0.315228   -2.764115   -2.992581
  O     -0.757984    0.032825   -2.418779
  H     -0.979598   -0.915384   -2.779818
  H     -0.421432   -0.160776   -1.474432
  O      3.373545   -0.338657    1.835323
  H      4.291814   -0.568871    2.078026
  H      2.805832   -1.182282    2.039333
  O     -0.239232    2.787713   -2.309028
  H     -0.360369    1.823583   -2.497253
  H      0.514992    2.829293   -1.644392
  O      0.161425   -0.607230    3.672487
  H     -0.283677   -0.858492    4.505546
  H     -0.584643   -0.321257    3.035820
  O     -2.442652    3.168995   -0.868517
  H     -1.590916    3.122467   -1.421370
  H     -2.872226    2.296664   -1.105742
  O     -2.035718   -3.066390   -0.591953
  H     -2.605101   -2.309786   -0.157333
  H     -2.573676   -3.879208   -0.515538

 Total Charge           Charge          ....    0
 Multiplicity           Mult            ....    1
 Number of Electrons    NEL             ....  200
 Basis Dimension        Dim             ....  860

ORBITAL ENERGIES
----------------

  NO   OCC          E(Eh)            E(eV)
   0   2.0000     -19.247973      -523.7640
   1   2.0000     -19.242411      -523.6126
   2   2.0000     -19.239661      -523.5378
   3   2.0000     -19.239596      -523.5360
   4   2.0000     -19.239574      -523.5354
   5   2.0000     -19.239292      -523.5277
   6   2.0000     -19.237996      -523.4925
   7   2.0000     -19.237935      -523.4908
   8   2.0000     -19.236982      -523.4649
   9   2.0000     -19.236397      -523.4490
  10   2.0000     -19.235396      -523.4217
  11   2.0000     -19.230946      -523.3006
  12   2.0000     -19.230631      -523.2921
  13   2.0000     -19.230502      -523.2886
  14   2.0000     -19.229728      -523.2675
  15   2.0000     -19.229635      -523.2650
  16   2.0000     -19.228082      -523.2227
  17   2.0000     -19.226937      -523.1915
  18   2.0000     -19.223382      -523.0948
  19   2.0000     -19.221973      -523.0565
  20   2.0000      -1.155863       -31.4526
  21   2.0000      -1.142992       -31.1024
  22   2.0000      -1.142306       -31.0837
  23   2.0000      -1.138371       -30.9767
  24   2.0000      -1.133706       -30.8497
  25   2.0000      -1.132531       -30.8177
  26   2.0000      -1.131369       -30.7861
  27   2.0000      -1.127022       -30.6678
  28   2.0000      -1.125766       -30.6336
  29   2.0000      -1.123032       -30.5593
  30   2.0000      -1.119442       -30.4616
  31   2.0000      -1.114051       -30.3149
  32   2.0000      -1.111216       -30.2377
  33   2.0000      -1.110712       -30.2240
  34   2.0000      -1.100692       -29.9514
  35   2.0000      -1.097935       -29.8763
  36   2.0000      -1.096738       -29.8438
  37   2.0000      -1.094642       -29.7867
  38   2.0000      -1.090729       -29.6802
  39   2.0000      -1.088826       -29.6284
  40   2.0000      -0.653362       -17.7789
  41   2.0000      -0.649170       -17.6648
  42   2.0000      -0.645698       -17.5703
  43   2.0000      -0.643004       -17.4970
  44   2.0000      -0.641853       -17.4657
  45   2.0000      -0.639500       -17.4017
  46   2.0000      -0.638087       -17.3632
  47   2.0000      -0.634688       -17.2707
  48   2.0000      -0.633579       -17.2406
  49   2.0000      -0.632433       -17.2094
  50   2.0000      -0.631794       -17.1920
  51   2.0000      -0.628466       -17.1014
  52   2.0000      -0.628202       -17.0942
  53   2.0000      -0.626645       -17.0519
  54   2.0000      -0.625566       -17.0225
  55   2.0000      -0.624457       -16.9923
  56   2.0000      -0.620381       -16.8814
  57   2.0000      -0.619454       -16.8562
  58   2.0000      -0.616955       -16.7882
  59   2.0000      -0.614453       -16.7201
  60   2.0000      -0.574368       -15.6294
  61   2.0000      -0.566163       -15.4061
  62   2.0000      -0.558315       -15.1925
  63   2.0000      -0.552220       -15.0267
  64   2.0000      -0.548287       -14.9197
  65   2.0000      -0.544884       -14.8270
  66   2.0000      -0.529464       -14.4074
  67   2.0000      -0.526278       -14.3207
  68   2.0000      -0.520479       -14.1629
  69   2.0000      -0.508420       -13.8348
  70   2.0000      -0.503676       -13.7057
  71   2.0000      -0.497530       -13.5385
  72   2.0000      -0.496546       -13.5117
  73   2.0000      -0.491852       -13.3840
  74   2.0000      -0.488431       -13.2909
  75   2.0000      -0.484709       -13.1896
  76   2.0000      -0.473696       -12.8899
  77   2.0000      -0.470540       -12.8040
  78   2.0000      -0.466281       -12.6882
  79   2.0000      -0.453463       -12.3394
  80   2.0000      -0.430953       -11.7268
  81   2.0000      -0.428299       -11.6546
  82   2.0000      -0.427461       -11.6318
  83   2.0000      -0.425792       -11.5864
  84   2.0000      -0.425221       -11.5709
  85   2.0000      -0.424197       -11.5430
  86   2.0000      -0.423640       -11.5278
  87   2.0000      -0.422979       -11.5098
  88   2.0000      -0.421600       -11.4723
  89   2.0000      -0.419833       -11.4242
  90   2.0000      -0.418886       -11.3985
  91   2.0000      -0.417241       -11.3537
  92   2.0000      -0.415556       -11.3079
  93   2.0000      -0.414793       -11.2871
  94   2.0000      -0.413563       -11.2536
  95   2.0000      -0.413310       -11.2467
  96   2.0000      -0.411410       -11.1950
  97   2.0000      -0.410164       -11.1611
  98   2.0000      -0.408230       -11.1085
  99   2.0000      -0.408055       -11.1037
 100   0.0000       0.081628         2.2212
 101   0.0000       0.116895         3.1809
 102   0.0000       0.121200         3.2980
 103   0.0000       0.127296         3.4639
 104   0.0000       0.145646         3.9632

MULLIKEN ATOMIC CHARGES
-----------------------
   0 O :   -0.756467
   1 H :    0.398871
   2 H :    0.375787
   3 O :   -0.792347
   4 H :    0.392466
   5 H :    0.401543
   6 O :   -0.780513
   7 H :    0.385518
   8 H :    0.412136
   9 O :   -0.766553
  10 H :    0.383975
  11 H :    0.379862
  12 O :   -0.779395
  13 H :    0.379954
  14 H :    0.377672
  15 O :   -0.764985
  16 H :    0.412851
  17 H :    0.376377
  18 O :   -0.754262
  19 H :    0.405597
  20 H :    0.373086
  21 O :   -0.797354
  22 H :    0.398410
  23 H :    0.382484
  24 O :   -0.767867
  25 H :    0.399035
  26 H :    0.384527
  27 O :   -0.778702
  28 H :    0.408202
  29 H :    0.384000
  30 O :   -0.782997
  31 H :    0.385681
  32 H :    0.408919
  33 O :   -0.777153
  34 H :    0.350206
  35 H :    0.361937
  36 O :   -0.776266
  37 H :    0.398387
  38 H :    0.399097
  39 O :   -0.762492
  40 H :    0.374990
  41 H :    0.378881
  42 O :   -0.862241
  43 H :    0.418595
  44 H :    0.360095
  45 O :   -0.778843
  46 H :    0.408329
  47 H :    0.384700
  48 O :   -0.771350
  49 H :    0.387391
  50 H :    0.378370
  51 O :   -0.775346
  52 H :    0.407951
  53 H :    0.396526
  54 O :   -0.768057
  55 H :    0.386498
  56 H :    0.386240
  57 O :   -0.785021
  58 H :    0.382487
  59 H :    0.410580
Sum of atomic charges:    0.0000000

LOEWDIN ATOMIC CHARGES
----------------------
   0 O :   -0.316168
   1 H :    0.150194
   2 H :    0.147507
   3 O :   -0.302175
   4 H :    0.141895
   5 H :    0.144565
   6 O :   -0.287399
   7 H :    0.150672
   8 H :    0.192608
   9 O :   -0.319380
  10 H :    0.144803
  11 H :    0.143852
  12 O :   -0.343842
  13 H :    0.146593
  14 H :    0.145613
  15 O :   -0.278387
  16 H :    0.194934
  17 H :    0.146974
  18 O :   -0.310588
  19 H :    0.150313
  20 H :    0.150285
  21 O :   -0.299768
  22 H :    0.145302
  23 H :    0.135737
  24 O :   -0.320987
  25 H :    0.147708
  26 H :    0.146385
  27 O :   -0.285763
  28 H :    0.189382
  29 H :    0.145696
  30 O :   -0.289355
  31 H :    0.142473
  32 H :    0.188531
  33 O :   -0.287258
  34 H :    0.135868
  35 H :    0.136511
  36 O :   -0.301384
  37 H :    0.148573
  38 H :    0.147983
  39 O :   -0.323509
  40 H :    0.145834
  41 H :    0.148103
  42 O :   -0.339521
  43 H :    0.143643
  44 H :    0.128391
  45 O :   -0.286640
  46 H :    0.189878
  47 H :    0.149209
  48 O :   -0.335301
  49 H :    0.147693
  50 H :    0.144661
  51 O :   -0.287610
  52 H :    0.191101
  53 H :    0.148521
  54 O :   -0.323175
  55 H :    0.147921
  56 H :    0.147936
  57 O :   -0.292421
  58 H :    0.146735
  59 H :    0.190047

  Mayer bond orders larger than 0.1
B(  0-O ,  1-H ) :   0.8038 B(  0-O ,  2-H ) :   0.7866 B(  0-O , 47-H ) :   0.1836
B(  2-H , 51-O ) :   0.1177 B(  3-O ,  4-H ) :   0.7366 B(  3-O ,  5-H ) :   0.7443
B(  3-O , 35-H ) :   0.2174 B(  4-H , 30-O ) :   0.1561 B(  5-H , 45-O ) :   0.1416
B(  6-O ,  7-H ) :   0.7335 B(  6-O ,  8-H ) :   0.8338 B(  6-O , 38-H ) :   0.1250
B(  6-O , 41-H ) :   0.1130 B(  7-H , 18-O ) :   0.1611 B(  9-O , 10-H ) :   0.7572
B(  9-O , 11-H ) :   0.7842 B(  9-O , 31-H ) :   0.2262 B( 10-H , 12-O ) :   0.1458
B( 11-H , 27-O ) :   0.1167 B( 12-O , 13-H ) :   0.7951 B( 12-O , 14-H ) :   0.7935
B( 13-H , 45-O ) :   0.1073 B( 14-H , 51-O ) :   0.1114 B( 15-O , 16-H ) :   0.8339
B( 15-O , 17-H ) :   0.7667 B( 15-O , 26-H ) :   0.1013 B( 17-H , 42-O ) :   0.1231
B( 18-O , 19-H ) :   0.7826 B( 18-O , 20-H ) :   0.8282 B( 21-O , 22-H ) :   0.7377
B( 21-O , 23-H ) :   0.7687 B( 21-O , 25-H ) :   0.1024 B( 21-O , 53-H ) :   0.1307
B( 22-H , 27-O ) :   0.1500 B( 23-H , 33-O ) :   0.1146 B( 24-O , 25-H ) :   0.7815
B( 24-O , 26-H ) :   0.7922 B( 24-O , 58-H ) :   0.2025 B( 27-O , 28-H ) :   0.8379
B( 27-O , 29-H ) :   0.6958 B( 29-H , 54-O ) :   0.2100 B( 30-O , 31-H ) :   0.6805
B( 30-O , 32-H ) :   0.8374 B( 30-O , 50-H ) :   0.1195 B( 33-O , 34-H ) :   0.7272
B( 33-O , 35-H ) :   0.7158 B( 33-O , 44-H ) :   0.1531 B( 34-H , 36-O ) :   0.2091
B( 36-O , 37-H ) :   0.7582 B( 36-O , 38-H ) :   0.7611 B( 37-H , 57-O ) :   0.1317
B( 39-O , 40-H ) :   0.7854 B( 39-O , 41-H ) :   0.7921 B( 39-O , 43-H ) :   0.1926
B( 40-H , 57-O ) :   0.1244 B( 42-O , 43-H ) :   0.6915 B( 42-O , 44-H ) :   0.7425
B( 45-O , 46-H ) :   0.8372 B( 45-O , 47-H ) :   0.7175 B( 48-O , 49-H ) :   0.8288
B( 48-O , 50-H ) :   0.7812 B( 48-O , 55-H ) :   0.1360 B( 51-O , 52-H ) :   0.8370
B( 51-O , 53-H ) :   0.7467 B( 54-O , 55-H ) :   0.7653 B( 54-O , 56-H ) :   0.7964
B( 57-O , 58-H ) :   0.7037 B( 57-O , 59-H ) :   0.8363

Dispersion correction           -0.042622639
FINAL SINGLE POINT ENERGY     -1529.189373451726

DIPOLE MOMENT
-------------
                                X             Y             Z
Electronic contribution:      0.00059      -0.31915       0.20744
Nuclear contribution   :     -0.10926      -2.12940       0.53113
                        -----------------------------------------
Total Dipole Moment    :     -0.10867      -2.44856       0.73857
                        -----------------------------------------
Magnitude (a.u.)       :      2.55983
Magnitude (Debye)      :      6.50657

                             ****ORCA TERMINATED NORMALLY****
TOTAL RUN TIME: 0 days 0 hours 4 minutes 33 seconds 846 msec
