                         Program Version 4.2.0 -  RELEASE  -
|  1> # 12h2o.su.etal.mol0,1,2,3,4,5,6,10,11
|  2> ! MP2 def2-TZVP EnGrad TightSCF
|  3>
|  4> %pal
|  5>     nprocs 6
|  6> end
|  7>
|  8> %maxcore 8000
|  9>
| 10> %scf
| 11>     ConvForced true
| 12> end
| 13>
| 14> *xyz 0 1
| 15> O   1.794470000   0.923410000   2.768350000
| 16> H   2.338250000   1.359750000   3.430940000
| 17> H   0.879480000   1.303000000   2.865760000
| 18> O  -1.794470000  -0.923410000   2.768350000
| 19> H  -2.338250000  -1.359750000   3.430940000
| 20> H  -0.879480000  -1.303000000   2.865760000
| 21> O   0.923410000  -1.794470000  -2.768350000
| 22> H   1.359750000  -2.338250000  -3.430940000
| 23> H   1.303000000  -0.879480000  -2.865760000
| 24> O  -1.752130000  -0.741530000  -2.896280000
| 25> H  -2.036450000  -0.920500000  -1.984040000
| 26> H  -0.921210000  -1.242140000  -2.984230000
| 27> O  -0.885520000   1.737840000   0.052730000
| 28> H  -1.032320000   2.090180000  -0.841890000
| 29> H  -1.284090000   0.839590000   0.017130000
| 30> O   0.885520000  -1.737840000   0.052730000
| 31> H   1.284090000  -0.839590000   0.017130000
| 32> H   1.032320000  -2.090180000  -0.841890000
| 33> O   1.737840000   0.885520000  -0.052730000
| 34> H   2.090180000   1.032320000   0.841890000
| 35> H   0.839590000   1.284090000  -0.017130000
| 36> O  -0.923410000   1.794470000  -2.768350000
| 37> H  -1.359750000   2.338250000  -3.430940000
| 38> H  -1.303000000   0.879480000  -2.865760000
| 39> O  -0.741530000   1.752130000   2.896280000
| 40> H  -0.920500000   2.036450000   1.984040000
| 41> H  -1.242140000   0.921210000   2.984230000
| 42> *
| 43>
| 44>                          ****END OF INPUT****

CARTESIAN COORDINATES (ANGSTROEM)
---------------------------------
  O      1.794470    0.923410    2.768350
  H      2.338250    1.359750    3.430940
  H      0.879480    1.303000    2.865760
  O     -1.794470   -0.923410    2.768350
  H     -2.338250   -1.359750    3.430940
  H     -0.879480   -1.303000    2.865760
  O      0.923410   -1.794470   -2.768350
  H      1.359750   -2.338250   -3.430940
  H      1.303000   -0.879480   -2.865760
  O     -1.752130   -0.741530   -2.896280
  H     -2.036450   -0.920500   -1.984040
  H     -0.921210   -1.242140   -2.984230
  O     -0.885520    1.737840    0.052730
  H     -1.032320    2.090180   -0.841890
  H     -1.284090    0.839590    0.017130
  O      0.885520   -1.737840    0.052730
  H      1.284090   -0.839590    0.017130
  H      1.032320   -2.090180   -0.841890
  O      1.737840    0.885520   -0.052730
  H      2.090180    1.032320    0.841890
  H      0.839590    1.284090   -0.017130
  O     -0.923410    1.794470   -2.768350
  H     -1.359750    2.338250   -3.430940
  H     -1.303000    0.879480   -2.865760
  O     -0.741530    1.752130    2.896280
  H     -0.920500    2.036450    1.984040
  H     -1.242140    0.921210    2.984230

 Total Charge           Charge          ....    0
 Multiplicity           Mult            ....    1
 Number of Electrons    NEL             ....   90
 Basis Dimension        Dim             ....  387

ORBITAL ENERGIES
----------------

  NO   OCC          E(Eh)            E(eV)
   0   2.0000     -20.608242      -560.7788
   1   2.0000     -20.584964      -560.1453
   2   2.0000     -20.583621      -560.1088
   3   2.0000     -20.577143      -559.9325
   4   2.0000     -20.554671      -559.3210
   5   2.0000     -20.543953      -559.0294
   6   2.0000     -20.526198      -558.5462
   7   2.0000     -20.514419      -558.2257
   8   2.0000     -20.496924      -557.7497
   9   2.0000      -1.389781       -37.8179
  10   2.0000      -1.373673       -37.3795
  11   2.0000      -1.365627       -37.1606
  12   2.0000      -1.361537       -37.0493
  13   2.0000      -1.337417       -36.3930
  14   2.0000      -1.335092       -36.3297
  15   2.0000      -1.312209       -35.7070
  16   2.0000      -1.301165       -35.4065
  17   2.0000      -1.279311       -34.8118
  18   2.0000      -0.755434       -20.5564
  19   2.0000      -0.733804       -19.9678
  20   2.0000      -0.729458       -19.8495
  21   2.0000      -0.727842       -19.8056
  22   2.0000      -0.720475       -19.6051
  23   2.0000      -0.700350       -19.0575
  24   2.0000      -0.692411       -18.8415
  25   2.0000      -0.678663       -18.4674
  26   2.0000      -0.666018       -18.1233
  27   2.0000      -0.634691       -17.2708
  28   2.0000      -0.621313       -16.9068
  29   2.0000      -0.611139       -16.6299
  30   2.0000      -0.599669       -16.3178
  31   2.0000      -0.582404       -15.8480
  32   2.0000      -0.573756       -15.6127
  33   2.0000      -0.569331       -15.4923
  34   2.0000      -0.557543       -15.1715
  35   2.0000      -0.538138       -14.6435
  36   2.0000      -0.524344       -14.2681
  37   2.0000      -0.523178       -14.2364
  38   2.0000      -0.518719       -14.1151
  39   2.0000      -0.507177       -13.8010
  40   2.0000      -0.504245       -13.7212
  41   2.0000      -0.486644       -13.2423
  42   2.0000      -0.474649       -12.9159
  43   2.0000      -0.459988       -12.5169
  44   2.0000      -0.447611       -12.1801
  45   0.0000       0.095415         2.5964
  46   0.0000       0.117893         3.2080
  47   0.0000       0.132867         3.6155
  48   0.0000       0.155232         4.2241
  49   0.0000       0.162778         4.4294

MULLIKEN ATOMIC CHARGES
-----------------------
   0 O :   -0.739637
   1 H :    0.330815
   2 H :    0.369955
   3 O :   -0.710702
   4 H :    0.351656
   5 H :    0.382031
   6 O :   -0.722354
   7 H :    0.362127
   8 H :    0.384830
   9 O :   -0.700955
  10 H :    0.353958
  11 H :    0.381129
  12 O :   -0.731999
  13 H :    0.390654
  14 H :    0.349325
  15 O :   -0.746760
  16 H :    0.353244
  17 H :    0.347033
  18 O :   -0.739909
  19 H :    0.375361
  20 H :    0.360791
  21 O :   -0.740639
  22 H :    0.340990
  23 H :    0.370171
  24 O :   -0.719068
  25 H :    0.383533
  26 H :    0.364421
Sum of atomic charges:   -0.0000000

LOEWDIN ATOMIC CHARGES
----------------------
   0 O :   -0.343368
   1 H :    0.150713
   2 H :    0.143226
   3 O :   -0.314120
   4 H :    0.163480
   5 H :    0.196032
   6 O :   -0.288014
   7 H :    0.167140
   8 H :    0.196919
   9 O :   -0.278829
  10 H :    0.169601
  11 H :    0.155846
  12 O :   -0.284954
  13 H :    0.157853
  14 H :    0.171498
  15 O :   -0.376030
  16 H :    0.137211
  17 H :    0.137799
  18 O :   -0.323612
  19 H :    0.149445
  20 H :    0.138991
  21 O :   -0.340994
  22 H :    0.155942
  23 H :    0.142726
  24 O :   -0.288237
  25 H :    0.154751
  26 H :    0.148985

  Mayer bond orders larger than 0.100000
B(  0-O ,  1-H ) :   0.8537 B(  0-O ,  2-H ) :   0.7511 B(  2-H , 24-O ) :   0.1110
B(  3-O ,  4-H ) :   0.8420 B(  3-O ,  5-H ) :   0.8128 B(  6-O ,  7-H ) :   0.8327
B(  6-O ,  8-H ) :   0.8089 B(  9-O , 10-H ) :   0.8384 B(  9-O , 11-H ) :   0.7935
B(  9-O , 23-H ) :   0.1034 B( 12-O , 13-H ) :   0.7813 B( 12-O , 14-H ) :   0.8301
B( 15-O , 16-H ) :   0.7810 B( 15-O , 17-H ) :   0.8405 B( 16-H , 18-O ) :   0.1072
B( 18-O , 19-H ) :   0.8004 B( 18-O , 20-H ) :   0.7937 B( 21-O , 22-H ) :   0.8485
B( 21-O , 23-H ) :   0.7558 B( 24-O , 25-H ) :   0.8067 B( 24-O , 26-H ) :   0.8047

MP2 TOTAL ENERGY:     -686.911974041 Eh
FINAL SINGLE POINT ENERGY      -686.911974041061

DIPOLE MOMENT
-------------
                                X             Y             Z
Electronic contribution:     -0.28152      -0.07079      -0.19917
Nuclear contribution   :     -0.56508      -0.56668      -0.77428
                        -----------------------------------------
Total Dipole Moment    :     -0.84660      -0.63747      -0.97345
                        -----------------------------------------
Magnitude (a.u.)       :      1.43899
Magnitude (Debye)      :      3.65762

Rotational constants in cm-1:     0.028241     0.014496     0.013672
Rotational constants in MHz :   846.656932   434.589857   409.876333

                             ****ORCA TERMINATED NORMALLY****
TOTAL RUN TIME: 0 days 0 hours 4 minutes 34 seconds 266 msec
