                         Program Version 4.2.0 -  RELEASE  -
|  1> ! MP2 def2-TZVP EnGrad TightSCF FrozenCore
|  2>
|  3> %pal
|  4>     nprocs 12
|  5> end
|  6>
|  7> %maxcore 8000
|  8>
|  9> %scf
| 10>     ConvForced true
| 11> end
| 12>
| 13> *xyz 0 1
| 14> C     1.675454    -2.993063     1.238451
| 15> H     1.178424    -2.949449     0.264754
| 16> H     0.912548    -2.921563     2.016720
| 17> H     2.226432    -3.932076     1.334333
| 18> C     2.592284    -1.861811     1.342442
| 19> N     3.328837    -0.965506     1.410142
| 20> C    -3.150987     0.444428     1.720196
| 21> H    -2.904341     1.483154     1.959949
| 22> H    -3.801335     0.032555     2.496175
| 23> H    -3.666354     0.398456     0.755533
| 24> C    -1.918227    -0.333781     1.636866
| 25> N    -0.934969    -0.949271     1.553644
| 26> C    -1.380671     1.702084    -1.374965
| 27> H    -2.040188     2.332199    -0.771173
| 28> H    -1.163121     0.779156    -0.827166
| 29> H    -1.880770     1.431704    -2.307993
| 30> C    -0.128718     2.403930    -1.641891
| 31> N     0.884483     2.939849    -1.835586
| 32> C     3.150964     0.444464    -1.720223
| 33> H     2.904306     1.483193    -1.959949
| 34> H     3.801294     0.032609    -2.496226
| 35> H     3.666355     0.398475    -0.755573
| 36> C     1.918210    -0.333754    -1.636876
| 37> N     0.934956    -0.949248    -1.553638
| 38> C     1.380644     1.702063     1.374975
| 39> H     1.880745     1.431672     2.307999
| 40> H     2.040161     2.332185     0.771190
| 41> H     1.163093     0.779142     0.827165
| 42> C     0.128691     2.403905     1.641913
| 43> N    -0.884511     2.939818     1.835617
| 44> C    -1.675416    -2.993105    -1.238439
| 45> H    -1.178440    -2.949515    -0.264713
| 46> H    -0.912467    -2.921590    -2.016664
| 47> H    -2.226393    -3.932114    -1.334371
| 48> C    -2.592236    -1.861846    -1.342455
| 49> N    -3.328782    -0.965538    -1.410174
| 50> *
| 51>
| 52>                          ****END OF INPUT****

CARTESIAN COORDINATES (ANGSTROEM)
---------------------------------
  C      1.675454   -2.993063    1.238451
  H      1.178424   -2.949449    0.264754
  H      0.912548   -2.921563    2.016720
  H      2.226432   -3.932076    1.334333
  C      2.592284   -1.861811    1.342442
  N      3.328837   -0.965506    1.410142
  C     -3.150987    0.444428    1.720196
  H     -2.904341    1.483154    1.959949
  H     -3.801335    0.032555    2.496175
  H     -3.666354    0.398456    0.755533
  C     -1.918227   -0.333781    1.636866
  N     -0.934969   -0.949271    1.553644
  C     -1.380671    1.702084   -1.374965
  H     -2.040188    2.332199   -0.771173
  H     -1.163121    0.779156   -0.827166
  H     -1.880770    1.431704   -2.307993
  C     -0.128718    2.403930   -1.641891
  N      0.884483    2.939849   -1.835586
  C      3.150964    0.444464   -1.720223
  H      2.904306    1.483193   -1.959949
  H      3.801294    0.032609   -2.496226
  H      3.666355    0.398475   -0.755573
  C      1.918210   -0.333754   -1.636876
  N      0.934956   -0.949248   -1.553638
  C      1.380644    1.702063    1.374975
  H      1.880745    1.431672    2.307999
  H      2.040161    2.332185    0.771190
  H      1.163093    0.779142    0.827165
  C      0.128691    2.403905    1.641913
  N     -0.884511    2.939818    1.835617
  C     -1.675416   -2.993105   -1.238439
  H     -1.178440   -2.949515   -0.264713
  H     -0.912467   -2.921590   -2.016664
  H     -2.226393   -3.932114   -1.334371
  C     -2.592236   -1.861846   -1.342455
  N     -3.328782   -0.965538   -1.410174

 Total Charge           Charge          ....    0
 Multiplicity           Mult            ....    1
 Number of Electrons    NEL             ....  132
 Basis Dimension        Dim             ....  666

ORBITAL ENERGIES
----------------

  NO   OCC          E(Eh)            E(eV)
   0   2.0000     -15.575781      -423.8385
   1   2.0000     -15.575780      -423.8385
   2   2.0000     -15.573836      -423.7856
   3   2.0000     -15.573836      -423.7856
   4   2.0000     -15.564296      -423.5260
   5   2.0000     -15.564295      -423.5260
   6   2.0000     -11.291144      -307.2477
   7   2.0000     -11.291144      -307.2476
   8   2.0000     -11.287265      -307.1421
   9   2.0000     -11.287265      -307.1421
  10   2.0000     -11.277451      -306.8750
  11   2.0000     -11.277450      -306.8750
  12   2.0000     -11.276047      -306.8368
  13   2.0000     -11.276047      -306.8368
  14   2.0000     -11.269738      -306.6652
  15   2.0000     -11.269737      -306.6651
  16   2.0000     -11.260732      -306.4201
  17   2.0000     -11.260731      -306.4201
  18   2.0000      -1.227060       -33.3900
  19   2.0000      -1.225984       -33.3607
  20   2.0000      -1.222159       -33.2566
  21   2.0000      -1.221798       -33.2468
  22   2.0000      -1.214559       -33.0498
  23   2.0000      -1.211732       -32.9729
  24   2.0000      -1.036195       -28.1963
  25   2.0000      -1.033855       -28.1326
  26   2.0000      -1.031688       -28.0737
  27   2.0000      -1.030863       -28.0512
  28   2.0000      -1.021339       -27.7920
  29   2.0000      -1.019738       -27.7485
  30   2.0000      -0.698224       -18.9996
  31   2.0000      -0.692217       -18.8362
  32   2.0000      -0.691357       -18.8128
  33   2.0000      -0.690264       -18.7831
  34   2.0000      -0.683861       -18.6088
  35   2.0000      -0.680939       -18.5293
  36   2.0000      -0.635723       -17.2989
  37   2.0000      -0.628446       -17.1009
  38   2.0000      -0.628009       -17.0890
  39   2.0000      -0.626533       -17.0488
  40   2.0000      -0.626073       -17.0363
  41   2.0000      -0.623698       -16.9717
  42   2.0000      -0.616691       -16.7810
  43   2.0000      -0.613580       -16.6964
  44   2.0000      -0.612540       -16.6681
  45   2.0000      -0.607614       -16.5340
  46   2.0000      -0.603872       -16.4322
  47   2.0000      -0.596641       -16.2354
  48   2.0000      -0.567874       -15.4526
  49   2.0000      -0.563082       -15.3222
  50   2.0000      -0.562602       -15.3092
  51   2.0000      -0.561275       -15.2731
  52   2.0000      -0.552565       -15.0361
  53   2.0000      -0.552011       -15.0210
  54   2.0000      -0.473184       -12.8760
  55   2.0000      -0.469708       -12.7814
  56   2.0000      -0.468006       -12.7351
  57   2.0000      -0.467681       -12.7262
  58   2.0000      -0.465240       -12.6598
  59   2.0000      -0.464717       -12.6456
  60   2.0000      -0.464324       -12.6349
  61   2.0000      -0.460767       -12.5381
  62   2.0000      -0.455871       -12.4049
  63   2.0000      -0.453188       -12.3319
  64   2.0000      -0.452641       -12.3170
  65   2.0000      -0.450351       -12.2547
  66   0.0000       0.119945         3.2639
  67   0.0000       0.142268         3.8713
  68   0.0000       0.142505         3.8778
  69   0.0000       0.148991         4.0542
  70   0.0000       0.154617         4.2073

MULLIKEN ATOMIC CHARGES
-----------------------
   0 C :   -0.270493
   1 H :    0.167696
   2 H :    0.182159
   3 H :    0.174476
   4 C :   -0.091731
   5 N :   -0.159939
   6 C :   -0.306939
   7 H :    0.207323
   8 H :    0.169033
   9 H :    0.198523
  10 C :   -0.093525
  11 N :   -0.173164
  12 C :   -0.313047
  13 H :    0.183905
  14 H :    0.173109
  15 H :    0.185460
  16 C :   -0.089631
  17 N :   -0.143214
  18 C :   -0.306939
  19 H :    0.207323
  20 H :    0.169032
  21 H :    0.198523
  22 C :   -0.093522
  23 N :   -0.173167
  24 C :   -0.313048
  25 H :    0.185460
  26 H :    0.183906
  27 H :    0.173108
  28 C :   -0.089632
  29 N :   -0.143212
  30 C :   -0.270502
  31 H :    0.167699
  32 H :    0.182160
  33 H :    0.174476
  34 C :   -0.091726
  35 N :   -0.159939
Sum of atomic charges:    0.0000000

LOEWDIN ATOMIC CHARGES
----------------------
   0 C :   -0.286597
   1 H :    0.150338
   2 H :    0.153181
   3 H :    0.147225
   4 C :   -0.201500
   5 N :    0.031010
   6 C :   -0.281508
   7 H :    0.156139
   8 H :    0.149953
   9 H :    0.155096
  10 C :   -0.202647
  11 N :    0.030029
  12 C :   -0.284546
  13 H :    0.153673
  14 H :    0.153346
  15 H :    0.153629
  16 C :   -0.204268
  17 N :    0.027449
  18 C :   -0.281508
  19 H :    0.156139
  20 H :    0.149953
  21 H :    0.155096
  22 C :   -0.202646
  23 N :    0.030029
  24 C :   -0.284546
  25 H :    0.153629
  26 H :    0.153673
  27 H :    0.153346
  28 C :   -0.204269
  29 N :    0.027449
  30 C :   -0.286597
  31 H :    0.150338
  32 H :    0.153180
  33 H :    0.147225
  34 C :   -0.201500
  35 N :    0.031010

  Mayer bond orders larger than 0.100000
B(  0-C ,  1-H ) :   0.9125 B(  0-C ,  2-H ) :   0.9114 B(  0-C ,  3-H ) :   0.9102
B(  0-C ,  4-C ) :   0.9085 B(  4-C ,  5-N ) :   2.7467 B(  6-C ,  7-H ) :   0.9044
B(  6-C ,  8-H ) :   0.9101 B(  6-C ,  9-H ) :   0.9053 B(  6-C , 10-C ) :   0.8879
B( 10-C , 11-N ) :   2.7098 B( 12-C , 13-H ) :   0.9099 B( 12-C , 14-H ) :   0.9050
B( 12-C , 15-H ) :   0.9063 B( 12-C , 16-C ) :   0.9201 B( 16-C , 17-N ) :   2.7609
B( 18-C , 19-H ) :   0.9044 B( 18-C , 20-H ) :   0.9101 B( 18-C , 21-H ) :   0.9053
B( 18-C , 22-C ) :   0.8879 B( 22-C , 23-N ) :   2.7098 B( 24-C , 25-H ) :   0.9063
B( 24-C , 26-H ) :   0.9099 B( 24-C , 27-H ) :   0.9050 B( 24-C , 28-C ) :   0.9201
B( 28-C , 29-N ) :   2.7609 B( 30-C , 31-H ) :   0.9125 B( 30-C , 32-H ) :   0.9114
B( 30-C , 33-H ) :   0.9102 B( 30-C , 34-C ) :   0.9085 B( 34-C , 35-N ) :   2.7467

MP2 TOTAL ENERGY:     -794.954578894 Eh
FINAL SINGLE POINT ENERGY      -794.954578893981

DIPOLE MOMENT
-------------
                                X             Y             Z
Electronic contribution:      0.00004       4.58172       0.00000
Nuclear contribution   :     -0.00005      -6.72283      -0.00001
                        -----------------------------------------
Total Dipole Moment    :     -0.00001      -2.14110      -0.00001
                        -----------------------------------------
Magnitude (a.u.)       :      2.14110
Magnitude (Debye)      :      5.44225

Rotational constants in cm-1:     0.011356     0.010186     0.008603
Rotational constants in MHz :   340.442198   305.382991   257.897684

                             ****ORCA TERMINATED NORMALLY****
TOTAL RUN TIME: 0 days 0 hours 34 minutes 5 seconds 16 msec
