                         Program Version 4.2.0 -  RELEASE  -
|  1> # 12mecn.remya.etal.2.mol2,8,11
|  2> ! MP2 def2-TZVP EnGrad TightSCF
|  3>
|  4> %pal
|  5>     nprocs 6
|  6> end
|  7>
|  8> %maxcore 8000
|  9>
| 10> %scf
| 11>     ConvForced true
| 12> end
| 13>
| 14> *xyz 0 1
| 15> C  -4.219070000  -3.477410000  -1.501740000
| 16> H  -3.251530000  -3.803540000  -1.893830000
| 17> H  -4.452920000  -2.481700000  -1.890840000
| 18> H  -4.992170000  -4.178130000  -1.824640000
| 19> C  -4.154550000  -3.418790000  -0.058340000
| 20> N  -4.091140000  -3.354840000   1.104432000
| 21> C   1.912641000  -2.468050000  -1.750510000
| 22> H   2.876947000  -2.793500000  -2.151200000
| 23> H   1.688016000  -1.463720000  -2.122170000
| 24> H   1.123460000  -3.154780000  -2.069590000
| 25> C   1.977850000  -2.444240000  -0.306900000
| 26> N   2.036566000  -2.426130000   0.858249000
| 27> C   4.214163000   3.378139000   1.593627000
| 28> H   3.242643000   3.657109000   2.012358000
| 29> H   4.969258000   4.086643000   1.941290000
| 30> H   4.482966000   2.372549000   1.931698000
| 31> C   4.130759000   3.388436000   0.150192000
| 32> N   4.050180000   3.381449000  -1.013420000
| 33> *
| 34>
| 35>                          ****END OF INPUT****

CARTESIAN COORDINATES (ANGSTROEM)
---------------------------------
  C     -4.219070   -3.477410   -1.501740
  H     -3.251530   -3.803540   -1.893830
  H     -4.452920   -2.481700   -1.890840
  H     -4.992170   -4.178130   -1.824640
  C     -4.154550   -3.418790   -0.058340
  N     -4.091140   -3.354840    1.104432
  C      1.912641   -2.468050   -1.750510
  H      2.876947   -2.793500   -2.151200
  H      1.688016   -1.463720   -2.122170
  H      1.123460   -3.154780   -2.069590
  C      1.977850   -2.444240   -0.306900
  N      2.036566   -2.426130    0.858249
  C      4.214163    3.378139    1.593627
  H      3.242643    3.657109    2.012358
  H      4.969258    4.086643    1.941290
  H      4.482966    2.372549    1.931698
  C      4.130759    3.388436    0.150192
  N      4.050180    3.381449   -1.013420

 Total Charge           Charge          ....    0
 Multiplicity           Mult            ....    1
 Number of Electrons    NEL             ....   66
 Basis Dimension        Dim             ....  333

ORBITAL ENERGIES
----------------

  NO   OCC          E(Eh)            E(eV)
   0   2.0000     -15.573416      -423.7742
   1   2.0000     -15.572599      -423.7520
   2   2.0000     -15.572306      -423.7440
   3   2.0000     -11.287087      -307.1372
   4   2.0000     -11.285043      -307.0816
   5   2.0000     -11.282308      -307.0072
   6   2.0000     -11.279961      -306.9433
   7   2.0000     -11.279897      -306.9416
   8   2.0000     -11.279596      -306.9334
   9   2.0000      -1.214772       -33.0556
  10   2.0000      -1.214239       -33.0411
  11   2.0000      -1.213955       -33.0334
  12   2.0000      -1.045135       -28.4396
  13   2.0000      -1.043598       -28.3978
  14   2.0000      -1.041333       -28.3361
  15   2.0000      -0.701847       -19.0982
  16   2.0000      -0.699338       -19.0300
  17   2.0000      -0.698421       -19.0050
  18   2.0000      -0.633771       -17.2458
  19   2.0000      -0.632897       -17.2220
  20   2.0000      -0.632750       -17.2180
  21   2.0000      -0.630552       -17.1582
  22   2.0000      -0.629106       -17.1188
  23   2.0000      -0.628315       -17.0973
  24   2.0000      -0.555899       -15.1268
  25   2.0000      -0.555709       -15.1216
  26   2.0000      -0.555334       -15.1114
  27   2.0000      -0.457957       -12.4617
  28   2.0000      -0.457826       -12.4581
  29   2.0000      -0.457320       -12.4443
  30   2.0000      -0.457169       -12.4402
  31   2.0000      -0.457130       -12.4391
  32   2.0000      -0.456906       -12.4330
  33   0.0000       0.101452         2.7607
  34   0.0000       0.120413         3.2766
  35   0.0000       0.128849         3.5062
  36   0.0000       0.159726         4.3464
  37   0.0000       0.169897         4.6231

MULLIKEN ATOMIC CHARGES
-----------------------
   0 C :   -0.280208
   1 H :    0.166520
   2 H :    0.172828
   3 H :    0.173012
   4 C :   -0.145600
   5 N :   -0.086550
   6 C :   -0.278925
   7 H :    0.173178
   8 H :    0.177615
   9 H :    0.165216
  10 C :   -0.144795
  11 N :   -0.092292
  12 C :   -0.279411
  13 H :    0.173060
  14 H :    0.170927
  15 H :    0.177770
  16 C :   -0.144769
  17 N :   -0.097577
Sum of atomic charges:    0.0000000

LOEWDIN ATOMIC CHARGES
----------------------
   0 C :   -0.284799
   1 H :    0.150892
   2 H :    0.152953
   3 H :    0.151176
   4 C :   -0.220083
   5 N :    0.049861
   6 C :   -0.283924
   7 H :    0.153266
   8 H :    0.154167
   9 H :    0.150312
  10 C :   -0.219746
  11 N :    0.045927
  12 C :   -0.282809
  13 H :    0.153673
  14 H :    0.150847
  15 H :    0.155032
  16 C :   -0.218210
  17 N :    0.041467

  Mayer bond orders larger than 0.100000
B(  0-C ,  1-H ) :   0.9180 B(  0-C ,  2-H ) :   0.9168 B(  0-C ,  3-H ) :   0.9166
B(  0-C ,  4-C ) :   0.9020 B(  4-C ,  5-N ) :   2.8341 B(  6-C ,  7-H ) :   0.9158
B(  6-C ,  8-H ) :   0.9154 B(  6-C ,  9-H ) :   0.9180 B(  6-C , 10-C ) :   0.9017
B( 10-C , 11-N ) :   2.8367 B( 12-C , 13-H ) :   0.9156 B( 12-C , 14-H ) :   0.9165
B( 12-C , 15-H ) :   0.9145 B( 12-C , 16-C ) :   0.9029 B( 16-C , 17-N ) :   2.8407

MP2 TOTAL ENERGY:     -397.449942161 Eh
FINAL SINGLE POINT ENERGY      -397.449942161281

DIPOLE MOMENT
-------------
                                X             Y             Z
Electronic contribution:      0.10310       0.19509       3.16306
Nuclear contribution   :     -0.15403      -0.28666      -4.63399
                        -----------------------------------------
Total Dipole Moment    :     -0.05093      -0.09157      -1.47093
                        -----------------------------------------
Magnitude (a.u.)       :      1.47465
Magnitude (Debye)      :      3.74827

Rotational constants in cm-1:     0.038445     0.006679     0.006335
Rotational constants in MHz :  1152.557699   200.222512   189.925873

                             ****ORCA TERMINATED NORMALLY****
TOTAL RUN TIME: 0 days 0 hours 1 minutes 54 seconds 674 msec
