                         Program Version 4.2.0 -  RELEASE  -
|  1> # 12meoh.boyd.etal.mol1,5,7
|  2> ! MP2 def2-TZVP EnGrad TightSCF
|  3>
|  4> %pal
|  5>     nprocs 6
|  6> end
|  7>
|  8> %maxcore 8000
|  9>
| 10> %scf
| 11>     ConvForced true
| 12> end
| 13>
| 14> *xyz 0 1
| 15> O   0.666045193  -2.600503172   0.138317521
| 16> H  -0.227115049  -2.712051982  -0.281868004
| 17> C   0.490021232  -1.851247678   1.341189459
| 18> H   1.466500502  -1.466176022   1.645844415
| 19> H   0.097564527  -2.488364683   2.146902740
| 20> H  -0.187588112  -1.000787499   1.200739571
| 21> O  -0.662721750   1.449094618  -1.383082065
| 22> H   0.064188300   2.119867608  -1.465650660
| 23> C  -0.353319239   0.341218776  -2.229326771
| 24> H  -1.072358530  -0.454743281  -2.019906495
| 25> H   0.657636746  -0.044472139  -2.042736771
| 26> H  -0.434616607   0.624733901  -3.287793021
| 27> O   4.310535586  -1.588322800   0.656128299
| 28> H   3.804372199  -1.630404735  -0.196849819
| 29> C   4.312298137  -2.894980854   1.222112691
| 30> H   4.713177833  -2.819907076   2.237066773
| 31> H   4.957796734  -3.574699304   0.648211180
| 32> H   3.302735989  -3.324433205   1.269756773
| 33> *
| 34>
| 35>                          ****END OF INPUT****

CARTESIAN COORDINATES (ANGSTROEM)
---------------------------------
  O      0.666045   -2.600503    0.138318
  H     -0.227115   -2.712052   -0.281868
  C      0.490021   -1.851248    1.341189
  H      1.466501   -1.466176    1.645844
  H      0.097565   -2.488365    2.146903
  H     -0.187588   -1.000787    1.200740
  O     -0.662722    1.449095   -1.383082
  H      0.064188    2.119868   -1.465651
  C     -0.353319    0.341219   -2.229327
  H     -1.072359   -0.454743   -2.019906
  H      0.657637   -0.044472   -2.042737
  H     -0.434617    0.624734   -3.287793
  O      4.310536   -1.588323    0.656128
  H      3.804372   -1.630405   -0.196850
  C      4.312298   -2.894981    1.222113
  H      4.713178   -2.819907    2.237067
  H      4.957797   -3.574699    0.648211
  H      3.302736   -3.324433    1.269757

 Total Charge           Charge          ....    0
 Multiplicity           Mult            ....    1
 Number of Electrons    NEL             ....   54
 Basis Dimension        Dim             ....  258

ORBITAL ENERGIES
----------------

  NO   OCC          E(Eh)            E(eV)
   0   2.0000     -20.563401      -559.5586
   1   2.0000     -20.560086      -559.4684
   2   2.0000     -20.550831      -559.2165
   3   2.0000     -11.275426      -306.8199
   4   2.0000     -11.270366      -306.6822
   5   2.0000     -11.263119      -306.4851
   6   2.0000      -1.350994       -36.7624
   7   2.0000      -1.348350       -36.6905
   8   2.0000      -1.340258       -36.4703
   9   2.0000      -0.923594       -25.1323
  10   2.0000      -0.920578       -25.0502
  11   2.0000      -0.911772       -24.8106
  12   2.0000      -0.686513       -18.6810
  13   2.0000      -0.683856       -18.6087
  14   2.0000      -0.673522       -18.3275
  15   2.0000      -0.622639       -16.9429
  16   2.0000      -0.615662       -16.7530
  17   2.0000      -0.611416       -16.6375
  18   2.0000      -0.594394       -16.1743
  19   2.0000      -0.590687       -16.0734
  20   2.0000      -0.583914       -15.8891
  21   2.0000      -0.504843       -13.7375
  22   2.0000      -0.503026       -13.6880
  23   2.0000      -0.493560       -13.4305
  24   2.0000      -0.455562       -12.3965
  25   2.0000      -0.449948       -12.2437
  26   2.0000      -0.441909       -12.0250
  27   0.0000       0.111746         3.0408
  28   0.0000       0.140558         3.8248
  29   0.0000       0.152518         4.1502
  30   0.0000       0.166826         4.5396
  31   0.0000       0.187712         5.1079

MULLIKEN ATOMIC CHARGES
-----------------------
   0 O :   -0.510789
   1 H :    0.322976
   2 C :   -0.208877
   3 H :    0.146002
   4 H :    0.116306
   5 H :    0.135613
   6 O :   -0.503098
   7 H :    0.324669
   8 C :   -0.174734
   9 H :    0.111532
  10 H :    0.122483
  11 H :    0.115906
  12 O :   -0.508745
  13 H :    0.328613
  14 C :   -0.184022
  15 H :    0.124962
  16 H :    0.112220
  17 H :    0.128985
Sum of atomic charges:   -0.0000000

LOEWDIN ATOMIC CHARGES
----------------------
   0 O :   -0.115079
   1 H :    0.189248
   2 C :   -0.381995
   3 H :    0.111049
   4 H :    0.097218
   5 H :    0.101389
   6 O :   -0.112854
   7 H :    0.190355
   8 C :   -0.380086
   9 H :    0.104978
  10 H :    0.097899
  11 H :    0.096905
  12 O :   -0.110262
  13 H :    0.191244
  14 C :   -0.383000
  15 H :    0.108175
  16 H :    0.095953
  17 H :    0.098861

  Mayer bond orders larger than 0.100000
B(  0-O ,  1-H ) :   0.8418 B(  0-O ,  2-C ) :   0.8970 B(  2-C ,  3-H ) :   0.9341
B(  2-C ,  4-H ) :   0.9394 B(  2-C ,  5-H ) :   0.9359 B(  6-O ,  7-H ) :   0.8408
B(  6-O ,  8-C ) :   0.9168 B(  8-C ,  9-H ) :   0.9406 B(  8-C , 10-H ) :   0.9397
B(  8-C , 11-H ) :   0.9358 B( 12-O , 13-H ) :   0.8386 B( 12-O , 14-C ) :   0.9108
B( 14-C , 15-H ) :   0.9385 B( 14-C , 16-H ) :   0.9414 B( 14-C , 17-H ) :   0.9349

MP2 TOTAL ENERGY:     -346.526202343 Eh
FINAL SINGLE POINT ENERGY      -346.526202343072

DIPOLE MOMENT
-------------
                                X             Y             Z
Electronic contribution:     -0.09670       2.09763      -0.96749
Nuclear contribution   :     -0.28359      -2.41247       0.50705
                        -----------------------------------------
Total Dipole Moment    :     -0.38030      -0.31483      -0.46043
                        -----------------------------------------
Magnitude (a.u.)       :      0.67509
Magnitude (Debye)      :      1.71593

Rotational constants in cm-1:     0.097372     0.024069     0.021184
Rotational constants in MHz :  2919.151002   721.557665   635.073217

                             ****ORCA TERMINATED NORMALLY****
TOTAL RUN TIME: 0 days 0 hours 1 minutes 12 seconds 915 msec
