                         Program Version 4.2.0 -  RELEASE  -
|  1> # 12mecn.remya.etal.2.mol3,7,9
|  2> ! MP2 def2-TZVP EnGrad TightSCF
|  3>
|  4> %pal
|  5>     nprocs 6
|  6> end
|  7>
|  8> %maxcore 8000
|  9>
| 10> %scf
| 11>     ConvForced true
| 12> end
| 13>
| 14> *xyz 0 1
| 15> C  -5.181310000   2.853865000  -1.626100000
| 16> H  -5.488260000   3.811434000  -2.053310000
| 17> H  -5.857590000   2.068112000  -1.968630000
| 18> H  -4.170750000   2.611402000  -1.966640000
| 19> C  -5.187260000   2.919160000  -0.181450000
| 20> N  -5.181700000   2.970641000   0.983640000
| 21> C   1.502241000   0.651296000   1.710523000
| 22> H   1.309219000   1.637164000   2.143202000
| 23> H   2.493408000   0.297996000   2.009069000
| 24> H   0.746597000  -0.059850000   2.055508000
| 25> C   1.447974000   0.738517000   0.269805000
| 26> N   1.405612000   0.808047000  -0.894380000
| 27> C   0.923766000   4.000693000  -1.575910000
| 28> H   0.011949000   4.478423000  -1.939550000
| 29> H   0.947903000   2.966558000  -1.929960000
| 30> H   1.805950000   4.519548000  -1.956520000
| 31> C   0.942834000   3.994846000  -0.131200000
| 32> N   0.960035000   3.982544000   1.035639000
| 33> *
| 34>
| 35>                          ****END OF INPUT****

CARTESIAN COORDINATES (ANGSTROEM)
---------------------------------
  C     -5.181310    2.853865   -1.626100
  H     -5.488260    3.811434   -2.053310
  H     -5.857590    2.068112   -1.968630
  H     -4.170750    2.611402   -1.966640
  C     -5.187260    2.919160   -0.181450
  N     -5.181700    2.970641    0.983640
  C      1.502241    0.651296    1.710523
  H      1.309219    1.637164    2.143202
  H      2.493408    0.297996    2.009069
  H      0.746597   -0.059850    2.055508
  C      1.447974    0.738517    0.269805
  N      1.405612    0.808047   -0.894380
  C      0.923766    4.000693   -1.575910
  H      0.011949    4.478423   -1.939550
  H      0.947903    2.966558   -1.929960
  H      1.805950    4.519548   -1.956520
  C      0.942834    3.994846   -0.131200
  N      0.960035    3.982544    1.035639

 Total Charge           Charge          ....    0
 Multiplicity           Mult            ....    1
 Number of Electrons    NEL             ....   66
 Basis Dimension        Dim             ....  333

ORBITAL ENERGIES
----------------

  NO   OCC          E(Eh)            E(eV)
   0   2.0000     -15.572951      -423.7615
   1   2.0000     -15.571500      -423.7221
   2   2.0000     -15.569324      -423.6628
   3   2.0000     -11.285266      -307.0877
   4   2.0000     -11.284138      -307.0570
   5   2.0000     -11.280619      -306.9612
   6   2.0000     -11.279760      -306.9379
   7   2.0000     -11.272597      -306.7430
   8   2.0000     -11.271161      -306.7039
   9   2.0000      -1.217753       -33.1367
  10   2.0000      -1.214452       -33.0469
  11   2.0000      -1.212379       -32.9905
  12   2.0000      -1.043958       -28.4075
  13   2.0000      -1.036925       -28.2162
  14   2.0000      -1.033951       -28.1352
  15   2.0000      -0.701327       -19.0841
  16   2.0000      -0.694320       -18.8934
  17   2.0000      -0.690407       -18.7869
  18   2.0000      -0.632820       -17.2199
  19   2.0000      -0.630564       -17.1585
  20   2.0000      -0.630121       -17.1465
  21   2.0000      -0.624748       -17.0002
  22   2.0000      -0.622493       -16.9389
  23   2.0000      -0.614671       -16.7260
  24   2.0000      -0.558706       -15.2032
  25   2.0000      -0.555619       -15.1192
  26   2.0000      -0.554784       -15.0964
  27   2.0000      -0.460559       -12.5324
  28   2.0000      -0.459646       -12.5076
  29   2.0000      -0.457843       -12.4585
  30   2.0000      -0.457278       -12.4432
  31   2.0000      -0.455433       -12.3930
  32   2.0000      -0.453049       -12.3281
  33   0.0000       0.109324         2.9748
  34   0.0000       0.131770         3.5856
  35   0.0000       0.141854         3.8600
  36   0.0000       0.169627         4.6158
  37   0.0000       0.171214         4.6590

MULLIKEN ATOMIC CHARGES
-----------------------
   0 C :   -0.281924
   1 H :    0.171981
   2 H :    0.172598
   3 H :    0.171573
   4 C :   -0.145120
   5 N :   -0.089108
   6 C :   -0.284010
   7 H :    0.207004
   8 H :    0.166190
   9 H :    0.168307
  10 C :   -0.095916
  11 N :   -0.158891
  12 C :   -0.286167
  13 H :    0.161491
  14 H :    0.205396
  15 H :    0.166297
  16 C :   -0.106407
  17 N :   -0.143293
Sum of atomic charges:   -0.0000000

LOEWDIN ATOMIC CHARGES
----------------------
   0 C :   -0.284366
   1 H :    0.151131
   2 H :    0.151723
   3 H :    0.152749
   4 C :   -0.219105
   5 N :    0.047865
   6 C :   -0.279888
   7 H :    0.158105
   8 H :    0.152630
   9 H :    0.152889
  10 C :   -0.206037
  11 N :    0.026944
  12 C :   -0.284263
  13 H :    0.148449
  14 H :    0.156555
  15 H :    0.151677
  16 C :   -0.209576
  17 N :    0.032517

  Mayer bond orders larger than 0.100000
B(  0-C ,  1-H ) :   0.9165 B(  0-C ,  2-H ) :   0.9166 B(  0-C ,  3-H ) :   0.9171
B(  0-C ,  4-C ) :   0.9023 B(  4-C ,  5-N ) :   2.8358 B(  6-C ,  7-H ) :   0.9020
B(  6-C ,  8-H ) :   0.9153 B(  6-C ,  9-H ) :   0.9149 B(  6-C , 10-C ) :   0.9006
B( 10-C , 11-N ) :   2.7667 B( 12-C , 13-H ) :   0.9176 B( 12-C , 14-H ) :   0.9013
B( 12-C , 15-H ) :   0.9147 B( 12-C , 16-C ) :   0.9023 B( 16-C , 17-N ) :   2.7784

MP2 TOTAL ENERGY:     -397.459114023 Eh
FINAL SINGLE POINT ENERGY      -397.459114022805

DIPOLE MOMENT
-------------
                                X             Y             Z
Electronic contribution:     -0.10262       0.33892       3.20604
Nuclear contribution   :      0.14797      -0.52762      -4.68220
                        -----------------------------------------
Total Dipole Moment    :      0.04535      -0.18870      -1.47616
                        -----------------------------------------
Magnitude (a.u.)       :      1.48886
Magnitude (Debye)      :      3.78438

Rotational constants in cm-1:     0.044469     0.013049     0.012129
Rotational constants in MHz :  1333.155772   391.213105   363.626887

                             ****ORCA TERMINATED NORMALLY****
TOTAL RUN TIME: 0 days 0 hours 3 minutes 46 seconds 739 msec
