                         Program Version 4.2.0 -  RELEASE  -
|  1> # 12h2o.su.etal.mol1,3,4,6,8,9,11
|  2> ! MP2 def2-TZVP EnGrad TightSCF
|  3>
|  4> %pal
|  5>     nprocs 6
|  6> end
|  7>
|  8> %maxcore 8000
|  9>
| 10> %scf
| 11>     ConvForced true
| 12> end
| 13>
| 14> *xyz 0 1
| 15> O  -1.794470000  -0.923410000   2.768350000
| 16> H  -2.338250000  -1.359750000   3.430940000
| 17> H  -0.879480000  -1.303000000   2.865760000
| 18> O  -1.752130000  -0.741530000  -2.896280000
| 19> H  -2.036450000  -0.920500000  -1.984040000
| 20> H  -0.921210000  -1.242140000  -2.984230000
| 21> O  -0.885520000   1.737840000   0.052730000
| 22> H  -1.032320000   2.090180000  -0.841890000
| 23> H  -1.284090000   0.839590000   0.017130000
| 24> O   1.737840000   0.885520000  -0.052730000
| 25> H   2.090180000   1.032320000   0.841890000
| 26> H   0.839590000   1.284090000  -0.017130000
| 27> O   1.752130000   0.741530000  -2.896280000
| 28> H   2.036450000   0.920500000  -1.984040000
| 29> H   0.921210000   1.242140000  -2.984230000
| 30> O   0.741530000  -1.752130000   2.896280000
| 31> H   0.920500000  -2.036450000   1.984040000
| 32> H   1.242140000  -0.921210000   2.984230000
| 33> O  -0.741530000   1.752130000   2.896280000
| 34> H  -0.920500000   2.036450000   1.984040000
| 35> H  -1.242140000   0.921210000   2.984230000
| 36> *
| 37>
| 38>                          ****END OF INPUT****

CARTESIAN COORDINATES (ANGSTROEM)
---------------------------------
  O     -1.794470   -0.923410    2.768350
  H     -2.338250   -1.359750    3.430940
  H     -0.879480   -1.303000    2.865760
  O     -1.752130   -0.741530   -2.896280
  H     -2.036450   -0.920500   -1.984040
  H     -0.921210   -1.242140   -2.984230
  O     -0.885520    1.737840    0.052730
  H     -1.032320    2.090180   -0.841890
  H     -1.284090    0.839590    0.017130
  O      1.737840    0.885520   -0.052730
  H      2.090180    1.032320    0.841890
  H      0.839590    1.284090   -0.017130
  O      1.752130    0.741530   -2.896280
  H      2.036450    0.920500   -1.984040
  H      0.921210    1.242140   -2.984230
  O      0.741530   -1.752130    2.896280
  H      0.920500   -2.036450    1.984040
  H      1.242140   -0.921210    2.984230
  O     -0.741530    1.752130    2.896280
  H     -0.920500    2.036450    1.984040
  H     -1.242140    0.921210    2.984230

 Total Charge           Charge          ....    0
 Multiplicity           Mult            ....    1
 Number of Electrons    NEL             ....   70
 Basis Dimension        Dim             ....  301

ORBITAL ENERGIES
----------------

  NO   OCC          E(Eh)            E(eV)
   0   2.0000     -20.625846      -561.2578
   1   2.0000     -20.610895      -560.8510
   2   2.0000     -20.580330      -560.0192
   3   2.0000     -20.569857      -559.7343
   4   2.0000     -20.560195      -559.4714
   5   2.0000     -20.540084      -558.9241
   6   2.0000     -20.525004      -558.5137
   7   2.0000      -1.408840       -38.3365
   8   2.0000      -1.396707       -38.0063
   9   2.0000      -1.359259       -36.9873
  10   2.0000      -1.353341       -36.8263
  11   2.0000      -1.344338       -36.5813
  12   2.0000      -1.321339       -35.9555
  13   2.0000      -1.309819       -35.6420
  14   2.0000      -0.766363       -20.8538
  15   2.0000      -0.753204       -20.4957
  16   2.0000      -0.729236       -19.8435
  17   2.0000      -0.728214       -19.8157
  18   2.0000      -0.721815       -19.6416
  19   2.0000      -0.692970       -18.8567
  20   2.0000      -0.689127       -18.7521
  21   2.0000      -0.646286       -17.5863
  22   2.0000      -0.634035       -17.2530
  23   2.0000      -0.608451       -16.5568
  24   2.0000      -0.596759       -16.2386
  25   2.0000      -0.591267       -16.0892
  26   2.0000      -0.565842       -15.3973
  27   2.0000      -0.553027       -15.0486
  28   2.0000      -0.547769       -14.9055
  29   2.0000      -0.537991       -14.6395
  30   2.0000      -0.524317       -14.2674
  31   2.0000      -0.517951       -14.0942
  32   2.0000      -0.506744       -13.7892
  33   2.0000      -0.485977       -13.2241
  34   2.0000      -0.474765       -12.9190
  35   0.0000       0.067852         1.8463
  36   0.0000       0.101060         2.7500
  37   0.0000       0.125315         3.4100
  38   0.0000       0.144647         3.9360
  39   0.0000       0.161083         4.3833

MULLIKEN ATOMIC CHARGES
-----------------------
   0 O :   -0.745670
   1 H :    0.345726
   2 H :    0.378818
   3 O :   -0.678529
   4 H :    0.326655
   5 H :    0.354649
   6 O :   -0.705152
   7 H :    0.369003
   8 H :    0.364408
   9 O :   -0.728243
  10 H :    0.341739
  11 H :    0.355701
  12 O :   -0.695049
  13 H :    0.374653
  14 H :    0.314823
  15 O :   -0.682977
  16 H :    0.362078
  17 H :    0.364808
  18 O :   -0.731266
  19 H :    0.362039
  20 H :    0.351787
Sum of atomic charges:   -0.0000000

LOEWDIN ATOMIC CHARGES
----------------------
   0 O :   -0.343585
   1 H :    0.157872
   2 H :    0.144686
   3 O :   -0.328957
   4 H :    0.158673
   5 H :    0.172590
   6 O :   -0.271461
   7 H :    0.175853
   8 H :    0.180585
   9 O :   -0.339699
  10 H :    0.162890
  11 H :    0.142496
  12 O :   -0.338550
  13 H :    0.153955
  14 H :    0.153140
  15 O :   -0.267671
  16 H :    0.175761
  17 H :    0.176924
  18 O :   -0.354359
  19 H :    0.146156
  20 H :    0.142702

  Mayer bond orders larger than 0.100000
B(  0-O ,  1-H ) :   0.8461 B(  0-O ,  2-H ) :   0.7637 B(  3-O ,  4-H ) :   0.8574
B(  3-O ,  5-H ) :   0.8379 B(  6-O ,  7-H ) :   0.8265 B(  6-O ,  8-H ) :   0.8216
B(  9-O , 10-H ) :   0.8461 B(  9-O , 11-H ) :   0.7853 B( 12-O , 13-H ) :   0.8151
B( 12-O , 14-H ) :   0.8626 B( 15-O , 16-H ) :   0.8337 B( 15-O , 17-H ) :   0.8282
B( 18-O , 19-H ) :   0.8340 B( 18-O , 20-H ) :   0.8142

MP2 TOTAL ENERGY:     -534.237006857 Eh
FINAL SINGLE POINT ENERGY      -534.237006857201

DIPOLE MOMENT
-------------
                                X             Y             Z
Electronic contribution:      0.12253      -0.10575      -0.04303
Nuclear contribution   :     -0.59936      -0.67960       0.63259
                        -----------------------------------------
Total Dipole Moment    :     -0.47683      -0.78534       0.58957
                        -----------------------------------------
Magnitude (a.u.)       :      1.09166
Magnitude (Debye)      :      2.77477

Rotational constants in cm-1:     0.038187     0.018216     0.017081
Rotational constants in MHz :  1144.808491   546.107899   512.063488

                             ****ORCA TERMINATED NORMALLY****
TOTAL RUN TIME: 0 days 0 hours 2 minutes 8 seconds 565 msec
