                         Program Version 4.2.0 -  RELEASE  -
|  1> # 12h2o.su.etal.mol1,2,3,5,6,7,11
|  2> ! MP2 def2-TZVP EnGrad TightSCF
|  3>
|  4> %pal
|  5>     nprocs 6
|  6> end
|  7>
|  8> %maxcore 8000
|  9>
| 10> %scf
| 11>     ConvForced true
| 12> end
| 13>
| 14> *xyz 0 1
| 15> O  -1.794470000  -0.923410000   2.768350000
| 16> H  -2.338250000  -1.359750000   3.430940000
| 17> H  -0.879480000  -1.303000000   2.865760000
| 18> O   0.923410000  -1.794470000  -2.768350000
| 19> H   1.359750000  -2.338250000  -3.430940000
| 20> H   1.303000000  -0.879480000  -2.865760000
| 21> O  -1.752130000  -0.741530000  -2.896280000
| 22> H  -2.036450000  -0.920500000  -1.984040000
| 23> H  -0.921210000  -1.242140000  -2.984230000
| 24> O   0.885520000  -1.737840000   0.052730000
| 25> H   1.284090000  -0.839590000   0.017130000
| 26> H   1.032320000  -2.090180000  -0.841890000
| 27> O   1.737840000   0.885520000  -0.052730000
| 28> H   2.090180000   1.032320000   0.841890000
| 29> H   0.839590000   1.284090000  -0.017130000
| 30> O  -1.737840000  -0.885520000  -0.052730000
| 31> H  -2.090180000  -1.032320000   0.841890000
| 32> H  -0.839590000  -1.284090000  -0.017130000
| 33> O  -0.741530000   1.752130000   2.896280000
| 34> H  -0.920500000   2.036450000   1.984040000
| 35> H  -1.242140000   0.921210000   2.984230000
| 36> *
| 37>
| 38>                          ****END OF INPUT****

CARTESIAN COORDINATES (ANGSTROEM)
---------------------------------
  O     -1.794470   -0.923410    2.768350
  H     -2.338250   -1.359750    3.430940
  H     -0.879480   -1.303000    2.865760
  O      0.923410   -1.794470   -2.768350
  H      1.359750   -2.338250   -3.430940
  H      1.303000   -0.879480   -2.865760
  O     -1.752130   -0.741530   -2.896280
  H     -2.036450   -0.920500   -1.984040
  H     -0.921210   -1.242140   -2.984230
  O      0.885520   -1.737840    0.052730
  H      1.284090   -0.839590    0.017130
  H      1.032320   -2.090180   -0.841890
  O      1.737840    0.885520   -0.052730
  H      2.090180    1.032320    0.841890
  H      0.839590    1.284090   -0.017130
  O     -1.737840   -0.885520   -0.052730
  H     -2.090180   -1.032320    0.841890
  H     -0.839590   -1.284090   -0.017130
  O     -0.741530    1.752130    2.896280
  H     -0.920500    2.036450    1.984040
  H     -1.242140    0.921210    2.984230

 Total Charge           Charge          ....    0
 Multiplicity           Mult            ....    1
 Number of Electrons    NEL             ....   70
 Basis Dimension        Dim             ....  301

ORBITAL ENERGIES
----------------

  NO   OCC          E(Eh)            E(eV)
   0   2.0000     -20.610512      -560.8405
   1   2.0000     -20.606247      -560.7245
   2   2.0000     -20.601781      -560.6029
   3   2.0000     -20.548689      -559.1583
   4   2.0000     -20.546337      -559.0942
   5   2.0000     -20.521152      -558.4089
   6   2.0000     -20.495967      -557.7236
   7   2.0000      -1.390741       -37.8440
   8   2.0000      -1.386890       -37.7392
   9   2.0000      -1.382490       -37.6195
  10   2.0000      -1.335920       -36.3522
  11   2.0000      -1.330760       -36.2118
  12   2.0000      -1.307197       -35.5706
  13   2.0000      -1.280801       -34.8524
  14   2.0000      -0.756389       -20.5824
  15   2.0000      -0.752088       -20.4654
  16   2.0000      -0.740032       -20.1373
  17   2.0000      -0.711022       -19.3479
  18   2.0000      -0.700641       -19.0654
  19   2.0000      -0.689312       -18.7571
  20   2.0000      -0.660983       -17.9863
  21   2.0000      -0.636232       -17.3128
  22   2.0000      -0.627494       -17.0750
  23   2.0000      -0.617333       -16.7985
  24   2.0000      -0.587370       -15.9832
  25   2.0000      -0.581439       -15.8218
  26   2.0000      -0.565264       -15.3816
  27   2.0000      -0.548076       -14.9139
  28   2.0000      -0.537603       -14.6289
  29   2.0000      -0.527575       -14.3561
  30   2.0000      -0.510733       -13.8977
  31   2.0000      -0.495904       -13.4942
  32   2.0000      -0.490141       -13.3374
  33   2.0000      -0.472213       -12.8496
  34   2.0000      -0.445907       -12.1338
  35   0.0000       0.088138         2.3984
  36   0.0000       0.108851         2.9620
  37   0.0000       0.122207         3.3254
  38   0.0000       0.161675         4.3994
  39   0.0000       0.178512         4.8575

MULLIKEN ATOMIC CHARGES
-----------------------
   0 O :   -0.715309
   1 H :    0.363247
   2 H :    0.375896
   3 O :   -0.713915
   4 H :    0.362016
   5 H :    0.374283
   6 O :   -0.729104
   7 H :    0.371279
   8 H :    0.335876
   9 O :   -0.729797
  10 H :    0.354544
  11 H :    0.374946
  12 O :   -0.693521
  13 H :    0.365096
  14 H :    0.363182
  15 O :   -0.747690
  16 H :    0.359127
  17 H :    0.344285
  18 O :   -0.704012
  19 H :    0.327755
  20 H :    0.361816
Sum of atomic charges:   -0.0000000

LOEWDIN ATOMIC CHARGES
----------------------
   0 O :   -0.287152
   1 H :    0.167503
   2 H :    0.193534
   3 O :   -0.286988
   4 H :    0.166780
   5 H :    0.193010
   6 O :   -0.358638
   7 H :    0.150765
   8 H :    0.137177
   9 O :   -0.320008
  10 H :    0.138970
  11 H :    0.148936
  12 O :   -0.290977
  13 H :    0.176170
  14 H :    0.179922
  15 O :   -0.350538
  16 H :    0.143753
  17 H :    0.136772
  18 O :   -0.344638
  19 H :    0.157476
  20 H :    0.148171

  Mayer bond orders larger than 0.100000
B(  0-O ,  1-H ) :   0.8325 B(  0-O ,  2-H ) :   0.8166 B(  3-O ,  4-H ) :   0.8332
B(  3-O ,  5-H ) :   0.8178 B(  6-O ,  7-H ) :   0.8162 B(  6-O ,  8-H ) :   0.8421
B(  9-O , 10-H ) :   0.7898 B(  9-O , 11-H ) :   0.8123 B(  9-O , 17-H ) :   0.1027
B( 12-O , 13-H ) :   0.8322 B( 12-O , 14-H ) :   0.8262 B( 15-O , 16-H ) :   0.8264
B( 15-O , 17-H ) :   0.7760 B( 18-O , 19-H ) :   0.8566 B( 18-O , 20-H ) :   0.8179

MP2 TOTAL ENERGY:     -534.246954883 Eh
FINAL SINGLE POINT ENERGY      -534.246954883060

DIPOLE MOMENT
-------------
                                X             Y             Z
Electronic contribution:      0.15461       0.07518       0.06567
Nuclear contribution   :      1.33139      -0.93640       0.77428
                        -----------------------------------------
Total Dipole Moment    :      1.48599      -0.86121       0.83995
                        -----------------------------------------
Magnitude (a.u.)       :      1.91190
Magnitude (Debye)      :      4.85967

Rotational constants in cm-1:     0.046763     0.021627     0.018621
Rotational constants in MHz :  1401.920622   648.351803   558.242690

                             ****ORCA TERMINATED NORMALLY****
TOTAL RUN TIME: 0 days 0 hours 1 minutes 47 seconds 375 msec
