                         Program Version 4.2.0 -  RELEASE  -
|  1> # 12h2o.su.etal.mol3,5,10,11
|  2> ! MP2 def2-TZVP EnGrad TightSCF
|  3>
|  4> %pal
|  5>     nprocs 6
|  6> end
|  7>
|  8> %maxcore 8000
|  9>
| 10> %scf
| 11>     ConvForced true
| 12> end
| 13>
| 14> *xyz 0 1
| 15> O  -1.752130000  -0.741530000  -2.896280000
| 16> H  -2.036450000  -0.920500000  -1.984040000
| 17> H  -0.921210000  -1.242140000  -2.984230000
| 18> O   0.885520000  -1.737840000   0.052730000
| 19> H   1.284090000  -0.839590000   0.017130000
| 20> H   1.032320000  -2.090180000  -0.841890000
| 21> O  -0.923410000   1.794470000  -2.768350000
| 22> H  -1.359750000   2.338250000  -3.430940000
| 23> H  -1.303000000   0.879480000  -2.865760000
| 24> O  -0.741530000   1.752130000   2.896280000
| 25> H  -0.920500000   2.036450000   1.984040000
| 26> H  -1.242140000   0.921210000   2.984230000
| 27> *
| 28>
| 29>                          ****END OF INPUT****

CARTESIAN COORDINATES (ANGSTROEM)
---------------------------------
  O     -1.752130   -0.741530   -2.896280
  H     -2.036450   -0.920500   -1.984040
  H     -0.921210   -1.242140   -2.984230
  O      0.885520   -1.737840    0.052730
  H      1.284090   -0.839590    0.017130
  H      1.032320   -2.090180   -0.841890
  O     -0.923410    1.794470   -2.768350
  H     -1.359750    2.338250   -3.430940
  H     -1.303000    0.879480   -2.865760
  O     -0.741530    1.752130    2.896280
  H     -0.920500    2.036450    1.984040
  H     -1.242140    0.921210    2.984230

 Total Charge           Charge          ....    0
 Multiplicity           Mult            ....    1
 Number of Electrons    NEL             ....   40
 Basis Dimension        Dim             ....  172

ORBITAL ENERGIES
----------------

  NO   OCC          E(Eh)            E(eV)
   0   2.0000     -20.606721      -560.7374
   1   2.0000     -20.579474      -559.9960
   2   2.0000     -20.557835      -559.4071
   3   2.0000     -20.526926      -558.5661
   4   2.0000      -1.391926       -37.8762
   5   2.0000      -1.355257       -36.8784
   6   2.0000      -1.337094       -36.3842
   7   2.0000      -1.309322       -35.6285
   8   2.0000      -0.749518       -20.3954
   9   2.0000      -0.717201       -19.5160
  10   2.0000      -0.700419       -19.0594
  11   2.0000      -0.699814       -19.0429
  12   2.0000      -0.626712       -17.0537
  13   2.0000      -0.594310       -16.1720
  14   2.0000      -0.574650       -15.6370
  15   2.0000      -0.567279       -15.4364
  16   2.0000      -0.523781       -14.2528
  17   2.0000      -0.521934       -14.2025
  18   2.0000      -0.501983       -13.6596
  19   2.0000      -0.477372       -12.9899
  20   0.0000       0.079225         2.1558
  21   0.0000       0.124884         3.3983
  22   0.0000       0.144796         3.9401
  23   0.0000       0.167698         4.5633
  24   0.0000       0.174949         4.7606

MULLIKEN ATOMIC CHARGES
-----------------------
   0 O :   -0.673491
   1 H :    0.362476
   2 H :    0.351279
   3 O :   -0.676256
   4 H :    0.350859
   5 H :    0.327912
   6 O :   -0.734828
   7 H :    0.328723
   8 H :    0.363130
   9 O :   -0.677052
  10 H :    0.340126
  11 H :    0.337123
Sum of atomic charges:    0.0000000

LOEWDIN ATOMIC CHARGES
----------------------
   0 O :   -0.268219
   1 H :    0.176078
   2 H :    0.172426
   3 O :   -0.335839
   4 H :    0.177982
   5 H :    0.160004
   6 O :   -0.373655
   7 H :    0.150101
   8 H :    0.140959
   9 O :   -0.332895
  10 H :    0.166477
  11 H :    0.166581

  Mayer bond orders larger than 0.100000
B(  0-O ,  1-H ) :   0.8336 B(  0-O ,  2-H ) :   0.8399 B(  3-O ,  4-H ) :   0.8423
B(  3-O ,  5-H ) :   0.8572 B(  6-O ,  7-H ) :   0.8589 B(  6-O ,  8-H ) :   0.7896
B(  9-O , 10-H ) :   0.8513 B(  9-O , 11-H ) :   0.8530

MP2 TOTAL ENERGY:     -305.260627296 Eh
FINAL SINGLE POINT ENERGY      -305.260627295736

DIPOLE MOMENT
-------------
                                X             Y             Z
Electronic contribution:     -0.01837      -0.14948       0.25147
Nuclear contribution   :     -0.33589      -0.87521      -1.40687
                        -----------------------------------------
Total Dipole Moment    :     -0.35426      -1.02470      -1.15540
                        -----------------------------------------
Magnitude (a.u.)       :      1.58444
Magnitude (Debye)      :      4.02732

Rotational constants in cm-1:     0.076214     0.037075     0.027653
Rotational constants in MHz :  2284.838971  1111.469292   829.012103

                             ****ORCA TERMINATED NORMALLY****
TOTAL RUN TIME: 0 days 0 hours 0 minutes 14 seconds 837 msec
