                         Program Version 4.2.0 -  RELEASE  -
|  1> # 12mecn.remya.etal.2.mol0,8,10
|  2> ! MP2 def2-TZVP EnGrad TightSCF
|  3>
|  4> %pal
|  5>     nprocs 6
|  6> end
|  7>
|  8> %maxcore 8000
|  9>
| 10> %scf
| 11>     ConvForced true
| 12> end
| 13>
| 14> *xyz 0 1
| 15> C  -0.869520000  -3.929380000   1.700199000
| 16> H  -0.057420000  -3.268850000   2.015352000
| 17> H  -0.697530000  -4.930670000   2.101524000
| 18> H  -1.821490000  -3.546590000   2.077146000
| 19> C  -0.916080000  -3.969960000   0.256749000
| 20> N  -0.955390000  -3.995980000  -0.909290000
| 21> C   1.912641000  -2.468050000  -1.750510000
| 22> H   2.876947000  -2.793500000  -2.151200000
| 23> H   1.688016000  -1.463720000  -2.122170000
| 24> H   1.123460000  -3.154780000  -2.069590000
| 25> C   1.977850000  -2.444240000  -0.306900000
| 26> N   2.036566000  -2.426130000   0.858249000
| 27> C   4.602033000   0.321019000  -1.784800000
| 28> H   4.827650000  -0.662160000  -2.207910000
| 29> H   5.320558000   1.057980000  -2.148500000
| 30> H   3.601982000   0.643751000  -2.087520000
| 31> C   4.654967000   0.244048000  -0.343060000
| 32> N   4.691648000   0.166590000   0.820757000
| 33> *
| 34>
| 35>                          ****END OF INPUT****

CARTESIAN COORDINATES (ANGSTROEM)
---------------------------------
  C     -0.869520   -3.929380    1.700199
  H     -0.057420   -3.268850    2.015352
  H     -0.697530   -4.930670    2.101524
  H     -1.821490   -3.546590    2.077146
  C     -0.916080   -3.969960    0.256749
  N     -0.955390   -3.995980   -0.909290
  C      1.912641   -2.468050   -1.750510
  H      2.876947   -2.793500   -2.151200
  H      1.688016   -1.463720   -2.122170
  H      1.123460   -3.154780   -2.069590
  C      1.977850   -2.444240   -0.306900
  N      2.036566   -2.426130    0.858249
  C      4.602033    0.321019   -1.784800
  H      4.827650   -0.662160   -2.207910
  H      5.320558    1.057980   -2.148500
  H      3.601982    0.643751   -2.087520
  C      4.654967    0.244048   -0.343060
  N      4.691648    0.166590    0.820757

 Total Charge           Charge          ....    0
 Multiplicity           Mult            ....    1
 Number of Electrons    NEL             ....   66
 Basis Dimension        Dim             ....  333

ORBITAL ENERGIES
----------------

  NO   OCC          E(Eh)            E(eV)
   0   2.0000     -15.571261      -423.7156
   1   2.0000     -15.571062      -423.7101
   2   2.0000     -15.569667      -423.6722
   3   2.0000     -11.288112      -307.1651
   4   2.0000     -11.283185      -307.0311
   5   2.0000     -11.279457      -306.9296
   6   2.0000     -11.276922      -306.8606
   7   2.0000     -11.276446      -306.8477
   8   2.0000     -11.270855      -306.6955
   9   2.0000      -1.216996       -33.1161
  10   2.0000      -1.212534       -32.9947
  11   2.0000      -1.211240       -32.9595
  12   2.0000      -1.046451       -28.4754
  13   2.0000      -1.038568       -28.2609
  14   2.0000      -1.034263       -28.1437
  15   2.0000      -0.701766       -19.0960
  16   2.0000      -0.695775       -18.9330
  17   2.0000      -0.691092       -18.8056
  18   2.0000      -0.639747       -17.4084
  19   2.0000      -0.636213       -17.3122
  20   2.0000      -0.629522       -17.1302
  21   2.0000      -0.624994       -17.0069
  22   2.0000      -0.621397       -16.9091
  23   2.0000      -0.615559       -16.7502
  24   2.0000      -0.558526       -15.1983
  25   2.0000      -0.554573       -15.0907
  26   2.0000      -0.551718       -15.0130
  27   2.0000      -0.462997       -12.5988
  28   2.0000      -0.459209       -12.4957
  29   2.0000      -0.457726       -12.4553
  30   2.0000      -0.456348       -12.4179
  31   2.0000      -0.453823       -12.3492
  32   2.0000      -0.446705       -12.1555
  33   0.0000       0.101596         2.7646
  34   0.0000       0.135332         3.6826
  35   0.0000       0.147485         4.0133
  36   0.0000       0.154365         4.2005
  37   0.0000       0.165237         4.4963

MULLIKEN ATOMIC CHARGES
-----------------------
   0 C :   -0.284793
   1 H :    0.207066
   2 H :    0.167174
   3 H :    0.166509
   4 C :   -0.102381
   5 N :   -0.152960
   6 C :   -0.291720
   7 H :    0.161269
   8 H :    0.157576
   9 H :    0.215477
  10 C :   -0.110340
  11 N :   -0.132932
  12 C :   -0.281315
  13 H :    0.165098
  14 H :    0.181690
  15 H :    0.166394
  16 C :   -0.155652
  17 N :   -0.076158
Sum of atomic charges:    0.0000000

LOEWDIN ATOMIC CHARGES
----------------------
   0 C :   -0.281141
   1 H :    0.158115
   2 H :    0.152224
   3 H :    0.151549
   4 C :   -0.207454
   5 N :    0.027780
   6 C :   -0.286439
   7 H :    0.148177
   8 H :    0.149016
   9 H :    0.157900
  10 C :   -0.213687
  11 N :    0.044411
  12 C :   -0.287486
  13 H :    0.149930
  14 H :    0.152273
  15 H :    0.150479
  16 C :   -0.224168
  17 N :    0.058522

  Mayer bond orders larger than 0.100000
B(  0-C ,  1-H ) :   0.9011 B(  0-C ,  2-H ) :   0.9145 B(  0-C ,  3-H ) :   0.9162
B(  0-C ,  4-C ) :   0.9012 B(  4-C ,  5-N ) :   2.7735 B(  6-C ,  7-H ) :   0.9231
B(  6-C ,  8-H ) :   0.9198 B(  6-C ,  9-H ) :   0.8942 B(  6-C , 10-C ) :   0.8960
B( 10-C , 11-N ) :   2.7587 B( 12-C , 13-H ) :   0.9196 B( 12-C , 14-H ) :   0.9114
B( 12-C , 15-H ) :   0.9223 B( 12-C , 16-C ) :   0.8986 B( 16-C , 17-N ) :   2.8283

MP2 TOTAL ENERGY:     -397.457947289 Eh
FINAL SINGLE POINT ENERGY      -397.457947289285

DIPOLE MOMENT
-------------
                                X             Y             Z
Electronic contribution:      0.17113      -0.24169       3.27787
Nuclear contribution   :     -0.24488       0.34488      -4.62662
                        -----------------------------------------
Total Dipole Moment    :     -0.07375       0.10319      -1.34875
                        -----------------------------------------
Magnitude (a.u.)       :      1.35470
Magnitude (Debye)      :      3.44338

Rotational constants in cm-1:     0.096125     0.016270     0.014215
Rotational constants in MHz :  2881.749059   487.756129   426.169758

                             ****ORCA TERMINATED NORMALLY****
TOTAL RUN TIME: 0 days 0 hours 3 minutes 39 seconds 824 msec
