                         Program Version 4.2.0 -  RELEASE  -
|  1> ! MP2 def2-TZVP EnGrad TightSCF FrozenCore
|  2>
|  3> %pal
|  4>     nprocs 12
|  5> end
|  6>
|  7> %maxcore 8000
|  8>
|  9> %scf
| 10>     ConvForced true
| 11> end
| 12>
| 13> *xyz 0 1
| 14> O    -0.5676703643    -0.963302458     -1.0411619222
| 15> H     0.2940903137    -1.0926294235    -0.5844146627
| 16> C    -0.3137520111    -0.8933811464    -2.4588987563
| 17> H    -1.2166481709    -0.4908010294    -2.9243445942
| 18> H    -0.1291747653    -1.8972019184    -2.8572959571
| 19> H     0.5349023201    -0.2340896334    -2.6658591172
| 20> O    -1.4909961155    -3.6516949662    -1.1016211261
| 21> H    -1.3061676891    -2.7105554488    -0.9174024338
| 22> C    -2.8913363786    -3.8071533755    -1.207449164
| 23> H    -3.0878522113    -4.8596216706    -1.4358306891
| 24> H    -3.3315165719    -3.1997056377    -2.0158955635
| 25> H    -3.4214324821    -3.5609830529    -0.2724150898
| 26> O    -0.5379448688     1.2058005363     0.6567239096
| 27> H    -0.8344051063     0.5680077281    -0.0343497827
| 28> C    -0.3122234855     2.4934177433     0.0548274377
| 29> H    -0.0814130349     3.175726748      0.8751557402
| 30> H    -1.2169782933     2.846878501     -0.4544235106
| 31> H     0.5229943728     2.4530509182    -0.652817939
| 32> O     1.6374475745    -0.4169315841     0.5434291725
| 33> H     0.9834437234     0.2613548717     0.8452130233
| 34> C     2.2330030798    -1.0597560465     1.6731843862
| 35> H     2.906856064     -1.8294345376     1.2902689144
| 36> H     1.4748457334    -1.5356962141     2.3067681685
| 37> H     2.8101999797    -0.3486783695     2.276886483
| 38> O    -1.1652489205     2.0899767745     3.2543056422
| 39> H    -1.088677421      1.5958250412     2.4167266585
| 40> C    -2.5343954374     2.3656147172     3.4698511176
| 41> H    -2.6099581919     2.9483564091     4.3934395344
| 42> H    -3.1399218546     1.452949029      3.5972736393
| 43> H    -2.9856691724     2.960626375      2.6584259894
| 44> O     2.3178083248     1.1254684241    -1.7089397715
| 45> H     2.3300343435     0.5574586798    -0.9128324293
| 46> C     3.6532943513     1.4376835371    -2.066403685
| 47> H     3.6126828164     2.0765639686    -2.9533606629
| 48> H     4.2416566493     0.5416994935    -2.3179011337
| 49> H     4.1834028963     1.9878127854    -1.2735698387
| 50> *
| 51>
| 52>                          ****END OF INPUT****

CARTESIAN COORDINATES (ANGSTROEM)
---------------------------------
  O     -0.567670   -0.963302   -1.041162
  H      0.294090   -1.092629   -0.584415
  C     -0.313752   -0.893381   -2.458899
  H     -1.216648   -0.490801   -2.924345
  H     -0.129175   -1.897202   -2.857296
  H      0.534902   -0.234090   -2.665859
  O     -1.490996   -3.651695   -1.101621
  H     -1.306168   -2.710555   -0.917402
  C     -2.891336   -3.807153   -1.207449
  H     -3.087852   -4.859622   -1.435831
  H     -3.331517   -3.199706   -2.015896
  H     -3.421432   -3.560983   -0.272415
  O     -0.537945    1.205801    0.656724
  H     -0.834405    0.568008   -0.034350
  C     -0.312223    2.493418    0.054827
  H     -0.081413    3.175727    0.875156
  H     -1.216978    2.846879   -0.454424
  H      0.522994    2.453051   -0.652818
  O      1.637448   -0.416932    0.543429
  H      0.983444    0.261355    0.845213
  C      2.233003   -1.059756    1.673184
  H      2.906856   -1.829435    1.290269
  H      1.474846   -1.535696    2.306768
  H      2.810200   -0.348678    2.276886
  O     -1.165249    2.089977    3.254306
  H     -1.088677    1.595825    2.416727
  C     -2.534395    2.365615    3.469851
  H     -2.609958    2.948356    4.393440
  H     -3.139922    1.452949    3.597274
  H     -2.985669    2.960626    2.658426
  O      2.317808    1.125468   -1.708940
  H      2.330034    0.557459   -0.912832
  C      3.653294    1.437684   -2.066404
  H      3.612683    2.076564   -2.953361
  H      4.241657    0.541699   -2.317901
  H      4.183403    1.987813   -1.273570

 Total Charge           Charge          ....    0
 Multiplicity           Mult            ....    1
 Number of Electrons    NEL             ....  108
 Basis Dimension        Dim             ....  516

ORBITAL ENERGIES
----------------

  NO   OCC          E(Eh)            E(eV)
   0   2.0000     -20.579356      -559.9927
   1   2.0000     -20.575519      -559.8883
   2   2.0000     -20.575172      -559.8789
   3   2.0000     -20.547870      -559.1360
   4   2.0000     -20.531427      -558.6885
   5   2.0000     -20.531191      -558.6821
   6   2.0000     -11.287676      -307.1533
   7   2.0000     -11.275796      -306.8300
   8   2.0000     -11.274142      -306.7850
   9   2.0000     -11.270944      -306.6980
  10   2.0000     -11.258430      -306.3575
  11   2.0000     -11.258110      -306.3488
  12   2.0000      -1.388752       -37.7899
  13   2.0000      -1.368337       -37.2343
  14   2.0000      -1.365072       -37.1455
  15   2.0000      -1.348111       -36.6840
  16   2.0000      -1.333185       -36.2778
  17   2.0000      -1.332546       -36.2604
  18   2.0000      -0.946208       -25.7476
  19   2.0000      -0.934813       -25.4375
  20   2.0000      -0.927666       -25.2431
  21   2.0000      -0.919294       -25.0153
  22   2.0000      -0.906223       -24.6596
  23   2.0000      -0.905758       -24.6469
  24   2.0000      -0.718661       -19.5558
  25   2.0000      -0.717372       -19.5207
  26   2.0000      -0.708748       -19.2860
  27   2.0000      -0.692349       -18.8398
  28   2.0000      -0.679402       -18.4875
  29   2.0000      -0.670246       -18.2383
  30   2.0000      -0.635725       -17.2989
  31   2.0000      -0.632602       -17.2140
  32   2.0000      -0.624596       -16.9961
  33   2.0000      -0.613395       -16.6913
  34   2.0000      -0.612280       -16.6610
  35   2.0000      -0.607706       -16.5365
  36   2.0000      -0.600957       -16.3529
  37   2.0000      -0.599812       -16.3217
  38   2.0000      -0.598092       -16.2749
  39   2.0000      -0.589795       -16.0491
  40   2.0000      -0.574876       -15.6432
  41   2.0000      -0.574760       -15.6400
  42   2.0000      -0.532771       -14.4974
  43   2.0000      -0.526836       -14.3359
  44   2.0000      -0.512526       -13.9465
  45   2.0000      -0.500227       -13.6119
  46   2.0000      -0.489038       -13.3074
  47   2.0000      -0.482722       -13.1355
  48   2.0000      -0.474050       -12.8996
  49   2.0000      -0.464201       -12.6315
  50   2.0000      -0.460750       -12.5376
  51   2.0000      -0.442405       -12.0385
  52   2.0000      -0.429884       -11.6977
  53   2.0000      -0.429444       -11.6858
  54   0.0000       0.118827         3.2334
  55   0.0000       0.142236         3.8704
  56   0.0000       0.151084         4.1112
  57   0.0000       0.153133         4.1670
  58   0.0000       0.172473         4.6932

MULLIKEN ATOMIC CHARGES
-----------------------
   0 O :   -0.599373
   1 H :    0.373221
   2 C :   -0.218801
   3 H :    0.128066
   4 H :    0.149658
   5 H :    0.165398
   6 O :   -0.512744
   7 H :    0.345121
   8 C :   -0.171089
   9 H :    0.122103
  10 H :    0.097906
  11 H :    0.105804
  12 O :   -0.594513
  13 H :    0.374734
  14 C :   -0.219689
  15 H :    0.153686
  16 H :    0.126352
  17 H :    0.159698
  18 O :   -0.598991
  19 H :    0.382884
  20 C :   -0.170883
  21 H :    0.138341
  22 H :    0.136378
  23 H :    0.132369
  24 O :   -0.515051
  25 H :    0.352585
  26 C :   -0.173245
  27 H :    0.122140
  28 H :    0.106275
  29 H :    0.098640
  30 O :   -0.521742
  31 H :    0.349208
  32 C :   -0.172175
  33 H :    0.126728
  34 H :    0.111006
  35 H :    0.109995
Sum of atomic charges:   -0.0000000

LOEWDIN ATOMIC CHARGES
----------------------
   0 O :   -0.097625
   1 H :    0.170478
   2 C :   -0.370025
   3 H :    0.109185
   4 H :    0.107558
   5 H :    0.107747
   6 O :   -0.096344
   7 H :    0.162016
   8 C :   -0.397017
   9 H :    0.107349
  10 H :    0.092271
  11 H :    0.094168
  12 O :   -0.096287
  13 H :    0.169835
  14 C :   -0.371317
  15 H :    0.114352
  16 H :    0.104145
  17 H :    0.106386
  18 O :   -0.095924
  19 H :    0.172229
  20 C :   -0.365755
  21 H :    0.112439
  22 H :    0.107770
  23 H :    0.106006
  24 O :   -0.095909
  25 H :    0.163382
  26 C :   -0.397170
  27 H :    0.107283
  28 H :    0.094254
  29 H :    0.092389
  30 O :   -0.094320
  31 H :    0.163037
  32 C :   -0.389733
  33 H :    0.108794
  34 H :    0.097239
  35 H :    0.097114

  Mayer bond orders larger than 0.100000
B(  0-O ,  1-H ) :   0.7680 B(  0-O ,  2-C ) :   0.8218 B(  2-C ,  3-H ) :   0.9413
B(  2-C ,  4-H ) :   0.9367 B(  2-C ,  5-H ) :   0.9192 B(  6-O ,  7-H ) :   0.8094
B(  6-O ,  8-C ) :   0.9458 B(  8-C ,  9-H ) :   0.9404 B(  8-C , 10-H ) :   0.9332
B(  8-C , 11-H ) :   0.9439 B( 12-O , 13-H ) :   0.7717 B( 12-O , 14-C ) :   0.8288
B( 14-C , 15-H ) :   0.9372 B( 14-C , 16-H ) :   0.9402 B( 14-C , 17-H ) :   0.9179
B( 18-O , 19-H ) :   0.7489 B( 18-O , 20-C ) :   0.8508 B( 20-C , 21-H ) :   0.9414
B( 20-C , 22-H ) :   0.9375 B( 20-C , 23-H ) :   0.9383 B( 24-O , 25-H ) :   0.8110
B( 24-O , 26-C ) :   0.9435 B( 26-C , 27-H ) :   0.9405 B( 26-C , 28-H ) :   0.9436
B( 26-C , 29-H ) :   0.9331 B( 30-O , 31-H ) :   0.7884 B( 30-O , 32-C ) :   0.9136
B( 32-C , 33-H ) :   0.9432 B( 32-C , 34-H ) :   0.9375 B( 32-C , 35-H ) :   0.9364

MP2 TOTAL ENERGY:     -693.108264755 Eh
FINAL SINGLE POINT ENERGY      -693.108264755315

DIPOLE MOMENT
-------------
                                X             Y             Z
Electronic contribution:      0.94814      -1.30182       1.22151
Nuclear contribution   :     -0.58202       1.74849      -1.69127
                        -----------------------------------------
Total Dipole Moment    :      0.36613       0.44667      -0.46976
                        -----------------------------------------
Magnitude (a.u.)       :      0.74447
Magnitude (Debye)      :      1.89230

Rotational constants in cm-1:     0.014558     0.012459     0.008411
Rotational constants in MHz :   436.444892   373.517413   252.153969

                             ****ORCA TERMINATED NORMALLY****
TOTAL RUN TIME: 0 days 0 hours 9 minutes 43 seconds 165 msec
