                         Program Version 4.2.0 -  RELEASE  -
|  1> # 12h2o.su.etal.mol2,4,6,8,9,11
|  2> ! MP2 def2-TZVP EnGrad TightSCF
|  3>
|  4> %pal
|  5>     nprocs 6
|  6> end
|  7>
|  8> %maxcore 8000
|  9>
| 10> %scf
| 11>     ConvForced true
| 12> end
| 13>
| 14> *xyz 0 1
| 15> O   0.923410000  -1.794470000  -2.768350000
| 16> H   1.359750000  -2.338250000  -3.430940000
| 17> H   1.303000000  -0.879480000  -2.865760000
| 18> O  -0.885520000   1.737840000   0.052730000
| 19> H  -1.032320000   2.090180000  -0.841890000
| 20> H  -1.284090000   0.839590000   0.017130000
| 21> O   1.737840000   0.885520000  -0.052730000
| 22> H   2.090180000   1.032320000   0.841890000
| 23> H   0.839590000   1.284090000  -0.017130000
| 24> O   1.752130000   0.741530000  -2.896280000
| 25> H   2.036450000   0.920500000  -1.984040000
| 26> H   0.921210000   1.242140000  -2.984230000
| 27> O   0.741530000  -1.752130000   2.896280000
| 28> H   0.920500000  -2.036450000   1.984040000
| 29> H   1.242140000  -0.921210000   2.984230000
| 30> O  -0.741530000   1.752130000   2.896280000
| 31> H  -0.920500000   2.036450000   1.984040000
| 32> H  -1.242140000   0.921210000   2.984230000
| 33> *
| 34>
| 35>                          ****END OF INPUT****

CARTESIAN COORDINATES (ANGSTROEM)
---------------------------------
  O      0.923410   -1.794470   -2.768350
  H      1.359750   -2.338250   -3.430940
  H      1.303000   -0.879480   -2.865760
  O     -0.885520    1.737840    0.052730
  H     -1.032320    2.090180   -0.841890
  H     -1.284090    0.839590    0.017130
  O      1.737840    0.885520   -0.052730
  H      2.090180    1.032320    0.841890
  H      0.839590    1.284090   -0.017130
  O      1.752130    0.741530   -2.896280
  H      2.036450    0.920500   -1.984040
  H      0.921210    1.242140   -2.984230
  O      0.741530   -1.752130    2.896280
  H      0.920500   -2.036450    1.984040
  H      1.242140   -0.921210    2.984230
  O     -0.741530    1.752130    2.896280
  H     -0.920500    2.036450    1.984040
  H     -1.242140    0.921210    2.984230

 Total Charge           Charge          ....    0
 Multiplicity           Mult            ....    1
 Number of Electrons    NEL             ....   60
 Basis Dimension        Dim             ....  258

ORBITAL ENERGIES
----------------

  NO   OCC          E(Eh)            E(eV)
   0   2.0000     -20.639089      -561.6182
   1   2.0000     -20.578057      -559.9574
   2   2.0000     -20.573765      -559.8406
   3   2.0000     -20.561470      -559.5060
   4   2.0000     -20.555175      -559.3347
   5   2.0000     -20.515491      -558.2549
   6   2.0000      -1.422035       -38.6955
   7   2.0000      -1.368838       -37.2480
   8   2.0000      -1.354166       -36.8487
   9   2.0000      -1.340606       -36.4797
  10   2.0000      -1.336980       -36.3811
  11   2.0000      -1.297674       -35.3115
  12   2.0000      -0.779962       -21.2238
  13   2.0000      -0.736075       -20.0296
  14   2.0000      -0.724997       -19.7282
  15   2.0000      -0.710432       -19.3318
  16   2.0000      -0.702985       -19.1292
  17   2.0000      -0.686461       -18.6796
  18   2.0000      -0.657300       -17.8860
  19   2.0000      -0.622361       -16.9353
  20   2.0000      -0.597048       -16.2465
  21   2.0000      -0.578551       -15.7432
  22   2.0000      -0.573590       -15.6082
  23   2.0000      -0.563207       -15.3257
  24   2.0000      -0.547760       -14.9053
  25   2.0000      -0.523144       -14.2355
  26   2.0000      -0.507255       -13.8031
  27   2.0000      -0.504680       -13.7330
  28   2.0000      -0.499736       -13.5985
  29   2.0000      -0.466108       -12.6834
  30   0.0000       0.065544         1.7835
  31   0.0000       0.109916         2.9910
  32   0.0000       0.133950         3.6450
  33   0.0000       0.161206         4.3866
  34   0.0000       0.178201         4.8491

MULLIKEN ATOMIC CHARGES
-----------------------
   0 O :   -0.740243
   1 H :    0.324889
   2 H :    0.368516
   3 O :   -0.708910
   4 H :    0.366032
   5 H :    0.377314
   6 O :   -0.723340
   7 H :    0.347858
   8 H :    0.353442
   9 O :   -0.685504
  10 H :    0.390636
  11 H :    0.327098
  12 O :   -0.683336
  13 H :    0.345714
  14 H :    0.336538
  15 O :   -0.697182
  16 H :    0.365269
  17 H :    0.335210
Sum of atomic charges:   -0.0000000

LOEWDIN ATOMIC CHARGES
----------------------
   0 O :   -0.376611
   1 H :    0.148100
   2 H :    0.141963
   3 O :   -0.274475
   4 H :    0.175614
   5 H :    0.188556
   6 O :   -0.335536
   7 H :    0.166737
   8 H :    0.141786
   9 O :   -0.274242
  10 H :    0.160794
  11 H :    0.161294
  12 O :   -0.332194
  13 H :    0.167904
  14 H :    0.163204
  15 O :   -0.335410
  16 H :    0.149310
  17 H :    0.163207

  Mayer bond orders larger than 0.100000
B(  0-O ,  1-H ) :   0.8610 B(  0-O ,  2-H ) :   0.7814 B(  3-O ,  4-H ) :   0.8297
B(  3-O ,  5-H ) :   0.8185 B(  6-O ,  7-H ) :   0.8433 B(  6-O ,  8-H ) :   0.7915
B(  9-O , 10-H ) :   0.7950 B(  9-O , 11-H ) :   0.8546 B( 12-O , 13-H ) :   0.8469
B( 12-O , 14-H ) :   0.8496 B( 15-O , 16-H ) :   0.8289 B( 15-O , 17-H ) :   0.8504

MP2 TOTAL ENERGY:     -457.910462260 Eh
FINAL SINGLE POINT ENERGY      -457.910462260329

DIPOLE MOMENT
-------------
                                X             Y             Z
Electronic contribution:     -0.00532       0.23363       0.30958
Nuclear contribution   :     -0.68416       0.87419      -1.31870
                        -----------------------------------------
Total Dipole Moment    :     -0.68948       1.10782      -1.00912
                        -----------------------------------------
Magnitude (a.u.)       :      1.64954
Magnitude (Debye)      :      4.19279

Rotational constants in cm-1:     0.053565     0.023948     0.019132
Rotational constants in MHz :  1605.825734   717.929843   573.567079

                             ****ORCA TERMINATED NORMALLY****
TOTAL RUN TIME: 0 days 0 hours 0 minutes 57 seconds 823 msec
