                         Program Version 4.2.0 -  RELEASE  -
|  1> # 12meoh.boyd.etal.mol0,3,8
|  2> ! MP2 def2-TZVP EnGrad TightSCF
|  3>
|  4> %pal
|  5>     nprocs 6
|  6> end
|  7>
|  8> %maxcore 8000
|  9>
| 10> %scf
| 11>     ConvForced true
| 12> end
| 13>
| 14> *xyz 0 1
| 15> O  -1.776108874  -2.741384797  -1.019308298
| 16> H  -2.520094035  -2.452295987  -0.420778302
| 17> C  -2.174025166  -3.952700964  -1.647004581
| 18> H  -1.359803895  -4.272673416  -2.304149236
| 19> H  -3.075973971  -3.808692420  -2.256751112
| 20> H  -2.370225393  -4.752784761  -0.918966137
| 21> O  -3.821405976  -2.118091637   0.596795346
| 22> H  -4.342989117  -1.344303030   0.251966383
| 23> C  -3.443883586  -1.809641231   1.934889393
| 24> H  -2.831494349  -2.637429600   2.305201764
| 25> H  -4.325601146  -1.719364371   2.585074667
| 26> H  -2.858527126  -0.882644791   1.996110694
| 27> O   3.570084754   2.361662577  -0.202416728
| 28> H   3.393280933   1.755669977   0.560634073
| 29> C   4.368082883   1.644741793  -1.143112807
| 30> H   4.552851717   2.311801738  -1.989632421
| 31> H   3.862427494   0.740851663  -1.508095690
| 32> H   5.333949674   1.357289092  -0.706288100
| 33> *
| 34>
| 35>                          ****END OF INPUT****

CARTESIAN COORDINATES (ANGSTROEM)
---------------------------------
  O     -1.776109   -2.741385   -1.019308
  H     -2.520094   -2.452296   -0.420778
  C     -2.174025   -3.952701   -1.647005
  H     -1.359804   -4.272673   -2.304149
  H     -3.075974   -3.808692   -2.256751
  H     -2.370225   -4.752785   -0.918966
  O     -3.821406   -2.118092    0.596795
  H     -4.342989   -1.344303    0.251966
  C     -3.443884   -1.809641    1.934889
  H     -2.831494   -2.637430    2.305202
  H     -4.325601   -1.719364    2.585075
  H     -2.858527   -0.882645    1.996111
  O      3.570085    2.361663   -0.202417
  H      3.393281    1.755670    0.560634
  C      4.368083    1.644742   -1.143113
  H      4.552852    2.311802   -1.989632
  H      3.862427    0.740852   -1.508096
  H      5.333950    1.357289   -0.706288

 Total Charge           Charge          ....    0
 Multiplicity           Mult            ....    1
 Number of Electrons    NEL             ....   54
 Basis Dimension        Dim             ....  258

ORBITAL ENERGIES
----------------

  NO   OCC          E(Eh)            E(eV)
   0   2.0000     -20.592745      -560.3571
   1   2.0000     -20.553223      -559.2816
   2   2.0000     -20.513427      -558.1987
   3   2.0000     -11.291804      -307.2656
   4   2.0000     -11.267601      -306.6070
   5   2.0000     -11.247718      -306.0660
   6   2.0000      -1.386009       -37.7152
   7   2.0000      -1.342699       -36.5367
   8   2.0000      -1.310407       -35.6580
   9   2.0000      -0.943353       -25.6699
  10   2.0000      -0.915758       -24.9191
  11   2.0000      -0.893996       -24.3269
  12   2.0000      -0.717968       -19.5369
  13   2.0000      -0.677796       -18.4438
  14   2.0000      -0.674239       -18.3470
  15   2.0000      -0.636300       -17.3146
  16   2.0000      -0.612844       -16.6763
  17   2.0000      -0.610323       -16.6077
  18   2.0000      -0.589630       -16.0447
  19   2.0000      -0.585683       -15.9372
  20   2.0000      -0.560909       -15.2631
  21   2.0000      -0.530355       -14.4317
  22   2.0000      -0.497596       -13.5403
  23   2.0000      -0.489969       -13.3327
  24   2.0000      -0.455941       -12.4068
  25   2.0000      -0.445702       -12.1282
  26   2.0000      -0.415809       -11.3147
  27   0.0000       0.117305         3.1920
  28   0.0000       0.139494         3.7958
  29   0.0000       0.160730         4.3737
  30   0.0000       0.173441         4.7196
  31   0.0000       0.180396         4.9088

MULLIKEN ATOMIC CHARGES
-----------------------
   0 O :   -0.537436
   1 H :    0.340216
   2 C :   -0.155014
   3 H :    0.118670
   4 H :    0.095078
   5 H :    0.095859
   6 O :   -0.512835
   7 H :    0.342571
   8 C :   -0.188856
   9 H :    0.144718
  10 H :    0.126033
  11 H :    0.130998
  12 O :   -0.497309
  13 H :    0.320619
  14 C :   -0.175124
  15 H :    0.128326
  16 H :    0.115303
  17 H :    0.108184
Sum of atomic charges:   -0.0000000

LOEWDIN ATOMIC CHARGES
----------------------
   0 O :   -0.127841
   1 H :    0.157431
   2 C :   -0.396048
   3 H :    0.104787
   4 H :    0.091032
   5 H :    0.091520
   6 O :   -0.073054
   7 H :    0.200319
   8 C :   -0.372434
   9 H :    0.116803
  10 H :    0.104190
  11 H :    0.103296
  12 O :   -0.110678
  13 H :    0.187574
  14 C :   -0.378817
  15 H :    0.110066
  16 H :    0.096862
  17 H :    0.094992

  Mayer bond orders larger than 0.100000
B(  0-O ,  1-H ) :   0.7890 B(  0-O ,  2-C ) :   0.9408 B(  1-H ,  6-O ) :   0.1014
B(  2-C ,  3-H ) :   0.9409 B(  2-C ,  4-H ) :   0.9437 B(  2-C ,  5-H ) :   0.9361
B(  6-O ,  7-H ) :   0.8274 B(  6-O ,  8-C ) :   0.8682 B(  8-C ,  9-H ) :   0.9385
B(  8-C , 10-H ) :   0.9339 B(  8-C , 11-H ) :   0.9391 B( 12-O , 13-H ) :   0.8441
B( 12-O , 14-C ) :   0.9242 B( 14-C , 15-H ) :   0.9379 B( 14-C , 16-H ) :   0.9381
B( 14-C , 17-H ) :   0.9392

MP2 TOTAL ENERGY:     -346.529649426 Eh
FINAL SINGLE POINT ENERGY      -346.529649426354

DIPOLE MOMENT
-------------
                                X             Y             Z
Electronic contribution:     -0.98347       2.19208       0.45947
Nuclear contribution   :      0.18665      -2.39541       0.40232
                        -----------------------------------------
Total Dipole Moment    :     -0.79681      -0.20333       0.86179
                        -----------------------------------------
Magnitude (a.u.)       :      1.19120
Magnitude (Debye)      :      3.02778

Rotational constants in cm-1:     0.075507     0.011342     0.010015
Rotational constants in MHz :  2263.647844   340.011516   300.250194

                             ****ORCA TERMINATED NORMALLY****
TOTAL RUN TIME: 0 days 0 hours 0 minutes 55 seconds 208 msec
