                         Program Version 4.2.0 -  RELEASE  -
|  1> # 12mecn.remya.etal.2.mol4,7
|  2> ! MP2 def2-TZVP EnGrad TightSCF
|  3>
|  4> %pal
|  5>     nprocs 6
|  6> end
|  7>
|  8> %maxcore 8000
|  9>
| 10> %scf
| 11>     ConvForced true
| 12> end
| 13>
| 14> *xyz 0 1
| 15> C  -1.509690000  -0.693960000  -1.610140000
| 16> H  -1.327010000  -1.692700000  -2.017370000
| 17> H  -0.742170000  -0.000650000  -1.964400000
| 18> H  -2.491920000  -0.334310000  -1.929350000
| 19> C  -1.473570000  -0.748120000  -0.167200000
| 20> N  -1.447490000  -0.793720000   0.998938000
| 21> C   1.502241000   0.651296000   1.710523000
| 22> H   1.309219000   1.637164000   2.143202000
| 23> H   2.493408000   0.297996000   2.009069000
| 24> H   0.746597000  -0.059850000   2.055508000
| 25> C   1.447974000   0.738517000   0.269805000
| 26> N   1.405612000   0.808047000  -0.894380000
| 27> *
| 28>
| 29>                          ****END OF INPUT****

CARTESIAN COORDINATES (ANGSTROEM)
---------------------------------
  C     -1.509690   -0.693960   -1.610140
  H     -1.327010   -1.692700   -2.017370
  H     -0.742170   -0.000650   -1.964400
  H     -2.491920   -0.334310   -1.929350
  C     -1.473570   -0.748120   -0.167200
  N     -1.447490   -0.793720    0.998938
  C      1.502241    0.651296    1.710523
  H      1.309219    1.637164    2.143202
  H      2.493408    0.297996    2.009069
  H      0.746597   -0.059850    2.055508
  C      1.447974    0.738517    0.269805
  N      1.405612    0.808047   -0.894380

 Total Charge           Charge          ....    0
 Multiplicity           Mult            ....    1
 Number of Electrons    NEL             ....   44
 Basis Dimension        Dim             ....  222

ORBITAL ENERGIES
----------------

  NO   OCC          E(Eh)            E(eV)
   0   2.0000     -15.570869      -423.7049
   1   2.0000     -15.570848      -423.7043
   2   2.0000     -11.282751      -307.0193
   3   2.0000     -11.282744      -307.0191
   4   2.0000     -11.272302      -306.7349
   5   2.0000     -11.272095      -306.7293
   6   2.0000      -1.217592       -33.1324
   7   2.0000      -1.213414       -33.0187
   8   2.0000      -1.036910       -28.2157
   9   2.0000      -1.034203       -28.1421
  10   2.0000      -0.693834       -18.8802
  11   2.0000      -0.689694       -18.7675
  12   2.0000      -0.630133       -17.1468
  13   2.0000      -0.624815       -17.0021
  14   2.0000      -0.622890       -16.9497
  15   2.0000      -0.614715       -16.7273
  16   2.0000      -0.558719       -15.2035
  17   2.0000      -0.555741       -15.1225
  18   2.0000      -0.460010       -12.5175
  19   2.0000      -0.459498       -12.5036
  20   2.0000      -0.456509       -12.4222
  21   2.0000      -0.454226       -12.3601
  22   0.0000       0.127773         3.4769
  23   0.0000       0.142626         3.8810
  24   0.0000       0.171261         4.6602
  25   0.0000       0.174253         4.7417
  26   0.0000       0.178625         4.8606

MULLIKEN ATOMIC CHARGES
-----------------------
   0 C :   -0.282869
   1 H :    0.166839
   2 H :    0.204243
   3 H :    0.166724
   4 C :   -0.105109
   5 N :   -0.149981
   6 C :   -0.281979
   7 H :    0.167187
   8 H :    0.166817
   9 H :    0.203341
  10 C :   -0.104955
  11 N :   -0.150259
Sum of atomic charges:   -0.0000000

LOEWDIN ATOMIC CHARGES
----------------------
   0 C :   -0.281960
   1 H :    0.153053
   2 H :    0.157046
   3 H :    0.151458
   4 C :   -0.209038
   5 N :    0.029230
   6 C :   -0.281780
   7 H :    0.153272
   8 H :    0.151379
   9 H :    0.157196
  10 C :   -0.209122
  11 N :    0.029265

  Mayer bond orders larger than 0.100000
B(  0-C ,  1-H ) :   0.9142 B(  0-C ,  2-H ) :   0.9023 B(  0-C ,  3-H ) :   0.9165
B(  0-C ,  4-C ) :   0.9009 B(  4-C ,  5-N ) :   2.7757 B(  6-C ,  7-H ) :   0.9141
B(  6-C ,  8-H ) :   0.9166 B(  6-C ,  9-H ) :   0.9026 B(  6-C , 10-C ) :   0.9010
B( 10-C , 11-N ) :   2.7748

MP2 TOTAL ENERGY:     -264.976023954 Eh
FINAL SINGLE POINT ENERGY      -264.976023954196

DIPOLE MOMENT
-------------
                                X             Y             Z
Electronic contribution:     -0.03670       0.07184       0.00749
Nuclear contribution   :      0.05701      -0.10296      -0.00973
                        -----------------------------------------
Total Dipole Moment    :      0.02031      -0.03112      -0.00224
                        -----------------------------------------
Magnitude (a.u.)       :      0.03723
Magnitude (Debye)      :      0.09463

Rotational constants in cm-1:     0.168130     0.067983     0.049333
Rotational constants in MHz :  5040.420531  2038.070187  1478.952259

                             ****ORCA TERMINATED NORMALLY****
TOTAL RUN TIME: 0 days 0 hours 1 minutes 28 seconds 835 msec
