                         Program Version 4.2.0 -  RELEASE  -
|  1> # 12mecn.remya.etal.2.mol1,10,11
|  2> ! MP2 def2-TZVP EnGrad TightSCF
|  3>
|  4> %pal
|  5>     nprocs 6
|  6> end
|  7>
|  8> %maxcore 8000
|  9>
| 10> %scf
| 11>     ConvForced true
| 12> end
| 13>
| 14> *xyz 0 1
| 15> C  -4.697980000  -0.249690000   1.746215000
| 16> H  -4.927570000   0.755530000   2.111799000
| 17> H  -3.709180000  -0.561560000   2.093253000
| 18> H  -5.432280000  -0.961520000   2.128066000
| 19> C  -4.714100000  -0.247110000   0.301670000
| 20> N  -4.729750000  -0.234960000  -0.865260000
| 21> C   4.602033000   0.321019000  -1.784800000
| 22> H   4.827650000  -0.662160000  -2.207910000
| 23> H   5.320558000   1.057980000  -2.148500000
| 24> H   3.601982000   0.643751000  -2.087520000
| 25> C   4.654967000   0.244048000  -0.343060000
| 26> N   4.691648000   0.166590000   0.820757000
| 27> C   4.214163000   3.378139000   1.593627000
| 28> H   3.242643000   3.657109000   2.012358000
| 29> H   4.969258000   4.086643000   1.941290000
| 30> H   4.482966000   2.372549000   1.931698000
| 31> C   4.130759000   3.388436000   0.150192000
| 32> N   4.050180000   3.381449000  -1.013420000
| 33> *
| 34>
| 35>                          ****END OF INPUT****

CARTESIAN COORDINATES (ANGSTROEM)
---------------------------------
  C     -4.697980   -0.249690    1.746215
  H     -4.927570    0.755530    2.111799
  H     -3.709180   -0.561560    2.093253
  H     -5.432280   -0.961520    2.128066
  C     -4.714100   -0.247110    0.301670
  N     -4.729750   -0.234960   -0.865260
  C      4.602033    0.321019   -1.784800
  H      4.827650   -0.662160   -2.207910
  H      5.320558    1.057980   -2.148500
  H      3.601982    0.643751   -2.087520
  C      4.654967    0.244048   -0.343060
  N      4.691648    0.166590    0.820757
  C      4.214163    3.378139    1.593627
  H      3.242643    3.657109    2.012358
  H      4.969258    4.086643    1.941290
  H      4.482966    2.372549    1.931698
  C      4.130759    3.388436    0.150192
  N      4.050180    3.381449   -1.013420

 Total Charge           Charge          ....    0
 Multiplicity           Mult            ....    1
 Number of Electrons    NEL             ....   66
 Basis Dimension        Dim             ....  333

ORBITAL ENERGIES
----------------

  NO   OCC          E(Eh)            E(eV)
   0   2.0000     -15.573256      -423.7699
   1   2.0000     -15.571429      -423.7201
   2   2.0000     -15.570455      -423.6936
   3   2.0000     -11.285092      -307.0830
   4   2.0000     -11.282903      -307.0234
   5   2.0000     -11.282898      -307.0233
   6   2.0000     -11.280199      -306.9498
   7   2.0000     -11.272508      -306.7405
   8   2.0000     -11.271798      -306.7212
   9   2.0000      -1.218466       -33.1562
  10   2.0000      -1.214391       -33.0453
  11   2.0000      -1.213606       -33.0239
  12   2.0000      -1.044405       -28.4197
  13   2.0000      -1.036496       -28.2045
  14   2.0000      -1.033400       -28.1203
  15   2.0000      -0.700303       -19.0562
  16   2.0000      -0.695175       -18.9167
  17   2.0000      -0.690452       -18.7882
  18   2.0000      -0.634379       -17.2623
  19   2.0000      -0.631635       -17.1877
  20   2.0000      -0.630231       -17.1495
  21   2.0000      -0.623020       -16.9532
  22   2.0000      -0.617848       -16.8125
  23   2.0000      -0.615881       -16.7590
  24   2.0000      -0.559141       -15.2150
  25   2.0000      -0.556012       -15.1299
  26   2.0000      -0.555866       -15.1259
  27   2.0000      -0.462653       -12.5894
  28   2.0000      -0.458888       -12.4870
  29   2.0000      -0.457759       -12.4563
  30   2.0000      -0.457237       -12.4421
  31   2.0000      -0.457140       -12.4394
  32   2.0000      -0.453311       -12.3352
  33   0.0000       0.119002         3.2382
  34   0.0000       0.126290         3.4365
  35   0.0000       0.145496         3.9592
  36   0.0000       0.171020         4.6537
  37   0.0000       0.171587         4.6691

MULLIKEN ATOMIC CHARGES
-----------------------
   0 C :   -0.279055
   1 H :    0.172081
   2 H :    0.172430
   3 H :    0.172155
   4 C :   -0.145577
   5 N :   -0.092035
   6 C :   -0.257989
   7 H :    0.171691
   8 H :    0.179248
   9 H :    0.177615
  10 C :   -0.118251
  11 N :   -0.151498
  12 C :   -0.288159
  13 H :    0.165353
  14 H :    0.166614
  15 H :    0.205467
  16 C :   -0.113151
  17 N :   -0.136941
Sum of atomic charges:    0.0000000

LOEWDIN ATOMIC CHARGES
----------------------
   0 C :   -0.283772
   1 H :    0.152935
   2 H :    0.152967
   3 H :    0.151640
   4 C :   -0.219798
   5 N :    0.046028
   6 C :   -0.284132
   7 H :    0.150258
   8 H :    0.155705
   9 H :    0.157744
  10 C :   -0.209716
  11 N :    0.027164
  12 C :   -0.282934
  13 H :    0.152262
  14 H :    0.149974
  15 H :    0.157180
  16 C :   -0.209529
  17 N :    0.036024

  Mayer bond orders larger than 0.100000
B(  0-C ,  1-H ) :   0.9160 B(  0-C ,  2-H ) :   0.9166 B(  0-C ,  3-H ) :   0.9170
B(  0-C ,  4-C ) :   0.9015 B(  4-C ,  5-N ) :   2.8366 B(  6-C ,  7-H ) :   0.9092
B(  6-C ,  8-H ) :   0.9122 B(  6-C ,  9-H ) :   0.9124 B(  6-C , 10-C ) :   0.9121
B( 10-C , 11-N ) :   2.7730 B( 12-C , 13-H ) :   0.9152 B( 12-C , 14-H ) :   0.9163
B( 12-C , 15-H ) :   0.9018 B( 12-C , 16-C ) :   0.9003 B( 16-C , 17-N ) :   2.7905

MP2 TOTAL ENERGY:     -397.459075700 Eh
FINAL SINGLE POINT ENERGY      -397.459075700032

DIPOLE MOMENT
-------------
                                X             Y             Z
Electronic contribution:     -0.09804      -0.14756      -3.15211
Nuclear contribution   :      0.15856       0.21805       4.65699
                        -----------------------------------------
Total Dipole Moment    :      0.06051       0.07049       1.50488
                        -----------------------------------------
Magnitude (a.u.)       :      1.50775
Magnitude (Debye)      :      3.83239

Rotational constants in cm-1:     0.043923     0.006643     0.006379
Rotational constants in MHz :  1316.790481   199.152468   191.245158

                             ****ORCA TERMINATED NORMALLY****
TOTAL RUN TIME: 0 days 0 hours 2 minutes 30 seconds 464 msec
