                         Program Version 4.2.0 -  RELEASE  -
|  1> # 12h2o.su.etal.mol0,1,3,5,6,7,10
|  2> ! MP2 def2-TZVP EnGrad TightSCF
|  3>
|  4> %pal
|  5>     nprocs 6
|  6> end
|  7>
|  8> %maxcore 8000
|  9>
| 10> %scf
| 11>     ConvForced true
| 12> end
| 13>
| 14> *xyz 0 1
| 15> O   1.794470000   0.923410000   2.768350000
| 16> H   2.338250000   1.359750000   3.430940000
| 17> H   0.879480000   1.303000000   2.865760000
| 18> O  -1.794470000  -0.923410000   2.768350000
| 19> H  -2.338250000  -1.359750000   3.430940000
| 20> H  -0.879480000  -1.303000000   2.865760000
| 21> O  -1.752130000  -0.741530000  -2.896280000
| 22> H  -2.036450000  -0.920500000  -1.984040000
| 23> H  -0.921210000  -1.242140000  -2.984230000
| 24> O   0.885520000  -1.737840000   0.052730000
| 25> H   1.284090000  -0.839590000   0.017130000
| 26> H   1.032320000  -2.090180000  -0.841890000
| 27> O   1.737840000   0.885520000  -0.052730000
| 28> H   2.090180000   1.032320000   0.841890000
| 29> H   0.839590000   1.284090000  -0.017130000
| 30> O  -1.737840000  -0.885520000  -0.052730000
| 31> H  -2.090180000  -1.032320000   0.841890000
| 32> H  -0.839590000  -1.284090000  -0.017130000
| 33> O  -0.923410000   1.794470000  -2.768350000
| 34> H  -1.359750000   2.338250000  -3.430940000
| 35> H  -1.303000000   0.879480000  -2.865760000
| 36> *
| 37>
| 38>                          ****END OF INPUT****

CARTESIAN COORDINATES (ANGSTROEM)
---------------------------------
  O      1.794470    0.923410    2.768350
  H      2.338250    1.359750    3.430940
  H      0.879480    1.303000    2.865760
  O     -1.794470   -0.923410    2.768350
  H     -2.338250   -1.359750    3.430940
  H     -0.879480   -1.303000    2.865760
  O     -1.752130   -0.741530   -2.896280
  H     -2.036450   -0.920500   -1.984040
  H     -0.921210   -1.242140   -2.984230
  O      0.885520   -1.737840    0.052730
  H      1.284090   -0.839590    0.017130
  H      1.032320   -2.090180   -0.841890
  O      1.737840    0.885520   -0.052730
  H      2.090180    1.032320    0.841890
  H      0.839590    1.284090   -0.017130
  O     -1.737840   -0.885520   -0.052730
  H     -2.090180   -1.032320    0.841890
  H     -0.839590   -1.284090   -0.017130
  O     -0.923410    1.794470   -2.768350
  H     -1.359750    2.338250   -3.430940
  H     -1.303000    0.879480   -2.865760

 Total Charge           Charge          ....    0
 Multiplicity           Mult            ....    1
 Number of Electrons    NEL             ....   70
 Basis Dimension        Dim             ....  301

ORBITAL ENERGIES
----------------

  NO   OCC          E(Eh)            E(eV)
   0   2.0000     -20.601391      -560.5923
   1   2.0000     -20.590442      -560.2944
   2   2.0000     -20.559856      -559.4621
   3   2.0000     -20.557729      -559.4042
   4   2.0000     -20.552628      -559.2654
   5   2.0000     -20.522500      -558.4456
   6   2.0000     -20.498759      -557.7996
   7   2.0000      -1.379623       -37.5415
   8   2.0000      -1.368363       -37.2350
   9   2.0000      -1.351499       -36.7762
  10   2.0000      -1.342316       -36.5263
  11   2.0000      -1.335383       -36.3376
  12   2.0000      -1.306735       -35.5581
  13   2.0000      -1.280622       -34.8475
  14   2.0000      -0.746306       -20.3080
  15   2.0000      -0.734909       -19.9979
  16   2.0000      -0.710521       -19.3343
  17   2.0000      -0.706086       -19.2136
  18   2.0000      -0.704474       -19.1697
  19   2.0000      -0.685663       -18.6579
  20   2.0000      -0.668046       -18.1785
  21   2.0000      -0.621251       -16.9051
  22   2.0000      -0.612689       -16.6721
  23   2.0000      -0.598431       -16.2841
  24   2.0000      -0.586877       -15.9697
  25   2.0000      -0.574611       -15.6359
  26   2.0000      -0.558032       -15.1848
  27   2.0000      -0.538823       -14.6621
  28   2.0000      -0.531611       -14.4659
  29   2.0000      -0.522788       -14.2258
  30   2.0000      -0.501707       -13.6522
  31   2.0000      -0.497032       -13.5249
  32   2.0000      -0.484530       -13.1847
  33   2.0000      -0.473758       -12.8916
  34   2.0000      -0.449235       -12.2243
  35   0.0000       0.089023         2.4224
  36   0.0000       0.120048         3.2667
  37   0.0000       0.125629         3.4185
  38   0.0000       0.169088         4.6011
  39   0.0000       0.179675         4.8892

MULLIKEN ATOMIC CHARGES
-----------------------
   0 O :   -0.702981
   1 H :    0.356066
   2 H :    0.361071
   3 O :   -0.702496
   4 H :    0.350119
   5 H :    0.364400
   6 O :   -0.694617
   7 H :    0.390347
   8 H :    0.331422
   9 O :   -0.714997
  10 H :    0.379639
  11 H :    0.338820
  12 O :   -0.704020
  13 H :    0.374553
  14 H :    0.360951
  15 O :   -0.746673
  16 H :    0.367184
  17 H :    0.337599
  18 O :   -0.736046
  19 H :    0.318252
  20 H :    0.371407
Sum of atomic charges:   -0.0000000

LOEWDIN ATOMIC CHARGES
----------------------
   0 O :   -0.312061
   1 H :    0.165415
   2 H :    0.187328
   3 O :   -0.313294
   4 H :    0.162704
   5 H :    0.187814
   6 O :   -0.279607
   7 H :    0.159706
   8 H :    0.162839
   9 O :   -0.312940
  10 H :    0.147837
  11 H :    0.161630
  12 O :   -0.295144
  13 H :    0.151743
  14 H :    0.178575
  15 O :   -0.350170
  16 H :    0.148523
  17 H :    0.135456
  18 O :   -0.375163
  19 H :    0.145572
  20 H :    0.143238

  Mayer bond orders larger than 0.100000
B(  0-O ,  1-H ) :   0.8394 B(  0-O ,  2-H ) :   0.8280 B(  3-O ,  4-H ) :   0.8427
B(  3-O ,  5-H ) :   0.8259 B(  6-O ,  7-H ) :   0.7885 B(  6-O ,  8-H ) :   0.8520
B(  9-O , 10-H ) :   0.7613 B(  9-O , 11-H ) :   0.8487 B(  9-O , 17-H ) :   0.1016
B( 10-H , 12-O ) :   0.1035 B( 12-O , 13-H ) :   0.8067 B( 12-O , 14-H ) :   0.8267
B( 15-O , 16-H ) :   0.8186 B( 15-O , 17-H ) :   0.7804 B( 18-O , 19-H ) :   0.8639
B( 18-O , 20-H ) :   0.7758

MP2 TOTAL ENERGY:     -534.246564512 Eh
FINAL SINGLE POINT ENERGY      -534.246564512365

DIPOLE MOMENT
-------------
                                X             Y             Z
Electronic contribution:      0.20750       0.00578       0.29945
Nuclear contribution   :      0.22976      -0.42024       2.09298
                        -----------------------------------------
Total Dipole Moment    :      0.43727      -0.41446       2.39243
                        -----------------------------------------
Magnitude (a.u.)       :      2.46712
Magnitude (Debye)      :      6.27092

Rotational constants in cm-1:     0.039192     0.022391     0.017807
Rotational constants in MHz :  1174.935936   671.250562   533.832389

                             ****ORCA TERMINATED NORMALLY****
TOTAL RUN TIME: 0 days 0 hours 2 minutes 10 seconds 877 msec
