                         Program Version 4.2.0 -  RELEASE  -
|  1> # 12h2o.su.etal.mol0,2,3,7,8,9,10
|  2> ! MP2 def2-TZVP EnGrad TightSCF
|  3>
|  4> %pal
|  5>     nprocs 6
|  6> end
|  7>
|  8> %maxcore 8000
|  9>
| 10> %scf
| 11>     ConvForced true
| 12> end
| 13>
| 14> *xyz 0 1
| 15> O   1.794470000   0.923410000   2.768350000
| 16> H   2.338250000   1.359750000   3.430940000
| 17> H   0.879480000   1.303000000   2.865760000
| 18> O   0.923410000  -1.794470000  -2.768350000
| 19> H   1.359750000  -2.338250000  -3.430940000
| 20> H   1.303000000  -0.879480000  -2.865760000
| 21> O  -1.752130000  -0.741530000  -2.896280000
| 22> H  -2.036450000  -0.920500000  -1.984040000
| 23> H  -0.921210000  -1.242140000  -2.984230000
| 24> O  -1.737840000  -0.885520000  -0.052730000
| 25> H  -2.090180000  -1.032320000   0.841890000
| 26> H  -0.839590000  -1.284090000  -0.017130000
| 27> O   1.752130000   0.741530000  -2.896280000
| 28> H   2.036450000   0.920500000  -1.984040000
| 29> H   0.921210000   1.242140000  -2.984230000
| 30> O   0.741530000  -1.752130000   2.896280000
| 31> H   0.920500000  -2.036450000   1.984040000
| 32> H   1.242140000  -0.921210000   2.984230000
| 33> O  -0.923410000   1.794470000  -2.768350000
| 34> H  -1.359750000   2.338250000  -3.430940000
| 35> H  -1.303000000   0.879480000  -2.865760000
| 36> *
| 37>
| 38>                          ****END OF INPUT****

CARTESIAN COORDINATES (ANGSTROEM)
---------------------------------
  O      1.794470    0.923410    2.768350
  H      2.338250    1.359750    3.430940
  H      0.879480    1.303000    2.865760
  O      0.923410   -1.794470   -2.768350
  H      1.359750   -2.338250   -3.430940
  H      1.303000   -0.879480   -2.865760
  O     -1.752130   -0.741530   -2.896280
  H     -2.036450   -0.920500   -1.984040
  H     -0.921210   -1.242140   -2.984230
  O     -1.737840   -0.885520   -0.052730
  H     -2.090180   -1.032320    0.841890
  H     -0.839590   -1.284090   -0.017130
  O      1.752130    0.741530   -2.896280
  H      2.036450    0.920500   -1.984040
  H      0.921210    1.242140   -2.984230
  O      0.741530   -1.752130    2.896280
  H      0.920500   -2.036450    1.984040
  H      1.242140   -0.921210    2.984230
  O     -0.923410    1.794470   -2.768350
  H     -1.359750    2.338250   -3.430940
  H     -1.303000    0.879480   -2.865760

 Total Charge           Charge          ....    0
 Multiplicity           Mult            ....    1
 Number of Electrons    NEL             ....   70
 Basis Dimension        Dim             ....  301

ORBITAL ENERGIES
----------------

  NO   OCC          E(Eh)            E(eV)
   0   2.0000     -20.599462      -560.5399
   1   2.0000     -20.581417      -560.0488
   2   2.0000     -20.565836      -559.6248
   3   2.0000     -20.547878      -559.1362
   4   2.0000     -20.546647      -559.1027
   5   2.0000     -20.539193      -558.8999
   6   2.0000     -20.535512      -558.7997
   7   2.0000      -1.377159       -37.4744
   8   2.0000      -1.360525       -37.0218
   9   2.0000      -1.358199       -36.9585
  10   2.0000      -1.335812       -36.3493
  11   2.0000      -1.329915       -36.1888
  12   2.0000      -1.327845       -36.1325
  13   2.0000      -1.312552       -35.7164
  14   2.0000      -0.744395       -20.2560
  15   2.0000      -0.723285       -19.6816
  16   2.0000      -0.717654       -19.5283
  17   2.0000      -0.713750       -19.4221
  18   2.0000      -0.698901       -19.0181
  19   2.0000      -0.697997       -18.9935
  20   2.0000      -0.694021       -18.8853
  21   2.0000      -0.617932       -16.8148
  22   2.0000      -0.617069       -16.7913
  23   2.0000      -0.602129       -16.3848
  24   2.0000      -0.576147       -15.6777
  25   2.0000      -0.572959       -15.5910
  26   2.0000      -0.571171       -15.5424
  27   2.0000      -0.543152       -14.7799
  28   2.0000      -0.536938       -14.6108
  29   2.0000      -0.524847       -14.2818
  30   2.0000      -0.506612       -13.7856
  31   2.0000      -0.496004       -13.4970
  32   2.0000      -0.494939       -13.4680
  33   2.0000      -0.486297       -13.2328
  34   2.0000      -0.483943       -13.1688
  35   0.0000       0.088722         2.4142
  36   0.0000       0.119311         3.2466
  37   0.0000       0.140324         3.8184
  38   0.0000       0.160361         4.3636
  39   0.0000       0.166819         4.5394

MULLIKEN ATOMIC CHARGES
-----------------------
   0 O :   -0.697977
   1 H :    0.356756
   2 H :    0.362687
   3 O :   -0.747833
   4 H :    0.342050
   5 H :    0.378948
   6 O :   -0.725981
   7 H :    0.383382
   8 H :    0.365079
   9 O :   -0.698362
  10 H :    0.354593
  11 H :    0.347351
  12 O :   -0.709488
  13 H :    0.351726
  14 H :    0.379099
  15 O :   -0.702056
  16 H :    0.324810
  17 H :    0.360156
  18 O :   -0.745618
  19 H :    0.336535
  20 H :    0.384144
Sum of atomic charges:   -0.0000000

LOEWDIN ATOMIC CHARGES
----------------------
   0 O :   -0.311393
   1 H :    0.165514
   2 H :    0.189259
   3 O :   -0.344798
   4 H :    0.155976
   5 H :    0.144745
   6 O :   -0.289484
   7 H :    0.156926
   8 H :    0.148541
   9 O :   -0.317558
  10 H :    0.172196
  11 H :    0.173794
  12 O :   -0.285153
  13 H :    0.170153
  14 H :    0.154796
  15 O :   -0.344877
  16 H :    0.156519
  17 H :    0.148309
  18 O :   -0.342739
  19 H :    0.153374
  20 H :    0.145900

  Mayer bond orders larger than 0.100000
B(  0-O ,  1-H ) :   0.8392 B(  0-O ,  2-H ) :   0.8292 B(  3-O ,  4-H ) :   0.8482
B(  3-O ,  5-H ) :   0.7484 B(  5-H , 12-O ) :   0.1105 B(  6-O ,  7-H ) :   0.8071
B(  6-O ,  8-H ) :   0.7960 B(  6-O , 20-H ) :   0.1167 B(  9-O , 10-H ) :   0.8391
B(  9-O , 11-H ) :   0.8363 B( 12-O , 13-H ) :   0.8413 B( 12-O , 14-H ) :   0.7773
B( 15-O , 16-H ) :   0.8593 B( 15-O , 17-H ) :   0.8145 B( 18-O , 19-H ) :   0.8507
B( 18-O , 20-H ) :   0.7402

MP2 TOTAL ENERGY:     -534.255319838 Eh
FINAL SINGLE POINT ENERGY      -534.255319838411

DIPOLE MOMENT
-------------
                                X             Y             Z
Electronic contribution:     -0.07490       0.08783       0.09425
Nuclear contribution   :      0.71107       0.68017       0.82779
                        -----------------------------------------
Total Dipole Moment    :      0.63617       0.76800       0.92204
                        -----------------------------------------
Magnitude (a.u.)       :      1.35820
Magnitude (Debye)      :      3.45226

Rotational constants in cm-1:     0.038324     0.016705     0.015485
Rotational constants in MHz :  1148.938712   500.790580   464.216269

                             ****ORCA TERMINATED NORMALLY****
TOTAL RUN TIME: 0 days 0 hours 3 minutes 15 seconds 24 msec
