                         Program Version 4.2.0 -  RELEASE  -
|  1> # 12h2o.su.etal.mol0,1,3,7,8,9
|  2> ! MP2 def2-TZVP EnGrad TightSCF
|  3>
|  4> %pal
|  5>     nprocs 6
|  6> end
|  7>
|  8> %maxcore 8000
|  9>
| 10> %scf
| 11>     ConvForced true
| 12> end
| 13>
| 14> *xyz 0 1
| 15> O   1.794470000   0.923410000   2.768350000
| 16> H   2.338250000   1.359750000   3.430940000
| 17> H   0.879480000   1.303000000   2.865760000
| 18> O  -1.794470000  -0.923410000   2.768350000
| 19> H  -2.338250000  -1.359750000   3.430940000
| 20> H  -0.879480000  -1.303000000   2.865760000
| 21> O  -1.752130000  -0.741530000  -2.896280000
| 22> H  -2.036450000  -0.920500000  -1.984040000
| 23> H  -0.921210000  -1.242140000  -2.984230000
| 24> O  -1.737840000  -0.885520000  -0.052730000
| 25> H  -2.090180000  -1.032320000   0.841890000
| 26> H  -0.839590000  -1.284090000  -0.017130000
| 27> O   1.752130000   0.741530000  -2.896280000
| 28> H   2.036450000   0.920500000  -1.984040000
| 29> H   0.921210000   1.242140000  -2.984230000
| 30> O   0.741530000  -1.752130000   2.896280000
| 31> H   0.920500000  -2.036450000   1.984040000
| 32> H   1.242140000  -0.921210000   2.984230000
| 33> *
| 34>
| 35>                          ****END OF INPUT****

CARTESIAN COORDINATES (ANGSTROEM)
---------------------------------
  O      1.794470    0.923410    2.768350
  H      2.338250    1.359750    3.430940
  H      0.879480    1.303000    2.865760
  O     -1.794470   -0.923410    2.768350
  H     -2.338250   -1.359750    3.430940
  H     -0.879480   -1.303000    2.865760
  O     -1.752130   -0.741530   -2.896280
  H     -2.036450   -0.920500   -1.984040
  H     -0.921210   -1.242140   -2.984230
  O     -1.737840   -0.885520   -0.052730
  H     -2.090180   -1.032320    0.841890
  H     -0.839590   -1.284090   -0.017130
  O      1.752130    0.741530   -2.896280
  H      2.036450    0.920500   -1.984040
  H      0.921210    1.242140   -2.984230
  O      0.741530   -1.752130    2.896280
  H      0.920500   -2.036450    1.984040
  H      1.242140   -0.921210    2.984230

 Total Charge           Charge          ....    0
 Multiplicity           Mult            ....    1
 Number of Electrons    NEL             ....   60
 Basis Dimension        Dim             ....  258

ORBITAL ENERGIES
----------------

  NO   OCC          E(Eh)            E(eV)
   0   2.0000     -20.610885      -560.8507
   1   2.0000     -20.593830      -560.3866
   2   2.0000     -20.556782      -559.3785
   3   2.0000     -20.556746      -559.3775
   4   2.0000     -20.556138      -559.3610
   5   2.0000     -20.521946      -558.4305
   6   2.0000      -1.391463       -37.8636
   7   2.0000      -1.380100       -37.5544
   8   2.0000      -1.344557       -36.5872
   9   2.0000      -1.335939       -36.3527
  10   2.0000      -1.333472       -36.2856
  11   2.0000      -1.303449       -35.4686
  12   2.0000      -0.758070       -20.6281
  13   2.0000      -0.741144       -20.1676
  14   2.0000      -0.724345       -19.7104
  15   2.0000      -0.706498       -19.2248
  16   2.0000      -0.698575       -19.0092
  17   2.0000      -0.671077       -18.2609
  18   2.0000      -0.639915       -17.4130
  19   2.0000      -0.615919       -16.7600
  20   2.0000      -0.592899       -16.1336
  21   2.0000      -0.575437       -15.6584
  22   2.0000      -0.573958       -15.6182
  23   2.0000      -0.552126       -15.0241
  24   2.0000      -0.539910       -14.6917
  25   2.0000      -0.529687       -14.4135
  26   2.0000      -0.505642       -13.7592
  27   2.0000      -0.501526       -13.6472
  28   2.0000      -0.500849       -13.6288
  29   2.0000      -0.468135       -12.7386
  30   0.0000       0.080289         2.1848
  31   0.0000       0.112510         3.0616
  32   0.0000       0.134395         3.6571
  33   0.0000       0.150321         4.0905
  34   0.0000       0.176664         4.8073

MULLIKEN ATOMIC CHARGES
-----------------------
   0 O :   -0.706666
   1 H :    0.360753
   2 H :    0.371629
   3 O :   -0.741667
   4 H :    0.340607
   5 H :    0.367391
   6 O :   -0.703167
   7 H :    0.372935
   8 H :    0.322024
   9 O :   -0.704229
  10 H :    0.380033
  11 H :    0.309908
  12 O :   -0.684530
  13 H :    0.332439
  14 H :    0.350809
  15 O :   -0.695167
  16 H :    0.347084
  17 H :    0.379814
Sum of atomic charges:   -0.0000000

LOEWDIN ATOMIC CHARGES
----------------------
   0 O :   -0.311860
   1 H :    0.167740
   2 H :    0.192693
   3 O :   -0.342813
   4 H :    0.155464
   5 H :    0.141860
   6 O :   -0.342790
   7 H :    0.152667
   8 H :    0.156486
   9 O :   -0.325881
  10 H :    0.154623
  11 H :    0.157630
  12 O :   -0.334155
  13 H :    0.162947
  14 H :    0.170470
  15 O :   -0.277892
  16 H :    0.167072
  17 H :    0.155740

  Mayer bond orders larger than 0.100000
B(  0-O ,  1-H ) :   0.8368 B(  0-O ,  2-H ) :   0.8219 B(  3-O ,  4-H ) :   0.8487
B(  3-O ,  5-H ) :   0.7601 B(  6-O ,  7-H ) :   0.8152 B(  6-O ,  8-H ) :   0.8587
B(  9-O , 10-H ) :   0.7966 B(  9-O , 11-H ) :   0.8591 B( 12-O , 13-H ) :   0.8556
B( 12-O , 14-H ) :   0.8409 B( 15-O , 16-H ) :   0.8438 B( 15-O , 17-H ) :   0.7917

MP2 TOTAL ENERGY:     -457.915563888 Eh
FINAL SINGLE POINT ENERGY      -457.915563887675

DIPOLE MOMENT
-------------
                                X             Y             Z
Electronic contribution:      0.15830       0.18411       0.03606
Nuclear contribution   :      1.02005       0.00102       2.72557
                        -----------------------------------------
Total Dipole Moment    :      1.17835       0.18513       2.76163
                        -----------------------------------------
Magnitude (a.u.)       :      3.00822
Magnitude (Debye)      :      7.64629

Rotational constants in cm-1:     0.044239     0.022134     0.016064
Rotational constants in MHz :  1326.264759   663.555096   481.583730

                             ****ORCA TERMINATED NORMALLY****
TOTAL RUN TIME: 0 days 0 hours 0 minutes 49 seconds 813 msec
