                         Program Version 3.0.3 - RELEASE   -
|  1> ! wB97X-D3 Def2-TZVP def2-TZVP/J RIJCOSX TightSCF Grid4
|  2>
|  3> %pal nprocs 12 end
|  4>
|  5> %scf
|  6>         maxiter 400
|  7> end
|  8>
|  9> * xyz  0  1
| 10> O  0.761900	-0.184844	-1.026904
| 11> H  1.377404	0.529775	-0.772623
| 12> H  0.252154	0.214524	-1.757948
| 13> O  -0.968421	0.119482	1.231621
| 14> H  -0.424676	-0.005852	0.419049
| 15> H  -0.851514	-0.737405	1.681283
| 16> **                         ****END OF INPUT****

CARTESIAN COORDINATES (ANGSTROEM)
---------------------------------
  O      0.761900   -0.184844   -1.026904
  H      1.377404    0.529775   -0.772623
  H      0.252154    0.214524   -1.757948
  O     -0.968421    0.119482    1.231621
  H     -0.424676   -0.005852    0.419049
  H     -0.851514   -0.737405    1.681283

 Total Charge           Charge          ....    0
 Multiplicity           Mult            ....    1
 Number of Electrons    NEL             ....   20
 Basis Dimension        Dim             ....   86

ORBITAL ENERGIES
----------------

  NO   OCC          E(Eh)            E(eV)
   0   2.0000     -19.268315      -524.3175
   1   2.0000     -19.202083      -522.5152
   2   2.0000      -1.156027       -31.4571
   3   2.0000      -1.090410       -29.6716
   4   2.0000      -0.654942       -17.8219
   5   2.0000      -0.597112       -16.2482
   6   2.0000      -0.527537       -14.3550
   7   2.0000      -0.474565       -12.9136
   8   2.0000      -0.435840       -11.8598
   9   2.0000      -0.386081       -10.5058
  10   0.0000       0.085373         2.3231
  11   0.0000       0.149994         4.0815
  12   0.0000       0.162858         4.4316
  13   0.0000       0.274457         7.4684
  14   0.0000       0.410734        11.1766

MULLIKEN ATOMIC CHARGES
-----------------------
   0 O :   -0.661882
   1 H :    0.348852
   2 H :    0.348974
   3 O :   -0.675012
   4 H :    0.319720
   5 H :    0.319348
Sum of atomic charges:    0.0000000

LOEWDIN ATOMIC CHARGES
----------------------
   0 O :   -0.288089
   1 H :    0.171825
   2 H :    0.172006
   3 O :   -0.351890
   4 H :    0.139356
   5 H :    0.156791

  Mayer bond orders larger than 0.1
B(  0-O ,  1-H ) :   0.8865 B(  0-O ,  2-H ) :   0.8871 B(  3-O ,  4-H ) :   0.8662
B(  3-O ,  5-H ) :   0.9107

Dispersion correction           -0.000548764
FINAL SINGLE POINT ENERGY      -152.885287509694

DIPOLE MOMENT
-------------
                                X             Y             Z
Electronic contribution:      0.03662      -0.02136      -0.08165
Nuclear contribution   :      0.63793       0.10968      -0.69891
                        -----------------------------------------
Total Dipole Moment    :      0.67455       0.08832      -0.78056
                        -----------------------------------------
Magnitude (a.u.)       :      1.03541
Magnitude (Debye)      :      2.63181

                             ****ORCA TERMINATED NORMALLY****
TOTAL RUN TIME: 0 days 0 hours 0 minutes 48 seconds 588 msec
