                         Program Version 4.2.0 -  RELEASE  -
|  1> # 12meoh.boyd.etal.mol2,3,11
|  2> ! MP2 def2-TZVP EnGrad TightSCF
|  3>
|  4> %pal
|  5>     nprocs 6
|  6> end
|  7>
|  8> %maxcore 8000
|  9>
| 10> %scf
| 11>     ConvForced true
| 12> end
| 13>
| 14> *xyz 0 1
| 15> O  -3.839777402   2.233595098   0.660436763
| 16> H  -2.958345897   1.907036203   0.973588449
| 17> C  -3.600368059   3.168790682  -0.390480452
| 18> H  -4.551709193   3.344148967  -0.901254863
| 19> H  -2.868237594   2.789240199  -1.113617525
| 20> H  -3.243594915   4.128998607   0.009549480
| 21> O  -3.821405976  -2.118091637   0.596795346
| 22> H  -4.342989117  -1.344303030   0.251966383
| 23> C  -3.443883586  -1.809641231   1.934889393
| 24> H  -2.831494349  -2.637429600   2.305201764
| 25> H  -4.325601146  -1.719364371   2.585074667
| 26> H  -2.858527126  -0.882644791   1.996110694
| 27> O   3.252955559   0.588596242   1.858934315
| 28> H   3.621209177  -0.251605199   1.476063364
| 29> C   4.040824528   0.944288422   2.989639460
| 30> H   3.670521436   1.902573549   3.363847391
| 31> H   5.103749934   1.055868619   2.734277559
| 32> H   3.948540682   0.200279590   3.792908518
| 33> *
| 34>
| 35>                          ****END OF INPUT****

CARTESIAN COORDINATES (ANGSTROEM)
---------------------------------
  O     -3.839777    2.233595    0.660437
  H     -2.958346    1.907036    0.973588
  C     -3.600368    3.168791   -0.390480
  H     -4.551709    3.344149   -0.901255
  H     -2.868238    2.789240   -1.113618
  H     -3.243595    4.128999    0.009549
  O     -3.821406   -2.118092    0.596795
  H     -4.342989   -1.344303    0.251966
  C     -3.443884   -1.809641    1.934889
  H     -2.831494   -2.637430    2.305202
  H     -4.325601   -1.719364    2.585075
  H     -2.858527   -0.882645    1.996111
  O      3.252956    0.588596    1.858934
  H      3.621209   -0.251605    1.476063
  C      4.040825    0.944288    2.989639
  H      3.670521    1.902574    3.363847
  H      5.103750    1.055869    2.734278
  H      3.948541    0.200280    3.792909

 Total Charge           Charge          ....    0
 Multiplicity           Mult            ....    1
 Number of Electrons    NEL             ....   54
 Basis Dimension        Dim             ....  258

ORBITAL ENERGIES
----------------

  NO   OCC          E(Eh)            E(eV)
   0   2.0000     -20.561843      -559.5162
   1   2.0000     -20.560538      -559.4807
   2   2.0000     -20.551062      -559.2228
   3   2.0000     -11.274528      -306.7955
   4   2.0000     -11.274440      -306.7931
   5   2.0000     -11.266656      -306.5813
   6   2.0000      -1.351032       -36.7634
   7   2.0000      -1.349842       -36.7311
   8   2.0000      -1.340293       -36.4712
   9   2.0000      -0.922705       -25.1081
  10   2.0000      -0.922663       -25.1069
  11   2.0000      -0.913709       -24.8633
  12   2.0000      -0.685706       -18.6590
  13   2.0000      -0.684751       -18.6330
  14   2.0000      -0.674886       -18.3646
  15   2.0000      -0.619986       -16.8707
  16   2.0000      -0.619985       -16.8707
  17   2.0000      -0.612025       -16.6541
  18   2.0000      -0.594089       -16.1660
  19   2.0000      -0.593900       -16.1608
  20   2.0000      -0.584309       -15.8999
  21   2.0000      -0.505428       -13.7534
  22   2.0000      -0.503291       -13.6952
  23   2.0000      -0.495035       -13.4706
  24   2.0000      -0.453266       -12.3340
  25   2.0000      -0.452277       -12.3071
  26   2.0000      -0.443558       -12.0698
  27   0.0000       0.117852         3.2069
  28   0.0000       0.132654         3.6097
  29   0.0000       0.158437         4.3113
  30   0.0000       0.172574         4.6960
  31   0.0000       0.173372         4.7177

MULLIKEN ATOMIC CHARGES
-----------------------
   0 O :   -0.503942
   1 H :    0.325861
   2 C :   -0.177368
   3 H :    0.129391
   4 H :    0.116499
   5 H :    0.113294
   6 O :   -0.502276
   7 H :    0.327120
   8 C :   -0.160300
   9 H :    0.126910
  10 H :    0.112014
  11 H :    0.092797
  12 O :   -0.499437
  13 H :    0.322864
  14 C :   -0.172773
  15 H :    0.128580
  16 H :    0.110626
  17 H :    0.110139
Sum of atomic charges:    0.0000000

LOEWDIN ATOMIC CHARGES
----------------------
   0 O :   -0.113347
   1 H :    0.188426
   2 C :   -0.376924
   3 H :    0.109765
   4 H :    0.097498
   5 H :    0.097153
   6 O :   -0.110999
   7 H :    0.192404
   8 C :   -0.381035
   9 H :    0.109186
  10 H :    0.096929
  11 H :    0.090942
  12 O :   -0.110252
  13 H :    0.190522
  14 C :   -0.381709
  15 H :    0.110071
  16 H :    0.095804
  17 H :    0.095565

  Mayer bond orders larger than 0.100000
B(  0-O ,  1-H ) :   0.8403 B(  0-O ,  2-C ) :   0.9198 B(  2-C ,  3-H ) :   0.9379
B(  2-C ,  4-H ) :   0.9409 B(  2-C ,  5-H ) :   0.9383 B(  6-O ,  7-H ) :   0.8383
B(  6-O ,  8-C ) :   0.9301 B(  8-C ,  9-H ) :   0.9383 B(  8-C , 10-H ) :   0.9414
B(  8-C , 11-H ) :   0.9379 B( 12-O , 13-H ) :   0.8417 B( 12-O , 14-C ) :   0.9255
B( 14-C , 15-H ) :   0.9377 B( 14-C , 16-H ) :   0.9390 B( 14-C , 17-H ) :   0.9388

MP2 TOTAL ENERGY:     -346.522417829 Eh
FINAL SINGLE POINT ENERGY      -346.522417829434

DIPOLE MOMENT
-------------
                                X             Y             Z
Electronic contribution:     -1.90829      -1.95244      -1.81265
Nuclear contribution   :      2.93108       2.39403       2.10329
                        -----------------------------------------
Total Dipole Moment    :      1.02279       0.44158       0.29064
                        -----------------------------------------
Magnitude (a.u.)       :      1.15133
Magnitude (Debye)      :      2.92644

Rotational constants in cm-1:     0.040897     0.013350     0.010463
Rotational constants in MHz :  1226.049198   400.214113   313.681610

                             ****ORCA TERMINATED NORMALLY****
TOTAL RUN TIME: 0 days 0 hours 0 minutes 46 seconds 598 msec
