                         Program Version 4.2.0 -  RELEASE  -
|  1> # 12meoh.boyd.etal.mol3,5,9
|  2> ! MP2 def2-TZVP EnGrad TightSCF
|  3>
|  4> %pal
|  5>     nprocs 6
|  6> end
|  7>
|  8> %maxcore 8000
|  9>
| 10> %scf
| 11>     ConvForced true
| 12> end
| 13>
| 14> *xyz 0 1
| 15> O  -3.821405976  -2.118091637   0.596795346
| 16> H  -4.342989117  -1.344303030   0.251966383
| 17> C  -3.443883586  -1.809641231   1.934889393
| 18> H  -2.831494349  -2.637429600   2.305201764
| 19> H  -4.325601146  -1.719364371   2.585074667
| 20> H  -2.858527126  -0.882644791   1.996110694
| 21> O  -0.662721750   1.449094618  -1.383082065
| 22> H   0.064188300   2.119867608  -1.465650660
| 23> C  -0.353319239   0.341218776  -2.229326771
| 24> H  -1.072358530  -0.454743281  -2.019906495
| 25> H   0.657636746  -0.044472139  -2.042736771
| 26> H  -0.434616607   0.624733901  -3.287793021
| 27> O   1.390610024   3.194080770  -1.536658882
| 28> H   2.162932299   2.881562730  -0.993525056
| 29> C   1.202977189   4.580367182  -1.302880219
| 30> H   0.374773115   4.915764831  -1.934164643
| 31> H   2.098649340   5.157710875  -1.570472348
| 32> H   0.950320401   4.800436015  -0.254328827
| 33> *
| 34>
| 35>                          ****END OF INPUT****

CARTESIAN COORDINATES (ANGSTROEM)
---------------------------------
  O     -3.821406   -2.118092    0.596795
  H     -4.342989   -1.344303    0.251966
  C     -3.443884   -1.809641    1.934889
  H     -2.831494   -2.637430    2.305202
  H     -4.325601   -1.719364    2.585075
  H     -2.858527   -0.882645    1.996111
  O     -0.662722    1.449095   -1.383082
  H      0.064188    2.119868   -1.465651
  C     -0.353319    0.341219   -2.229327
  H     -1.072359   -0.454743   -2.019906
  H      0.657637   -0.044472   -2.042737
  H     -0.434617    0.624734   -3.287793
  O      1.390610    3.194081   -1.536659
  H      2.162932    2.881563   -0.993525
  C      1.202977    4.580367   -1.302880
  H      0.374773    4.915765   -1.934165
  H      2.098649    5.157711   -1.570472
  H      0.950320    4.800436   -0.254329

 Total Charge           Charge          ....    0
 Multiplicity           Mult            ....    1
 Number of Electrons    NEL             ....   54
 Basis Dimension        Dim             ....  258

ORBITAL ENERGIES
----------------

  NO   OCC          E(Eh)            E(eV)
   0   2.0000     -20.590378      -560.2927
   1   2.0000     -20.549189      -559.1719
   2   2.0000     -20.512332      -558.1689
   3   2.0000     -11.290708      -307.2358
   4   2.0000     -11.263230      -306.4881
   5   2.0000     -11.247022      -306.0470
   6   2.0000      -1.384616       -37.6773
   7   2.0000      -1.338134       -36.4125
   8   2.0000      -1.307936       -35.5908
   9   2.0000      -0.942642       -25.6506
  10   2.0000      -0.910776       -24.7835
  11   2.0000      -0.893906       -24.3244
  12   2.0000      -0.716868       -19.5070
  13   2.0000      -0.672604       -18.3025
  14   2.0000      -0.671029       -18.2596
  15   2.0000      -0.636788       -17.3279
  16   2.0000      -0.610326       -16.6078
  17   2.0000      -0.608797       -16.5662
  18   2.0000      -0.588546       -16.0152
  19   2.0000      -0.581826       -15.8323
  20   2.0000      -0.559456       -15.2236
  21   2.0000      -0.528052       -14.3690
  22   2.0000      -0.492418       -13.3994
  23   2.0000      -0.484353       -13.1799
  24   2.0000      -0.457619       -12.4524
  25   2.0000      -0.440825       -11.9955
  26   2.0000      -0.415564       -11.3081
  27   0.0000       0.117097         3.1864
  28   0.0000       0.139789         3.8039
  29   0.0000       0.158370         4.3095
  30   0.0000       0.179614         4.8876
  31   0.0000       0.186283         5.0690

MULLIKEN ATOMIC CHARGES
-----------------------
   0 O :   -0.497250
   1 H :    0.323721
   2 C :   -0.176441
   3 H :    0.125105
   4 H :    0.106112
   5 H :    0.119934
   6 O :   -0.541583
   7 H :    0.347389
   8 C :   -0.161652
   9 H :    0.128192
  10 H :    0.090332
  11 H :    0.099044
  12 O :   -0.522390
  13 H :    0.342348
  14 C :   -0.176438
  15 H :    0.144148
  16 H :    0.123778
  17 H :    0.125650
Sum of atomic charges:    0.0000000

LOEWDIN ATOMIC CHARGES
----------------------
   0 O :   -0.110443
   1 H :    0.191899
   2 C :   -0.382152
   3 H :    0.109087
   4 H :    0.094239
   5 H :    0.097991
   6 O :   -0.131156
   7 H :    0.157714
   8 C :   -0.389321
   9 H :    0.106632
  10 H :    0.089934
  11 H :    0.092276
  12 O :   -0.074246
  13 H :    0.199855
  14 C :   -0.374751
  15 H :    0.116626
  16 H :    0.103467
  17 H :    0.102350

  Mayer bond orders larger than 0.100000
B(  0-O ,  1-H ) :   0.8413 B(  0-O ,  2-C ) :   0.9256 B(  2-C ,  3-H ) :   0.9379
B(  2-C ,  4-H ) :   0.9387 B(  2-C ,  5-H ) :   0.9383 B(  6-O ,  7-H ) :   0.7937
B(  6-O ,  8-C ) :   0.9368 B(  8-C ,  9-H ) :   0.9397 B(  8-C , 10-H ) :   0.9400
B(  8-C , 11-H ) :   0.9399 B( 12-O , 13-H ) :   0.8269 B( 12-O , 14-C ) :   0.8710
B( 14-C , 15-H ) :   0.9390 B( 14-C , 16-H ) :   0.9345 B( 14-C , 17-H ) :   0.9380

MP2 TOTAL ENERGY:     -346.529798883 Eh
FINAL SINGLE POINT ENERGY      -346.529798882548

DIPOLE MOMENT
-------------
                                X             Y             Z
Electronic contribution:     -0.56546      -0.58949      -0.91472
Nuclear contribution   :      1.60383       1.88983       1.32072
                        -----------------------------------------
Total Dipole Moment    :      1.03837       1.30034       0.40600
                        -----------------------------------------
Magnitude (a.u.)       :      1.71287
Magnitude (Debye)      :      4.35376

Rotational constants in cm-1:     0.153309     0.015322     0.014352
Rotational constants in MHz :  4596.096318   459.353146   430.271873

                             ****ORCA TERMINATED NORMALLY****
TOTAL RUN TIME: 0 days 0 hours 1 minutes 2 seconds 263 msec
