                         Program Version 4.2.0 -  RELEASE  -
|  1> # 12mecn.remya.etal.2.mol1,2,10
|  2> ! MP2 def2-TZVP EnGrad TightSCF
|  3>
|  4> %pal
|  5>     nprocs 6
|  6> end
|  7>
|  8> %maxcore 8000
|  9>
| 10> %scf
| 11>     ConvForced true
| 12> end
| 13>
| 14> *xyz 0 1
| 15> C  -4.697980000  -0.249690000   1.746215000
| 16> H  -4.927570000   0.755530000   2.111799000
| 17> H  -3.709180000  -0.561560000   2.093253000
| 18> H  -5.432280000  -0.961520000   2.128066000
| 19> C  -4.714100000  -0.247110000   0.301670000
| 20> N  -4.729750000  -0.234960000  -0.865260000
| 21> C  -4.219070000  -3.477410000  -1.501740000
| 22> H  -3.251530000  -3.803540000  -1.893830000
| 23> H  -4.452920000  -2.481700000  -1.890840000
| 24> H  -4.992170000  -4.178130000  -1.824640000
| 25> C  -4.154550000  -3.418790000  -0.058340000
| 26> N  -4.091140000  -3.354840000   1.104432000
| 27> C   4.602033000   0.321019000  -1.784800000
| 28> H   4.827650000  -0.662160000  -2.207910000
| 29> H   5.320558000   1.057980000  -2.148500000
| 30> H   3.601982000   0.643751000  -2.087520000
| 31> C   4.654967000   0.244048000  -0.343060000
| 32> N   4.691648000   0.166590000   0.820757000
| 33> *
| 34>
| 35>                          ****END OF INPUT****

CARTESIAN COORDINATES (ANGSTROEM)
---------------------------------
  C     -4.697980   -0.249690    1.746215
  H     -4.927570    0.755530    2.111799
  H     -3.709180   -0.561560    2.093253
  H     -5.432280   -0.961520    2.128066
  C     -4.714100   -0.247110    0.301670
  N     -4.729750   -0.234960   -0.865260
  C     -4.219070   -3.477410   -1.501740
  H     -3.251530   -3.803540   -1.893830
  H     -4.452920   -2.481700   -1.890840
  H     -4.992170   -4.178130   -1.824640
  C     -4.154550   -3.418790   -0.058340
  N     -4.091140   -3.354840    1.104432
  C      4.602033    0.321019   -1.784800
  H      4.827650   -0.662160   -2.207910
  H      5.320558    1.057980   -2.148500
  H      3.601982    0.643751   -2.087520
  C      4.654967    0.244048   -0.343060
  N      4.691648    0.166590    0.820757

 Total Charge           Charge          ....    0
 Multiplicity           Mult            ....    1
 Number of Electrons    NEL             ....   66
 Basis Dimension        Dim             ....  333

ORBITAL ENERGIES
----------------

  NO   OCC          E(Eh)            E(eV)
   0   2.0000     -15.573132      -423.7665
   1   2.0000     -15.570900      -423.7057
   2   2.0000     -15.570478      -423.6942
   3   2.0000     -11.285042      -307.0816
   4   2.0000     -11.282966      -307.0251
   5   2.0000     -11.282355      -307.0085
   6   2.0000     -11.280075      -306.9464
   7   2.0000     -11.272234      -306.7331
   8   2.0000     -11.272121      -306.7300
   9   2.0000      -1.218094       -33.1460
  10   2.0000      -1.214374       -33.0448
  11   2.0000      -1.213351       -33.0170
  12   2.0000      -1.044313       -28.4172
  13   2.0000      -1.036366       -28.2010
  14   2.0000      -1.033454       -28.1217
  15   2.0000      -0.700100       -19.0507
  16   2.0000      -0.694888       -18.9089
  17   2.0000      -0.690671       -18.7941
  18   2.0000      -0.634487       -17.2653
  19   2.0000      -0.631116       -17.1735
  20   2.0000      -0.630050       -17.1445
  21   2.0000      -0.622944       -16.9512
  22   2.0000      -0.618120       -16.8199
  23   2.0000      -0.615988       -16.7619
  24   2.0000      -0.558818       -15.2062
  25   2.0000      -0.555880       -15.1263
  26   2.0000      -0.555772       -15.1233
  27   2.0000      -0.462755       -12.5922
  28   2.0000      -0.458677       -12.4812
  29   2.0000      -0.457750       -12.4560
  30   2.0000      -0.457172       -12.4403
  31   2.0000      -0.456957       -12.4344
  32   2.0000      -0.452693       -12.3184
  33   0.0000       0.119072         3.2401
  34   0.0000       0.126360         3.4384
  35   0.0000       0.145175         3.9504
  36   0.0000       0.171206         4.6587
  37   0.0000       0.171634         4.6704

MULLIKEN ATOMIC CHARGES
-----------------------
   0 C :   -0.258319
   1 H :    0.171547
   2 H :    0.178269
   3 H :    0.178404
   4 C :   -0.116984
   5 N :   -0.151823
   6 C :   -0.288049
   7 H :    0.165342
   8 H :    0.205422
   9 H :    0.166360
  10 C :   -0.113840
  11 N :   -0.136328
  12 C :   -0.279016
  13 H :    0.172109
  14 H :    0.171979
  15 H :    0.172564
  16 C :   -0.145759
  17 N :   -0.091877
Sum of atomic charges:    0.0000000

LOEWDIN ATOMIC CHARGES
----------------------
   0 C :   -0.283922
   1 H :    0.150354
   2 H :    0.157602
   3 H :    0.155807
   4 C :   -0.209368
   5 N :    0.027220
   6 C :   -0.282910
   7 H :    0.151895
   8 H :    0.157132
   9 H :    0.150062
  10 C :   -0.209687
  11 N :    0.035815
  12 C :   -0.283726
  13 H :    0.152890
  14 H :    0.151482
  15 H :    0.153215
  16 C :   -0.219908
  17 N :    0.046048

  Mayer bond orders larger than 0.100000
B(  0-C ,  1-H ) :   0.9095 B(  0-C ,  2-H ) :   0.9122 B(  0-C ,  3-H ) :   0.9125
B(  0-C ,  4-C ) :   0.9119 B(  4-C ,  5-N ) :   2.7731 B(  6-C ,  7-H ) :   0.9154
B(  6-C ,  8-H ) :   0.9019 B(  6-C ,  9-H ) :   0.9161 B(  6-C , 10-C ) :   0.9006
B( 10-C , 11-N ) :   2.7925 B( 12-C , 13-H ) :   0.9160 B( 12-C , 14-H ) :   0.9169
B( 12-C , 15-H ) :   0.9166 B( 12-C , 16-C ) :   0.9014 B( 16-C , 17-N ) :   2.8368

MP2 TOTAL ENERGY:     -397.459106337 Eh
FINAL SINGLE POINT ENERGY      -397.459106337447

DIPOLE MOMENT
-------------
                                X             Y             Z
Electronic contribution:      0.21446      -0.02922       3.13439
Nuclear contribution   :     -0.32251       0.05277      -4.63126
                        -----------------------------------------
Total Dipole Moment    :     -0.10805       0.02354      -1.49687
                        -----------------------------------------
Magnitude (a.u.)       :      1.50095
Magnitude (Debye)      :      3.81510

Rotational constants in cm-1:     0.043671     0.006650     0.006398
Rotational constants in MHz :  1309.212565   199.375117   191.822088

                             ****ORCA TERMINATED NORMALLY****
TOTAL RUN TIME: 0 days 0 hours 2 minutes 32 seconds 674 msec
