                         Program Version 4.2.0 -  RELEASE  -
|  1> # 12h2o.su.etal.mol1,2,7,10,11
|  2> ! MP2 def2-TZVP EnGrad TightSCF
|  3>
|  4> %pal
|  5>     nprocs 6
|  6> end
|  7>
|  8> %maxcore 8000
|  9>
| 10> %scf
| 11>     ConvForced true
| 12> end
| 13>
| 14> *xyz 0 1
| 15> O  -1.794470000  -0.923410000   2.768350000
| 16> H  -2.338250000  -1.359750000   3.430940000
| 17> H  -0.879480000  -1.303000000   2.865760000
| 18> O   0.923410000  -1.794470000  -2.768350000
| 19> H   1.359750000  -2.338250000  -3.430940000
| 20> H   1.303000000  -0.879480000  -2.865760000
| 21> O  -1.737840000  -0.885520000  -0.052730000
| 22> H  -2.090180000  -1.032320000   0.841890000
| 23> H  -0.839590000  -1.284090000  -0.017130000
| 24> O  -0.923410000   1.794470000  -2.768350000
| 25> H  -1.359750000   2.338250000  -3.430940000
| 26> H  -1.303000000   0.879480000  -2.865760000
| 27> O  -0.741530000   1.752130000   2.896280000
| 28> H  -0.920500000   2.036450000   1.984040000
| 29> H  -1.242140000   0.921210000   2.984230000
| 30> *
| 31>
| 32>                          ****END OF INPUT****

CARTESIAN COORDINATES (ANGSTROEM)
---------------------------------
  O     -1.794470   -0.923410    2.768350
  H     -2.338250   -1.359750    3.430940
  H     -0.879480   -1.303000    2.865760
  O      0.923410   -1.794470   -2.768350
  H      1.359750   -2.338250   -3.430940
  H      1.303000   -0.879480   -2.865760
  O     -1.737840   -0.885520   -0.052730
  H     -2.090180   -1.032320    0.841890
  H     -0.839590   -1.284090   -0.017130
  O     -0.923410    1.794470   -2.768350
  H     -1.359750    2.338250   -3.430940
  H     -1.303000    0.879480   -2.865760
  O     -0.741530    1.752130    2.896280
  H     -0.920500    2.036450    1.984040
  H     -1.242140    0.921210    2.984230

 Total Charge           Charge          ....    0
 Multiplicity           Mult            ....    1
 Number of Electrons    NEL             ....   50
 Basis Dimension        Dim             ....  215

ORBITAL ENERGIES
----------------

  NO   OCC          E(Eh)            E(eV)
   0   2.0000     -20.611713      -560.8732
   1   2.0000     -20.563936      -559.5731
   2   2.0000     -20.550163      -559.1984
   3   2.0000     -20.534160      -558.7629
   4   2.0000     -20.527158      -558.5724
   5   2.0000      -1.391811       -37.8731
   6   2.0000      -1.339237       -36.4425
   7   2.0000      -1.325530       -36.0695
   8   2.0000      -1.313219       -35.7345
   9   2.0000      -1.309719       -35.6393
  10   2.0000      -0.757440       -20.6110
  11   2.0000      -0.707605       -19.2549
  12   2.0000      -0.693412       -18.8687
  13   2.0000      -0.685592       -18.6559
  14   2.0000      -0.680839       -18.5266
  15   2.0000      -0.625651       -17.0248
  16   2.0000      -0.576638       -15.6911
  17   2.0000      -0.575507       -15.6604
  18   2.0000      -0.562107       -15.2957
  19   2.0000      -0.546146       -14.8614
  20   2.0000      -0.531549       -14.4642
  21   2.0000      -0.507372       -13.8063
  22   2.0000      -0.493510       -13.4291
  23   2.0000      -0.479595       -13.0504
  24   2.0000      -0.474700       -12.9172
  25   0.0000       0.095861         2.6085
  26   0.0000       0.117977         3.2103
  27   0.0000       0.149759         4.0752
  28   0.0000       0.163302         4.4437
  29   0.0000       0.184074         5.0089

MULLIKEN ATOMIC CHARGES
-----------------------
   0 O :   -0.709538
   1 H :    0.363189
   2 H :    0.366952
   3 O :   -0.689413
   4 H :    0.338579
   5 H :    0.352245
   6 O :   -0.693985
   7 H :    0.358688
   8 H :    0.329602
   9 O :   -0.692028
  10 H :    0.333566
  11 H :    0.357493
  12 O :   -0.708978
  13 H :    0.341502
  14 H :    0.352126
Sum of atomic charges:   -0.0000000

LOEWDIN ATOMIC CHARGES
----------------------
   0 O :   -0.286015
   1 H :    0.167292
   2 H :    0.190504
   3 O :   -0.340378
   4 H :    0.158112
   5 H :    0.183834
   6 O :   -0.344514
   7 H :    0.145426
   8 H :    0.166225
   9 O :   -0.342118
  10 H :    0.155713
  11 H :    0.184932
  12 O :   -0.348572
  13 H :    0.165314
  14 H :    0.144244

  Mayer bond orders larger than 0.100000
B(  0-O ,  1-H ) :   0.8323 B(  0-O ,  2-H ) :   0.8231 B(  3-O ,  4-H ) :   0.8526
B(  3-O ,  5-H ) :   0.8371 B(  6-O ,  7-H ) :   0.8277 B(  6-O ,  8-H ) :   0.8525
B(  9-O , 10-H ) :   0.8556 B(  9-O , 11-H ) :   0.8328 B( 12-O , 13-H ) :   0.8500
B( 12-O , 14-H ) :   0.8293

MP2 TOTAL ENERGY:     -381.579868809 Eh
FINAL SINGLE POINT ENERGY      -381.579868808989

DIPOLE MOMENT
-------------
                                X             Y             Z
Electronic contribution:     -0.12499       0.08384       0.21409
Nuclear contribution   :      0.19772      -1.58806      -0.54442
                        -----------------------------------------
Total Dipole Moment    :      0.07273      -1.50422      -0.33033
                        -----------------------------------------
Magnitude (a.u.)       :      1.54178
Magnitude (Debye)      :      3.91890

Rotational constants in cm-1:     0.065780     0.025163     0.020724
Rotational constants in MHz :  1972.020371   754.371222   621.280656

                             ****ORCA TERMINATED NORMALLY****
TOTAL RUN TIME: 0 days 0 hours 0 minutes 30 seconds 237 msec
