                         Program Version 4.2.0 -  RELEASE  -
|  1> # 12h2o.su.etal.mol2,3,5,6,8
|  2> ! MP2 def2-TZVP EnGrad TightSCF
|  3>
|  4> %pal
|  5>     nprocs 6
|  6> end
|  7>
|  8> %maxcore 8000
|  9>
| 10> %scf
| 11>     ConvForced true
| 12> end
| 13>
| 14> *xyz 0 1
| 15> O   0.923410000  -1.794470000  -2.768350000
| 16> H   1.359750000  -2.338250000  -3.430940000
| 17> H   1.303000000  -0.879480000  -2.865760000
| 18> O  -1.752130000  -0.741530000  -2.896280000
| 19> H  -2.036450000  -0.920500000  -1.984040000
| 20> H  -0.921210000  -1.242140000  -2.984230000
| 21> O   0.885520000  -1.737840000   0.052730000
| 22> H   1.284090000  -0.839590000   0.017130000
| 23> H   1.032320000  -2.090180000  -0.841890000
| 24> O   1.737840000   0.885520000  -0.052730000
| 25> H   2.090180000   1.032320000   0.841890000
| 26> H   0.839590000   1.284090000  -0.017130000
| 27> O   1.752130000   0.741530000  -2.896280000
| 28> H   2.036450000   0.920500000  -1.984040000
| 29> H   0.921210000   1.242140000  -2.984230000
| 30> *
| 31>
| 32>                          ****END OF INPUT****

CARTESIAN COORDINATES (ANGSTROEM)
---------------------------------
  O      0.923410   -1.794470   -2.768350
  H      1.359750   -2.338250   -3.430940
  H      1.303000   -0.879480   -2.865760
  O     -1.752130   -0.741530   -2.896280
  H     -2.036450   -0.920500   -1.984040
  H     -0.921210   -1.242140   -2.984230
  O      0.885520   -1.737840    0.052730
  H      1.284090   -0.839590    0.017130
  H      1.032320   -2.090180   -0.841890
  O      1.737840    0.885520   -0.052730
  H      2.090180    1.032320    0.841890
  H      0.839590    1.284090   -0.017130
  O      1.752130    0.741530   -2.896280
  H      2.036450    0.920500   -1.984040
  H      0.921210    1.242140   -2.984230

 Total Charge           Charge          ....    0
 Multiplicity           Mult            ....    1
 Number of Electrons    NEL             ....   50
 Basis Dimension        Dim             ....  215

ORBITAL ENERGIES
----------------

  NO   OCC          E(Eh)            E(eV)
   0   2.0000     -20.627651      -561.3069
   1   2.0000     -20.589516      -560.2692
   2   2.0000     -20.559618      -559.4556
   3   2.0000     -20.529673      -558.6408
   4   2.0000     -20.509807      -558.1002
   5   2.0000      -1.410964       -38.3943
   6   2.0000      -1.378698       -37.5163
   7   2.0000      -1.345432       -36.6111
   8   2.0000      -1.311679       -35.6926
   9   2.0000      -1.294267       -35.2188
  10   2.0000      -0.770433       -20.9645
  11   2.0000      -0.738981       -20.1087
  12   2.0000      -0.727306       -19.7910
  13   2.0000      -0.684120       -18.6159
  14   2.0000      -0.681085       -18.5333
  15   2.0000      -0.654219       -17.8022
  16   2.0000      -0.614609       -16.7244
  17   2.0000      -0.596583       -16.2339
  18   2.0000      -0.572364       -15.5748
  19   2.0000      -0.552167       -15.0252
  20   2.0000      -0.529664       -14.4129
  21   2.0000      -0.523697       -14.2505
  22   2.0000      -0.500198       -13.6111
  23   2.0000      -0.477672       -12.9981
  24   2.0000      -0.460296       -12.5253
  25   0.0000       0.084746         2.3061
  26   0.0000       0.134413         3.6576
  27   0.0000       0.154199         4.1960
  28   0.0000       0.174739         4.7549
  29   0.0000       0.189099         5.1456

MULLIKEN ATOMIC CHARGES
-----------------------
   0 O :   -0.747718
   1 H :    0.346766
   2 H :    0.381221
   3 O :   -0.718548
   4 H :    0.333284
   5 H :    0.362733
   6 O :   -0.729691
   7 H :    0.331732
   8 H :    0.363000
   9 O :   -0.711685
  10 H :    0.375810
  11 H :    0.366833
  12 O :   -0.697387
  13 H :    0.386212
  14 H :    0.357439
Sum of atomic charges:    0.0000000

LOEWDIN ATOMIC CHARGES
----------------------
   0 O :   -0.312642
   1 H :    0.157473
   2 H :    0.146020
   3 O :   -0.352522
   4 H :    0.160984
   5 H :    0.146534
   6 O :   -0.368757
   7 H :    0.131653
   8 H :    0.144236
   9 O :   -0.278851
  10 H :    0.181574
  11 H :    0.183752
  12 O :   -0.271858
  13 H :    0.158421
  14 H :    0.173982

  Mayer bond orders larger than 0.100000
B(  0-O ,  1-H ) :   0.8421 B(  0-O ,  2-H ) :   0.7470 B(  3-O ,  4-H ) :   0.8541
B(  3-O ,  5-H ) :   0.8106 B(  6-O ,  7-H ) :   0.8289 B(  6-O ,  8-H ) :   0.8213
B(  9-O , 10-H ) :   0.8252 B(  9-O , 11-H ) :   0.8254 B( 12-O , 13-H ) :   0.8056
B( 12-O , 14-H ) :   0.8338

MP2 TOTAL ENERGY:     -381.604613407 Eh
FINAL SINGLE POINT ENERGY      -381.604613407346

DIPOLE MOMENT
-------------
                                X             Y             Z
Electronic contribution:      0.24497       0.23136      -0.10681
Nuclear contribution   :      0.67870       1.21732       0.73962
                        -----------------------------------------
Total Dipole Moment    :      0.92367       1.44868       0.63281
                        -----------------------------------------
Magnitude (a.u.)       :      1.83093
Magnitude (Debye)      :      4.65385

Rotational constants in cm-1:     0.080221     0.053554     0.044813
Rotational constants in MHz :  2404.975467  1605.505289  1343.471602

                             ****ORCA TERMINATED NORMALLY****
TOTAL RUN TIME: 0 days 0 hours 0 minutes 40 seconds 947 msec
