                         Program Version 4.2.0 -  RELEASE  -
|  1> # 12h2o.su.etal.mol0,3,5,6,8,11
|  2> ! MP2 def2-TZVP EnGrad TightSCF
|  3>
|  4> %pal
|  5>     nprocs 6
|  6> end
|  7>
|  8> %maxcore 8000
|  9>
| 10> %scf
| 11>     ConvForced true
| 12> end
| 13>
| 14> *xyz 0 1
| 15> O   1.794470000   0.923410000   2.768350000
| 16> H   2.338250000   1.359750000   3.430940000
| 17> H   0.879480000   1.303000000   2.865760000
| 18> O  -1.752130000  -0.741530000  -2.896280000
| 19> H  -2.036450000  -0.920500000  -1.984040000
| 20> H  -0.921210000  -1.242140000  -2.984230000
| 21> O   0.885520000  -1.737840000   0.052730000
| 22> H   1.284090000  -0.839590000   0.017130000
| 23> H   1.032320000  -2.090180000  -0.841890000
| 24> O   1.737840000   0.885520000  -0.052730000
| 25> H   2.090180000   1.032320000   0.841890000
| 26> H   0.839590000   1.284090000  -0.017130000
| 27> O   1.752130000   0.741530000  -2.896280000
| 28> H   2.036450000   0.920500000  -1.984040000
| 29> H   0.921210000   1.242140000  -2.984230000
| 30> O  -0.741530000   1.752130000   2.896280000
| 31> H  -0.920500000   2.036450000   1.984040000
| 32> H  -1.242140000   0.921210000   2.984230000
| 33> *
| 34>
| 35>                          ****END OF INPUT****

CARTESIAN COORDINATES (ANGSTROEM)
---------------------------------
  O      1.794470    0.923410    2.768350
  H      2.338250    1.359750    3.430940
  H      0.879480    1.303000    2.865760
  O     -1.752130   -0.741530   -2.896280
  H     -2.036450   -0.920500   -1.984040
  H     -0.921210   -1.242140   -2.984230
  O      0.885520   -1.737840    0.052730
  H      1.284090   -0.839590    0.017130
  H      1.032320   -2.090180   -0.841890
  O      1.737840    0.885520   -0.052730
  H      2.090180    1.032320    0.841890
  H      0.839590    1.284090   -0.017130
  O      1.752130    0.741530   -2.896280
  H      2.036450    0.920500   -1.984040
  H      0.921210    1.242140   -2.984230
  O     -0.741530    1.752130    2.896280
  H     -0.920500    2.036450    1.984040
  H     -1.242140    0.921210    2.984230

 Total Charge           Charge          ....    0
 Multiplicity           Mult            ....    1
 Number of Electrons    NEL             ....   60
 Basis Dimension        Dim             ....  258

ORBITAL ENERGIES
----------------

  NO   OCC          E(Eh)            E(eV)
   0   2.0000     -20.625232      -561.2411
   1   2.0000     -20.592817      -560.3590
   2   2.0000     -20.563840      -559.5705
   3   2.0000     -20.562726      -559.5402
   4   2.0000     -20.540822      -558.9442
   5   2.0000     -20.531024      -558.6776
   6   2.0000      -1.410696       -38.3870
   7   2.0000      -1.380300       -37.5599
   8   2.0000      -1.346342       -36.6358
   9   2.0000      -1.341812       -36.5126
  10   2.0000      -1.322643       -35.9909
  11   2.0000      -1.311789       -35.6956
  12   2.0000      -0.767698       -20.8901
  13   2.0000      -0.742281       -20.1985
  14   2.0000      -0.733491       -19.9593
  15   2.0000      -0.704685       -19.1754
  16   2.0000      -0.693364       -18.8674
  17   2.0000      -0.686691       -18.6858
  18   2.0000      -0.650104       -17.6902
  19   2.0000      -0.623977       -16.9793
  20   2.0000      -0.594129       -16.1671
  21   2.0000      -0.580054       -15.7841
  22   2.0000      -0.571625       -15.5547
  23   2.0000      -0.556396       -15.1403
  24   2.0000      -0.548424       -14.9234
  25   2.0000      -0.522145       -14.2083
  26   2.0000      -0.513234       -13.9658
  27   2.0000      -0.507553       -13.8112
  28   2.0000      -0.486800       -13.2465
  29   2.0000      -0.478808       -13.0290
  30   0.0000       0.067389         1.8337
  31   0.0000       0.115169         3.1339
  32   0.0000       0.140355         3.8193
  33   0.0000       0.145324         3.9545
  34   0.0000       0.172389         4.6909

MULLIKEN ATOMIC CHARGES
-----------------------
   0 O :   -0.732824
   1 H :    0.343770
   2 H :    0.369841
   3 O :   -0.683142
   4 H :    0.335470
   5 H :    0.344473
   6 O :   -0.718972
   7 H :    0.363752
   8 H :    0.325214
   9 O :   -0.715642
  10 H :    0.394512
  11 H :    0.325727
  12 O :   -0.700137
  13 H :    0.370479
  14 H :    0.327060
  15 O :   -0.674061
  16 H :    0.350950
  17 H :    0.373528
Sum of atomic charges:   -0.0000000

LOEWDIN ATOMIC CHARGES
----------------------
   0 O :   -0.335680
   1 H :    0.157701
   2 H :    0.143481
   3 O :   -0.332848
   4 H :    0.163452
   5 H :    0.166716
   6 O :   -0.360990
   7 H :    0.142352
   8 H :    0.155410
   9 O :   -0.281962
  10 H :    0.159063
  11 H :    0.164000
  12 O :   -0.338819
  13 H :    0.150292
  14 H :    0.159077
  15 O :   -0.265154
  16 H :    0.170282
  17 H :    0.183626

  Mayer bond orders larger than 0.100000
B(  0-O ,  1-H ) :   0.8471 B(  0-O ,  2-H ) :   0.7702 B(  3-O ,  4-H ) :   0.8527
B(  3-O ,  5-H ) :   0.8444 B(  6-O ,  7-H ) :   0.7990 B(  6-O ,  8-H ) :   0.8582
B(  9-O , 10-H ) :   0.7776 B(  9-O , 11-H ) :   0.8470 B( 12-O , 13-H ) :   0.8201
B( 12-O , 14-H ) :   0.8554 B( 15-O , 16-H ) :   0.8412 B( 15-O , 17-H ) :   0.8269

MP2 TOTAL ENERGY:     -457.912530340 Eh
FINAL SINGLE POINT ENERGY      -457.912530340080

DIPOLE MOMENT
-------------
                                X             Y             Z
Electronic contribution:      0.00133       0.10431       0.28846
Nuclear contribution   :     -0.87509       1.13252       1.31870
                        -----------------------------------------
Total Dipole Moment    :     -0.87375       1.23683       1.60717
                        -----------------------------------------
Magnitude (a.u.)       :      2.20820
Magnitude (Debye)      :      5.61281

Rotational constants in cm-1:     0.054331     0.022730     0.020156
Rotational constants in MHz :  1628.815352   681.433963   604.266625

                             ****ORCA TERMINATED NORMALLY****
TOTAL RUN TIME: 0 days 0 hours 0 minutes 59 seconds 470 msec
