                         Program Version 4.2.0 -  RELEASE  -
|  1> # 12h2o.su.etal.mol1,2,3,4,5,8,10
|  2> ! MP2 def2-TZVP EnGrad TightSCF
|  3>
|  4> %pal
|  5>     nprocs 6
|  6> end
|  7>
|  8> %maxcore 8000
|  9>
| 10> %scf
| 11>     ConvForced true
| 12> end
| 13>
| 14> *xyz 0 1
| 15> O  -1.794470000  -0.923410000   2.768350000
| 16> H  -2.338250000  -1.359750000   3.430940000
| 17> H  -0.879480000  -1.303000000   2.865760000
| 18> O   0.923410000  -1.794470000  -2.768350000
| 19> H   1.359750000  -2.338250000  -3.430940000
| 20> H   1.303000000  -0.879480000  -2.865760000
| 21> O  -1.752130000  -0.741530000  -2.896280000
| 22> H  -2.036450000  -0.920500000  -1.984040000
| 23> H  -0.921210000  -1.242140000  -2.984230000
| 24> O  -0.885520000   1.737840000   0.052730000
| 25> H  -1.032320000   2.090180000  -0.841890000
| 26> H  -1.284090000   0.839590000   0.017130000
| 27> O   0.885520000  -1.737840000   0.052730000
| 28> H   1.284090000  -0.839590000   0.017130000
| 29> H   1.032320000  -2.090180000  -0.841890000
| 30> O   1.752130000   0.741530000  -2.896280000
| 31> H   2.036450000   0.920500000  -1.984040000
| 32> H   0.921210000   1.242140000  -2.984230000
| 33> O  -0.923410000   1.794470000  -2.768350000
| 34> H  -1.359750000   2.338250000  -3.430940000
| 35> H  -1.303000000   0.879480000  -2.865760000
| 36> *
| 37>
| 38>                          ****END OF INPUT****

CARTESIAN COORDINATES (ANGSTROEM)
---------------------------------
  O     -1.794470   -0.923410    2.768350
  H     -2.338250   -1.359750    3.430940
  H     -0.879480   -1.303000    2.865760
  O      0.923410   -1.794470   -2.768350
  H      1.359750   -2.338250   -3.430940
  H      1.303000   -0.879480   -2.865760
  O     -1.752130   -0.741530   -2.896280
  H     -2.036450   -0.920500   -1.984040
  H     -0.921210   -1.242140   -2.984230
  O     -0.885520    1.737840    0.052730
  H     -1.032320    2.090180   -0.841890
  H     -1.284090    0.839590    0.017130
  O      0.885520   -1.737840    0.052730
  H      1.284090   -0.839590    0.017130
  H      1.032320   -2.090180   -0.841890
  O      1.752130    0.741530   -2.896280
  H      2.036450    0.920500   -1.984040
  H      0.921210    1.242140   -2.984230
  O     -0.923410    1.794470   -2.768350
  H     -1.359750    2.338250   -3.430940
  H     -1.303000    0.879480   -2.865760

 Total Charge           Charge          ....    0
 Multiplicity           Mult            ....    1
 Number of Electrons    NEL             ....   70
 Basis Dimension        Dim             ....  301

ORBITAL ENERGIES
----------------

  NO   OCC          E(Eh)            E(eV)
   0   2.0000     -20.586606      -560.1900
   1   2.0000     -20.584097      -560.1218
   2   2.0000     -20.578461      -559.9684
   3   2.0000     -20.575124      -559.8776
   4   2.0000     -20.550323      -559.2027
   5   2.0000     -20.543142      -559.0073
   6   2.0000     -20.530678      -558.6682
   7   2.0000      -1.384902       -37.6851
   8   2.0000      -1.374370       -37.3985
   9   2.0000      -1.362990       -37.0888
  10   2.0000      -1.352745       -36.8101
  11   2.0000      -1.325659       -36.0730
  12   2.0000      -1.321778       -35.9674
  13   2.0000      -1.309466       -35.6324
  14   2.0000      -0.746338       -20.3089
  15   2.0000      -0.744485       -20.2585
  16   2.0000      -0.734854       -19.9964
  17   2.0000      -0.729240       -19.8436
  18   2.0000      -0.694213       -18.8905
  19   2.0000      -0.691383       -18.8135
  20   2.0000      -0.679601       -18.4929
  21   2.0000      -0.642784       -17.4910
  22   2.0000      -0.616515       -16.7762
  23   2.0000      -0.606685       -16.5087
  24   2.0000      -0.585488       -15.9319
  25   2.0000      -0.565869       -15.3981
  26   2.0000      -0.562171       -15.2975
  27   2.0000      -0.555497       -15.1158
  28   2.0000      -0.529753       -14.4153
  29   2.0000      -0.526412       -14.3244
  30   2.0000      -0.522413       -14.2156
  31   2.0000      -0.516839       -14.0639
  32   2.0000      -0.493706       -13.4344
  33   2.0000      -0.488836       -13.3019
  34   2.0000      -0.475852       -12.9486
  35   0.0000       0.095595         2.6013
  36   0.0000       0.134441         3.6583
  37   0.0000       0.137345         3.7373
  38   0.0000       0.143405         3.9022
  39   0.0000       0.157337         4.2814

MULLIKEN ATOMIC CHARGES
-----------------------
   0 O :   -0.686296
   1 H :    0.333731
   2 H :    0.353022
   3 O :   -0.756818
   4 H :    0.353877
   5 H :    0.380439
   6 O :   -0.707634
   7 H :    0.359162
   8 H :    0.382445
   9 O :   -0.698496
  10 H :    0.360364
  11 H :    0.327505
  12 O :   -0.698321
  13 H :    0.321131
  14 H :    0.365791
  15 O :   -0.706087
  16 H :    0.354792
  17 H :    0.384012
  18 O :   -0.756368
  19 H :    0.353250
  20 H :    0.380499
Sum of atomic charges:   -0.0000000

LOEWDIN ATOMIC CHARGES
----------------------
   0 O :   -0.339928
   1 H :    0.155712
   2 H :    0.184261
   3 O :   -0.314989
   4 H :    0.160671
   5 H :    0.145270
   6 O :   -0.279170
   7 H :    0.171885
   8 H :    0.155325
   9 O :   -0.345744
  10 H :    0.144986
  11 H :    0.162121
  12 O :   -0.345961
  13 H :    0.160344
  14 H :    0.147394
  15 O :   -0.278885
  16 H :    0.170048
  17 H :    0.155983
  18 O :   -0.314968
  19 H :    0.160371
  20 H :    0.145274

  Mayer bond orders larger than 0.100000
B(  0-O ,  1-H ) :   0.8554 B(  0-O ,  2-H ) :   0.8376 B(  3-O ,  4-H ) :   0.8383
B(  3-O ,  5-H ) :   0.7342 B(  5-H , 15-O ) :   0.1129 B(  6-O ,  7-H ) :   0.8348
B(  6-O ,  8-H ) :   0.7861 B(  6-O , 20-H ) :   0.1118 B(  9-O , 10-H ) :   0.8213
B(  9-O , 11-H ) :   0.8505 B( 12-O , 13-H ) :   0.8555 B( 12-O , 14-H ) :   0.8164
B( 15-O , 16-H ) :   0.8375 B( 15-O , 17-H ) :   0.7833 B( 18-O , 19-H ) :   0.8386
B( 18-O , 20-H ) :   0.7347

MP2 TOTAL ENERGY:     -534.254016122 Eh
FINAL SINGLE POINT ENERGY      -534.254016121737

DIPOLE MOMENT
-------------
                                X             Y             Z
Electronic contribution:     -0.06296       0.09753      -0.21275
Nuclear contribution   :      0.30898      -0.67915      -0.80894
                        -----------------------------------------
Total Dipole Moment    :      0.24602      -0.58162      -1.02169
                        -----------------------------------------
Magnitude (a.u.)       :      1.20111
Magnitude (Debye)      :      3.05298

Rotational constants in cm-1:     0.039361     0.023021     0.019150
Rotational constants in MHz :  1180.015832   690.142465   574.098325

                             ****ORCA TERMINATED NORMALLY****
TOTAL RUN TIME: 0 days 0 hours 1 minutes 47 seconds 361 msec
