                         Program Version 4.2.0 -  RELEASE  -
|  1> # 12h2o.su.etal.mol1,2,5,7,10
|  2> ! MP2 def2-TZVP EnGrad TightSCF
|  3>
|  4> %pal
|  5>     nprocs 6
|  6> end
|  7>
|  8> %maxcore 8000
|  9>
| 10> %scf
| 11>     ConvForced true
| 12> end
| 13>
| 14> *xyz 0 1
| 15> O  -1.794470000  -0.923410000   2.768350000
| 16> H  -2.338250000  -1.359750000   3.430940000
| 17> H  -0.879480000  -1.303000000   2.865760000
| 18> O   0.923410000  -1.794470000  -2.768350000
| 19> H   1.359750000  -2.338250000  -3.430940000
| 20> H   1.303000000  -0.879480000  -2.865760000
| 21> O   0.885520000  -1.737840000   0.052730000
| 22> H   1.284090000  -0.839590000   0.017130000
| 23> H   1.032320000  -2.090180000  -0.841890000
| 24> O  -1.737840000  -0.885520000  -0.052730000
| 25> H  -2.090180000  -1.032320000   0.841890000
| 26> H  -0.839590000  -1.284090000  -0.017130000
| 27> O  -0.923410000   1.794470000  -2.768350000
| 28> H  -1.359750000   2.338250000  -3.430940000
| 29> H  -1.303000000   0.879480000  -2.865760000
| 30> *
| 31>
| 32>                          ****END OF INPUT****

CARTESIAN COORDINATES (ANGSTROEM)
---------------------------------
  O     -1.794470   -0.923410    2.768350
  H     -2.338250   -1.359750    3.430940
  H     -0.879480   -1.303000    2.865760
  O      0.923410   -1.794470   -2.768350
  H      1.359750   -2.338250   -3.430940
  H      1.303000   -0.879480   -2.865760
  O      0.885520   -1.737840    0.052730
  H      1.284090   -0.839590    0.017130
  H      1.032320   -2.090180   -0.841890
  O     -1.737840   -0.885520   -0.052730
  H     -2.090180   -1.032320    0.841890
  H     -0.839590   -1.284090   -0.017130
  O     -0.923410    1.794470   -2.768350
  H     -1.359750    2.338250   -3.430940
  H     -1.303000    0.879480   -2.865760

 Total Charge           Charge          ....    0
 Multiplicity           Mult            ....    1
 Number of Electrons    NEL             ....   50
 Basis Dimension        Dim             ....  215

ORBITAL ENERGIES
----------------

  NO   OCC          E(Eh)            E(eV)
   0   2.0000     -20.593447      -560.3762
   1   2.0000     -20.569360      -559.7207
   2   2.0000     -20.560097      -559.4687
   3   2.0000     -20.548608      -559.1561
   4   2.0000     -20.482479      -557.3566
   5   2.0000      -1.371795       -37.3284
   6   2.0000      -1.347300       -36.6619
   7   2.0000      -1.342960       -36.5438
   8   2.0000      -1.323972       -36.0271
   9   2.0000      -1.266992       -34.4766
  10   2.0000      -0.738123       -20.0854
  11   2.0000      -0.714150       -19.4330
  12   2.0000      -0.707356       -19.2481
  13   2.0000      -0.691914       -18.8279
  14   2.0000      -0.651466       -17.7273
  15   2.0000      -0.614232       -16.7141
  16   2.0000      -0.589822       -16.0499
  17   2.0000      -0.576423       -15.6853
  18   2.0000      -0.560748       -15.2587
  19   2.0000      -0.537817       -14.6347
  20   2.0000      -0.530036       -14.4230
  21   2.0000      -0.504338       -13.7237
  22   2.0000      -0.492028       -13.3888
  23   2.0000      -0.481593       -13.1048
  24   2.0000      -0.433478       -11.7955
  25   0.0000       0.099679         2.7124
  26   0.0000       0.128117         3.4862
  27   0.0000       0.147093         4.0026
  28   0.0000       0.162660         4.4262
  29   0.0000       0.194426         5.2906

MULLIKEN ATOMIC CHARGES
-----------------------
   0 O :   -0.689869
   1 H :    0.342569
   2 H :    0.355289
   3 O :   -0.695922
   4 H :    0.352091
   5 H :    0.359388
   6 O :   -0.700493
   7 H :    0.341371
   8 H :    0.378083
   9 O :   -0.737553
  10 H :    0.354175
  11 H :    0.342034
  12 O :   -0.693020
  13 H :    0.333235
  14 H :    0.358621
Sum of atomic charges:   -0.0000000

LOEWDIN ATOMIC CHARGES
----------------------
   0 O :   -0.310226
   1 H :    0.158782
   2 H :    0.185046
   3 O :   -0.308618
   4 H :    0.163600
   5 H :    0.186909
   6 O :   -0.302584
   7 H :    0.171658
   8 H :    0.153250
   9 O :   -0.373545
  10 H :    0.142303
  11 H :    0.135059
  12 O :   -0.342663
  13 H :    0.155651
  14 H :    0.185379

  Mayer bond orders larger than 0.100000
B(  0-O ,  1-H ) :   0.8469 B(  0-O ,  2-H ) :   0.8337 B(  3-O ,  4-H ) :   0.8416
B(  3-O ,  5-H ) :   0.8287 B(  6-O ,  7-H ) :   0.8447 B(  6-O ,  8-H ) :   0.8040
B(  9-O , 10-H ) :   0.8324 B(  9-O , 11-H ) :   0.8096 B( 12-O , 13-H ) :   0.8558
B( 12-O , 14-H ) :   0.8318

MP2 TOTAL ENERGY:     -381.585384070 Eh
FINAL SINGLE POINT ENERGY      -381.585384070217

DIPOLE MOMENT
-------------
                                X             Y             Z
Electronic contribution:     -0.00945       0.01420       0.05076
Nuclear contribution   :      1.21732      -0.67870      -0.63259
                        -----------------------------------------
Total Dipole Moment    :      1.20787      -0.66450      -0.58183
                        -----------------------------------------
Magnitude (a.u.)       :      1.49634
Magnitude (Debye)      :      3.80340

Rotational constants in cm-1:     0.071279     0.034888     0.025253
Rotational constants in MHz :  2136.898574  1045.911229   757.056450

                             ****ORCA TERMINATED NORMALLY****
TOTAL RUN TIME: 0 days 0 hours 0 minutes 59 seconds 271 msec
