                         Program Version 4.2.0 -  RELEASE  -
|  1> # 12h2o.su.etal.mol1,2,3,4,6,7,8,11
|  2> ! MP2 def2-TZVP EnGrad TightSCF
|  3>
|  4> %pal
|  5>     nprocs 6
|  6> end
|  7>
|  8> %maxcore 8000
|  9>
| 10> %scf
| 11>     ConvForced true
| 12> end
| 13>
| 14> *xyz 0 1
| 15> O  -1.794470000  -0.923410000   2.768350000
| 16> H  -2.338250000  -1.359750000   3.430940000
| 17> H  -0.879480000  -1.303000000   2.865760000
| 18> O   0.923410000  -1.794470000  -2.768350000
| 19> H   1.359750000  -2.338250000  -3.430940000
| 20> H   1.303000000  -0.879480000  -2.865760000
| 21> O  -1.752130000  -0.741530000  -2.896280000
| 22> H  -2.036450000  -0.920500000  -1.984040000
| 23> H  -0.921210000  -1.242140000  -2.984230000
| 24> O  -0.885520000   1.737840000   0.052730000
| 25> H  -1.032320000   2.090180000  -0.841890000
| 26> H  -1.284090000   0.839590000   0.017130000
| 27> O   1.737840000   0.885520000  -0.052730000
| 28> H   2.090180000   1.032320000   0.841890000
| 29> H   0.839590000   1.284090000  -0.017130000
| 30> O  -1.737840000  -0.885520000  -0.052730000
| 31> H  -2.090180000  -1.032320000   0.841890000
| 32> H  -0.839590000  -1.284090000  -0.017130000
| 33> O   1.752130000   0.741530000  -2.896280000
| 34> H   2.036450000   0.920500000  -1.984040000
| 35> H   0.921210000   1.242140000  -2.984230000
| 36> O  -0.741530000   1.752130000   2.896280000
| 37> H  -0.920500000   2.036450000   1.984040000
| 38> H  -1.242140000   0.921210000   2.984230000
| 39> *
| 40>
| 41>                          ****END OF INPUT****

CARTESIAN COORDINATES (ANGSTROEM)
---------------------------------
  O     -1.794470   -0.923410    2.768350
  H     -2.338250   -1.359750    3.430940
  H     -0.879480   -1.303000    2.865760
  O      0.923410   -1.794470   -2.768350
  H      1.359750   -2.338250   -3.430940
  H      1.303000   -0.879480   -2.865760
  O     -1.752130   -0.741530   -2.896280
  H     -2.036450   -0.920500   -1.984040
  H     -0.921210   -1.242140   -2.984230
  O     -0.885520    1.737840    0.052730
  H     -1.032320    2.090180   -0.841890
  H     -1.284090    0.839590    0.017130
  O      1.737840    0.885520   -0.052730
  H      2.090180    1.032320    0.841890
  H      0.839590    1.284090   -0.017130
  O     -1.737840   -0.885520   -0.052730
  H     -2.090180   -1.032320    0.841890
  H     -0.839590   -1.284090   -0.017130
  O      1.752130    0.741530   -2.896280
  H      2.036450    0.920500   -1.984040
  H      0.921210    1.242140   -2.984230
  O     -0.741530    1.752130    2.896280
  H     -0.920500    2.036450    1.984040
  H     -1.242140    0.921210    2.984230

 Total Charge           Charge          ....    0
 Multiplicity           Mult            ....    1
 Number of Electrons    NEL             ....   80
 Basis Dimension        Dim             ....  344

ORBITAL ENERGIES
----------------

  NO   OCC          E(Eh)            E(eV)
   0   2.0000     -20.632592      -561.4414
   1   2.0000     -20.600113      -560.5576
   2   2.0000     -20.585883      -560.1703
   3   2.0000     -20.568244      -559.6904
   4   2.0000     -20.559545      -559.4537
   5   2.0000     -20.536522      -558.8272
   6   2.0000     -20.527873      -558.5918
   7   2.0000     -20.511114      -558.1358
   8   2.0000      -1.413456       -38.4621
   9   2.0000      -1.388797       -37.7911
  10   2.0000      -1.371548       -37.3217
  11   2.0000      -1.359245       -36.9869
  12   2.0000      -1.339997       -36.4632
  13   2.0000      -1.320124       -35.9224
  14   2.0000      -1.313034       -35.7295
  15   2.0000      -1.295656       -35.2566
  16   2.0000      -0.778689       -21.1892
  17   2.0000      -0.749095       -20.3839
  18   2.0000      -0.740957       -20.1625
  19   2.0000      -0.722529       -19.6610
  20   2.0000      -0.711054       -19.3488
  21   2.0000      -0.703798       -19.1513
  22   2.0000      -0.694079       -18.8869
  23   2.0000      -0.676685       -18.4135
  24   2.0000      -0.655232       -17.8298
  25   2.0000      -0.627895       -17.0859
  26   2.0000      -0.619376       -16.8541
  27   2.0000      -0.608763       -16.5653
  28   2.0000      -0.588234       -16.0067
  29   2.0000      -0.573282       -15.5998
  30   2.0000      -0.562425       -15.3044
  31   2.0000      -0.546466       -14.8701
  32   2.0000      -0.541023       -14.7220
  33   2.0000      -0.529992       -14.4218
  34   2.0000      -0.524961       -14.2849
  35   2.0000      -0.510623       -13.8948
  36   2.0000      -0.503585       -13.7032
  37   2.0000      -0.484375       -13.1805
  38   2.0000      -0.477319       -12.9885
  39   2.0000      -0.461122       -12.5478
  40   0.0000       0.076199         2.0735
  41   0.0000       0.110103         2.9960
  42   0.0000       0.141191         3.8420
  43   0.0000       0.156420         4.2564
  44   0.0000       0.166899         4.5416

MULLIKEN ATOMIC CHARGES
-----------------------
   0 O :   -0.719260
   1 H :    0.372568
   2 H :    0.372022
   3 O :   -0.744756
   4 H :    0.336981
   5 H :    0.385356
   6 O :   -0.735945
   7 H :    0.360905
   8 H :    0.352441
   9 O :   -0.735466
  10 H :    0.358778
  11 H :    0.376847
  12 O :   -0.737975
  13 H :    0.349547
  14 H :    0.356670
  15 O :   -0.727547
  16 H :    0.387001
  17 H :    0.366538
  18 O :   -0.699624
  19 H :    0.391135
  20 H :    0.343307
  21 O :   -0.720656
  22 H :    0.369785
  23 H :    0.341349
Sum of atomic charges:   -0.0000000

LOEWDIN ATOMIC CHARGES
----------------------
   0 O :   -0.287846
   1 H :    0.171815
   2 H :    0.192773
   3 O :   -0.343472
   4 H :    0.153785
   5 H :    0.146317
   6 O :   -0.358329
   7 H :    0.144581
   8 H :    0.143058
   9 O :   -0.292747
  10 H :    0.169657
  11 H :    0.147655
  12 O :   -0.343336
  13 H :    0.167828
  14 H :    0.141352
  15 O :   -0.279194
  16 H :    0.155574
  17 H :    0.180467
  18 O :   -0.275919
  19 H :    0.160726
  20 H :    0.166872
  21 O :   -0.350728
  22 H :    0.149493
  23 H :    0.139615

  Mayer bond orders larger than 0.100000
B(  0-O ,  1-H ) :   0.8273 B(  0-O ,  2-H ) :   0.8196 B(  3-O ,  4-H ) :   0.8507
B(  3-O ,  5-H ) :   0.7537 B(  6-O ,  7-H ) :   0.8331 B(  6-O ,  8-H ) :   0.8105
B(  9-O , 10-H ) :   0.8331 B(  9-O , 11-H ) :   0.7593 B( 12-O , 13-H ) :   0.8424
B( 12-O , 14-H ) :   0.7757 B( 15-O , 16-H ) :   0.7961 B( 15-O , 17-H ) :   0.8207
B( 18-O , 19-H ) :   0.7934 B( 18-O , 20-H ) :   0.8422 B( 21-O , 22-H ) :   0.8238
B( 21-O , 23-H ) :   0.8375

MP2 TOTAL ENERGY:     -610.582422842 Eh
FINAL SINGLE POINT ENERGY      -610.582422842418

DIPOLE MOMENT
-------------
                                X             Y             Z
Electronic contribution:     -0.12111       0.10992       0.17210
Nuclear contribution   :     -0.03147      -1.27953       1.46039
                        -----------------------------------------
Total Dipole Moment    :     -0.15258      -1.16961       1.63249
                        -----------------------------------------
Magnitude (a.u.)       :      2.01402
Magnitude (Debye)      :      5.11924

Rotational constants in cm-1:     0.038330     0.018153     0.014949
Rotational constants in MHz :  1149.114320   544.199021   448.153320

                             ****ORCA TERMINATED NORMALLY****
TOTAL RUN TIME: 0 days 0 hours 3 minutes 6 seconds 546 msec
