                         Program Version 4.2.0 -  RELEASE  -
|  1> ! MP2 def2-TZVP EnGrad TightSCF FrozenCore
|  2>
|  3> %pal
|  4>     nprocs 12
|  5> end
|  6>
|  7> %maxcore 8000
|  8>
|  9> %scf
| 10>     ConvForced true
| 11> end
| 12>
| 13> *xyz 0 1
| 14> O    -0.8151220282     1.824804822     -1.4469249855
| 15> H    -0.0583924427     1.5094027854    -0.8935400152
| 16> C    -0.4721571969     1.6495654182    -2.8122269335
| 17> H    -1.3230788109     1.9837754173    -3.4128237302
| 18> H    -0.2649580061     0.5984677313    -3.0641805619
| 19> H     0.4046154242     2.252077559     -3.0912725341
| 20> O     1.1906114401     0.920620323      0.1826917993
| 21> H     0.7961052248     0.1152862592     0.6149815204
| 22> C     1.4375685332     1.8840275558     1.2009807214
| 23> H     1.86327778       2.7705859701     0.7227751917
| 24> H     2.1571170192     1.5102193996     1.9429633159
| 25> H     0.5179893142     2.1774145802     1.7256210551
| 26> O     0.2877387197    -1.2960622748     1.4088040839
| 27> H     1.0568881214    -1.9066610363     1.3848534399
| 28> C    -0.8612587297    -1.9731730775     0.885597709
| 29> H    -1.6179307845    -1.2197007548     0.6522418648
| 30> H    -1.2635040879    -2.681130388      1.6226872604
| 31> H    -0.6223067941    -2.5235737823    -0.0350547045
| 32> O     2.709525885     -2.6104947996     1.0474507304
| 33> H     3.2705963928    -2.2293865        1.7407043995
| 34> C     3.112748655     -2.0405295444    -0.2080870916
| 35> H     2.5466633287    -2.5674607974    -0.979327739
| 36> H     4.1825144649    -2.2019197757    -0.3895375885
| 37> H     2.8784440167    -0.9706391443    -0.2630698196
| 38> O    -2.9470519411     0.3424458957    -0.4625943099
| 39> H    -2.2156136021     0.8675117891    -0.861002967
| 40> C    -3.8061490768     1.2479801291     0.1979223648
| 41> H    -4.6198666996     0.668341489      0.6469196259
| 42> H    -4.2549548413     1.9832409116    -0.4897523871
| 43> H    -3.3037347299     1.806413669      1.0052752062
| 44> *
| 45>
| 46>                          ****END OF INPUT****

CARTESIAN COORDINATES (ANGSTROEM)
---------------------------------
  O     -0.815122    1.824805   -1.446925
  H     -0.058392    1.509403   -0.893540
  C     -0.472157    1.649565   -2.812227
  H     -1.323079    1.983775   -3.412824
  H     -0.264958    0.598468   -3.064181
  H      0.404615    2.252078   -3.091273
  O      1.190611    0.920620    0.182692
  H      0.796105    0.115286    0.614982
  C      1.437569    1.884028    1.200981
  H      1.863278    2.770586    0.722775
  H      2.157117    1.510219    1.942963
  H      0.517989    2.177415    1.725621
  O      0.287739   -1.296062    1.408804
  H      1.056888   -1.906661    1.384853
  C     -0.861259   -1.973173    0.885598
  H     -1.617931   -1.219701    0.652242
  H     -1.263504   -2.681130    1.622687
  H     -0.622307   -2.523574   -0.035055
  O      2.709526   -2.610495    1.047451
  H      3.270596   -2.229386    1.740704
  C      3.112749   -2.040530   -0.208087
  H      2.546663   -2.567461   -0.979328
  H      4.182514   -2.201920   -0.389538
  H      2.878444   -0.970639   -0.263070
  O     -2.947052    0.342446   -0.462594
  H     -2.215614    0.867512   -0.861003
  C     -3.806149    1.247980    0.197922
  H     -4.619867    0.668341    0.646920
  H     -4.254955    1.983241   -0.489752
  H     -3.303735    1.806414    1.005275

 Total Charge           Charge          ....    0
 Multiplicity           Mult            ....    1
 Number of Electrons    NEL             ....   90
 Basis Dimension        Dim             ....  430

ORBITAL ENERGIES
----------------

  NO   OCC          E(Eh)            E(eV)
   0   2.0000     -20.587367      -560.2107
   1   2.0000     -20.554914      -559.3276
   2   2.0000     -20.551413      -559.2324
   3   2.0000     -20.540908      -558.9465
   4   2.0000     -20.517134      -558.2996
   5   2.0000     -11.286264      -307.1149
   6   2.0000     -11.271633      -306.7167
   7   2.0000     -11.263273      -306.4892
   8   2.0000     -11.258776      -306.3669
   9   2.0000     -11.247453      -306.0587
  10   2.0000      -1.383478       -37.6464
  11   2.0000      -1.361469       -37.0475
  12   2.0000      -1.347705       -36.6729
  13   2.0000      -1.338065       -36.4106
  14   2.0000      -1.318106       -35.8675
  15   2.0000      -0.941829       -25.6285
  16   2.0000      -0.922919       -25.1139
  17   2.0000      -0.914460       -24.8837
  18   2.0000      -0.911876       -24.8134
  19   2.0000      -0.893588       -24.3158
  20   2.0000      -0.717857       -19.5339
  21   2.0000      -0.705730       -19.2039
  22   2.0000      -0.693220       -18.8635
  23   2.0000      -0.681743       -18.5512
  24   2.0000      -0.665394       -18.1063
  25   2.0000      -0.634965       -17.2783
  26   2.0000      -0.615389       -16.7456
  27   2.0000      -0.612395       -16.6641
  28   2.0000      -0.610428       -16.6106
  29   2.0000      -0.606469       -16.5029
  30   2.0000      -0.594780       -16.1848
  31   2.0000      -0.591002       -16.0820
  32   2.0000      -0.583640       -15.8816
  33   2.0000      -0.581707       -15.8290
  34   2.0000      -0.563310       -15.3284
  35   2.0000      -0.529749       -14.4152
  36   2.0000      -0.515715       -14.0333
  37   2.0000      -0.498612       -13.5679
  38   2.0000      -0.492987       -13.4149
  39   2.0000      -0.477205       -12.9854
  40   2.0000      -0.468388       -12.7455
  41   2.0000      -0.448677       -12.2091
  42   2.0000      -0.443707       -12.0739
  43   2.0000      -0.434959       -11.8358
  44   2.0000      -0.416102       -11.3227
  45   0.0000       0.112851         3.0708
  46   0.0000       0.139493         3.7958
  47   0.0000       0.148837         4.0501
  48   0.0000       0.167613         4.5610
  49   0.0000       0.175725         4.7817

MULLIKEN ATOMIC CHARGES
-----------------------
   0 O :   -0.556956
   1 H :    0.364752
   2 C :   -0.167126
   3 H :    0.127927
   4 H :    0.111294
   5 H :    0.114632
   6 O :   -0.576132
   7 H :    0.378452
   8 C :   -0.169816
   9 H :    0.129597
  10 H :    0.109173
  11 H :    0.129009
  12 O :   -0.555710
  13 H :    0.356000
  14 C :   -0.187101
  15 H :    0.172293
  16 H :    0.114660
  17 H :    0.108268
  18 O :   -0.523500
  19 H :    0.338862
  20 C :   -0.217266
  21 H :    0.138027
  22 H :    0.128283
  23 H :    0.155339
  24 O :   -0.534280
  25 H :    0.349824
  26 C :   -0.155281
  27 H :    0.116011
  28 H :    0.103169
  29 H :    0.097593
Sum of atomic charges:   -0.0000000

LOEWDIN ATOMIC CHARGES
----------------------
   0 O :   -0.090290
   1 H :    0.164847
   2 C :   -0.389910
   3 H :    0.109090
   4 H :    0.097448
   5 H :    0.100436
   6 O :   -0.094015
   7 H :    0.163821
   8 C :   -0.387986
   9 H :    0.109275
  10 H :    0.099261
  11 H :    0.103315
  12 O :   -0.087339
  13 H :    0.162626
  14 C :   -0.373458
  15 H :    0.115714
  16 H :    0.101126
  17 H :    0.098792
  18 O :   -0.088036
  19 H :    0.181579
  20 C :   -0.368717
  21 H :    0.114067
  22 H :    0.103433
  23 H :    0.104091
  24 O :   -0.102170
  25 H :    0.162078
  26 C :   -0.401866
  27 H :    0.104449
  28 H :    0.095770
  29 H :    0.092568

  Mayer bond orders larger than 0.100000
B(  0-O ,  1-H ) :   0.7545 B(  0-O ,  2-C ) :   0.8963 B(  1-H ,  6-O ) :   0.1027
B(  2-C ,  3-H ) :   0.9421 B(  2-C ,  4-H ) :   0.9397 B(  2-C ,  5-H ) :   0.9381
B(  6-O ,  7-H ) :   0.7254 B(  6-O ,  8-C ) :   0.8814 B(  7-H , 12-O ) :   0.1204
B(  8-C ,  9-H ) :   0.9421 B(  8-C , 10-H ) :   0.9374 B(  8-C , 11-H ) :   0.9403
B( 12-O , 13-H ) :   0.7816 B( 12-O , 14-C ) :   0.8622 B( 14-C , 15-H ) :   0.9200
B( 14-C , 16-H ) :   0.9410 B( 14-C , 17-H ) :   0.9399 B( 18-O , 19-H ) :   0.8366
B( 18-O , 20-C ) :   0.8538 B( 20-C , 21-H ) :   0.9400 B( 20-C , 22-H ) :   0.9359
B( 20-C , 23-H ) :   0.9258 B( 24-O , 25-H ) :   0.7777 B( 24-O , 26-C ) :   0.9297
B( 26-C , 27-H ) :   0.9426 B( 26-C , 28-H ) :   0.9376 B( 26-C , 29-H ) :   0.9379

MP2 TOTAL ENERGY:     -577.591271487 Eh
FINAL SINGLE POINT ENERGY      -577.591271487070

DIPOLE MOMENT
-------------
                                X             Y             Z
Electronic contribution:      1.45489      -2.20104       1.74010
Nuclear contribution   :      0.14410       2.03553      -1.48658
                        -----------------------------------------
Total Dipole Moment    :      1.59899      -0.16550       0.25352
                        -----------------------------------------
Magnitude (a.u.)       :      1.62740
Magnitude (Debye)      :      4.13651

Rotational constants in cm-1:     0.032893     0.015202     0.012962
Rotational constants in MHz :   986.100547   455.749643   388.588745

                             ****ORCA TERMINATED NORMALLY****
TOTAL RUN TIME: 0 days 0 hours 9 minutes 59 seconds 296 msec
