                         Program Version 4.2.0 -  RELEASE  -
|  1> # 12meoh.boyd.etal.mol0,4,11
|  2> ! MP2 def2-TZVP EnGrad TightSCF
|  3>
|  4> %pal
|  5>     nprocs 6
|  6> end
|  7>
|  8> %maxcore 8000
|  9>
| 10> %scf
| 11>     ConvForced true
| 12> end
| 13>
| 14> *xyz 0 1
| 15> O  -1.776108874  -2.741384797  -1.019308298
| 16> H  -2.520094035  -2.452295987  -0.420778302
| 17> C  -2.174025166  -3.952700964  -1.647004581
| 18> H  -1.359803895  -4.272673416  -2.304149236
| 19> H  -3.075973971  -3.808692420  -2.256751112
| 20> H  -2.370225393  -4.752784761  -0.918966137
| 21> O  -1.358578914   1.232360421   1.189721000
| 22> H  -1.058250183   1.216459361   0.238591307
| 23> C  -0.389763452   1.957872567   1.943072362
| 24> H  -0.747220771   2.012806578   2.975200343
| 25> H  -0.260410585   2.982763209   1.565366540
| 26> H   0.585220638   1.453754179   1.934070793
| 27> O   3.252955559   0.588596242   1.858934315
| 28> H   3.621209177  -0.251605199   1.476063364
| 29> C   4.040824528   0.944288422   2.989639460
| 30> H   3.670521436   1.902573549   3.363847391
| 31> H   5.103749934   1.055868619   2.734277559
| 32> H   3.948540682   0.200279590   3.792908518
| 33> *
| 34>
| 35>                          ****END OF INPUT****

CARTESIAN COORDINATES (ANGSTROEM)
---------------------------------
  O     -1.776109   -2.741385   -1.019308
  H     -2.520094   -2.452296   -0.420778
  C     -2.174025   -3.952701   -1.647005
  H     -1.359804   -4.272673   -2.304149
  H     -3.075974   -3.808692   -2.256751
  H     -2.370225   -4.752785   -0.918966
  O     -1.358579    1.232360    1.189721
  H     -1.058250    1.216459    0.238591
  C     -0.389763    1.957873    1.943072
  H     -0.747221    2.012807    2.975200
  H     -0.260411    2.982763    1.565367
  H      0.585221    1.453754    1.934071
  O      3.252956    0.588596    1.858934
  H      3.621209   -0.251605    1.476063
  C      4.040825    0.944288    2.989639
  H      3.670521    1.902574    3.363847
  H      5.103750    1.055869    2.734278
  H      3.948541    0.200280    3.792909

 Total Charge           Charge          ....    0
 Multiplicity           Mult            ....    1
 Number of Electrons    NEL             ....   54
 Basis Dimension        Dim             ....  258

ORBITAL ENERGIES
----------------

  NO   OCC          E(Eh)            E(eV)
   0   2.0000     -20.560805      -559.4880
   1   2.0000     -20.553522      -559.2898
   2   2.0000     -20.543462      -559.0160
   3   2.0000     -11.274191      -306.7863
   4   2.0000     -11.268381      -306.6282
   5   2.0000     -11.254492      -306.2503
   6   2.0000      -1.350098       -36.7380
   7   2.0000      -1.342754       -36.5382
   8   2.0000      -1.330914       -36.2160
   9   2.0000      -0.922461       -25.1014
  10   2.0000      -0.915691       -24.9172
  11   2.0000      -0.903275       -24.5794
  12   2.0000      -0.685127       -18.6433
  13   2.0000      -0.677529       -18.4365
  14   2.0000      -0.665345       -18.1050
  15   2.0000      -0.619919       -16.8689
  16   2.0000      -0.613749       -16.7010
  17   2.0000      -0.601609       -16.3706
  18   2.0000      -0.593127       -16.1398
  19   2.0000      -0.587449       -15.9853
  20   2.0000      -0.575654       -15.6643
  21   2.0000      -0.503931       -13.7127
  22   2.0000      -0.496661       -13.5148
  23   2.0000      -0.485155       -13.2017
  24   2.0000      -0.452501       -12.3132
  25   2.0000      -0.444975       -12.1084
  26   2.0000      -0.433446       -11.7947
  27   0.0000       0.129568         3.5257
  28   0.0000       0.135639         3.6909
  29   0.0000       0.155357         4.2275
  30   0.0000       0.171135         4.6568
  31   0.0000       0.179605         4.8873

MULLIKEN ATOMIC CHARGES
-----------------------
   0 O :   -0.497947
   1 H :    0.327222
   2 C :   -0.173683
   3 H :    0.126395
   4 H :    0.108750
   5 H :    0.108989
   6 O :   -0.509165
   7 H :    0.324463
   8 C :   -0.185481
   9 H :    0.117706
  10 H :    0.102696
  11 H :    0.142767
  12 O :   -0.495079
  13 H :    0.323070
  14 C :   -0.173528
  15 H :    0.129133
  16 H :    0.111493
  17 H :    0.112198
Sum of atomic charges:   -0.0000000

LOEWDIN ATOMIC CHARGES
----------------------
   0 O :   -0.109262
   1 H :    0.194943
   2 C :   -0.385242
   3 H :    0.109372
   4 H :    0.094890
   5 H :    0.095085
   6 O :   -0.117242
   7 H :    0.192599
   8 C :   -0.383355
   9 H :    0.106875
  10 H :    0.093893
  11 H :    0.101841
  12 O :   -0.107045
  13 H :    0.191517
  14 C :   -0.381919
  15 H :    0.110020
  16 H :    0.096728
  17 H :    0.096302

  Mayer bond orders larger than 0.100000
B(  0-O ,  1-H ) :   0.8378 B(  0-O ,  2-C ) :   0.9303 B(  2-C ,  3-H ) :   0.9378
B(  2-C ,  4-H ) :   0.9397 B(  2-C ,  5-H ) :   0.9382 B(  6-O ,  7-H ) :   0.8402
B(  6-O ,  8-C ) :   0.9139 B(  8-C ,  9-H ) :   0.9353 B(  8-C , 10-H ) :   0.9393
B(  8-C , 11-H ) :   0.9354 B( 12-O , 13-H ) :   0.8393 B( 12-O , 14-C ) :   0.9189
B( 14-C , 15-H ) :   0.9392 B( 14-C , 16-H ) :   0.9353 B( 14-C , 17-H ) :   0.9384

MP2 TOTAL ENERGY:     -346.522770366 Eh
FINAL SINGLE POINT ENERGY      -346.522770365536

DIPOLE MOMENT
-------------
                                X             Y             Z
Electronic contribution:     -1.62388       0.23464      -1.48793
Nuclear contribution   :      2.23197      -0.66200       1.55538
                        -----------------------------------------
Total Dipole Moment    :      0.60809      -0.42736       0.06745
                        -----------------------------------------
Magnitude (a.u.)       :      0.74630
Magnitude (Debye)      :      1.89693

Rotational constants in cm-1:     0.063659     0.015729     0.012789
Rotational constants in MHz :  1908.445862   471.545022   383.401680

                             ****ORCA TERMINATED NORMALLY****
TOTAL RUN TIME: 0 days 0 hours 0 minutes 53 seconds 52 msec
