                         Program Version 4.2.0 -  RELEASE  -
|  1> # 12h2o.su.etal.mol2,6,9,10
|  2> ! MP2 def2-TZVP EnGrad TightSCF
|  3>
|  4> %pal
|  5>     nprocs 6
|  6> end
|  7>
|  8> %maxcore 8000
|  9>
| 10> %scf
| 11>     ConvForced true
| 12> end
| 13>
| 14> *xyz 0 1
| 15> O   0.923410000  -1.794470000  -2.768350000
| 16> H   1.359750000  -2.338250000  -3.430940000
| 17> H   1.303000000  -0.879480000  -2.865760000
| 18> O   1.737840000   0.885520000  -0.052730000
| 19> H   2.090180000   1.032320000   0.841890000
| 20> H   0.839590000   1.284090000  -0.017130000
| 21> O   0.741530000  -1.752130000   2.896280000
| 22> H   0.920500000  -2.036450000   1.984040000
| 23> H   1.242140000  -0.921210000   2.984230000
| 24> O  -0.923410000   1.794470000  -2.768350000
| 25> H  -1.359750000   2.338250000  -3.430940000
| 26> H  -1.303000000   0.879480000  -2.865760000
| 27> *
| 28>
| 29>                          ****END OF INPUT****

CARTESIAN COORDINATES (ANGSTROEM)
---------------------------------
  O      0.923410   -1.794470   -2.768350
  H      1.359750   -2.338250   -3.430940
  H      1.303000   -0.879480   -2.865760
  O      1.737840    0.885520   -0.052730
  H      2.090180    1.032320    0.841890
  H      0.839590    1.284090   -0.017130
  O      0.741530   -1.752130    2.896280
  H      0.920500   -2.036450    1.984040
  H      1.242140   -0.921210    2.984230
  O     -0.923410    1.794470   -2.768350
  H     -1.359750    2.338250   -3.430940
  H     -1.303000    0.879480   -2.865760

 Total Charge           Charge          ....    0
 Multiplicity           Mult            ....    1
 Number of Electrons    NEL             ....   40
 Basis Dimension        Dim             ....  172

ORBITAL ENERGIES
----------------

  NO   OCC          E(Eh)            E(eV)
   0   2.0000     -20.567694      -559.6754
   1   2.0000     -20.564969      -559.6013
   2   2.0000     -20.556897      -559.3816
   3   2.0000     -20.556839      -559.3800
   4   2.0000      -1.343007       -36.5451
   5   2.0000      -1.340771       -36.4842
   6   2.0000      -1.336057       -36.3559
   7   2.0000      -1.332195       -36.2509
   8   2.0000      -0.711528       -19.3617
   9   2.0000      -0.702726       -19.1221
  10   2.0000      -0.699877       -19.0446
  11   2.0000      -0.698867       -19.0171
  12   2.0000      -0.580589       -15.7986
  13   2.0000      -0.579698       -15.7744
  14   2.0000      -0.573666       -15.6103
  15   2.0000      -0.568805       -15.4780
  16   2.0000      -0.511191       -13.9102
  17   2.0000      -0.507653       -13.8139
  18   2.0000      -0.500887       -13.6298
  19   2.0000      -0.500045       -13.6069
  20   0.0000       0.097702         2.6586
  21   0.0000       0.119267         3.2454
  22   0.0000       0.145458         3.9581
  23   0.0000       0.173970         4.7340
  24   0.0000       0.191972         5.2238

MULLIKEN ATOMIC CHARGES
-----------------------
   0 O :   -0.692619
   1 H :    0.335681
   2 H :    0.356146
   3 O :   -0.676441
   4 H :    0.325796
   5 H :    0.351889
   6 O :   -0.674853
   7 H :    0.347120
   8 H :    0.325755
   9 O :   -0.691323
  10 H :    0.340675
  11 H :    0.352173
Sum of atomic charges:   -0.0000000

LOEWDIN ATOMIC CHARGES
----------------------
   0 O :   -0.342309
   1 H :    0.156676
   2 H :    0.184430
   3 O :   -0.335387
   4 H :    0.159350
   5 H :    0.177258
   6 O :   -0.331270
   7 H :    0.168871
   8 H :    0.160650
   9 O :   -0.341111
  10 H :    0.159084
  11 H :    0.183759

  Mayer bond orders larger than 0.100000
B(  0-O ,  1-H ) :   0.8544 B(  0-O ,  2-H ) :   0.8338 B(  3-O ,  4-H ) :   0.8578
B(  3-O ,  5-H ) :   0.8400 B(  6-O ,  7-H ) :   0.8466 B(  6-O ,  8-H ) :   0.8589
B(  9-O , 10-H ) :   0.8516 B(  9-O , 11-H ) :   0.8372

MP2 TOTAL ENERGY:     -305.255974595 Eh
FINAL SINGLE POINT ENERGY      -305.255974594800

DIPOLE MOMENT
-------------
                                X             Y             Z
Electronic contribution:     -0.03718      -0.12999       0.12318
Nuclear contribution   :      0.11126       0.90891      -1.17702
                        -----------------------------------------
Total Dipole Moment    :      0.07408       0.77893      -1.05384
                        -----------------------------------------
Magnitude (a.u.)       :      1.31255
Magnitude (Debye)      :      3.33623

Rotational constants in cm-1:     0.085500     0.033454     0.027945
Rotational constants in MHz :  2563.240276  1002.923109   837.758897

                             ****ORCA TERMINATED NORMALLY****
TOTAL RUN TIME: 0 days 0 hours 0 minutes 16 seconds 872 msec
