                         Program Version 4.2.0 -  RELEASE  -
|  1> # 12h2o.su.etal.mol0,1,4,6,7,8,9,11
|  2> ! MP2 def2-TZVP EnGrad TightSCF
|  3>
|  4> %pal
|  5>     nprocs 6
|  6> end
|  7>
|  8> %maxcore 8000
|  9>
| 10> %scf
| 11>     ConvForced true
| 12> end
| 13>
| 14> *xyz 0 1
| 15> O   1.794470000   0.923410000   2.768350000
| 16> H   2.338250000   1.359750000   3.430940000
| 17> H   0.879480000   1.303000000   2.865760000
| 18> O  -1.794470000  -0.923410000   2.768350000
| 19> H  -2.338250000  -1.359750000   3.430940000
| 20> H  -0.879480000  -1.303000000   2.865760000
| 21> O  -0.885520000   1.737840000   0.052730000
| 22> H  -1.032320000   2.090180000  -0.841890000
| 23> H  -1.284090000   0.839590000   0.017130000
| 24> O   1.737840000   0.885520000  -0.052730000
| 25> H   2.090180000   1.032320000   0.841890000
| 26> H   0.839590000   1.284090000  -0.017130000
| 27> O  -1.737840000  -0.885520000  -0.052730000
| 28> H  -2.090180000  -1.032320000   0.841890000
| 29> H  -0.839590000  -1.284090000  -0.017130000
| 30> O   1.752130000   0.741530000  -2.896280000
| 31> H   2.036450000   0.920500000  -1.984040000
| 32> H   0.921210000   1.242140000  -2.984230000
| 33> O   0.741530000  -1.752130000   2.896280000
| 34> H   0.920500000  -2.036450000   1.984040000
| 35> H   1.242140000  -0.921210000   2.984230000
| 36> O  -0.741530000   1.752130000   2.896280000
| 37> H  -0.920500000   2.036450000   1.984040000
| 38> H  -1.242140000   0.921210000   2.984230000
| 39> *
| 40>
| 41>                          ****END OF INPUT****

CARTESIAN COORDINATES (ANGSTROEM)
---------------------------------
  O      1.794470    0.923410    2.768350
  H      2.338250    1.359750    3.430940
  H      0.879480    1.303000    2.865760
  O     -1.794470   -0.923410    2.768350
  H     -2.338250   -1.359750    3.430940
  H     -0.879480   -1.303000    2.865760
  O     -0.885520    1.737840    0.052730
  H     -1.032320    2.090180   -0.841890
  H     -1.284090    0.839590    0.017130
  O      1.737840    0.885520   -0.052730
  H      2.090180    1.032320    0.841890
  H      0.839590    1.284090   -0.017130
  O     -1.737840   -0.885520   -0.052730
  H     -2.090180   -1.032320    0.841890
  H     -0.839590   -1.284090   -0.017130
  O      1.752130    0.741530   -2.896280
  H      2.036450    0.920500   -1.984040
  H      0.921210    1.242140   -2.984230
  O      0.741530   -1.752130    2.896280
  H      0.920500   -2.036450    1.984040
  H      1.242140   -0.921210    2.984230
  O     -0.741530    1.752130    2.896280
  H     -0.920500    2.036450    1.984040
  H     -1.242140    0.921210    2.984230

 Total Charge           Charge          ....    0
 Multiplicity           Mult            ....    1
 Number of Electrons    NEL             ....   80
 Basis Dimension        Dim             ....  344

ORBITAL ENERGIES
----------------

  NO   OCC          E(Eh)            E(eV)
   0   2.0000     -20.591719      -560.3292
   1   2.0000     -20.588686      -560.2466
   2   2.0000     -20.587252      -560.2076
   3   2.0000     -20.585604      -560.1628
   4   2.0000     -20.573593      -559.8359
   5   2.0000     -20.565922      -559.6272
   6   2.0000     -20.532468      -558.7169
   7   2.0000     -20.524494      -558.4999
   8   2.0000      -1.390061       -37.8255
   9   2.0000      -1.382340       -37.6154
  10   2.0000      -1.370697       -37.2986
  11   2.0000      -1.366576       -37.1864
  12   2.0000      -1.361269       -37.0420
  13   2.0000      -1.346906       -36.6512
  14   2.0000      -1.320154       -35.9232
  15   2.0000      -1.304770       -35.5046
  16   2.0000      -0.753442       -20.5022
  17   2.0000      -0.745979       -20.2991
  18   2.0000      -0.744281       -20.2529
  19   2.0000      -0.733896       -19.9703
  20   2.0000      -0.731361       -19.9013
  21   2.0000      -0.722394       -19.6573
  22   2.0000      -0.700591       -19.0640
  23   2.0000      -0.674079       -18.3426
  24   2.0000      -0.654134       -17.7999
  25   2.0000      -0.630349       -17.1527
  26   2.0000      -0.621226       -16.9044
  27   2.0000      -0.604835       -16.4584
  28   2.0000      -0.600467       -16.3395
  29   2.0000      -0.588032       -16.0012
  30   2.0000      -0.565527       -15.3888
  31   2.0000      -0.544155       -14.8072
  32   2.0000      -0.535128       -14.5616
  33   2.0000      -0.534260       -14.5379
  34   2.0000      -0.527917       -14.3653
  35   2.0000      -0.526142       -14.3171
  36   2.0000      -0.515467       -14.0266
  37   2.0000      -0.511778       -13.9262
  38   2.0000      -0.484364       -13.1802
  39   2.0000      -0.470594       -12.8055
  40   0.0000       0.089150         2.4259
  41   0.0000       0.117906         3.2084
  42   0.0000       0.136787         3.7222
  43   0.0000       0.138699         3.7742
  44   0.0000       0.192579         5.2403

MULLIKEN ATOMIC CHARGES
-----------------------
   0 O :   -0.759899
   1 H :    0.352782
   2 H :    0.385275
   3 O :   -0.762706
   4 H :    0.358597
   5 H :    0.382218
   6 O :   -0.737791
   7 H :    0.356360
   8 H :    0.377552
   9 O :   -0.748689
  10 H :    0.368887
  11 H :    0.338561
  12 O :   -0.697495
  13 H :    0.383365
  14 H :    0.345616
  15 O :   -0.693704
  16 H :    0.375867
  17 H :    0.305758
  18 O :   -0.705791
  19 H :    0.353087
  20 H :    0.386041
  21 O :   -0.722054
  22 H :    0.388649
  23 H :    0.369512
Sum of atomic charges:   -0.0000000

LOEWDIN ATOMIC CHARGES
----------------------
   0 O :   -0.316033
   1 H :    0.160218
   2 H :    0.146210
   3 O :   -0.316445
   4 H :    0.162912
   5 H :    0.145529
   6 O :   -0.296814
   7 H :    0.169620
   8 H :    0.148167
   9 O :   -0.350030
  10 H :    0.147065
  11 H :    0.134827
  12 O :   -0.293408
  13 H :    0.153700
  14 H :    0.171731
  15 O :   -0.342153
  16 H :    0.153319
  17 H :    0.151043
  18 O :   -0.278027
  19 H :    0.169133
  20 H :    0.156776
  21 O :   -0.284312
  22 H :    0.157414
  23 H :    0.149558

  Mayer bond orders larger than 0.100000
B(  0-O ,  1-H ) :   0.8390 B(  0-O ,  2-H ) :   0.7265 B(  2-H , 21-O ) :   0.1222
B(  3-O ,  4-H ) :   0.8360 B(  3-O ,  5-H ) :   0.7316 B(  5-H , 18-O ) :   0.1156
B(  6-O ,  7-H ) :   0.8361 B(  6-O ,  8-H ) :   0.7514 B(  8-H , 12-O ) :   0.1064
B(  9-O , 10-H ) :   0.8128 B(  9-O , 11-H ) :   0.7901 B( 12-O , 13-H ) :   0.7951
B( 12-O , 14-H ) :   0.8381 B( 15-O , 16-H ) :   0.8105 B( 15-O , 17-H ) :   0.8701
B( 18-O , 19-H ) :   0.8388 B( 18-O , 20-H ) :   0.7797 B( 21-O , 22-H ) :   0.8029
B( 21-O , 23-H ) :   0.7998

MP2 TOTAL ENERGY:     -610.601432104 Eh
FINAL SINGLE POINT ENERGY      -610.601432104071

DIPOLE MOMENT
-------------
                                X             Y             Z
Electronic contribution:     -0.15204      -0.21738       0.25199
Nuclear contribution   :     -0.90891       0.11126       1.35336
                        -----------------------------------------
Total Dipole Moment    :     -1.06095      -0.10611       1.60535
                        -----------------------------------------
Magnitude (a.u.)       :      1.92718
Magnitude (Debye)      :      4.89850

Rotational constants in cm-1:     0.035567     0.020566     0.018415
Rotational constants in MHz :  1066.264165   616.567467   552.070565

                             ****ORCA TERMINATED NORMALLY****
TOTAL RUN TIME: 0 days 0 hours 3 minutes 28 seconds 752 msec
