                         Program Version 4.2.0 -  RELEASE  -
|  1> # 12meoh.boyd.etal.mol1,3,5
|  2> ! MP2 def2-TZVP EnGrad TightSCF
|  3>
|  4> %pal
|  5>     nprocs 6
|  6> end
|  7>
|  8> %maxcore 8000
|  9>
| 10> %scf
| 11>     ConvForced true
| 12> end
| 13>
| 14> *xyz 0 1
| 15> O   0.666045193  -2.600503172   0.138317521
| 16> H  -0.227115049  -2.712051982  -0.281868004
| 17> C   0.490021232  -1.851247678   1.341189459
| 18> H   1.466500502  -1.466176022   1.645844415
| 19> H   0.097564527  -2.488364683   2.146902740
| 20> H  -0.187588112  -1.000787499   1.200739571
| 21> O  -3.821405976  -2.118091637   0.596795346
| 22> H  -4.342989117  -1.344303030   0.251966383
| 23> C  -3.443883586  -1.809641231   1.934889393
| 24> H  -2.831494349  -2.637429600   2.305201764
| 25> H  -4.325601146  -1.719364371   2.585074667
| 26> H  -2.858527126  -0.882644791   1.996110694
| 27> O  -0.662721750   1.449094618  -1.383082065
| 28> H   0.064188300   2.119867608  -1.465650660
| 29> C  -0.353319239   0.341218776  -2.229326771
| 30> H  -1.072358530  -0.454743281  -2.019906495
| 31> H   0.657636746  -0.044472139  -2.042736771
| 32> H  -0.434616607   0.624733901  -3.287793021
| 33> *
| 34>
| 35>                          ****END OF INPUT****

CARTESIAN COORDINATES (ANGSTROEM)
---------------------------------
  O      0.666045   -2.600503    0.138318
  H     -0.227115   -2.712052   -0.281868
  C      0.490021   -1.851248    1.341189
  H      1.466501   -1.466176    1.645844
  H      0.097565   -2.488365    2.146903
  H     -0.187588   -1.000787    1.200740
  O     -3.821406   -2.118092    0.596795
  H     -4.342989   -1.344303    0.251966
  C     -3.443884   -1.809641    1.934889
  H     -2.831494   -2.637430    2.305202
  H     -4.325601   -1.719364    2.585075
  H     -2.858527   -0.882645    1.996111
  O     -0.662722    1.449095   -1.383082
  H      0.064188    2.119868   -1.465651
  C     -0.353319    0.341219   -2.229327
  H     -1.072359   -0.454743   -2.019906
  H      0.657637   -0.044472   -2.042737
  H     -0.434617    0.624734   -3.287793

 Total Charge           Charge          ....    0
 Multiplicity           Mult            ....    1
 Number of Electrons    NEL             ....   54
 Basis Dimension        Dim             ....  258

ORBITAL ENERGIES
----------------

  NO   OCC          E(Eh)            E(eV)
   0   2.0000     -20.562882      -559.5445
   1   2.0000     -20.558219      -559.4176
   2   2.0000     -20.552342      -559.2577
   3   2.0000     -11.275257      -306.8153
   4   2.0000     -11.270786      -306.6937
   5   2.0000     -11.266581      -306.5792
   6   2.0000      -1.351782       -36.7839
   7   2.0000      -1.346363       -36.6364
   8   2.0000      -1.340289       -36.4711
   9   2.0000      -0.923581       -25.1319
  10   2.0000      -0.919546       -25.0221
  11   2.0000      -0.914788       -24.8927
  12   2.0000      -0.685860       -18.6632
  13   2.0000      -0.681336       -18.5401
  14   2.0000      -0.676049       -18.3962
  15   2.0000      -0.621742       -16.9185
  16   2.0000      -0.618079       -16.8188
  17   2.0000      -0.610068       -16.6008
  18   2.0000      -0.594728       -16.1834
  19   2.0000      -0.591135       -16.0856
  20   2.0000      -0.585253       -15.9255
  21   2.0000      -0.505449       -13.7540
  22   2.0000      -0.501108       -13.6358
  23   2.0000      -0.496062       -13.4985
  24   2.0000      -0.453928       -12.3520
  25   2.0000      -0.450923       -12.2702
  26   2.0000      -0.443191       -12.0599
  27   0.0000       0.113458         3.0874
  28   0.0000       0.139236         3.7888
  29   0.0000       0.155005         4.2179
  30   0.0000       0.158097         4.3020
  31   0.0000       0.195448         5.3184

MULLIKEN ATOMIC CHARGES
-----------------------
   0 O :   -0.504271
   1 H :    0.328500
   2 C :   -0.183121
   3 H :    0.128545
   4 H :    0.107440
   5 H :    0.126165
   6 O :   -0.503340
   7 H :    0.326280
   8 C :   -0.182934
   9 H :    0.127810
  10 H :    0.118214
  11 H :    0.115364
  12 O :   -0.508194
  13 H :    0.323275
  14 C :   -0.181905
  15 H :    0.118700
  16 H :    0.130044
  17 H :    0.113428
Sum of atomic charges:   -0.0000000

LOEWDIN ATOMIC CHARGES
----------------------
   0 O :   -0.110754
   1 H :    0.190844
   2 C :   -0.378877
   3 H :    0.108134
   4 H :    0.095132
   5 H :    0.098267
   6 O :   -0.111611
   7 H :    0.193045
   8 C :   -0.383669
   9 H :    0.109344
  10 H :    0.097316
  11 H :    0.096442
  12 O :   -0.115937
  13 H :    0.189258
  14 C :   -0.380018
  15 H :    0.106765
  16 H :    0.100174
  17 H :    0.096145

  Mayer bond orders larger than 0.100000
B(  0-O ,  1-H ) :   0.8390 B(  0-O ,  2-C ) :   0.9217 B(  2-C ,  3-H ) :   0.9376
B(  2-C ,  4-H ) :   0.9399 B(  2-C ,  5-H ) :   0.9389 B(  6-O ,  7-H ) :   0.8397
B(  6-O ,  8-C ) :   0.9199 B(  8-C ,  9-H ) :   0.9375 B(  8-C , 10-H ) :   0.9372
B(  8-C , 11-H ) :   0.9384 B( 12-O , 13-H ) :   0.8419 B( 12-O , 14-C ) :   0.9107
B( 14-C , 15-H ) :   0.9397 B( 14-C , 16-H ) :   0.9395 B( 14-C , 17-H ) :   0.9352

MP2 TOTAL ENERGY:     -346.524776618 Eh
FINAL SINGLE POINT ENERGY      -346.524776618106

DIPOLE MOMENT
-------------
                                X             Y             Z
Electronic contribution:     -0.55014      -0.13838      -2.05686
Nuclear contribution   :      0.32594       0.94974       2.21782
                        -----------------------------------------
Total Dipole Moment    :     -0.22420       0.81136       0.16095
                        -----------------------------------------
Magnitude (a.u.)       :      0.85701
Magnitude (Debye)      :      2.17836

Rotational constants in cm-1:     0.057735     0.033846     0.024334
Rotational constants in MHz :  1730.854889  1014.682772   729.500193

                             ****ORCA TERMINATED NORMALLY****
TOTAL RUN TIME: 0 days 0 hours 1 minutes 13 seconds 373 msec
