                         Program Version 4.2.0 -  RELEASE  -
|  1> # 12h2o.su.etal.mol1,7,9,11
|  2> ! MP2 def2-TZVP EnGrad TightSCF
|  3>
|  4> %pal
|  5>     nprocs 6
|  6> end
|  7>
|  8> %maxcore 8000
|  9>
| 10> %scf
| 11>     ConvForced true
| 12> end
| 13>
| 14> *xyz 0 1
| 15> O  -1.794470000  -0.923410000   2.768350000
| 16> H  -2.338250000  -1.359750000   3.430940000
| 17> H  -0.879480000  -1.303000000   2.865760000
| 18> O  -1.737840000  -0.885520000  -0.052730000
| 19> H  -2.090180000  -1.032320000   0.841890000
| 20> H  -0.839590000  -1.284090000  -0.017130000
| 21> O   0.741530000  -1.752130000   2.896280000
| 22> H   0.920500000  -2.036450000   1.984040000
| 23> H   1.242140000  -0.921210000   2.984230000
| 24> O  -0.741530000   1.752130000   2.896280000
| 25> H  -0.920500000   2.036450000   1.984040000
| 26> H  -1.242140000   0.921210000   2.984230000
| 27> *
| 28>
| 29>                          ****END OF INPUT****

CARTESIAN COORDINATES (ANGSTROEM)
---------------------------------
  O     -1.794470   -0.923410    2.768350
  H     -2.338250   -1.359750    3.430940
  H     -0.879480   -1.303000    2.865760
  O     -1.737840   -0.885520   -0.052730
  H     -2.090180   -1.032320    0.841890
  H     -0.839590   -1.284090   -0.017130
  O      0.741530   -1.752130    2.896280
  H      0.920500   -2.036450    1.984040
  H      1.242140   -0.921210    2.984230
  O     -0.741530    1.752130    2.896280
  H     -0.920500    2.036450    1.984040
  H     -1.242140    0.921210    2.984230

 Total Charge           Charge          ....    0
 Multiplicity           Mult            ....    1
 Number of Electrons    NEL             ....   40
 Basis Dimension        Dim             ....  172

ORBITAL ENERGIES
----------------

  NO   OCC          E(Eh)            E(eV)
   0   2.0000     -20.618754      -561.0648
   1   2.0000     -20.574508      -559.8608
   2   2.0000     -20.544108      -559.0336
   3   2.0000     -20.534187      -558.7636
   4   2.0000      -1.404871       -38.2285
   5   2.0000      -1.361026       -37.0354
   6   2.0000      -1.322666       -35.9916
   7   2.0000      -1.316335       -35.8193
   8   2.0000      -0.760911       -20.7055
   9   2.0000      -0.743250       -20.2249
  10   2.0000      -0.692722       -18.8499
  11   2.0000      -0.686251       -18.6738
  12   2.0000      -0.645338       -17.5605
  13   2.0000      -0.605802       -16.4847
  14   2.0000      -0.572487       -15.5782
  15   2.0000      -0.560114       -15.2415
  16   2.0000      -0.543809       -14.7978
  17   2.0000      -0.516446       -14.0532
  18   2.0000      -0.489420       -13.3178
  19   2.0000      -0.481950       -13.1145
  20   0.0000       0.082312         2.2398
  21   0.0000       0.141994         3.8639
  22   0.0000       0.158333         4.3085
  23   0.0000       0.172138         4.6841
  24   0.0000       0.221003         6.0138

MULLIKEN ATOMIC CHARGES
-----------------------
   0 O :   -0.747765
   1 H :    0.351864
   2 H :    0.378897
   3 O :   -0.684318
   4 H :    0.367682
   5 H :    0.303776
   6 O :   -0.681040
   7 H :    0.353983
   8 H :    0.376294
   9 O :   -0.716216
  10 H :    0.336471
  11 H :    0.360371
Sum of atomic charges:   -0.0000000

LOEWDIN ATOMIC CHARGES
----------------------
   0 O :   -0.311693
   1 H :    0.159933
   2 H :    0.145235
   3 O :   -0.343135
   4 H :    0.148290
   5 H :    0.154949
   6 O :   -0.265582
   7 H :    0.171610
   8 H :    0.183102
   9 O :   -0.351012
  10 H :    0.162725
  11 H :    0.145578

  Mayer bond orders larger than 0.100000
B(  0-O ,  1-H ) :   0.8395 B(  0-O ,  2-H ) :   0.7532 B(  3-O ,  4-H ) :   0.8148
B(  3-O ,  5-H ) :   0.8688 B(  6-O ,  7-H ) :   0.8387 B(  6-O ,  8-H ) :   0.8215
B(  9-O , 10-H ) :   0.8526 B(  9-O , 11-H ) :   0.8151

MP2 TOTAL ENERGY:     -305.278114998 Eh
FINAL SINGLE POINT ENERGY      -305.278114998156

DIPOLE MOMENT
-------------
                                X             Y             Z
Electronic contribution:      0.07770      -0.04871       0.19942
Nuclear contribution   :      0.76337      -1.13309       0.03466
                        -----------------------------------------
Total Dipole Moment    :      0.84108      -1.18180       0.23408
                        -----------------------------------------
Magnitude (a.u.)       :      1.46931
Magnitude (Debye)      :      3.73468

Rotational constants in cm-1:     0.099695     0.090461     0.061178
Rotational constants in MHz :  2988.789947  2711.945552  1834.066521

                             ****ORCA TERMINATED NORMALLY****
TOTAL RUN TIME: 0 days 0 hours 0 minutes 26 seconds 734 msec
