                         Program Version 3.0.3 - RELEASE   -
|  1> ! B3LYP Def2-TZVP def2-TZVP/J RIJCOSX TightSCF Grid4 D3BJ
|  2>
|  3> %pal nprocs 12 end
|  4>
|  5> %scf
|  6>         maxiter 400
|  7> end
|  8>
|  9> * xyz  0  1
| 10> O  1.947631	-2.231361	2.381999
| 11> H  1.388019	-2.622649	1.654987
| 12> H  1.303873	-1.756352	2.978585
| 13> O  2.320459	0.484100	-0.720342
| 14> H  2.244026	1.503086	-0.693792
| 15> H  2.872240	0.203207	0.076254
| 16> O  0.670263	-2.968967	-2.295467
| 17> H  1.152354	-2.061792	-2.581531
| 18> H  1.098226	-3.666273	-2.825786
| 19> O  0.918402	3.349678	1.684387
| 20> H  1.338784	2.644696	2.289210
| 21> H  -0.063647	3.166236	1.674604
| 22> O  2.025679	1.481285	3.164127
| 23> H  2.626867	0.915953	2.609920
| 24> H  1.396693	0.815836	3.546348
| 25> O  -1.933141	-0.115006	-1.694218
| 26> H  -2.033825	-1.091476	-2.046397
| 27> H  -1.159997	-0.196114	-1.035121
| 28> O  1.772323	-0.817555	-2.990342
| 29> H  2.119351	-0.335515	-2.180999
| 30> H  1.045825	-0.218088	-3.324335
| 31> O  -1.422996	0.204606	2.121245
| 32> H  -0.778674	0.043993	1.345263
| 33> H  -1.608404	1.202125	2.035280
| 34> O  -3.294975	-1.013981	0.645290
| 35> H  -2.692078	-0.557738	1.312481
| 36> H  -3.062884	-0.563386	-0.206347
| 37> O  -1.717846	2.716111	1.503256
| 38> H  -2.379298	3.314760	1.896434
| 39> H  -1.980933	2.644639	0.462034
| 40> O  1.817829	3.024409	-0.599716
| 41> H  1.420993	3.184029	0.404960
| 42> H  2.501655	3.708263	-0.725976
| 43> O  0.007314	-0.383870	0.042580
| 44> H  0.168545	-1.381437	0.173333
| 45> H  0.915109	0.008410	-0.236174
| 46> O  0.333353	-2.973768	0.321522
| 47> H  -0.637825	-3.229757	0.381757
| 48> H  0.573068	-3.119652	-0.648174
| 49> O  -2.009392	-2.578358	-2.427389
| 50> H  -2.237756	-3.013625	-1.560270
| 51> H  -1.032487	-2.777699	-2.513846
| 52> O  -0.340482	0.799219	-3.571091
| 53> H  -0.790366	0.786386	-4.436674
| 54> H  -1.033453	0.454926	-2.901123
| 55> O  3.381487	-0.306751	1.556016
| 56> H  4.313031	-0.522062	1.744999
| 57> H  2.825975	-1.141770	1.873191
| 58> O  -0.259151	3.284300	-2.328393
| 59> H  -0.176387	2.477827	-2.899056
| 60> H  0.535446	3.226364	-1.722176
| 61> O  0.329211	-0.588456	3.831346
| 62> H  -0.037245	-0.779008	4.713659
| 63> H  -0.458795	-0.278223	3.249541
| 64> O  -2.322304	2.561852	-0.917575
| 65> H  -1.534179	2.923322	-1.474834
| 66> H  -2.413167	1.628185	-1.226772
| 67> O  -2.299513	-3.307434	0.180263
| 68> H  -2.748578	-2.393546	0.435732
| 69> H  -2.868755	-4.006208	0.550424
| 70> **                         ****END OF INPUT****

CARTESIAN COORDINATES (ANGSTROEM)
---------------------------------
  O      1.947631   -2.231361    2.381999
  H      1.388019   -2.622649    1.654987
  H      1.303873   -1.756352    2.978585
  O      2.320459    0.484100   -0.720342
  H      2.244026    1.503086   -0.693792
  H      2.872240    0.203207    0.076254
  O      0.670263   -2.968967   -2.295467
  H      1.152354   -2.061792   -2.581531
  H      1.098226   -3.666273   -2.825786
  O      0.918402    3.349678    1.684387
  H      1.338784    2.644696    2.289210
  H     -0.063647    3.166236    1.674604
  O      2.025679    1.481285    3.164127
  H      2.626867    0.915953    2.609920
  H      1.396693    0.815836    3.546348
  O     -1.933141   -0.115006   -1.694218
  H     -2.033825   -1.091476   -2.046397
  H     -1.159997   -0.196114   -1.035121
  O      1.772323   -0.817555   -2.990342
  H      2.119351   -0.335515   -2.180999
  H      1.045825   -0.218088   -3.324335
  O     -1.422996    0.204606    2.121245
  H     -0.778674    0.043993    1.345263
  H     -1.608404    1.202125    2.035280
  O     -3.294975   -1.013981    0.645290
  H     -2.692078   -0.557738    1.312481
  H     -3.062884   -0.563386   -0.206347
  O     -1.717846    2.716111    1.503256
  H     -2.379298    3.314760    1.896434
  H     -1.980933    2.644639    0.462034
  O      1.817829    3.024409   -0.599716
  H      1.420993    3.184029    0.404960
  H      2.501655    3.708263   -0.725976
  O      0.007314   -0.383870    0.042580
  H      0.168545   -1.381437    0.173333
  H      0.915109    0.008410   -0.236174
  O      0.333353   -2.973768    0.321522
  H     -0.637825   -3.229757    0.381757
  H      0.573068   -3.119652   -0.648174
  O     -2.009392   -2.578358   -2.427389
  H     -2.237756   -3.013625   -1.560270
  H     -1.032487   -2.777699   -2.513846
  O     -0.340482    0.799219   -3.571091
  H     -0.790366    0.786386   -4.436674
  H     -1.033453    0.454926   -2.901123
  O      3.381487   -0.306751    1.556016
  H      4.313031   -0.522062    1.744999
  H      2.825975   -1.141770    1.873191
  O     -0.259151    3.284300   -2.328393
  H     -0.176387    2.477827   -2.899056
  H      0.535446    3.226364   -1.722176
  O      0.329211   -0.588456    3.831346
  H     -0.037245   -0.779008    4.713659
  H     -0.458795   -0.278223    3.249541
  O     -2.322304    2.561852   -0.917575
  H     -1.534179    2.923322   -1.474834
  H     -2.413167    1.628185   -1.226772
  O     -2.299513   -3.307434    0.180263
  H     -2.748578   -2.393546    0.435732
  H     -2.868755   -4.006208    0.550424

 Total Charge           Charge          ....    0
 Multiplicity           Mult            ....    1
 Number of Electrons    NEL             ....  200
 Basis Dimension        Dim             ....  860

ORBITAL ENERGIES
----------------

  NO   OCC          E(Eh)            E(eV)
   0   2.0000     -19.149276      -521.0783
   1   2.0000     -19.145983      -520.9887
   2   2.0000     -19.145331      -520.9709
   3   2.0000     -19.141370      -520.8631
   4   2.0000     -19.139200      -520.8041
   5   2.0000     -19.134384      -520.6730
   6   2.0000     -19.133870      -520.6591
   7   2.0000     -19.132286      -520.6160
   8   2.0000     -19.131377      -520.5912
   9   2.0000     -19.130819      -520.5760
  10   2.0000     -19.128726      -520.5191
  11   2.0000     -19.127339      -520.4814
  12   2.0000     -19.126418      -520.4563
  13   2.0000     -19.123984      -520.3901
  14   2.0000     -19.123539      -520.3779
  15   2.0000     -19.122371      -520.3462
  16   2.0000     -19.117117      -520.2032
  17   2.0000     -19.110673      -520.0278
  18   2.0000     -19.108405      -519.9661
  19   2.0000     -19.106770      -519.9216
  20   2.0000      -1.043734       -28.4015
  21   2.0000      -1.033540       -28.1241
  22   2.0000      -1.031475       -28.0679
  23   2.0000      -1.028987       -28.0001
  24   2.0000      -1.023028       -27.8380
  25   2.0000      -1.022904       -27.8346
  26   2.0000      -1.018609       -27.7177
  27   2.0000      -1.015146       -27.6235
  28   2.0000      -1.013188       -27.5702
  29   2.0000      -1.011541       -27.5254
  30   2.0000      -1.003661       -27.3110
  31   2.0000      -1.000316       -27.2200
  32   2.0000      -0.995418       -27.0867
  33   2.0000      -0.994625       -27.0651
  34   2.0000      -0.989881       -26.9360
  35   2.0000      -0.987145       -26.8616
  36   2.0000      -0.983787       -26.7702
  37   2.0000      -0.978818       -26.6350
  38   2.0000      -0.973892       -26.5009
  39   2.0000      -0.970625       -26.4120
  40   2.0000      -0.558137       -15.1877
  41   2.0000      -0.554392       -15.0858
  42   2.0000      -0.551571       -15.0090
  43   2.0000      -0.548538       -14.9265
  44   2.0000      -0.546773       -14.8785
  45   2.0000      -0.544939       -14.8285
  46   2.0000      -0.541143       -14.7253
  47   2.0000      -0.538289       -14.6476
  48   2.0000      -0.537444       -14.6246
  49   2.0000      -0.535168       -14.5627
  50   2.0000      -0.532008       -14.4767
  51   2.0000      -0.529921       -14.4199
  52   2.0000      -0.528538       -14.3822
  53   2.0000      -0.525405       -14.2970
  54   2.0000      -0.523470       -14.2443
  55   2.0000      -0.520799       -14.1717
  56   2.0000      -0.519538       -14.1373
  57   2.0000      -0.513610       -13.9760
  58   2.0000      -0.510143       -13.8817
  59   2.0000      -0.509660       -13.8686
  60   2.0000      -0.477302       -12.9880
  61   2.0000      -0.465791       -12.6748
  62   2.0000      -0.457013       -12.4359
  63   2.0000      -0.453175       -12.3315
  64   2.0000      -0.452048       -12.3009
  65   2.0000      -0.444319       -12.0905
  66   2.0000      -0.431477       -11.7411
  67   2.0000      -0.420681       -11.4473
  68   2.0000      -0.415323       -11.3015
  69   2.0000      -0.408249       -11.1090
  70   2.0000      -0.405912       -11.0454
  71   2.0000      -0.397693       -10.8218
  72   2.0000      -0.392139       -10.6706
  73   2.0000      -0.389526       -10.5995
  74   2.0000      -0.387651       -10.5485
  75   2.0000      -0.382976       -10.4213
  76   2.0000      -0.374016       -10.1775
  77   2.0000      -0.369716       -10.0605
  78   2.0000      -0.363356        -9.8874
  79   2.0000      -0.347671        -9.4606
  80   2.0000      -0.339188        -9.2298
  81   2.0000      -0.336880        -9.1670
  82   2.0000      -0.335764        -9.1366
  83   2.0000      -0.334318        -9.0973
  84   2.0000      -0.332965        -9.0604
  85   2.0000      -0.331029        -9.0077
  86   2.0000      -0.328507        -8.9391
  87   2.0000      -0.328088        -8.9277
  88   2.0000      -0.327871        -8.9218
  89   2.0000      -0.324195        -8.8218
  90   2.0000      -0.322098        -8.7647
  91   2.0000      -0.320580        -8.7234
  92   2.0000      -0.319474        -8.6933
  93   2.0000      -0.317882        -8.6500
  94   2.0000      -0.314691        -8.5632
  95   2.0000      -0.313574        -8.5328
  96   2.0000      -0.311425        -8.4743
  97   2.0000      -0.306869        -8.3503
  98   2.0000      -0.299067        -8.1380
  99   2.0000      -0.297683        -8.1004
 100   0.0000      -0.008538        -0.2323
 101   0.0000       0.012888         0.3507
 102   0.0000       0.017020         0.4631
 103   0.0000       0.023808         0.6479
 104   0.0000       0.029418         0.8005

MULLIKEN ATOMIC CHARGES
-----------------------
   0 O :   -0.693152
   1 H :    0.391994
   2 H :    0.359442
   3 O :   -0.768774
   4 H :    0.384554
   5 H :    0.379292
   6 O :   -0.752344
   7 H :    0.378219
   8 H :    0.337291
   9 O :   -0.695039
  10 H :    0.393940
  11 H :    0.362701
  12 O :   -0.710237
  13 H :    0.354003
  14 H :    0.350637
  15 O :   -0.845529
  16 H :    0.399832
  17 H :    0.382253
  18 O :   -0.694147
  19 H :    0.391574
  20 H :    0.368596
  21 O :   -0.776515
  22 H :    0.385278
  23 H :    0.383140
  24 O :   -0.687253
  25 H :    0.383697
  26 H :    0.355172
  27 O :   -0.753063
  28 H :    0.337139
  29 H :    0.382470
  30 O :   -0.757651
  31 H :    0.378695
  32 H :    0.335379
  33 O :   -0.797632
  34 H :    0.361298
  35 H :    0.387106
  36 O :   -0.750097
  37 H :    0.379870
  38 H :    0.376673
  39 O :   -0.689329
  40 H :    0.350548
  41 H :    0.353126
  42 O :   -0.724007
  43 H :    0.338904
  44 H :    0.375693
  45 O :   -0.739929
  46 H :    0.335695
  47 H :    0.377057
  48 O :   -0.703714
  49 H :    0.351027
  50 H :    0.360320
  51 O :   -0.728280
  52 H :    0.334015
  53 H :    0.388545
  54 O :   -0.699802
  55 H :    0.387790
  56 H :    0.364937
  57 O :   -0.743781
  58 H :    0.375522
  59 H :    0.336854
Sum of atomic charges:   -0.0000000

LOEWDIN ATOMIC CHARGES
----------------------
   0 O :   -0.268454
   1 H :    0.150666
   2 H :    0.146226
   3 O :   -0.284884
   4 H :    0.140747
   5 H :    0.141957
   6 O :   -0.315036
   7 H :    0.140513
   8 H :    0.159425
   9 O :   -0.251866
  10 H :    0.148378
  11 H :    0.143018
  12 O :   -0.302101
  13 H :    0.143097
  14 H :    0.142723
  15 O :   -0.331669
  16 H :    0.139310
  17 H :    0.127219
  18 O :   -0.261464
  19 H :    0.149656
  20 H :    0.147397
  21 O :   -0.289249
  22 H :    0.134597
  23 H :    0.142331
  24 O :   -0.265826
  25 H :    0.147264
  26 H :    0.148681
  27 O :   -0.311365
  28 H :    0.159342
  29 H :    0.139696
  30 O :   -0.316759
  31 H :    0.135163
  32 H :    0.156381
  33 O :   -0.285615
  34 H :    0.133438
  35 H :    0.135462
  36 O :   -0.288398
  37 H :    0.144476
  38 H :    0.143273
  39 O :   -0.282327
  40 H :    0.142880
  41 H :    0.141358
  42 O :   -0.292815
  43 H :    0.165625
  44 H :    0.144315
  45 O :   -0.306394
  46 H :    0.160109
  47 H :    0.142437
  48 O :   -0.296188
  49 H :    0.141921
  50 H :    0.142270
  51 O :   -0.300589
  52 H :    0.161863
  53 H :    0.143217
  54 O :   -0.263242
  55 H :    0.149103
  56 H :    0.146666
  57 O :   -0.311178
  58 H :    0.142387
  59 H :    0.160832

  Mayer bond orders larger than 0.1
B(  0-O ,  1-H ) :   0.8072 B(  0-O ,  2-H ) :   0.8103 B(  0-O , 47-H ) :   0.2292
B(  2-H , 51-O ) :   0.1028 B(  3-O ,  4-H ) :   0.7309 B(  3-O ,  5-H ) :   0.7648
B(  3-O , 35-H ) :   0.2162 B(  4-H , 30-O ) :   0.1695 B(  5-H , 45-O ) :   0.1359
B(  6-O ,  7-H ) :   0.6535 B(  6-O ,  8-H ) :   0.8867 B(  6-O , 38-H ) :   0.1401
B(  6-O , 41-H ) :   0.1197 B(  7-H , 18-O ) :   0.2588 B(  9-O , 10-H ) :   0.7503
B(  9-O , 11-H ) :   0.8015 B(  9-O , 31-H ) :   0.3011 B( 10-H , 12-O ) :   0.1404
B( 11-H , 27-O ) :   0.1094 B( 12-O , 13-H ) :   0.8224 B( 12-O , 14-H ) :   0.8268
B( 15-O , 16-H ) :   0.6899 B( 15-O , 17-H ) :   0.7375 B( 15-O , 44-H ) :   0.1476
B( 16-H , 39-O ) :   0.2128 B( 17-H , 33-O ) :   0.1291 B( 18-O , 19-H ) :   0.7918
B( 18-O , 20-H ) :   0.8087 B( 21-O , 22-H ) :   0.7497 B( 21-O , 23-H ) :   0.7438
B( 21-O , 25-H ) :   0.1174 B( 21-O , 53-H ) :   0.1466 B( 22-H , 33-O ) :   0.1324
B( 23-H , 27-O ) :   0.1591 B( 24-O , 25-H ) :   0.7813 B( 24-O , 26-H ) :   0.8395
B( 24-O , 58-H ) :   0.2229 B( 27-O , 28-H ) :   0.8862 B( 27-O , 29-H ) :   0.6427
B( 29-H , 54-O ) :   0.2642 B( 30-O , 31-H ) :   0.6159 B( 30-O , 32-H ) :   0.8876
B( 30-O , 50-H ) :   0.1161 B( 33-O , 34-H ) :   0.7274 B( 33-O , 35-H ) :   0.6949
B( 34-H , 36-O ) :   0.1949 B( 36-O , 37-H ) :   0.7768 B( 36-O , 38-H ) :   0.7697
B( 37-H , 57-O ) :   0.1253 B( 39-O , 40-H ) :   0.8194 B( 39-O , 41-H ) :   0.8074
B( 40-H , 57-O ) :   0.1081 B( 42-O , 43-H ) :   0.8851 B( 42-O , 44-H ) :   0.7400
B( 45-O , 46-H ) :   0.8873 B( 45-O , 47-H ) :   0.6821 B( 48-O , 49-H ) :   0.8363
B( 48-O , 50-H ) :   0.8006 B( 48-O , 55-H ) :   0.1847 B( 51-O , 52-H ) :   0.8870
B( 51-O , 53-H ) :   0.7348 B( 54-O , 55-H ) :   0.7243 B( 54-O , 56-H ) :   0.8433
B( 57-O , 58-H ) :   0.6866 B( 57-O , 59-H ) :   0.8854

Dispersion correction           -0.078838061
FINAL SINGLE POINT ENERGY     -1528.910680040870

DIPOLE MOMENT
-------------
                                X             Y             Z
Electronic contribution:      0.02340       0.31399       0.02675
Nuclear contribution   :      0.21895      -1.74815       0.32846
                        -----------------------------------------
Total Dipole Moment    :      0.24235      -1.43416       0.35521
                        -----------------------------------------
Magnitude (a.u.)       :      1.49724
Magnitude (Debye)      :      3.80568

                             ****ORCA TERMINATED NORMALLY****
TOTAL RUN TIME: 0 days 0 hours 2 minutes 36 seconds 8 msec
