                         Program Version 3.0.3 - RELEASE   -
|  1> ! wB97X-D3 Def2-TZVP def2-TZVP/J RIJCOSX TightSCF Grid4 COSMO
|  2>
|  3> %pal nprocs 12 end
|  4>
|  5> %scf
|  6>         maxiter 400
|  7> end
|  8>
|  9> %cosmo
| 10>         SMD true
| 11>         solvent "WATER"
| 12> end
| 13>
| 14> * xyz  0  1
| 15> O  1.879358	-2.256453	2.296421
| 16> H  1.340401	-2.607722	1.552029
| 17> H  1.230961	-1.879192	2.936947
| 18> O  2.505983	0.552606	-0.876909
| 19> H  2.339263	1.532786	-0.826335
| 20> H  2.876961	0.311372	0.012159
| 21> O  0.592977	-3.135349	-2.462016
| 22> H  1.106032	-2.300750	-2.700559
| 23> H  1.013682	-3.857560	-2.952804
| 24> O  0.908085	3.308261	1.811113
| 25> H  1.156317	2.593924	2.452660
| 26> H  -0.071489	3.255812	1.730605
| 27> O  1.822719	1.436287	3.543729
| 28> H  2.366750	0.966465	2.868093
| 29> H  1.247121	0.722002	3.888780
| 30> O  -2.055923	-0.106922	-1.582871
| 31> H  -2.177744	-1.027197	-1.967216
| 32> H  -1.223137	-0.196829	-1.039148
| 33> O  1.790126	-0.889294	-3.061350
| 34> H  2.188611	-0.416362	-2.295360
| 35> H  1.029678	-0.309326	-3.304274
| 36> O  -1.033955	0.394868	2.074713
| 37> H  -0.465213	0.224726	1.276365
| 38> H  -1.340238	1.335634	1.979905
| 39> O  -3.035105	-0.989673	0.919729
| 40> H  -2.349184	-0.514895	1.454660
| 41> H  -2.959043	-0.573898	0.037032
| 42> O  -1.749549	2.876114	1.472608
| 43> H  -2.466164	3.329979	1.941501
| 44> H  -2.026825	2.825465	0.505548
| 45> O  1.858213	3.115326	-0.608314
| 46> H  1.513706	3.193686	0.339045
| 47> H  2.566738	3.772201	-0.688868
| 48> O  0.138475	-0.378671	-0.122155
| 49> H  0.258883	-1.358690	0.027710
| 50> H  1.006457	-0.029533	-0.470403
| 51> O  0.326175	-3.007881	0.183041
| 52> H  -0.625567	-3.273096	0.281406
| 53> H  0.541530	-3.195401	-0.768337
| 54> O  -2.121641	-2.628549	-2.421757
| 55> H  -2.318546	-3.055742	-1.556379
| 56> H  -1.168865	-2.840975	-2.566421
| 57> O  -0.336467	0.761199	-3.482027
| 58> H  -0.715471	0.735576	-4.375684
| 59> H  -1.069135	0.462658	-2.886322
| 60> O  3.142162	-0.038460	1.643327
| 61> H  4.074997	-0.153959	1.883585
| 62> H  2.704227	-0.919761	1.860419
| 63> O  -0.168451	3.317555	-2.496199
| 64> H  -0.131581	2.448541	-2.956545
| 65> H  0.577554	3.271862	-1.852469
| 66> O  0.273483	-0.837931	3.970160
| 67> H  -0.289800	-1.140865	4.698322
| 68> H  -0.332083	-0.366904	3.334042
| 69> O  -2.360521	2.669926	-1.077433
| 70> H  -1.568108	2.979428	-1.596409
| 71> H  -2.452675	1.726851	-1.317051
| 72> O  -2.304871	-3.412195	0.183756
| 73> H  -2.634906	-2.545781	0.567255
| 74> H  -2.789872	-4.115368	0.642061
| 75> **                         ****END OF INPUT****

CARTESIAN COORDINATES (ANGSTROEM)
---------------------------------
  O      1.879358   -2.256453    2.296421
  H      1.340401   -2.607722    1.552029
  H      1.230961   -1.879192    2.936947
  O      2.505983    0.552606   -0.876909
  H      2.339263    1.532786   -0.826335
  H      2.876961    0.311372    0.012159
  O      0.592977   -3.135349   -2.462016
  H      1.106032   -2.300750   -2.700559
  H      1.013682   -3.857560   -2.952804
  O      0.908085    3.308261    1.811113
  H      1.156317    2.593924    2.452660
  H     -0.071489    3.255812    1.730605
  O      1.822719    1.436287    3.543729
  H      2.366750    0.966465    2.868093
  H      1.247121    0.722002    3.888780
  O     -2.055923   -0.106922   -1.582871
  H     -2.177744   -1.027197   -1.967216
  H     -1.223137   -0.196829   -1.039148
  O      1.790126   -0.889294   -3.061350
  H      2.188611   -0.416362   -2.295360
  H      1.029678   -0.309326   -3.304274
  O     -1.033955    0.394868    2.074713
  H     -0.465213    0.224726    1.276365
  H     -1.340238    1.335634    1.979905
  O     -3.035105   -0.989673    0.919729
  H     -2.349184   -0.514895    1.454660
  H     -2.959043   -0.573898    0.037032
  O     -1.749549    2.876114    1.472608
  H     -2.466164    3.329979    1.941501
  H     -2.026825    2.825465    0.505548
  O      1.858213    3.115326   -0.608314
  H      1.513706    3.193686    0.339045
  H      2.566738    3.772201   -0.688868
  O      0.138475   -0.378671   -0.122155
  H      0.258883   -1.358690    0.027710
  H      1.006457   -0.029533   -0.470403
  O      0.326175   -3.007881    0.183041
  H     -0.625567   -3.273096    0.281406
  H      0.541530   -3.195401   -0.768337
  O     -2.121641   -2.628549   -2.421757
  H     -2.318546   -3.055742   -1.556379
  H     -1.168865   -2.840975   -2.566421
  O     -0.336467    0.761199   -3.482027
  H     -0.715471    0.735576   -4.375684
  H     -1.069135    0.462658   -2.886322
  O      3.142162   -0.038460    1.643327
  H      4.074997   -0.153959    1.883585
  H      2.704227   -0.919761    1.860419
  O     -0.168451    3.317555   -2.496199
  H     -0.131581    2.448541   -2.956545
  H      0.577554    3.271862   -1.852469
  O      0.273483   -0.837931    3.970160
  H     -0.289800   -1.140865    4.698322
  H     -0.332083   -0.366904    3.334042
  O     -2.360521    2.669926   -1.077433
  H     -1.568108    2.979428   -1.596409
  H     -2.452675    1.726851   -1.317051
  O     -2.304871   -3.412195    0.183756
  H     -2.634906   -2.545781    0.567255
  H     -2.789872   -4.115368    0.642061

 Total Charge           Charge          ....    0
 Multiplicity           Mult            ....    1
 Number of Electrons    NEL             ....  200
 Basis Dimension        Dim             ....  860

ORBITAL ENERGIES
----------------

  NO   OCC          E(Eh)            E(eV)
   0   2.0000     -19.248024      -523.7654
   1   2.0000     -19.240877      -523.5709
   2   2.0000     -19.240088      -523.5494
   3   2.0000     -19.239891      -523.5441
   4   2.0000     -19.239879      -523.5437
   5   2.0000     -19.238650      -523.5103
   6   2.0000     -19.237744      -523.4856
   7   2.0000     -19.237443      -523.4774
   8   2.0000     -19.237088      -523.4678
   9   2.0000     -19.233565      -523.3719
  10   2.0000     -19.231922      -523.3272
  11   2.0000     -19.231597      -523.3184
  12   2.0000     -19.229696      -523.2666
  13   2.0000     -19.229609      -523.2643
  14   2.0000     -19.228793      -523.2421
  15   2.0000     -19.226344      -523.1754
  16   2.0000     -19.225288      -523.1467
  17   2.0000     -19.224437      -523.1235
  18   2.0000     -19.222554      -523.0723
  19   2.0000     -19.222301      -523.0654
  20   2.0000      -1.157601       -31.4999
  21   2.0000      -1.146164       -31.1887
  22   2.0000      -1.143652       -31.1204
  23   2.0000      -1.142223       -31.0815
  24   2.0000      -1.136666       -30.9302
  25   2.0000      -1.136117       -30.9153
  26   2.0000      -1.134437       -30.8696
  27   2.0000      -1.130861       -30.7723
  28   2.0000      -1.128469       -30.7072
  29   2.0000      -1.127270       -30.6746
  30   2.0000      -1.122357       -30.5409
  31   2.0000      -1.119478       -30.4626
  32   2.0000      -1.116775       -30.3890
  33   2.0000      -1.115020       -30.3412
  34   2.0000      -1.107950       -30.1489
  35   2.0000      -1.105444       -30.0807
  36   2.0000      -1.104140       -30.0452
  37   2.0000      -1.102834       -30.0096
  38   2.0000      -1.099538       -29.9200
  39   2.0000      -1.099321       -29.9140
  40   2.0000      -0.658039       -17.9061
  41   2.0000      -0.653198       -17.7744
  42   2.0000      -0.652329       -17.7508
  43   2.0000      -0.650297       -17.6955
  44   2.0000      -0.643941       -17.5225
  45   2.0000      -0.643321       -17.5057
  46   2.0000      -0.642094       -17.4723
  47   2.0000      -0.640358       -17.4250
  48   2.0000      -0.639207       -17.3937
  49   2.0000      -0.637607       -17.3502
  50   2.0000      -0.636732       -17.3264
  51   2.0000      -0.634965       -17.2783
  52   2.0000      -0.631420       -17.1818
  53   2.0000      -0.628645       -17.1063
  54   2.0000      -0.628119       -17.0920
  55   2.0000      -0.627331       -17.0705
  56   2.0000      -0.626418       -17.0457
  57   2.0000      -0.624622       -16.9968
  58   2.0000      -0.622896       -16.9499
  59   2.0000      -0.614028       -16.7085
  60   2.0000      -0.569071       -15.4852
  61   2.0000      -0.559123       -15.2145
  62   2.0000      -0.554359       -15.0849
  63   2.0000      -0.549185       -14.9441
  64   2.0000      -0.544332       -14.8120
  65   2.0000      -0.543348       -14.7853
  66   2.0000      -0.523935       -14.2570
  67   2.0000      -0.520072       -14.1519
  68   2.0000      -0.517302       -14.0765
  69   2.0000      -0.507839       -13.8190
  70   2.0000      -0.501519       -13.6470
  71   2.0000      -0.497454       -13.5364
  72   2.0000      -0.494465       -13.4551
  73   2.0000      -0.492806       -13.4099
  74   2.0000      -0.489295       -13.3144
  75   2.0000      -0.483761       -13.1638
  76   2.0000      -0.474533       -12.9127
  77   2.0000      -0.470989       -12.8163
  78   2.0000      -0.465925       -12.6785
  79   2.0000      -0.454004       -12.3541
  80   2.0000      -0.433879       -11.8065
  81   2.0000      -0.431276       -11.7356
  82   2.0000      -0.430797       -11.7226
  83   2.0000      -0.428901       -11.6710
  84   2.0000      -0.428711       -11.6658
  85   2.0000      -0.427078       -11.6214
  86   2.0000      -0.425187       -11.5699
  87   2.0000      -0.424051       -11.5390
  88   2.0000      -0.423243       -11.5170
  89   2.0000      -0.422747       -11.5035
  90   2.0000      -0.422174       -11.4879
  91   2.0000      -0.420844       -11.4518
  92   2.0000      -0.419158       -11.4059
  93   2.0000      -0.418941       -11.4000
  94   2.0000      -0.416570       -11.3354
  95   2.0000      -0.415295       -11.3008
  96   2.0000      -0.414018       -11.2660
  97   2.0000      -0.412178       -11.2159
  98   2.0000      -0.411827       -11.2064
  99   2.0000      -0.409559       -11.1447
 100   0.0000       0.081997         2.2312
 101   0.0000       0.116999         3.1837
 102   0.0000       0.119599         3.2545
 103   0.0000       0.128109         3.4860
 104   0.0000       0.145348         3.9551

MULLIKEN ATOMIC CHARGES
-----------------------
   0 O :   -0.761160
   1 H :    0.396507
   2 H :    0.372504
   3 O :   -0.781751
   4 H :    0.393618
   5 H :    0.386538
   6 O :   -0.775074
   7 H :    0.385519
   8 H :    0.406813
   9 O :   -0.765108
  10 H :    0.371838
  11 H :    0.380176
  12 O :   -0.762484
  13 H :    0.371123
  14 H :    0.366553
  15 O :   -0.831183
  16 H :    0.414152
  17 H :    0.361649
  18 O :   -0.763199
  19 H :    0.394509
  20 H :    0.378627
  21 O :   -0.786092
  22 H :    0.368522
  23 H :    0.395470
  24 O :   -0.763233
  25 H :    0.388076
  26 H :    0.376305
  27 O :   -0.771971
  28 H :    0.409217
  29 H :    0.386716
  30 O :   -0.772597
  31 H :    0.384790
  32 H :    0.406083
  33 O :   -0.766453
  34 H :    0.352144
  35 H :    0.369689
  36 O :   -0.776105
  37 H :    0.391011
  38 H :    0.391300
  39 O :   -0.765588
  40 H :    0.378370
  41 H :    0.373135
  42 O :   -0.753829
  43 H :    0.411495
  44 H :    0.371453
  45 O :   -0.762799
  46 H :    0.406586
  47 H :    0.379466
  48 O :   -0.767925
  49 H :    0.375680
  50 H :    0.374807
  51 O :   -0.774773
  52 H :    0.403756
  53 H :    0.400149
  54 O :   -0.764783
  55 H :    0.381355
  56 H :    0.386541
  57 O :   -0.772802
  58 H :    0.387561
  59 H :    0.409105
Sum of atomic charges:   -0.0000000

LOEWDIN ATOMIC CHARGES
----------------------
   0 O :   -0.314217
   1 H :    0.141452
   2 H :    0.139992
   3 O :   -0.296195
   4 H :    0.138826
   5 H :    0.139467
   6 O :   -0.283195
   7 H :    0.142119
   8 H :    0.185656
   9 O :   -0.316864
  10 H :    0.139307
  11 H :    0.137970
  12 O :   -0.332710
  13 H :    0.139266
  14 H :    0.142363
  15 O :   -0.311604
  16 H :    0.142312
  17 H :    0.125472
  18 O :   -0.312527
  19 H :    0.142211
  20 H :    0.140400
  21 O :   -0.274884
  22 H :    0.127868
  23 H :    0.139044
  24 O :   -0.311636
  25 H :    0.138907
  26 H :    0.144582
  27 O :   -0.272744
  28 H :    0.187570
  29 H :    0.144873
  30 O :   -0.278136
  31 H :    0.140968
  32 H :    0.185204
  33 O :   -0.268658
  34 H :    0.131890
  35 H :    0.134079
  36 O :   -0.288611
  37 H :    0.140412
  38 H :    0.141951
  39 O :   -0.320095
  40 H :    0.142549
  41 H :    0.142979
  42 O :   -0.262585
  43 H :    0.192312
  44 H :    0.142546
  45 O :   -0.271809
  46 H :    0.186339
  47 H :    0.143190
  48 O :   -0.332855
  49 H :    0.139864
  50 H :    0.143041
  51 O :   -0.293650
  52 H :    0.185784
  53 H :    0.139056
  54 O :   -0.312997
  55 H :    0.141548
  56 H :    0.147010
  57 O :   -0.277695
  58 H :    0.145276
  59 H :    0.188012

  Mayer bond orders larger than 0.1
B(  0-O ,  1-H ) :   0.8090 B(  0-O ,  2-H ) :   0.8029 B(  0-O , 47-H ) :   0.1495
B(  2-H , 51-O ) :   0.1020 B(  3-O ,  4-H ) :   0.7676 B(  3-O ,  5-H ) :   0.7760
B(  3-O , 35-H ) :   0.1825 B(  4-H , 30-O ) :   0.1242 B(  5-H , 45-O ) :   0.1211
B(  6-O ,  7-H ) :   0.7471 B(  6-O ,  8-H ) :   0.8403 B(  6-O , 38-H ) :   0.1241
B(  7-H , 18-O ) :   0.1478 B(  9-O , 10-H ) :   0.7924 B(  9-O , 11-H ) :   0.8025
B(  9-O , 31-H ) :   0.1579 B( 10-H , 12-O ) :   0.1172 B( 12-O , 13-H ) :   0.8059
B( 12-O , 14-H ) :   0.8222 B( 13-H , 45-O ) :   0.1049 B( 15-O , 16-H ) :   0.7441
B( 15-O , 17-H ) :   0.7674 B( 15-O , 44-H ) :   0.1051 B( 16-H , 39-O ) :   0.1364
B( 17-H , 33-O ) :   0.1231 B( 18-O , 19-H ) :   0.8100 B( 18-O , 20-H ) :   0.8058
B( 21-O , 22-H ) :   0.7778 B( 21-O , 23-H ) :   0.7651 B( 21-O , 25-H ) :   0.1095
B( 22-H , 33-O ) :   0.1190 B( 23-H , 27-O ) :   0.1240 B( 24-O , 25-H ) :   0.7864
B( 24-O , 26-H ) :   0.8311 B( 24-O , 58-H ) :   0.1265 B( 27-O , 28-H ) :   0.8378
B( 27-O , 29-H ) :   0.7502 B( 29-H , 54-O ) :   0.1431 B( 30-O , 31-H ) :   0.7407
B( 30-O , 32-H ) :   0.8410 B( 33-O , 34-H ) :   0.7553 B( 33-O , 35-H ) :   0.7436
B( 34-H , 36-O ) :   0.1730 B( 36-O , 37-H ) :   0.7708 B( 36-O , 38-H ) :   0.7730
B( 37-H , 57-O ) :   0.1228 B( 39-O , 40-H ) :   0.8076 B( 39-O , 41-H ) :   0.8086
B( 42-O , 43-H ) :   0.8364 B( 42-O , 44-H ) :   0.7884 B( 45-O , 46-H ) :   0.8405
B( 45-O , 47-H ) :   0.7516 B( 48-O , 49-H ) :   0.8144 B( 48-O , 50-H ) :   0.8110
B( 48-O , 55-H ) :   0.1348 B( 51-O , 52-H ) :   0.8417 B( 51-O , 53-H ) :   0.7753
B( 54-O , 55-H ) :   0.7736 B( 54-O , 56-H ) :   0.8358 B( 57-O , 58-H ) :   0.7611
B( 57-O , 59-H ) :   0.8373

Dispersion correction           -0.041595749
FINAL SINGLE POINT ENERGY     -1529.213352442070

DIPOLE MOMENT
-------------
                                X             Y             Z
Electronic contribution:      0.06027      -0.20781      -0.00567
Nuclear contribution   :     -0.14843      -2.07455       0.27835
                        -----------------------------------------
Total Dipole Moment    :     -0.08816      -2.28236       0.27268
                        -----------------------------------------
Magnitude (a.u.)       :      2.30028
Magnitude (Debye)      :      5.84684

                             ****ORCA TERMINATED NORMALLY****
TOTAL RUN TIME: 0 days 0 hours 2 minutes 57 seconds 311 msec
