                         Program Version 3.0.3 - RELEASE   -
|  1> ! wB97X-D3 MA-Def2-TZVP def2-TZVP/J RIJCOSX TightSCF Grid4
|  2>
|  3> %pal nprocs 1 end
|  4>
|  5> %scf
|  6>         maxiter 400
|  7> end
|  8>
|  9> %cosmo
| 10>         SMD true
| 11>         solvent "WATER"
| 12> end
| 13>
| 14> * xyz  0  1
| 15> O  1.879358	-2.256453	2.296421
| 16> H  1.340401	-2.607722	1.552029
| 17> H  1.230961	-1.879192	2.936947
| 18> O  2.505983	0.552606	-0.876909
| 19> H  2.339263	1.532786	-0.826335
| 20> H  2.876961	0.311372	0.012159
| 21> O  0.592977	-3.135349	-2.462016
| 22> H  1.106032	-2.300750	-2.700559
| 23> H  1.013682	-3.857560	-2.952804
| 24> O  0.908085	3.308261	1.811113
| 25> H  1.156317	2.593924	2.452660
| 26> H  -0.071489	3.255812	1.730605
| 27> O  1.822719	1.436287	3.543729
| 28> H  2.366750	0.966465	2.868093
| 29> H  1.247121	0.722002	3.888780
| 30> O  -2.055923	-0.106922	-1.582871
| 31> H  -2.177744	-1.027197	-1.967216
| 32> H  -1.223137	-0.196829	-1.039148
| 33> O  1.790126	-0.889294	-3.061350
| 34> H  2.188611	-0.416362	-2.295360
| 35> H  1.029678	-0.309326	-3.304274
| 36> O  -1.033955	0.394868	2.074713
| 37> H  -0.465213	0.224726	1.276365
| 38> H  -1.340238	1.335634	1.979905
| 39> O  -3.035105	-0.989673	0.919729
| 40> H  -2.349184	-0.514895	1.454660
| 41> H  -2.959043	-0.573898	0.037032
| 42> O  -1.749549	2.876114	1.472608
| 43> H  -2.466164	3.329979	1.941501
| 44> H  -2.026825	2.825465	0.505548
| 45> O  1.858213	3.115326	-0.608314
| 46> H  1.513706	3.193686	0.339045
| 47> H  2.566738	3.772201	-0.688868
| 48> O  0.138475	-0.378671	-0.122155
| 49> H  0.258883	-1.358690	0.027710
| 50> H  1.006457	-0.029533	-0.470403
| 51> O  0.326175	-3.007881	0.183041
| 52> H  -0.625567	-3.273096	0.281406
| 53> H  0.541530	-3.195401	-0.768337
| 54> O  -2.121641	-2.628549	-2.421757
| 55> H  -2.318546	-3.055742	-1.556379
| 56> H  -1.168865	-2.840975	-2.566421
| 57> O  -0.336467	0.761199	-3.482027
| 58> H  -0.715471	0.735576	-4.375684
| 59> H  -1.069135	0.462658	-2.886322
| 60> O  3.142162	-0.038460	1.643327
| 61> H  4.074997	-0.153959	1.883585
| 62> H  2.704227	-0.919761	1.860419
| 63> O  -0.168451	3.317555	-2.496199
| 64> H  -0.131581	2.448541	-2.956545
| 65> H  0.577554	3.271862	-1.852469
| 66> O  0.273483	-0.837931	3.970160
| 67> H  -0.289800	-1.140865	4.698322
| 68> H  -0.332083	-0.366904	3.334042
| 69> O  -2.360521	2.669926	-1.077433
| 70> H  -1.568108	2.979428	-1.596409
| 71> H  -2.452675	1.726851	-1.317051
| 72> O  -2.304871	-3.412195	0.183756
| 73> H  -2.634906	-2.545781	0.567255
| 74> H  -2.789872	-4.115368	0.642061
| 75> **                         ****END OF INPUT****

CARTESIAN COORDINATES (ANGSTROEM)
---------------------------------
  O      1.879358   -2.256453    2.296421
  H      1.340401   -2.607722    1.552029
  H      1.230961   -1.879192    2.936947
  O      2.505983    0.552606   -0.876909
  H      2.339263    1.532786   -0.826335
  H      2.876961    0.311372    0.012159
  O      0.592977   -3.135349   -2.462016
  H      1.106032   -2.300750   -2.700559
  H      1.013682   -3.857560   -2.952804
  O      0.908085    3.308261    1.811113
  H      1.156317    2.593924    2.452660
  H     -0.071489    3.255812    1.730605
  O      1.822719    1.436287    3.543729
  H      2.366750    0.966465    2.868093
  H      1.247121    0.722002    3.888780
  O     -2.055923   -0.106922   -1.582871
  H     -2.177744   -1.027197   -1.967216
  H     -1.223137   -0.196829   -1.039148
  O      1.790126   -0.889294   -3.061350
  H      2.188611   -0.416362   -2.295360
  H      1.029678   -0.309326   -3.304274
  O     -1.033955    0.394868    2.074713
  H     -0.465213    0.224726    1.276365
  H     -1.340238    1.335634    1.979905
  O     -3.035105   -0.989673    0.919729
  H     -2.349184   -0.514895    1.454660
  H     -2.959043   -0.573898    0.037032
  O     -1.749549    2.876114    1.472608
  H     -2.466164    3.329979    1.941501
  H     -2.026825    2.825465    0.505548
  O      1.858213    3.115326   -0.608314
  H      1.513706    3.193686    0.339045
  H      2.566738    3.772201   -0.688868
  O      0.138475   -0.378671   -0.122155
  H      0.258883   -1.358690    0.027710
  H      1.006457   -0.029533   -0.470403
  O      0.326175   -3.007881    0.183041
  H     -0.625567   -3.273096    0.281406
  H      0.541530   -3.195401   -0.768337
  O     -2.121641   -2.628549   -2.421757
  H     -2.318546   -3.055742   -1.556379
  H     -1.168865   -2.840975   -2.566421
  O     -0.336467    0.761199   -3.482027
  H     -0.715471    0.735576   -4.375684
  H     -1.069135    0.462658   -2.886322
  O      3.142162   -0.038460    1.643327
  H      4.074997   -0.153959    1.883585
  H      2.704227   -0.919761    1.860419
  O     -0.168451    3.317555   -2.496199
  H     -0.131581    2.448541   -2.956545
  H      0.577554    3.271862   -1.852469
  O      0.273483   -0.837931    3.970160
  H     -0.289800   -1.140865    4.698322
  H     -0.332083   -0.366904    3.334042
  O     -2.360521    2.669926   -1.077433
  H     -1.568108    2.979428   -1.596409
  H     -2.452675    1.726851   -1.317051
  O     -2.304871   -3.412195    0.183756
  H     -2.634906   -2.545781    0.567255
  H     -2.789872   -4.115368    0.642061

 Total Charge           Charge          ....    0
 Multiplicity           Mult            ....    1
 Number of Electrons    NEL             ....  200
 Basis Dimension        Dim             ....  940
Dispersion correction           -0.041595749
FINAL SINGLE POINT ENERGY     -1529.222428929002
                             ****ORCA TERMINATED NORMALLY****
TOTAL RUN TIME: 0 days 0 hours 53 minutes 20 seconds 181 msec

ORBITAL ENERGIES
----------------

  NO   OCC          E(Eh)            E(eV)
   0   2.0000     -19.249357      -523.8016
   1   2.0000     -19.242622      -523.6184
   2   2.0000     -19.241955      -523.6002
   3   2.0000     -19.241508      -523.5880
   4   2.0000     -19.241116      -523.5774
   5   2.0000     -19.239561      -523.5351
   6   2.0000     -19.239421      -523.5312
   7   2.0000     -19.239269      -523.5271
   8   2.0000     -19.239000      -523.5198
   9   2.0000     -19.235000      -523.4110
  10   2.0000     -19.233689      -523.3753
  11   2.0000     -19.233298      -523.3647
  12   2.0000     -19.232033      -523.3302
  13   2.0000     -19.231295      -523.3101
  14   2.0000     -19.230921      -523.3000
  15   2.0000     -19.228847      -523.2435
  16   2.0000     -19.227766      -523.2141
  17   2.0000     -19.227114      -523.1964
  18   2.0000     -19.225431      -523.1506
  19   2.0000     -19.225264      -523.1460
  20   2.0000      -1.158436       -31.5227
  21   2.0000      -1.147091       -31.2139
  22   2.0000      -1.144784       -31.1511
  23   2.0000      -1.143293       -31.1106
  24   2.0000      -1.137837       -30.9621
  25   2.0000      -1.137095       -30.9419
  26   2.0000      -1.135511       -30.8988
  27   2.0000      -1.131976       -30.8026
  28   2.0000      -1.129512       -30.7356
  29   2.0000      -1.128408       -30.7055
  30   2.0000      -1.123820       -30.5807
  31   2.0000      -1.120620       -30.4936
  32   2.0000      -1.118295       -30.4304
  33   2.0000      -1.116190       -30.3731
  34   2.0000      -1.109250       -30.1842
  35   2.0000      -1.106562       -30.1111
  36   2.0000      -1.105218       -30.0745
  37   2.0000      -1.104157       -30.0456
  38   2.0000      -1.101139       -29.9635
  39   2.0000      -1.100379       -29.9428
  40   2.0000      -0.658821       -17.9274
  41   2.0000      -0.654031       -17.7971
  42   2.0000      -0.653282       -17.7767
  43   2.0000      -0.651138       -17.7184
  44   2.0000      -0.645058       -17.5529
  45   2.0000      -0.644265       -17.5313
  46   2.0000      -0.643129       -17.5004
  47   2.0000      -0.641377       -17.4528
  48   2.0000      -0.640223       -17.4214
  49   2.0000      -0.638678       -17.3793
  50   2.0000      -0.637699       -17.3527
  51   2.0000      -0.635984       -17.3060
  52   2.0000      -0.632573       -17.2132
  53   2.0000      -0.629795       -17.1376
  54   2.0000      -0.629278       -17.1235
  55   2.0000      -0.628478       -17.1018
  56   2.0000      -0.627600       -17.0779
  57   2.0000      -0.625569       -17.0226
  58   2.0000      -0.624050       -16.9813
  59   2.0000      -0.615522       -16.7492
  60   2.0000      -0.570181       -15.5154
  61   2.0000      -0.560227       -15.2446
  62   2.0000      -0.555178       -15.1072
  63   2.0000      -0.550265       -14.9735
  64   2.0000      -0.545478       -14.8432
  65   2.0000      -0.544653       -14.8208
  66   2.0000      -0.525078       -14.2881
  67   2.0000      -0.521302       -14.1854
  68   2.0000      -0.518464       -14.1081
  69   2.0000      -0.509014       -13.8510
  70   2.0000      -0.502683       -13.6787
  71   2.0000      -0.498684       -13.5699
  72   2.0000      -0.495753       -13.4901
  73   2.0000      -0.493917       -13.4402
  74   2.0000      -0.490478       -13.3466
  75   2.0000      -0.484954       -13.1963
  76   2.0000      -0.475801       -12.9472
  77   2.0000      -0.472229       -12.8500
  78   2.0000      -0.467278       -12.7153
  79   2.0000      -0.455291       -12.3891
  80   2.0000      -0.434745       -11.8300
  81   2.0000      -0.432276       -11.7628
  82   2.0000      -0.431875       -11.7519
  83   2.0000      -0.429995       -11.7008
  84   2.0000      -0.429707       -11.6929
  85   2.0000      -0.428093       -11.6490
  86   2.0000      -0.426362       -11.6019
  87   2.0000      -0.425233       -11.5712
  88   2.0000      -0.424349       -11.5471
  89   2.0000      -0.423967       -11.5367
  90   2.0000      -0.423307       -11.5188
  91   2.0000      -0.422175       -11.4880
  92   2.0000      -0.420403       -11.4397
  93   2.0000      -0.419984       -11.4284
  94   2.0000      -0.417860       -11.3705
  95   2.0000      -0.416507       -11.3337
  96   2.0000      -0.415544       -11.3075
  97   2.0000      -0.413682       -11.2568
  98   2.0000      -0.412901       -11.2356
  99   2.0000      -0.410970       -11.1831
 100   0.0000       0.056318         1.5325
 101   0.0000       0.077827         2.1178
 102   0.0000       0.079385         2.1602
 103   0.0000       0.083469         2.2713
 104   0.0000       0.100272         2.7285

MULLIKEN ATOMIC CHARGES
-----------------------
   0 O :   -0.829775
   1 H :    0.422521
   2 H :    0.417642
   3 O :   -0.828846
   4 H :    0.432355
   5 H :    0.418850
   6 O :   -0.852062
   7 H :    0.429881
   8 H :    0.418497
   9 O :   -0.845870
  10 H :    0.415652
  11 H :    0.416033
  12 O :   -0.789255
  13 H :    0.393502
  14 H :    0.401393
  15 O :   -1.007997
  16 H :    0.493378
  17 H :    0.413792
  18 O :   -0.837507
  19 H :    0.421597
  20 H :    0.417161
  21 O :   -0.957095
  22 H :    0.426338
  23 H :    0.463680
  24 O :   -0.823008
  25 H :    0.432928
  26 H :    0.414077
  27 O :   -0.816576
  28 H :    0.420083
  29 H :    0.436033
  30 O :   -0.813774
  31 H :    0.430258
  32 H :    0.414876
  33 O :   -0.787701
  34 H :    0.360482
  35 H :    0.365332
  36 O :   -0.840947
  37 H :    0.445068
  38 H :    0.436844
  39 O :   -0.796808
  40 H :    0.422343
  41 H :    0.413534
  42 O :   -0.800441
  43 H :    0.424953
  44 H :    0.402107
  45 O :   -0.808470
  46 H :    0.417264
  47 H :    0.406996
  48 O :   -0.821116
  49 H :    0.400623
  50 H :    0.407846
  51 O :   -0.847812
  52 H :    0.417689
  53 H :    0.433630
  54 O :   -0.864024
  55 H :    0.442093
  56 H :    0.427833
  57 O :   -0.865397
  58 H :    0.436633
  59 H :    0.422681
Sum of atomic charges:   -0.0000000

LOEWDIN ATOMIC CHARGES
----------------------
   0 O :   -0.398709
   1 H :    0.190713
   2 H :    0.191315
   3 O :   -0.399611
   4 H :    0.189925
   5 H :    0.190721
   6 O :   -0.377678
   7 H :    0.190584
   8 H :    0.214743
   9 O :   -0.402760
  10 H :    0.190191
  11 H :    0.188340
  12 O :   -0.417451
  13 H :    0.190064
  14 H :    0.193653
  15 O :   -0.433238
  16 H :    0.195119
  17 H :    0.184951
  18 O :   -0.398205
  19 H :    0.192402
  20 H :    0.191015
  21 O :   -0.390045
  22 H :    0.185645
  23 H :    0.191567
  24 O :   -0.395053
  25 H :    0.189645
  26 H :    0.195237
  27 O :   -0.365840
  28 H :    0.216787
  29 H :    0.193098
  30 O :   -0.371709
  31 H :    0.189699
  32 H :    0.215134
  33 O :   -0.391374
  34 H :    0.188617
  35 H :    0.189218
  36 O :   -0.393622
  37 H :    0.193152
  38 H :    0.194184
  39 O :   -0.403562
  40 H :    0.194060
  41 H :    0.195542
  42 O :   -0.355644
  43 H :    0.220775
  44 H :    0.191894
  45 O :   -0.366311
  46 H :    0.215943
  47 H :    0.192754
  48 O :   -0.413330
  49 H :    0.188229
  50 H :    0.192390
  51 O :   -0.384353
  52 H :    0.214335
  53 H :    0.187929
  54 O :   -0.397577
  55 H :    0.190722
  56 H :    0.197355
  57 O :   -0.371586
  58 H :    0.193683
  59 H :    0.216330

  Mayer bond orders larger than 0.1
B(  0-O ,  1-H ) :   0.8303 B(  0-O ,  2-H ) :   0.8176 B(  0-O , 47-H ) :   0.1015
B(  3-O ,  4-H ) :   0.7916 B(  3-O ,  5-H ) :   0.7927 B(  3-O , 35-H ) :   0.1666
B(  6-O ,  7-H ) :   0.7624 B(  6-O ,  8-H ) :   0.8352 B(  9-O , 10-H ) :   0.8024
B(  9-O , 11-H ) :   0.8107 B( 12-O , 13-H ) :   0.8233 B( 12-O , 14-H ) :   0.8295
B( 15-O , 16-H ) :   0.7819 B( 15-O , 17-H ) :   0.8250 B( 15-O , 39-O ) :   0.1377
B( 18-O , 19-H ) :   0.8244 B( 18-O , 20-H ) :   0.8209 B( 21-O , 22-H ) :   0.8210
B( 21-O , 23-H ) :   0.7757 B( 24-O , 25-H ) :   0.7833 B( 24-O , 26-H ) :   0.8292
B( 27-O , 28-H ) :   0.8321 B( 27-O , 29-H ) :   0.7700 B( 30-O , 31-H ) :   0.7650
B( 30-O , 32-H ) :   0.8382 B( 33-O , 34-H ) :   0.7640 B( 33-O , 35-H ) :   0.7583
B( 34-H , 36-O ) :   0.1726 B( 36-O , 37-H ) :   0.7883 B( 36-O , 38-H ) :   0.7886
B( 39-O , 40-H ) :   0.8225 B( 39-O , 41-H ) :   0.8300 B( 42-O , 43-H ) :   0.8379
B( 42-O , 44-H ) :   0.8132 B( 45-O , 46-H ) :   0.8415 B( 45-O , 47-H ) :   0.7782
B( 48-O , 49-H ) :   0.8291 B( 48-O , 50-H ) :   0.8280 B( 51-O , 52-H ) :   0.8343
B( 51-O , 53-H ) :   0.7904 B( 54-O , 55-H ) :   0.7809 B( 54-O , 56-H ) :   0.8307
B( 57-O , 58-H ) :   0.7774 B( 57-O , 59-H ) :   0.8305

Dispersion correction           -0.041595749
FINAL SINGLE POINT ENERGY     -1529.222428929002

DIPOLE MOMENT
-------------
                                X             Y             Z
Electronic contribution:      0.04564      -0.19681      -0.01440
Nuclear contribution   :     -0.14843      -2.07455       0.27835
                        -----------------------------------------
Total Dipole Moment    :     -0.10279      -2.27135       0.26395
                        -----------------------------------------
Magnitude (a.u.)       :      2.28895
Magnitude (Debye)      :      5.81804

                             ****ORCA TERMINATED NORMALLY****
TOTAL RUN TIME: 0 days 0 hours 46 minutes 58 seconds 741 msec
