                         Program Version 3.0.3 - RELEASE   -
|  1> ! wB97X-D3 Def2-TZVP def2-TZVP/J RIJCOSX TightSCF Grid4
|  2>
|  3> %pal nprocs 12 end
|  4>
|  5> %scf
|  6>         maxiter 400
|  7> end
|  8>
|  9> * xyz  0  1
| 10> O  1.910449	-2.204710	2.350077
| 11> H  1.416292	-2.603912	1.600007
| 12> H  1.227249	-1.844139	2.956672
| 13> O  2.432141	0.573591	-0.842516
| 14> H  2.446947	1.564719	-0.874993
| 15> H  2.907962	0.310519	-0.015808
| 16> O  0.692003	-3.141134	-2.435812
| 17> H  1.122438	-2.241373	-2.675248
| 18> H  1.180361	-3.807941	-2.936504
| 19> O  0.883164	2.857578	1.457154
| 20> H  1.213601	2.348799	2.243537
| 21> H  -0.069669	3.035110	1.594294
| 22> O  1.858602	1.339810	3.440400
| 23> H  2.469081	0.862831	2.839789
| 24> H  1.251824	0.640602	3.755464
| 25> O  -1.976203	-0.095688	-1.625107
| 26> H  -2.055992	-1.041606	-1.964459
| 27> H  -1.193209	-0.131556	-1.007012
| 28> O  1.701083	-0.871638	-3.022107
| 29> H  2.111915	-0.370858	-2.278632
| 30> H  0.991161	-0.275536	-3.349047
| 31> O  -1.368263	0.402451	2.132922
| 32> H  -0.723867	0.304166	1.376416
| 33> H  -1.626843	1.359561	2.123606
| 34> O  -3.164217	-1.108875	0.781018
| 35> H  -2.594938	-0.573253	1.388149
| 36> H  -3.060483	-0.653163	-0.077339
| 37> O  -1.833386	2.956012	1.623395
| 38> H  -2.423259	3.630750	1.982401
| 39> H  -2.053684	2.866195	0.628177
| 40> O  2.064174	3.194564	-0.760434
| 41> H  1.613095	3.138668	0.152789
| 42> H  2.693352	3.926268	-0.723349
| 43> O  0.071408	-0.246322	0.060366
| 44> H  0.246156	-1.222357	0.149416
| 45> H  0.926959	0.158779	-0.256428
| 46> O  0.390458	-2.897242	0.211355
| 47> H  -0.534083	-3.229280	0.324100
| 48> H  0.629728	-3.116184	-0.724522
| 49> O  -2.007979	-2.625948	-2.379479
| 50> H  -2.216579	-3.088503	-1.540831
| 51> H  -1.074385	-2.879942	-2.555751
| 52> O  -0.424867	0.763273	-3.600704
| 53> H  -0.896089	0.754874	-4.445766
| 54> H  -1.091199	0.464844	-2.918244
| 55> O  3.302586	-0.177618	1.579604
| 56> H  4.218307	-0.350793	1.837923
| 57> H  2.783111	-1.007881	1.863857
| 58> O  -0.189791	3.260130	-2.397804
| 59> H  -0.131526	2.452633	-2.945667
| 60> H  0.644325	3.285337	-1.881225
| 61> O  0.113692	-0.805291	3.885464
| 62> H  -0.345637	-0.999590	4.712525
| 63> H  -0.545297	-0.335257	3.294092
| 64> O  -2.293608	2.674162	-0.886398
| 65> H  -1.523371	2.980245	-1.446943
| 66> H  -2.448319	1.758617	-1.180814
| 67> O  -2.224126	-3.451051	0.254261
| 68> H  -2.630598	-2.563592	0.539201
| 69> H  -2.756662	-4.142932	0.667622
| 70> **                         ****END OF INPUT****

CARTESIAN COORDINATES (ANGSTROEM)
---------------------------------
  O      1.910449   -2.204710    2.350077
  H      1.416292   -2.603912    1.600007
  H      1.227249   -1.844139    2.956672
  O      2.432141    0.573591   -0.842516
  H      2.446947    1.564719   -0.874993
  H      2.907962    0.310519   -0.015808
  O      0.692003   -3.141134   -2.435812
  H      1.122438   -2.241373   -2.675248
  H      1.180361   -3.807941   -2.936504
  O      0.883164    2.857578    1.457154
  H      1.213601    2.348799    2.243537
  H     -0.069669    3.035110    1.594294
  O      1.858602    1.339810    3.440400
  H      2.469081    0.862831    2.839789
  H      1.251824    0.640602    3.755464
  O     -1.976203   -0.095688   -1.625107
  H     -2.055992   -1.041606   -1.964459
  H     -1.193209   -0.131556   -1.007012
  O      1.701083   -0.871638   -3.022107
  H      2.111915   -0.370858   -2.278632
  H      0.991161   -0.275536   -3.349047
  O     -1.368263    0.402451    2.132922
  H     -0.723867    0.304166    1.376416
  H     -1.626843    1.359561    2.123606
  O     -3.164217   -1.108875    0.781018
  H     -2.594938   -0.573253    1.388149
  H     -3.060483   -0.653163   -0.077339
  O     -1.833386    2.956012    1.623395
  H     -2.423259    3.630750    1.982401
  H     -2.053684    2.866195    0.628177
  O      2.064174    3.194564   -0.760434
  H      1.613095    3.138668    0.152789
  H      2.693352    3.926268   -0.723349
  O      0.071408   -0.246322    0.060366
  H      0.246156   -1.222357    0.149416
  H      0.926959    0.158779   -0.256428
  O      0.390458   -2.897242    0.211355
  H     -0.534083   -3.229280    0.324100
  H      0.629728   -3.116184   -0.724522
  O     -2.007979   -2.625948   -2.379479
  H     -2.216579   -3.088503   -1.540831
  H     -1.074385   -2.879942   -2.555751
  O     -0.424867    0.763273   -3.600704
  H     -0.896089    0.754874   -4.445766
  H     -1.091199    0.464844   -2.918244
  O      3.302586   -0.177618    1.579604
  H      4.218307   -0.350793    1.837923
  H      2.783111   -1.007881    1.863857
  O     -0.189791    3.260130   -2.397804
  H     -0.131526    2.452633   -2.945667
  H      0.644325    3.285337   -1.881225
  O      0.113692   -0.805291    3.885464
  H     -0.345637   -0.999590    4.712525
  H     -0.545297   -0.335257    3.294092
  O     -2.293608    2.674162   -0.886398
  H     -1.523371    2.980245   -1.446943
  H     -2.448319    1.758617   -1.180814
  O     -2.224126   -3.451051    0.254261
  H     -2.630598   -2.563592    0.539201
  H     -2.756662   -4.142932    0.667622

 Total Charge           Charge          ....    0
 Multiplicity           Mult            ....    1
 Number of Electrons    NEL             ....  200
 Basis Dimension        Dim             ....  860

ORBITAL ENERGIES
----------------

  NO   OCC          E(Eh)            E(eV)
   0   2.0000     -19.254106      -523.9309
   1   2.0000     -19.251121      -523.8496
   2   2.0000     -19.247415      -523.7488
   3   2.0000     -19.246336      -523.7194
   4   2.0000     -19.244251      -523.6627
   5   2.0000     -19.242429      -523.6131
   6   2.0000     -19.239126      -523.5232
   7   2.0000     -19.238045      -523.4938
   8   2.0000     -19.237848      -523.4885
   9   2.0000     -19.236416      -523.4495
  10   2.0000     -19.236211      -523.4439
  11   2.0000     -19.233196      -523.3619
  12   2.0000     -19.230992      -523.3019
  13   2.0000     -19.225317      -523.1475
  14   2.0000     -19.223868      -523.1080
  15   2.0000     -19.223402      -523.0954
  16   2.0000     -19.218625      -522.9654
  17   2.0000     -19.211446      -522.7700
  18   2.0000     -19.210995      -522.7577
  19   2.0000     -19.209757      -522.7241
  20   2.0000      -1.159052       -31.5394
  21   2.0000      -1.150623       -31.3100
  22   2.0000      -1.148832       -31.2613
  23   2.0000      -1.145281       -31.1647
  24   2.0000      -1.140854       -31.0442
  25   2.0000      -1.140277       -31.0285
  26   2.0000      -1.136673       -30.9304
  27   2.0000      -1.134260       -30.8648
  28   2.0000      -1.130605       -30.7653
  29   2.0000      -1.127902       -30.6918
  30   2.0000      -1.122056       -30.5327
  31   2.0000      -1.116562       -30.3832
  32   2.0000      -1.112219       -30.2650
  33   2.0000      -1.111723       -30.2515
  34   2.0000      -1.108568       -30.1657
  35   2.0000      -1.106258       -30.1028
  36   2.0000      -1.104689       -30.0601
  37   2.0000      -1.100635       -29.9498
  38   2.0000      -1.093707       -29.7613
  39   2.0000      -1.090452       -29.6727
  40   2.0000      -0.666729       -18.1426
  41   2.0000      -0.664096       -18.0710
  42   2.0000      -0.657683       -17.8965
  43   2.0000      -0.657158       -17.8822
  44   2.0000      -0.653846       -17.7921
  45   2.0000      -0.652289       -17.7497
  46   2.0000      -0.649933       -17.6856
  47   2.0000      -0.646130       -17.5821
  48   2.0000      -0.644828       -17.5467
  49   2.0000      -0.641002       -17.4426
  50   2.0000      -0.637381       -17.3440
  51   2.0000      -0.636553       -17.3215
  52   2.0000      -0.633201       -17.2303
  53   2.0000      -0.631076       -17.1725
  54   2.0000      -0.627884       -17.0856
  55   2.0000      -0.625846       -17.0301
  56   2.0000      -0.625065       -17.0089
  57   2.0000      -0.619975       -16.8704
  58   2.0000      -0.615562       -16.7503
  59   2.0000      -0.608801       -16.5663
  60   2.0000      -0.574288       -15.6272
  61   2.0000      -0.561960       -15.2917
  62   2.0000      -0.552814       -15.0428
  63   2.0000      -0.549521       -14.9532
  64   2.0000      -0.546641       -14.8748
  65   2.0000      -0.539940       -14.6925
  66   2.0000      -0.529229       -14.4011
  67   2.0000      -0.518633       -14.1127
  68   2.0000      -0.512762       -13.9530
  69   2.0000      -0.504123       -13.7179
  70   2.0000      -0.503041       -13.6884
  71   2.0000      -0.494460       -13.4549
  72   2.0000      -0.490349       -13.3431
  73   2.0000      -0.486136       -13.2284
  74   2.0000      -0.483141       -13.1469
  75   2.0000      -0.478637       -13.0244
  76   2.0000      -0.471674       -12.8349
  77   2.0000      -0.467006       -12.7079
  78   2.0000      -0.459938       -12.5155
  79   2.0000      -0.445177       -12.1139
  80   2.0000      -0.437658       -11.9093
  81   2.0000      -0.435013       -11.8373
  82   2.0000      -0.433117       -11.7857
  83   2.0000      -0.432527       -11.7697
  84   2.0000      -0.431465       -11.7408
  85   2.0000      -0.429825       -11.6961
  86   2.0000      -0.427723       -11.6389
  87   2.0000      -0.426284       -11.5998
  88   2.0000      -0.424903       -11.5622
  89   2.0000      -0.423431       -11.5221
  90   2.0000      -0.421062       -11.4577
  91   2.0000      -0.420038       -11.4298
  92   2.0000      -0.417119       -11.3504
  93   2.0000      -0.412733       -11.2310
  94   2.0000      -0.411416       -11.1952
  95   2.0000      -0.409732       -11.1494
  96   2.0000      -0.408571       -11.1178
  97   2.0000      -0.405018       -11.0211
  98   2.0000      -0.395599       -10.7648
  99   2.0000      -0.394943       -10.7470
 100   0.0000       0.075390         2.0515
 101   0.0000       0.101768         2.7692
 102   0.0000       0.104645         2.8475
 103   0.0000       0.112202         3.0532
 104   0.0000       0.119983         3.2649

MULLIKEN ATOMIC CHARGES
-----------------------
   0 O :   -0.708301
   1 H :    0.390102
   2 H :    0.366566
   3 O :   -0.763653
   4 H :    0.386489
   5 H :    0.379287
   6 O :   -0.761690
   7 H :    0.386640
   8 H :    0.354222
   9 O :   -0.746781
  10 H :    0.383903
  11 H :    0.366073
  12 O :   -0.698393
  13 H :    0.345439
  14 H :    0.346502
  15 O :   -0.821195
  16 H :    0.402367
  17 H :    0.358739
  18 O :   -0.714994
  19 H :    0.391435
  20 H :    0.369652
  21 O :   -0.774512
  22 H :    0.377314
  23 H :    0.393010
  24 O :   -0.704868
  25 H :    0.381951
  26 H :    0.360196
  27 O :   -0.760197
  28 H :    0.353928
  29 H :    0.393586
  30 O :   -0.755496
  31 H :    0.400914
  32 H :    0.351548
  33 O :   -0.759993
  34 H :    0.347710
  35 H :    0.381848
  36 O :   -0.757889
  37 H :    0.384603
  38 H :    0.380081
  39 O :   -0.705862
  40 H :    0.354866
  41 H :    0.360616
  42 O :   -0.734814
  43 H :    0.356867
  44 H :    0.370275
  45 O :   -0.750230
  46 H :    0.353561
  47 H :    0.376729
  48 O :   -0.711056
  49 H :    0.354177
  50 H :    0.361473
  51 O :   -0.743089
  52 H :    0.350673
  53 H :    0.387029
  54 O :   -0.722366
  55 H :    0.388944
  56 H :    0.364911
  57 O :   -0.755818
  58 H :    0.382569
  59 H :    0.354402
Sum of atomic charges:   -0.0000000

LOEWDIN ATOMIC CHARGES
----------------------
   0 O :   -0.272061
   1 H :    0.142197
   2 H :    0.141288
   3 O :   -0.279401
   4 H :    0.139325
   5 H :    0.139436
   6 O :   -0.300768
   7 H :    0.137885
   8 H :    0.159645
   9 O :   -0.285997
  10 H :    0.141182
  11 H :    0.135591
  12 O :   -0.295181
  13 H :    0.136474
  14 H :    0.136467
  15 O :   -0.310490
  16 H :    0.137797
  17 H :    0.125913
  18 O :   -0.270733
  19 H :    0.145846
  20 H :    0.141020
  21 O :   -0.270205
  22 H :    0.132171
  23 H :    0.140846
  24 O :   -0.270931
  25 H :    0.142277
  26 H :    0.145428
  27 O :   -0.293284
  28 H :    0.159945
  29 H :    0.142119
  30 O :   -0.289967
  31 H :    0.137061
  32 H :    0.158923
  33 O :   -0.266432
  34 H :    0.131981
  35 H :    0.136830
  36 O :   -0.279915
  37 H :    0.139491
  38 H :    0.140340
  39 O :   -0.285994
  40 H :    0.139075
  41 H :    0.139625
  42 O :   -0.280160
  43 H :    0.165162
  44 H :    0.138595
  45 O :   -0.295773
  46 H :    0.159814
  47 H :    0.137665
  48 O :   -0.293134
  49 H :    0.136580
  50 H :    0.140524
  51 O :   -0.294028
  52 H :    0.160657
  53 H :    0.136131
  54 O :   -0.278812
  55 H :    0.144684
  56 H :    0.144968
  57 O :   -0.297870
  58 H :    0.139387
  59 H :    0.160789

  Mayer bond orders larger than 0.1
B(  0-O ,  1-H ) :   0.8171 B(  0-O ,  2-H ) :   0.8252 B(  0-O , 47-H ) :   0.1875
B(  3-O ,  4-H ) :   0.7784 B(  3-O ,  5-H ) :   0.7935 B(  3-O , 35-H ) :   0.1688
B(  4-H , 30-O ) :   0.1180 B(  5-H , 45-O ) :   0.1055 B(  6-O ,  7-H ) :   0.7094
B(  6-O ,  8-H ) :   0.8809 B(  6-O , 38-H ) :   0.1189 B(  7-H , 18-O ) :   0.1909
B(  9-O , 10-H ) :   0.7728 B(  9-O , 11-H ) :   0.8161 B(  9-O , 31-H ) :   0.1539
B( 10-H , 12-O ) :   0.1326 B( 12-O , 13-H ) :   0.8393 B( 12-O , 14-H ) :   0.8428
B( 15-O , 16-H ) :   0.7387 B( 15-O , 17-H ) :   0.7649 B( 15-O , 44-H ) :   0.1271
B( 16-H , 39-O ) :   0.1556 B( 17-H , 33-O ) :   0.1270 B( 18-O , 19-H ) :   0.8111
B( 18-O , 20-H ) :   0.8237 B( 21-O , 22-H ) :   0.7726 B( 21-O , 23-H ) :   0.7768
B( 21-O , 53-H ) :   0.1218 B( 22-H , 33-O ) :   0.1082 B( 23-H , 27-O ) :   0.1141
B( 24-O , 25-H ) :   0.8007 B( 24-O , 26-H ) :   0.8477 B( 24-O , 58-H ) :   0.1701
B( 27-O , 28-H ) :   0.8803 B( 27-O , 29-H ) :   0.7169 B( 29-H , 54-O ) :   0.1747
B( 30-O , 31-H ) :   0.7239 B( 30-O , 32-H ) :   0.8819 B( 33-O , 34-H ) :   0.7691
B( 33-O , 35-H ) :   0.7451 B( 34-H , 36-O ) :   0.1571 B( 36-O , 37-H ) :   0.7893
B( 36-O , 38-H ) :   0.7870 B( 37-H , 57-O ) :   0.1060 B( 39-O , 40-H ) :   0.8351
B( 39-O , 41-H ) :   0.8249 B( 42-O , 43-H ) :   0.8785 B( 42-O , 44-H ) :   0.7692
B( 45-O , 46-H ) :   0.8818 B( 45-O , 47-H ) :   0.7215 B( 48-O , 49-H ) :   0.8434
B( 48-O , 50-H ) :   0.8293 B( 48-O , 55-H ) :   0.1350 B( 51-O , 52-H ) :   0.8824
B( 51-O , 53-H ) :   0.7630 B( 54-O , 55-H ) :   0.7659 B( 54-O , 56-H ) :   0.8576
B( 57-O , 58-H ) :   0.7302 B( 57-O , 59-H ) :   0.8798

Dispersion correction           -0.041795078
FINAL SINGLE POINT ENERGY     -1529.159227046257

DIPOLE MOMENT
-------------
                                X             Y             Z
Electronic contribution:     -0.01401       0.16485      -0.08699
Nuclear contribution   :      0.18606      -1.18881       0.48289
                        -----------------------------------------
Total Dipole Moment    :      0.17205      -1.02396       0.39590
                        -----------------------------------------
Magnitude (a.u.)       :      1.11123
Magnitude (Debye)      :      2.82453

                             ****ORCA TERMINATED NORMALLY****
TOTAL RUN TIME: 0 days 0 hours 2 minutes 49 seconds 891 msec
