                         Program Version 3.0.3 - RELEASE   -
|  1> ! wB97X-D3 MA-Def2-TZVP def2-TZVP/J RIJCOSX TightSCF Grid4
|  2>
|  3> %pal nprocs 1 end
|  4>
|  5> %scf
|  6>         maxiter 400
|  7> end
|  8>
|  9> * xyz  0  1
| 10> O  1.910449	-2.204710	2.350077
| 11> H  1.416292	-2.603912	1.600007
| 12> H  1.227249	-1.844139	2.956672
| 13> O  2.432141	0.573591	-0.842516
| 14> H  2.446947	1.564719	-0.874993
| 15> H  2.907962	0.310519	-0.015808
| 16> O  0.692003	-3.141134	-2.435812
| 17> H  1.122438	-2.241373	-2.675248
| 18> H  1.180361	-3.807941	-2.936504
| 19> O  0.883164	2.857578	1.457154
| 20> H  1.213601	2.348799	2.243537
| 21> H  -0.069669	3.035110	1.594294
| 22> O  1.858602	1.339810	3.440400
| 23> H  2.469081	0.862831	2.839789
| 24> H  1.251824	0.640602	3.755464
| 25> O  -1.976203	-0.095688	-1.625107
| 26> H  -2.055992	-1.041606	-1.964459
| 27> H  -1.193209	-0.131556	-1.007012
| 28> O  1.701083	-0.871638	-3.022107
| 29> H  2.111915	-0.370858	-2.278632
| 30> H  0.991161	-0.275536	-3.349047
| 31> O  -1.368263	0.402451	2.132922
| 32> H  -0.723867	0.304166	1.376416
| 33> H  -1.626843	1.359561	2.123606
| 34> O  -3.164217	-1.108875	0.781018
| 35> H  -2.594938	-0.573253	1.388149
| 36> H  -3.060483	-0.653163	-0.077339
| 37> O  -1.833386	2.956012	1.623395
| 38> H  -2.423259	3.630750	1.982401
| 39> H  -2.053684	2.866195	0.628177
| 40> O  2.064174	3.194564	-0.760434
| 41> H  1.613095	3.138668	0.152789
| 42> H  2.693352	3.926268	-0.723349
| 43> O  0.071408	-0.246322	0.060366
| 44> H  0.246156	-1.222357	0.149416
| 45> H  0.926959	0.158779	-0.256428
| 46> O  0.390458	-2.897242	0.211355
| 47> H  -0.534083	-3.229280	0.324100
| 48> H  0.629728	-3.116184	-0.724522
| 49> O  -2.007979	-2.625948	-2.379479
| 50> H  -2.216579	-3.088503	-1.540831
| 51> H  -1.074385	-2.879942	-2.555751
| 52> O  -0.424867	0.763273	-3.600704
| 53> H  -0.896089	0.754874	-4.445766
| 54> H  -1.091199	0.464844	-2.918244
| 55> O  3.302586	-0.177618	1.579604
| 56> H  4.218307	-0.350793	1.837923
| 57> H  2.783111	-1.007881	1.863857
| 58> O  -0.189791	3.260130	-2.397804
| 59> H  -0.131526	2.452633	-2.945667
| 60> H  0.644325	3.285337	-1.881225
| 61> O  0.113692	-0.805291	3.885464
| 62> H  -0.345637	-0.999590	4.712525
| 63> H  -0.545297	-0.335257	3.294092
| 64> O  -2.293608	2.674162	-0.886398
| 65> H  -1.523371	2.980245	-1.446943
| 66> H  -2.448319	1.758617	-1.180814
| 67> O  -2.224126	-3.451051	0.254261
| 68> H  -2.630598	-2.563592	0.539201
| 69> H  -2.756662	-4.142932	0.667622
| 70> **                         ****END OF INPUT****

CARTESIAN COORDINATES (ANGSTROEM)
---------------------------------
  O      1.910449   -2.204710    2.350077
  H      1.416292   -2.603912    1.600007
  H      1.227249   -1.844139    2.956672
  O      2.432141    0.573591   -0.842516
  H      2.446947    1.564719   -0.874993
  H      2.907962    0.310519   -0.015808
  O      0.692003   -3.141134   -2.435812
  H      1.122438   -2.241373   -2.675248
  H      1.180361   -3.807941   -2.936504
  O      0.883164    2.857578    1.457154
  H      1.213601    2.348799    2.243537
  H     -0.069669    3.035110    1.594294
  O      1.858602    1.339810    3.440400
  H      2.469081    0.862831    2.839789
  H      1.251824    0.640602    3.755464
  O     -1.976203   -0.095688   -1.625107
  H     -2.055992   -1.041606   -1.964459
  H     -1.193209   -0.131556   -1.007012
  O      1.701083   -0.871638   -3.022107
  H      2.111915   -0.370858   -2.278632
  H      0.991161   -0.275536   -3.349047
  O     -1.368263    0.402451    2.132922
  H     -0.723867    0.304166    1.376416
  H     -1.626843    1.359561    2.123606
  O     -3.164217   -1.108875    0.781018
  H     -2.594938   -0.573253    1.388149
  H     -3.060483   -0.653163   -0.077339
  O     -1.833386    2.956012    1.623395
  H     -2.423259    3.630750    1.982401
  H     -2.053684    2.866195    0.628177
  O      2.064174    3.194564   -0.760434
  H      1.613095    3.138668    0.152789
  H      2.693352    3.926268   -0.723349
  O      0.071408   -0.246322    0.060366
  H      0.246156   -1.222357    0.149416
  H      0.926959    0.158779   -0.256428
  O      0.390458   -2.897242    0.211355
  H     -0.534083   -3.229280    0.324100
  H      0.629728   -3.116184   -0.724522
  O     -2.007979   -2.625948   -2.379479
  H     -2.216579   -3.088503   -1.540831
  H     -1.074385   -2.879942   -2.555751
  O     -0.424867    0.763273   -3.600704
  H     -0.896089    0.754874   -4.445766
  H     -1.091199    0.464844   -2.918244
  O      3.302586   -0.177618    1.579604
  H      4.218307   -0.350793    1.837923
  H      2.783111   -1.007881    1.863857
  O     -0.189791    3.260130   -2.397804
  H     -0.131526    2.452633   -2.945667
  H      0.644325    3.285337   -1.881225
  O      0.113692   -0.805291    3.885464
  H     -0.345637   -0.999590    4.712525
  H     -0.545297   -0.335257    3.294092
  O     -2.293608    2.674162   -0.886398
  H     -1.523371    2.980245   -1.446943
  H     -2.448319    1.758617   -1.180814
  O     -2.224126   -3.451051    0.254261
  H     -2.630598   -2.563592    0.539201
  H     -2.756662   -4.142932    0.667622

 Total Charge           Charge          ....    0
 Multiplicity           Mult            ....    1
 Number of Electrons    NEL             ....  200
 Basis Dimension        Dim             ....  940

ORBITAL ENERGIES
----------------

  NO   OCC          E(Eh)            E(eV)
   0   2.0000     -19.256761      -524.0031
   1   2.0000     -19.253962      -523.9269
   2   2.0000     -19.250492      -523.8325
   3   2.0000     -19.249180      -523.7968
   4   2.0000     -19.247118      -523.7407
   5   2.0000     -19.245595      -523.6993
   6   2.0000     -19.242240      -523.6080
   7   2.0000     -19.240430      -523.5587
   8   2.0000     -19.240057      -523.5486
   9   2.0000     -19.238544      -523.5074
  10   2.0000     -19.238351      -523.5021
  11   2.0000     -19.236189      -523.4433
  12   2.0000     -19.233689      -523.3753
  13   2.0000     -19.228516      -523.2345
  14   2.0000     -19.227480      -523.2063
  15   2.0000     -19.226834      -523.1888
  16   2.0000     -19.222521      -523.0714
  17   2.0000     -19.215670      -522.8850
  18   2.0000     -19.215334      -522.8758
  19   2.0000     -19.214154      -522.8437
  20   2.0000      -1.160935       -31.5906
  21   2.0000      -1.152561       -31.3628
  22   2.0000      -1.150829       -31.3157
  23   2.0000      -1.147322       -31.2202
  24   2.0000      -1.142892       -31.0997
  25   2.0000      -1.142432       -31.0872
  26   2.0000      -1.138639       -30.9839
  27   2.0000      -1.136470       -30.9249
  28   2.0000      -1.132568       -30.8188
  29   2.0000      -1.129978       -30.7483
  30   2.0000      -1.124176       -30.5904
  31   2.0000      -1.118933       -30.4477
  32   2.0000      -1.114939       -30.3390
  33   2.0000      -1.114279       -30.3211
  34   2.0000      -1.110771       -30.2256
  35   2.0000      -1.108636       -30.1675
  36   2.0000      -1.106877       -30.1196
  37   2.0000      -1.102826       -30.0094
  38   2.0000      -1.096634       -29.8409
  39   2.0000      -1.093547       -29.7569
  40   2.0000      -0.668619       -18.1940
  41   2.0000      -0.665925       -18.1207
  42   2.0000      -0.659649       -17.9500
  43   2.0000      -0.659103       -17.9351
  44   2.0000      -0.655732       -17.8434
  45   2.0000      -0.654253       -17.8031
  46   2.0000      -0.651974       -17.7411
  47   2.0000      -0.648080       -17.6351
  48   2.0000      -0.646665       -17.5967
  49   2.0000      -0.642859       -17.4931
  50   2.0000      -0.639362       -17.3979
  51   2.0000      -0.638551       -17.3759
  52   2.0000      -0.635366       -17.2892
  53   2.0000      -0.633306       -17.2331
  54   2.0000      -0.630029       -17.1440
  55   2.0000      -0.628625       -17.1058
  56   2.0000      -0.627196       -17.0669
  57   2.0000      -0.622783       -16.9468
  58   2.0000      -0.618253       -16.8235
  59   2.0000      -0.611674       -16.6445
  60   2.0000      -0.576376       -15.6840
  61   2.0000      -0.564083       -15.3495
  62   2.0000      -0.554791       -15.0966
  63   2.0000      -0.551636       -15.0108
  64   2.0000      -0.548913       -14.9367
  65   2.0000      -0.542356       -14.7583
  66   2.0000      -0.531355       -14.4589
  67   2.0000      -0.521026       -14.1778
  68   2.0000      -0.514907       -14.0113
  69   2.0000      -0.506182       -13.7739
  70   2.0000      -0.505302       -13.7500
  71   2.0000      -0.496737       -13.5169
  72   2.0000      -0.492831       -13.4106
  73   2.0000      -0.488397       -13.2900
  74   2.0000      -0.485644       -13.2150
  75   2.0000      -0.481047       -13.0900
  76   2.0000      -0.474179       -12.9031
  77   2.0000      -0.469571       -12.7777
  78   2.0000      -0.462396       -12.5824
  79   2.0000      -0.447686       -12.1821
  80   2.0000      -0.439744       -11.9661
  81   2.0000      -0.437245       -11.8980
  82   2.0000      -0.435263       -11.8441
  83   2.0000      -0.434730       -11.8296
  84   2.0000      -0.433313       -11.7910
  85   2.0000      -0.431865       -11.7516
  86   2.0000      -0.429989       -11.7006
  87   2.0000      -0.428475       -11.6594
  88   2.0000      -0.427222       -11.6253
  89   2.0000      -0.425526       -11.5791
  90   2.0000      -0.423249       -11.5172
  91   2.0000      -0.422147       -11.4872
  92   2.0000      -0.419157       -11.4058
  93   2.0000      -0.415218       -11.2986
  94   2.0000      -0.413887       -11.2624
  95   2.0000      -0.412254       -11.2180
  96   2.0000      -0.411011       -11.1842
  97   2.0000      -0.407993       -11.1021
  98   2.0000      -0.398632       -10.8473
  99   2.0000      -0.397954       -10.8289
 100   0.0000       0.047595         1.2951
 101   0.0000       0.065139         1.7725
 102   0.0000       0.066203         1.8015
 103   0.0000       0.071680         1.9505
 104   0.0000       0.081020         2.2047

MULLIKEN ATOMIC CHARGES
-----------------------
   0 O :   -0.764683
   1 H :    0.414350
   2 H :    0.414196
   3 O :   -0.794552
   4 H :    0.425564
   5 H :    0.407725
   6 O :   -0.846171
   7 H :    0.430496
   8 H :    0.363833
   9 O :   -0.829144
  10 H :    0.430674
  11 H :    0.412924
  12 O :   -0.726840
  13 H :    0.368394
  14 H :    0.388578
  15 O :   -1.014341
  16 H :    0.472704
  17 H :    0.422008
  18 O :   -0.773185
  19 H :    0.414180
  20 H :    0.408609
  21 O :   -0.861530
  22 H :    0.401373
  23 H :    0.456810
  24 O :   -0.751819
  25 H :    0.416712
  26 H :    0.385981
  27 O :   -0.837373
  28 H :    0.364812
  29 H :    0.438928
  30 O :   -0.807711
  31 H :    0.437685
  32 H :    0.360074
  33 O :   -0.776232
  34 H :    0.370496
  35 H :    0.380499
  36 O :   -0.825693
  37 H :    0.440254
  38 H :    0.423379
  39 O :   -0.725643
  40 H :    0.394075
  41 H :    0.399687
  42 O :   -0.784887
  43 H :    0.366274
  44 H :    0.405663
  45 O :   -0.805268
  46 H :    0.359751
  47 H :    0.403150
  48 O :   -0.769032
  49 H :    0.379846
  50 H :    0.400168
  51 O :   -0.824692
  52 H :    0.361656
  53 H :    0.407520
  54 O :   -0.795683
  55 H :    0.450208
  56 H :    0.394528
  57 O :   -0.849958
  58 H :    0.425808
  59 H :    0.364869
Sum of atomic charges:   -0.0000000

LOEWDIN ATOMIC CHARGES
----------------------
   0 O :   -0.357712
   1 H :    0.190408
   2 H :    0.192705
   3 O :   -0.385886
   4 H :    0.190841
   5 H :    0.191492
   6 O :   -0.396653
   7 H :    0.186215
   8 H :    0.191068
   9 O :   -0.377712
  10 H :    0.191992
  11 H :    0.187690
  12 O :   -0.376544
  13 H :    0.186435
  14 H :    0.187256
  15 O :   -0.433726
  16 H :    0.191103
  17 H :    0.185858
  18 O :   -0.355510
  19 H :    0.195474
  20 H :    0.191027
  21 O :   -0.385029
  22 H :    0.190813
  23 H :    0.193835
  24 O :   -0.354653
  25 H :    0.192143
  26 H :    0.194959
  27 O :   -0.388187
  28 H :    0.191094
  29 H :    0.190650
  30 O :   -0.384612
  31 H :    0.186731
  32 H :    0.190511
  33 O :   -0.391915
  34 H :    0.189937
  35 H :    0.194316
  36 O :   -0.386142
  37 H :    0.192832
  38 H :    0.193174
  39 O :   -0.369318
  40 H :    0.190235
  41 H :    0.191484
  42 O :   -0.373628
  43 H :    0.195694
  44 H :    0.188874
  45 O :   -0.390667
  46 H :    0.191343
  47 H :    0.187125
  48 O :   -0.372963
  49 H :    0.184750
  50 H :    0.189414
  51 O :   -0.387294
  52 H :    0.191023
  53 H :    0.185421
  54 O :   -0.362718
  55 H :    0.193526
  56 H :    0.194885
  57 O :   -0.392829
  58 H :    0.187977
  59 H :    0.191390

  Mayer bond orders larger than 0.1
B(  0-O ,  1-H ) :   0.8432 B(  0-O ,  2-H ) :   0.8500 B(  0-O , 47-H ) :   0.1456
B(  3-O ,  4-H ) :   0.8072 B(  3-O ,  5-H ) :   0.8194 B(  3-O , 33-O ) :  -0.1151
B(  3-O , 35-H ) :   0.1618 B(  6-O ,  7-H ) :   0.7271 B(  6-O ,  8-H ) :   0.8752
B(  7-H , 18-O ) :   0.1281 B(  9-O , 10-H ) :   0.7789 B(  9-O , 11-H ) :   0.8229
B( 12-O , 13-H ) :   0.8707 B( 12-O , 14-H ) :   0.8665 B( 15-O , 16-H ) :   0.7835
B( 15-O , 17-H ) :   0.8279 B( 15-O , 33-O ) :  -0.1095 B( 15-O , 39-O ) :   0.1228
B( 18-O , 19-H ) :   0.8317 B( 18-O , 20-H ) :   0.8465 B( 21-O , 22-H ) :   0.8191
B( 21-O , 23-H ) :   0.7899 B( 24-O , 25-H ) :   0.8107 B( 24-O , 26-H ) :   0.8533
B( 24-O , 58-H ) :   0.1103 B( 27-O , 28-H ) :   0.8728 B( 27-O , 29-H ) :   0.7334
B( 29-H , 54-O ) :   0.1065 B( 30-O , 31-H ) :   0.7428 B( 30-O , 32-H ) :   0.8775
B( 33-O , 34-H ) :   0.7823 B( 33-O , 35-H ) :   0.7658 B( 34-H , 36-O ) :   0.1241
B( 36-O , 37-H ) :   0.8135 B( 36-O , 38-H ) :   0.8087 B( 39-O , 40-H ) :   0.8623
B( 39-O , 41-H ) :   0.8557 B( 42-O , 43-H ) :   0.8789 B( 42-O , 44-H ) :   0.8005
B( 45-O , 46-H ) :   0.8805 B( 45-O , 47-H ) :   0.7442 B( 48-O , 49-H ) :   0.8698
B( 48-O , 50-H ) :   0.8520 B( 51-O , 52-H ) :   0.8759 B( 51-O , 53-H ) :   0.7785
B( 54-O , 55-H ) :   0.7823 B( 54-O , 56-H ) :   0.8580 B( 57-O , 58-H ) :   0.7478
B( 57-O , 59-H ) :   0.8735

Dispersion correction           -0.041795078
FINAL SINGLE POINT ENERGY     -1529.169599917595

DIPOLE MOMENT
-------------
                                X             Y             Z
Electronic contribution:     -0.02990       0.18735      -0.10503
Nuclear contribution   :      0.18606      -1.18881       0.48289
                        -----------------------------------------
Total Dipole Moment    :      0.15616      -1.00146       0.37786
                        -----------------------------------------
Magnitude (a.u.)       :      1.08170
Magnitude (Debye)      :      2.74947

                             ****ORCA TERMINATED NORMALLY****
TOTAL RUN TIME: 0 days 0 hours 48 minutes 45 seconds 310 msec
