                         Program Version 3.0.3 - RELEASE   -
|  1> ! B3LYP Def2-TZVP def2-TZVP/J RIJCOSX TightSCF Grid4 D3BJ
|  2>
|  3> %pal nprocs 12 end
|  4>
|  5> %scf
|  6>         maxiter 400
|  7> end
|  8>
|  9> * xyz  0  1
| 10> O  1.910449	-2.204710	2.350077
| 11> H  1.416292	-2.603912	1.600007
| 12> H  1.227249	-1.844139	2.956672
| 13> O  2.432141	0.573591	-0.842516
| 14> H  2.446947	1.564719	-0.874993
| 15> H  2.907962	0.310519	-0.015808
| 16> O  0.692003	-3.141134	-2.435812
| 17> H  1.122438	-2.241373	-2.675248
| 18> H  1.180361	-3.807941	-2.936504
| 19> O  0.883164	2.857578	1.457154
| 20> H  1.213601	2.348799	2.243537
| 21> H  -0.069669	3.035110	1.594294
| 22> O  1.858602	1.339810	3.440400
| 23> H  2.469081	0.862831	2.839789
| 24> H  1.251824	0.640602	3.755464
| 25> O  -1.976203	-0.095688	-1.625107
| 26> H  -2.055992	-1.041606	-1.964459
| 27> H  -1.193209	-0.131556	-1.007012
| 28> O  1.701083	-0.871638	-3.022107
| 29> H  2.111915	-0.370858	-2.278632
| 30> H  0.991161	-0.275536	-3.349047
| 31> O  -1.368263	0.402451	2.132922
| 32> H  -0.723867	0.304166	1.376416
| 33> H  -1.626843	1.359561	2.123606
| 34> O  -3.164217	-1.108875	0.781018
| 35> H  -2.594938	-0.573253	1.388149
| 36> H  -3.060483	-0.653163	-0.077339
| 37> O  -1.833386	2.956012	1.623395
| 38> H  -2.423259	3.630750	1.982401
| 39> H  -2.053684	2.866195	0.628177
| 40> O  2.064174	3.194564	-0.760434
| 41> H  1.613095	3.138668	0.152789
| 42> H  2.693352	3.926268	-0.723349
| 43> O  0.071408	-0.246322	0.060366
| 44> H  0.246156	-1.222357	0.149416
| 45> H  0.926959	0.158779	-0.256428
| 46> O  0.390458	-2.897242	0.211355
| 47> H  -0.534083	-3.229280	0.324100
| 48> H  0.629728	-3.116184	-0.724522
| 49> O  -2.007979	-2.625948	-2.379479
| 50> H  -2.216579	-3.088503	-1.540831
| 51> H  -1.074385	-2.879942	-2.555751
| 52> O  -0.424867	0.763273	-3.600704
| 53> H  -0.896089	0.754874	-4.445766
| 54> H  -1.091199	0.464844	-2.918244
| 55> O  3.302586	-0.177618	1.579604
| 56> H  4.218307	-0.350793	1.837923
| 57> H  2.783111	-1.007881	1.863857
| 58> O  -0.189791	3.260130	-2.397804
| 59> H  -0.131526	2.452633	-2.945667
| 60> H  0.644325	3.285337	-1.881225
| 61> O  0.113692	-0.805291	3.885464
| 62> H  -0.345637	-0.999590	4.712525
| 63> H  -0.545297	-0.335257	3.294092
| 64> O  -2.293608	2.674162	-0.886398
| 65> H  -1.523371	2.980245	-1.446943
| 66> H  -2.448319	1.758617	-1.180814
| 67> O  -2.224126	-3.451051	0.254261
| 68> H  -2.630598	-2.563592	0.539201
| 69> H  -2.756662	-4.142932	0.667622
| 70> **                         ****END OF INPUT****

CARTESIAN COORDINATES (ANGSTROEM)
---------------------------------
  O      1.910449   -2.204710    2.350077
  H      1.416292   -2.603912    1.600007
  H      1.227249   -1.844139    2.956672
  O      2.432141    0.573591   -0.842516
  H      2.446947    1.564719   -0.874993
  H      2.907962    0.310519   -0.015808
  O      0.692003   -3.141134   -2.435812
  H      1.122438   -2.241373   -2.675248
  H      1.180361   -3.807941   -2.936504
  O      0.883164    2.857578    1.457154
  H      1.213601    2.348799    2.243537
  H     -0.069669    3.035110    1.594294
  O      1.858602    1.339810    3.440400
  H      2.469081    0.862831    2.839789
  H      1.251824    0.640602    3.755464
  O     -1.976203   -0.095688   -1.625107
  H     -2.055992   -1.041606   -1.964459
  H     -1.193209   -0.131556   -1.007012
  O      1.701083   -0.871638   -3.022107
  H      2.111915   -0.370858   -2.278632
  H      0.991161   -0.275536   -3.349047
  O     -1.368263    0.402451    2.132922
  H     -0.723867    0.304166    1.376416
  H     -1.626843    1.359561    2.123606
  O     -3.164217   -1.108875    0.781018
  H     -2.594938   -0.573253    1.388149
  H     -3.060483   -0.653163   -0.077339
  O     -1.833386    2.956012    1.623395
  H     -2.423259    3.630750    1.982401
  H     -2.053684    2.866195    0.628177
  O      2.064174    3.194564   -0.760434
  H      1.613095    3.138668    0.152789
  H      2.693352    3.926268   -0.723349
  O      0.071408   -0.246322    0.060366
  H      0.246156   -1.222357    0.149416
  H      0.926959    0.158779   -0.256428
  O      0.390458   -2.897242    0.211355
  H     -0.534083   -3.229280    0.324100
  H      0.629728   -3.116184   -0.724522
  O     -2.007979   -2.625948   -2.379479
  H     -2.216579   -3.088503   -1.540831
  H     -1.074385   -2.879942   -2.555751
  O     -0.424867    0.763273   -3.600704
  H     -0.896089    0.754874   -4.445766
  H     -1.091199    0.464844   -2.918244
  O      3.302586   -0.177618    1.579604
  H      4.218307   -0.350793    1.837923
  H      2.783111   -1.007881    1.863857
  O     -0.189791    3.260130   -2.397804
  H     -0.131526    2.452633   -2.945667
  H      0.644325    3.285337   -1.881225
  O      0.113692   -0.805291    3.885464
  H     -0.345637   -0.999590    4.712525
  H     -0.545297   -0.335257    3.294092
  O     -2.293608    2.674162   -0.886398
  H     -1.523371    2.980245   -1.446943
  H     -2.448319    1.758617   -1.180814
  O     -2.224126   -3.451051    0.254261
  H     -2.630598   -2.563592    0.539201
  H     -2.756662   -4.142932    0.667622

 Total Charge           Charge          ....    0
 Multiplicity           Mult            ....    1
 Number of Electrons    NEL             ....  200
 Basis Dimension        Dim             ....  860

ORBITAL ENERGIES
----------------

  NO   OCC          E(Eh)            E(eV)
   0   2.0000     -19.146488      -521.0024
   1   2.0000     -19.143704      -520.9267
   2   2.0000     -19.139897      -520.8231
   3   2.0000     -19.139002      -520.7987
   4   2.0000     -19.136856      -520.7403
   5   2.0000     -19.135022      -520.6904
   6   2.0000     -19.131898      -520.6054
   7   2.0000     -19.129838      -520.5494
   8   2.0000     -19.128973      -520.5258
   9   2.0000     -19.127999      -520.4993
  10   2.0000     -19.127964      -520.4984
  11   2.0000     -19.125072      -520.4197
  12   2.0000     -19.122998      -520.3632
  13   2.0000     -19.117294      -520.2080
  14   2.0000     -19.115966      -520.1719
  15   2.0000     -19.115586      -520.1615
  16   2.0000     -19.110679      -520.0280
  17   2.0000     -19.103480      -519.8321
  18   2.0000     -19.103313      -519.8276
  19   2.0000     -19.101340      -519.7739
  20   2.0000      -1.042434       -28.3661
  21   2.0000      -1.034670       -28.1548
  22   2.0000      -1.032824       -28.1046
  23   2.0000      -1.029263       -28.0077
  24   2.0000      -1.025135       -27.8953
  25   2.0000      -1.024470       -27.8773
  26   2.0000      -1.020798       -27.7773
  27   2.0000      -1.018676       -27.7196
  28   2.0000      -1.014822       -27.6147
  29   2.0000      -1.012066       -27.5397
  30   2.0000      -1.006515       -27.3887
  31   2.0000      -1.000938       -27.2369
  32   2.0000      -0.996633       -27.1198
  33   2.0000      -0.996130       -27.1061
  34   2.0000      -0.993215       -27.0268
  35   2.0000      -0.990988       -26.9661
  36   2.0000      -0.989331       -26.9211
  37   2.0000      -0.985448       -26.8154
  38   2.0000      -0.978541       -26.6275
  39   2.0000      -0.975000       -26.5311
  40   2.0000      -0.562012       -15.2931
  41   2.0000      -0.560014       -15.2388
  42   2.0000      -0.553980       -15.0746
  43   2.0000      -0.553104       -15.0507
  44   2.0000      -0.550144       -14.9702
  45   2.0000      -0.548362       -14.9217
  46   2.0000      -0.545800       -14.8520
  47   2.0000      -0.542450       -14.7608
  48   2.0000      -0.539754       -14.6875
  49   2.0000      -0.536877       -14.6092
  50   2.0000      -0.533285       -14.5114
  51   2.0000      -0.532492       -14.4898
  52   2.0000      -0.529264       -14.4020
  53   2.0000      -0.527086       -14.3427
  54   2.0000      -0.524444       -14.2709
  55   2.0000      -0.521811       -14.1992
  56   2.0000      -0.521690       -14.1959
  57   2.0000      -0.516292       -14.0490
  58   2.0000      -0.512238       -13.9387
  59   2.0000      -0.505589       -13.7578
  60   2.0000      -0.469035       -12.7631
  61   2.0000      -0.457901       -12.4601
  62   2.0000      -0.448682       -12.2093
  63   2.0000      -0.445653       -12.1268
  64   2.0000      -0.443394       -12.0654
  65   2.0000      -0.437215       -11.8972
  66   2.0000      -0.427754       -11.6398
  67   2.0000      -0.417484       -11.3603
  68   2.0000      -0.411201       -11.1894
  69   2.0000      -0.402734       -10.9590
  70   2.0000      -0.401640       -10.9292
  71   2.0000      -0.394124       -10.7247
  72   2.0000      -0.389041       -10.5863
  73   2.0000      -0.385798       -10.4981
  74   2.0000      -0.382702       -10.4139
  75   2.0000      -0.378661       -10.3039
  76   2.0000      -0.371596       -10.1116
  77   2.0000      -0.367628       -10.0037
  78   2.0000      -0.360711        -9.8155
  79   2.0000      -0.346863        -9.4386
  80   2.0000      -0.339005        -9.2248
  81   2.0000      -0.336787        -9.1644
  82   2.0000      -0.334527        -9.1029
  83   2.0000      -0.333885        -9.0855
  84   2.0000      -0.332763        -9.0549
  85   2.0000      -0.331074        -9.0090
  86   2.0000      -0.329233        -8.9589
  87   2.0000      -0.327656        -8.9160
  88   2.0000      -0.326731        -8.8908
  89   2.0000      -0.325152        -8.8478
  90   2.0000      -0.322901        -8.7866
  91   2.0000      -0.321552        -8.7499
  92   2.0000      -0.318453        -8.6655
  93   2.0000      -0.313674        -8.5355
  94   2.0000      -0.312598        -8.5062
  95   2.0000      -0.311055        -8.4642
  96   2.0000      -0.309701        -8.4274
  97   2.0000      -0.304889        -8.2965
  98   2.0000      -0.296455        -8.0670
  99   2.0000      -0.295484        -8.0405
 100   0.0000      -0.005108        -0.1390
 101   0.0000       0.016351         0.4449
 102   0.0000       0.018813         0.5119
 103   0.0000       0.025999         0.7075
 104   0.0000       0.031572         0.8591

MULLIKEN ATOMIC CHARGES
-----------------------
   0 O :   -0.701272
   1 H :    0.383910
   2 H :    0.361201
   3 O :   -0.755770
   4 H :    0.378530
   5 H :    0.370796
   6 O :   -0.734498
   7 H :    0.384043
   8 H :    0.333499
   9 O :   -0.740624
  10 H :    0.381155
  11 H :    0.359702
  12 O :   -0.692030
  13 H :    0.341450
  14 H :    0.340426
  15 O :   -0.814801
  16 H :    0.391255
  17 H :    0.382448
  18 O :   -0.706444
  19 H :    0.384997
  20 H :    0.364145
  21 O :   -0.767064
  22 H :    0.396604
  23 H :    0.380492
  24 O :   -0.693527
  25 H :    0.373843
  26 H :    0.349677
  27 O :   -0.733870
  28 H :    0.333101
  29 H :    0.391364
  30 O :   -0.730309
  31 H :    0.398577
  32 H :    0.331539
  33 O :   -0.780323
  34 H :    0.360090
  35 H :    0.390618
  36 O :   -0.748703
  37 H :    0.374900
  38 H :    0.369446
  39 O :   -0.696231
  40 H :    0.346933
  41 H :    0.354122
  42 O :   -0.713450
  43 H :    0.336708
  44 H :    0.371483
  45 O :   -0.726265
  46 H :    0.333369
  47 H :    0.376146
  48 O :   -0.704284
  49 H :    0.348797
  50 H :    0.357215
  51 O :   -0.718163
  52 H :    0.329962
  53 H :    0.383234
  54 O :   -0.712541
  55 H :    0.383871
  56 H :    0.355450
  57 O :   -0.727941
  58 H :    0.379586
  59 H :    0.333427
Sum of atomic charges:   -0.0000000

LOEWDIN ATOMIC CHARGES
----------------------
   0 O :   -0.270879
   1 H :    0.141207
   2 H :    0.140566
   3 O :   -0.276812
   4 H :    0.138026
   5 H :    0.138059
   6 O :   -0.296133
   7 H :    0.137154
   8 H :    0.156595
   9 O :   -0.284938
  10 H :    0.140166
  11 H :    0.134471
  12 O :   -0.294368
  13 H :    0.135633
  14 H :    0.135484
  15 O :   -0.305797
  16 H :    0.136009
  17 H :    0.125844
  18 O :   -0.269570
  19 H :    0.144808
  20 H :    0.140067
  21 O :   -0.265970
  22 H :    0.132089
  23 H :    0.139123
  24 O :   -0.269681
  25 H :    0.140668
  26 H :    0.143649
  27 O :   -0.288995
  28 H :    0.156845
  29 H :    0.141329
  30 O :   -0.285484
  31 H :    0.136504
  32 H :    0.155984
  33 O :   -0.264269
  34 H :    0.131250
  35 H :    0.135572
  36 O :   -0.277300
  37 H :    0.138132
  38 H :    0.138746
  39 O :   -0.284771
  40 H :    0.137830
  41 H :    0.138494
  42 O :   -0.276198
  43 H :    0.162156
  44 H :    0.137809
  45 O :   -0.291389
  46 H :    0.156820
  47 H :    0.136919
  48 O :   -0.292433
  49 H :    0.135743
  50 H :    0.139804
  51 O :   -0.290230
  52 H :    0.157608
  53 H :    0.135330
  54 O :   -0.277547
  55 H :    0.143602
  56 H :    0.143849
  57 O :   -0.293450
  58 H :    0.138584
  59 H :    0.157689

  Mayer bond orders larger than 0.1
B(  0-O ,  1-H ) :   0.8164 B(  0-O ,  2-H ) :   0.8242 B(  0-O , 47-H ) :   0.1919
B(  3-O ,  4-H ) :   0.7780 B(  3-O ,  5-H ) :   0.7928 B(  3-O , 35-H ) :   0.1632
B(  4-H , 30-O ) :   0.1243 B(  5-H , 45-O ) :   0.1129 B(  6-O ,  7-H ) :   0.7050
B(  6-O ,  8-H ) :   0.8904 B(  6-O , 38-H ) :   0.1273 B(  7-H , 18-O ) :   0.1955
B(  9-O , 10-H ) :   0.7701 B(  9-O , 11-H ) :   0.8151 B(  9-O , 31-H ) :   0.1591
B( 10-H , 12-O ) :   0.1371 B( 12-O , 13-H ) :   0.8380 B( 12-O , 14-H ) :   0.8428
B( 15-O , 16-H ) :   0.7421 B( 15-O , 17-H ) :   0.7551 B( 15-O , 44-H ) :   0.1315
B( 16-H , 39-O ) :   0.1608 B( 17-H , 33-O ) :   0.1142 B( 18-O , 19-H ) :   0.8108
B( 18-O , 20-H ) :   0.8230 B( 21-O , 22-H ) :   0.7656 B( 21-O , 23-H ) :   0.7795
B( 21-O , 25-H ) :   0.1071 B( 21-O , 53-H ) :   0.1281 B( 23-H , 27-O ) :   0.1215
B( 24-O , 25-H ) :   0.8002 B( 24-O , 26-H ) :   0.8500 B( 24-O , 58-H ) :   0.1753
B( 27-O , 28-H ) :   0.8896 B( 27-O , 29-H ) :   0.7123 B( 29-H , 54-O ) :   0.1791
B( 30-O , 31-H ) :   0.7188 B( 30-O , 32-H ) :   0.8908 B( 33-O , 34-H ) :   0.7636
B( 33-O , 35-H ) :   0.7405 B( 34-H , 36-O ) :   0.1494 B( 36-O , 37-H ) :   0.7903
B( 36-O , 38-H ) :   0.7882 B( 37-H , 57-O ) :   0.1131 B( 39-O , 40-H ) :   0.8358
B( 39-O , 41-H ) :   0.8247 B( 42-O , 43-H ) :   0.8878 B( 42-O , 44-H ) :   0.7614
B( 45-O , 46-H ) :   0.8912 B( 45-O , 47-H ) :   0.7160 B( 48-O , 49-H ) :   0.8419
B( 48-O , 50-H ) :   0.8269 B( 48-O , 55-H ) :   0.1423 B( 51-O , 52-H ) :   0.8915
B( 51-O , 53-H ) :   0.7577 B( 54-O , 55-H ) :   0.7646 B( 54-O , 56-H ) :   0.8600
B( 57-O , 58-H ) :   0.7259 B( 57-O , 59-H ) :   0.8893

Dispersion correction           -0.076984865
FINAL SINGLE POINT ENERGY     -1528.929208045170

DIPOLE MOMENT
-------------
                                X             Y             Z
Electronic contribution:     -0.01121       0.17163      -0.09426
Nuclear contribution   :      0.18606      -1.18881       0.48289
                        -----------------------------------------
Total Dipole Moment    :      0.17485      -1.01718       0.38863
                        -----------------------------------------
Magnitude (a.u.)       :      1.10284
Magnitude (Debye)      :      2.80321

                             ****ORCA TERMINATED NORMALLY****
TOTAL RUN TIME: 0 days 0 hours 2 minutes 46 seconds 855 msec
