                         Program Version 3.0.3 - RELEASE   -
|  1> ! B3LYP Def2-TZVP def2-TZVP/J RIJCOSX TightSCF Grid4 D3BJ COSMO
|  2>
|  3> %pal nprocs 12 end
|  4>
|  5> %scf
|  6>         maxiter 400
|  7> end
|  8>
|  9> %cosmo
| 10>         SMD true
| 11>         solvent "WATER"
| 12> end
| 13>
| 14> * xyz  0  1
| 15> O  1.879358	-2.256453	2.296421
| 16> H  1.340401	-2.607722	1.552029
| 17> H  1.230961	-1.879192	2.936947
| 18> O  2.505983	0.552606	-0.876909
| 19> H  2.339263	1.532786	-0.826335
| 20> H  2.876961	0.311372	0.012159
| 21> O  0.592977	-3.135349	-2.462016
| 22> H  1.106032	-2.300750	-2.700559
| 23> H  1.013682	-3.857560	-2.952804
| 24> O  0.908085	3.308261	1.811113
| 25> H  1.156317	2.593924	2.452660
| 26> H  -0.071489	3.255812	1.730605
| 27> O  1.822719	1.436287	3.543729
| 28> H  2.366750	0.966465	2.868093
| 29> H  1.247121	0.722002	3.888780
| 30> O  -2.055923	-0.106922	-1.582871
| 31> H  -2.177744	-1.027197	-1.967216
| 32> H  -1.223137	-0.196829	-1.039148
| 33> O  1.790126	-0.889294	-3.061350
| 34> H  2.188611	-0.416362	-2.295360
| 35> H  1.029678	-0.309326	-3.304274
| 36> O  -1.033955	0.394868	2.074713
| 37> H  -0.465213	0.224726	1.276365
| 38> H  -1.340238	1.335634	1.979905
| 39> O  -3.035105	-0.989673	0.919729
| 40> H  -2.349184	-0.514895	1.454660
| 41> H  -2.959043	-0.573898	0.037032
| 42> O  -1.749549	2.876114	1.472608
| 43> H  -2.466164	3.329979	1.941501
| 44> H  -2.026825	2.825465	0.505548
| 45> O  1.858213	3.115326	-0.608314
| 46> H  1.513706	3.193686	0.339045
| 47> H  2.566738	3.772201	-0.688868
| 48> O  0.138475	-0.378671	-0.122155
| 49> H  0.258883	-1.358690	0.027710
| 50> H  1.006457	-0.029533	-0.470403
| 51> O  0.326175	-3.007881	0.183041
| 52> H  -0.625567	-3.273096	0.281406
| 53> H  0.541530	-3.195401	-0.768337
| 54> O  -2.121641	-2.628549	-2.421757
| 55> H  -2.318546	-3.055742	-1.556379
| 56> H  -1.168865	-2.840975	-2.566421
| 57> O  -0.336467	0.761199	-3.482027
| 58> H  -0.715471	0.735576	-4.375684
| 59> H  -1.069135	0.462658	-2.886322
| 60> O  3.142162	-0.038460	1.643327
| 61> H  4.074997	-0.153959	1.883585
| 62> H  2.704227	-0.919761	1.860419
| 63> O  -0.168451	3.317555	-2.496199
| 64> H  -0.131581	2.448541	-2.956545
| 65> H  0.577554	3.271862	-1.852469
| 66> O  0.273483	-0.837931	3.970160
| 67> H  -0.289800	-1.140865	4.698322
| 68> H  -0.332083	-0.366904	3.334042
| 69> O  -2.360521	2.669926	-1.077433
| 70> H  -1.568108	2.979428	-1.596409
| 71> H  -2.452675	1.726851	-1.317051
| 72> O  -2.304871	-3.412195	0.183756
| 73> H  -2.634906	-2.545781	0.567255
| 74> H  -2.789872	-4.115368	0.642061
| 75> **                         ****END OF INPUT****

CARTESIAN COORDINATES (ANGSTROEM)
---------------------------------
  O      1.879358   -2.256453    2.296421
  H      1.340401   -2.607722    1.552029
  H      1.230961   -1.879192    2.936947
  O      2.505983    0.552606   -0.876909
  H      2.339263    1.532786   -0.826335
  H      2.876961    0.311372    0.012159
  O      0.592977   -3.135349   -2.462016
  H      1.106032   -2.300750   -2.700559
  H      1.013682   -3.857560   -2.952804
  O      0.908085    3.308261    1.811113
  H      1.156317    2.593924    2.452660
  H     -0.071489    3.255812    1.730605
  O      1.822719    1.436287    3.543729
  H      2.366750    0.966465    2.868093
  H      1.247121    0.722002    3.888780
  O     -2.055923   -0.106922   -1.582871
  H     -2.177744   -1.027197   -1.967216
  H     -1.223137   -0.196829   -1.039148
  O      1.790126   -0.889294   -3.061350
  H      2.188611   -0.416362   -2.295360
  H      1.029678   -0.309326   -3.304274
  O     -1.033955    0.394868    2.074713
  H     -0.465213    0.224726    1.276365
  H     -1.340238    1.335634    1.979905
  O     -3.035105   -0.989673    0.919729
  H     -2.349184   -0.514895    1.454660
  H     -2.959043   -0.573898    0.037032
  O     -1.749549    2.876114    1.472608
  H     -2.466164    3.329979    1.941501
  H     -2.026825    2.825465    0.505548
  O      1.858213    3.115326   -0.608314
  H      1.513706    3.193686    0.339045
  H      2.566738    3.772201   -0.688868
  O      0.138475   -0.378671   -0.122155
  H      0.258883   -1.358690    0.027710
  H      1.006457   -0.029533   -0.470403
  O      0.326175   -3.007881    0.183041
  H     -0.625567   -3.273096    0.281406
  H      0.541530   -3.195401   -0.768337
  O     -2.121641   -2.628549   -2.421757
  H     -2.318546   -3.055742   -1.556379
  H     -1.168865   -2.840975   -2.566421
  O     -0.336467    0.761199   -3.482027
  H     -0.715471    0.735576   -4.375684
  H     -1.069135    0.462658   -2.886322
  O      3.142162   -0.038460    1.643327
  H      4.074997   -0.153959    1.883585
  H      2.704227   -0.919761    1.860419
  O     -0.168451    3.317555   -2.496199
  H     -0.131581    2.448541   -2.956545
  H      0.577554    3.271862   -1.852469
  O      0.273483   -0.837931    3.970160
  H     -0.289800   -1.140865    4.698322
  H     -0.332083   -0.366904    3.334042
  O     -2.360521    2.669926   -1.077433
  H     -1.568108    2.979428   -1.596409
  H     -2.452675    1.726851   -1.317051
  O     -2.304871   -3.412195    0.183756
  H     -2.634906   -2.545781    0.567255
  H     -2.789872   -4.115368    0.642061

 Total Charge           Charge          ....    0
 Multiplicity           Mult            ....    1
 Number of Electrons    NEL             ....  200
 Basis Dimension        Dim             ....  860

ORBITAL ENERGIES
----------------

  NO   OCC          E(Eh)            E(eV)
   0   2.0000     -19.139656      -520.8165
   1   2.0000     -19.132750      -520.6286
   2   2.0000     -19.131835      -520.6037
   3   2.0000     -19.131607      -520.5975
   4   2.0000     -19.129590      -520.5426
   5   2.0000     -19.129521      -520.5407
   6   2.0000     -19.129323      -520.5353
   7   2.0000     -19.129073      -520.5285
   8   2.0000     -19.128870      -520.5230
   9   2.0000     -19.124156      -520.3947
  10   2.0000     -19.122357      -520.3458
  11   2.0000     -19.122244      -520.3427
  12   2.0000     -19.120434      -520.2934
  13   2.0000     -19.120387      -520.2922
  14   2.0000     -19.119638      -520.2718
  15   2.0000     -19.117131      -520.2036
  16   2.0000     -19.116081      -520.1750
  17   2.0000     -19.115428      -520.1572
  18   2.0000     -19.113221      -520.0972
  19   2.0000     -19.113052      -520.0926
  20   2.0000      -1.039662       -28.2906
  21   2.0000      -1.029105       -28.0034
  22   2.0000      -1.026560       -27.9341
  23   2.0000      -1.025016       -27.8921
  24   2.0000      -1.019881       -27.7524
  25   2.0000      -1.019089       -27.7308
  26   2.0000      -1.017690       -27.6927
  27   2.0000      -1.014185       -27.5974
  28   2.0000      -1.011682       -27.5293
  29   2.0000      -1.010453       -27.4958
  30   2.0000      -1.005486       -27.3607
  31   2.0000      -1.002918       -27.2908
  32   2.0000      -0.999979       -27.2108
  33   2.0000      -0.998319       -27.1657
  34   2.0000      -0.991424       -26.9780
  35   2.0000      -0.989153       -26.9162
  36   2.0000      -0.987732       -26.8775
  37   2.0000      -0.986504       -26.8442
  38   2.0000      -0.983236       -26.7552
  39   2.0000      -0.982970       -26.7480
  40   2.0000      -0.551574       -15.0091
  41   2.0000      -0.547687       -14.9033
  42   2.0000      -0.546585       -14.8733
  43   2.0000      -0.544958       -14.8291
  44   2.0000      -0.538984       -14.6665
  45   2.0000      -0.538547       -14.6546
  46   2.0000      -0.537165       -14.6170
  47   2.0000      -0.535444       -14.5702
  48   2.0000      -0.534468       -14.5436
  49   2.0000      -0.532768       -14.4974
  50   2.0000      -0.531858       -14.4726
  51   2.0000      -0.529686       -14.4135
  52   2.0000      -0.526354       -14.3228
  53   2.0000      -0.523993       -14.2586
  54   2.0000      -0.523273       -14.2390
  55   2.0000      -0.522576       -14.2200
  56   2.0000      -0.521683       -14.1957
  57   2.0000      -0.520279       -14.1575
  58   2.0000      -0.518631       -14.1127
  59   2.0000      -0.509672       -13.8689
  60   2.0000      -0.462590       -12.5877
  61   2.0000      -0.453832       -12.3494
  62   2.0000      -0.448688       -12.2094
  63   2.0000      -0.444346       -12.0913
  64   2.0000      -0.439714       -11.9652
  65   2.0000      -0.438601       -11.9349
  66   2.0000      -0.420474       -11.4417
  67   2.0000      -0.416295       -11.3280
  68   2.0000      -0.414115       -11.2686
  69   2.0000      -0.405020       -11.0211
  70   2.0000      -0.400136       -10.8883
  71   2.0000      -0.395015       -10.7489
  72   2.0000      -0.392331       -10.6759
  73   2.0000      -0.391230       -10.6459
  74   2.0000      -0.388240       -10.5646
  75   2.0000      -0.382367       -10.4047
  76   2.0000      -0.374009       -10.1773
  77   2.0000      -0.370600       -10.0845
  78   2.0000      -0.365581        -9.9480
  79   2.0000      -0.354078        -9.6350
  80   2.0000      -0.334143        -9.0925
  81   2.0000      -0.331655        -9.0248
  82   2.0000      -0.331022        -9.0076
  83   2.0000      -0.329498        -8.9661
  84   2.0000      -0.329133        -8.9562
  85   2.0000      -0.327077        -8.9002
  86   2.0000      -0.325562        -8.8590
  87   2.0000      -0.324620        -8.8334
  88   2.0000      -0.323497        -8.8028
  89   2.0000      -0.323357        -8.7990
  90   2.0000      -0.322972        -8.7885
  91   2.0000      -0.320931        -8.7330
  92   2.0000      -0.319565        -8.6958
  93   2.0000      -0.319314        -8.6890
  94   2.0000      -0.316819        -8.6211
  95   2.0000      -0.315638        -8.5890
  96   2.0000      -0.313907        -8.5418
  97   2.0000      -0.312325        -8.4988
  98   2.0000      -0.312229        -8.4962
  99   2.0000      -0.309806        -8.4303
 100   0.0000       0.004300         0.1170
 101   0.0000       0.034096         0.9278
 102   0.0000       0.036443         0.9917
 103   0.0000       0.044221         1.2033
 104   0.0000       0.057890         1.5753

MULLIKEN ATOMIC CHARGES
-----------------------
   0 O :   -0.755662
   1 H :    0.391500
   2 H :    0.366959
   3 O :   -0.773419
   4 H :    0.386725
   5 H :    0.377609
   6 O :   -0.747778
   7 H :    0.382901
   8 H :    0.385254
   9 O :   -0.759956
  10 H :    0.371478
  11 H :    0.374844
  12 O :   -0.754609
  13 H :    0.366929
  14 H :    0.357909
  15 O :   -0.823061
  16 H :    0.399905
  17 H :    0.385029
  18 O :   -0.755432
  19 H :    0.387940
  20 H :    0.374683
  21 O :   -0.776022
  22 H :    0.376981
  23 H :    0.385886
  24 O :   -0.752210
  25 H :    0.380156
  26 H :    0.366304
  27 O :   -0.747110
  28 H :    0.388347
  29 H :    0.384628
  30 O :   -0.748063
  31 H :    0.382219
  32 H :    0.385841
  33 O :   -0.781911
  34 H :    0.365066
  35 H :    0.375835
  36 O :   -0.766581
  37 H :    0.381332
  38 H :    0.380423
  39 O :   -0.755760
  40 H :    0.370318
  41 H :    0.367834
  42 O :   -0.731275
  43 H :    0.390590
  44 H :    0.372409
  45 O :   -0.738140
  46 H :    0.385411
  47 H :    0.379725
  48 O :   -0.762185
  49 H :    0.370471
  50 H :    0.371779
  51 O :   -0.748084
  52 H :    0.382132
  53 H :    0.398044
  54 O :   -0.755859
  55 H :    0.376222
  56 H :    0.377796
  57 O :   -0.743647
  58 H :    0.384057
  59 H :    0.387293
Sum of atomic charges:   -0.0000000

LOEWDIN ATOMIC CHARGES
----------------------
   0 O :   -0.313540
   1 H :    0.140629
   2 H :    0.139115
   3 O :   -0.293596
   4 H :    0.137646
   5 H :    0.137991
   6 O :   -0.278484
   7 H :    0.141577
   8 H :    0.182553
   9 O :   -0.316117
  10 H :    0.138581
  11 H :    0.137106
  12 O :   -0.332047
  13 H :    0.138375
  14 H :    0.141014
  15 O :   -0.307096
  16 H :    0.140267
  17 H :    0.125477
  18 O :   -0.311600
  19 H :    0.141274
  20 H :    0.139584
  21 O :   -0.270909
  22 H :    0.127348
  23 H :    0.137577
  24 O :   -0.310753
  25 H :    0.137176
  26 H :    0.142842
  27 O :   -0.268605
  28 H :    0.184570
  29 H :    0.144200
  30 O :   -0.273584
  31 H :    0.140252
  32 H :    0.182342
  33 O :   -0.266421
  34 H :    0.131087
  35 H :    0.132655
  36 O :   -0.285890
  37 H :    0.138961
  38 H :    0.140354
  39 O :   -0.319006
  40 H :    0.141280
  41 H :    0.141931
  42 O :   -0.258088
  43 H :    0.189308
  44 H :    0.142005
  45 O :   -0.267051
  46 H :    0.183248
  47 H :    0.142730
  48 O :   -0.332359
  49 H :    0.138890
  50 H :    0.142313
  51 O :   -0.289305
  52 H :    0.182757
  53 H :    0.138786
  54 O :   -0.312190
  55 H :    0.140345
  56 H :    0.145941
  57 O :   -0.272984
  58 H :    0.144632
  59 H :    0.184909

  Mayer bond orders larger than 0.1
B(  0-O ,  1-H ) :   0.8076 B(  0-O ,  2-H ) :   0.8018 B(  0-O , 47-H ) :   0.1545
B(  2-H , 51-O ) :   0.1087 B(  3-O ,  4-H ) :   0.7664 B(  3-O ,  5-H ) :   0.7757
B(  3-O , 35-H ) :   0.1788 B(  4-H , 30-O ) :   0.1308 B(  5-H , 45-O ) :   0.1298
B(  6-O ,  7-H ) :   0.7415 B(  6-O ,  8-H ) :   0.8534 B(  6-O , 38-H ) :   0.1329
B(  6-O , 41-H ) :   0.1047 B(  7-H , 18-O ) :   0.1539 B(  9-O , 10-H ) :   0.7885
B(  9-O , 11-H ) :   0.8018 B(  9-O , 31-H ) :   0.1639 B( 10-H , 12-O ) :   0.1219
B( 11-H , 27-O ) :   0.1029 B( 12-O , 13-H ) :   0.8047 B( 12-O , 14-H ) :   0.8237
B( 13-H , 45-O ) :   0.1125 B( 14-H , 51-O ) :   0.1000 B( 15-O , 16-H ) :   0.7486
B( 15-O , 17-H ) :   0.7579 B( 15-O , 44-H ) :   0.1099 B( 16-H , 39-O ) :   0.1445
B( 17-H , 33-O ) :   0.1106 B( 18-O , 19-H ) :   0.8101 B( 18-O , 20-H ) :   0.8047
B( 20-H , 42-O ) :   0.1001 B( 21-O , 22-H ) :   0.7726 B( 21-O , 23-H ) :   0.7667
B( 21-O , 25-H ) :   0.1193 B( 22-H , 33-O ) :   0.1141 B( 23-H , 27-O ) :   0.1304
B( 24-O , 25-H ) :   0.7858 B( 24-O , 26-H ) :   0.8333 B( 24-O , 58-H ) :   0.1330
B( 27-O , 28-H ) :   0.8506 B( 27-O , 29-H ) :   0.7450 B( 29-H , 54-O ) :   0.1480
B( 30-O , 31-H ) :   0.7350 B( 30-O , 32-H ) :   0.8533 B( 33-O , 34-H ) :   0.7491
B( 33-O , 35-H ) :   0.7398 B( 34-H , 36-O ) :   0.1663 B( 36-O , 37-H ) :   0.7720
B( 36-O , 38-H ) :   0.7745 B( 37-H , 57-O ) :   0.1303 B( 39-O , 40-H ) :   0.8086
B( 39-O , 41-H ) :   0.8080 B( 40-H , 57-O ) :   0.1025 B( 42-O , 43-H ) :   0.8494
B( 42-O , 44-H ) :   0.7810 B( 45-O , 46-H ) :   0.8535 B( 45-O , 47-H ) :   0.7452
B( 48-O , 49-H ) :   0.8128 B( 48-O , 50-H ) :   0.8081 B( 48-O , 55-H ) :   0.1433
B( 51-O , 52-H ) :   0.8544 B( 51-O , 53-H ) :   0.7698 B( 54-O , 55-H ) :   0.7720
B( 54-O , 56-H ) :   0.8376 B( 57-O , 58-H ) :   0.7564 B( 57-O , 59-H ) :   0.8505

Dispersion correction           -0.077008213
FINAL SINGLE POINT ENERGY     -1528.982235660525

DIPOLE MOMENT
-------------
                                X             Y             Z
Electronic contribution:      0.07157      -0.19643      -0.01082
Nuclear contribution   :     -0.14843      -2.07455       0.27835
                        -----------------------------------------
Total Dipole Moment    :     -0.07686      -2.27098       0.26753
                        -----------------------------------------
Magnitude (a.u.)       :      2.28797
Magnitude (Debye)      :      5.81556

                             ****ORCA TERMINATED NORMALLY****
TOTAL RUN TIME: 0 days 0 hours 2 minutes 45 seconds 576 msec
