                         Program Version 4.2.0 -  RELEASE  -
|  1> # 12h2o.su.etal.mol1,11
|  2> ! MP2 def2-TZVP EnGrad TightSCF
|  3>
|  4> %pal
|  5>     nprocs 6
|  6> end
|  7>
|  8> %maxcore 8000
|  9>
| 10> %scf
| 11>     ConvForced true
| 12> end
| 13>
| 14> *xyz 0 1
| 15> O  -1.794470000  -0.923410000   2.768350000
| 16> H  -2.338250000  -1.359750000   3.430940000
| 17> H  -0.879480000  -1.303000000   2.865760000
| 18> O  -0.741530000   1.752130000   2.896280000
| 19> H  -0.920500000   2.036450000   1.984040000
| 20> H  -1.242140000   0.921210000   2.984230000
| 21> *
| 22>
| 23>                          ****END OF INPUT****

CARTESIAN COORDINATES (ANGSTROEM)
---------------------------------
  O     -1.794470   -0.923410    2.768350
  H     -2.338250   -1.359750    3.430940
  H     -0.879480   -1.303000    2.865760
  O     -0.741530    1.752130    2.896280
  H     -0.920500    2.036450    1.984040
  H     -1.242140    0.921210    2.984230

 Total Charge           Charge          ....    0
 Multiplicity           Mult            ....    1
 Number of Electrons    NEL             ....   20
 Basis Dimension        Dim             ....   86

ORBITAL ENERGIES
----------------

  NO   OCC          E(Eh)            E(eV)
   0   2.0000     -20.591548      -560.3245
   1   2.0000     -20.530841      -558.6726
   2   2.0000      -1.369186       -37.2575
   3   2.0000      -1.313284       -35.7363
   4   2.0000      -0.736358       -20.0373
   5   2.0000      -0.682874       -18.5819
   6   2.0000      -0.607994       -16.5444
   7   2.0000      -0.557323       -15.1655
   8   2.0000      -0.526723       -14.3329
   9   2.0000      -0.478543       -13.0218
  10   0.0000       0.109724         2.9857
  11   0.0000       0.170582         4.6418
  12   0.0000       0.185033         5.0350
  13   0.0000       0.292073         7.9477
  14   0.0000       0.484661        13.1883

MULLIKEN ATOMIC CHARGES
-----------------------
   0 O :   -0.693786
   1 H :    0.353579
   2 H :    0.360385
   3 O :   -0.705248
   4 H :    0.329737
   5 H :    0.355333
Sum of atomic charges:    0.0000000

LOEWDIN ATOMIC CHARGES
----------------------
   0 O :   -0.310284
   1 H :    0.164004
   2 H :    0.188356
   3 O :   -0.349005
   4 H :    0.160651
   5 H :    0.146279

  Mayer bond orders larger than 0.100000
B(  0-O ,  1-H ) :   0.8411 B(  0-O ,  2-H ) :   0.8309 B(  3-O ,  4-H ) :   0.8580
B(  3-O ,  5-H ) :   0.8201

MP2 TOTAL ENERGY:     -152.633480591 Eh
FINAL SINGLE POINT ENERGY      -152.633480591288

DIPOLE MOMENT
-------------
                                X             Y             Z
Electronic contribution:     -0.03162      -0.01559       0.02060
Nuclear contribution   :     -0.25668      -1.13412      -0.05351
                        -----------------------------------------
Total Dipole Moment    :     -0.28830      -1.14971      -0.03291
                        -----------------------------------------
Magnitude (a.u.)       :      1.18576
Magnitude (Debye)      :      3.01397

Rotational constants in cm-1:     6.944546     0.220227     0.219965
Rotational constants in MHz : 208192.237355  6602.242934  6594.373720

                             ****ORCA TERMINATED NORMALLY****
TOTAL RUN TIME: 0 days 0 hours 0 minutes 35 seconds 177 msec
