                         Program Version 4.2.0 -  RELEASE  -
|  1> ! MP2 def2-TZVP EnGrad TightSCF FrozenCore
|  2>
|  3> %pal
|  4>     nprocs 12
|  5> end
|  6>
|  7> %maxcore 8000
|  8>
|  9> %scf
| 10>     ConvForced true
| 11> end
| 12>
| 13> *xyz 0 1
| 14> C     3.284478    -0.449991    -1.065195
| 15> H     2.814587    -0.304480    -2.041484
| 16> H     2.975738    -1.417131    -0.656168
| 17> H     4.371783    -0.430081    -1.175019
| 18> C     2.853523     0.605739    -0.152772
| 19> N     2.518408     1.446237     0.576143
| 20> C     0.246009     3.205123    -0.870046
| 21> H     0.511187     2.428286    -1.592493
| 22> H     1.157935     3.565734    -0.388984
| 23> H    -0.257880     4.030542    -1.380002
| 24> C    -0.641053     2.625213     0.134208
| 25> N    -1.366079     2.176264     0.923754
| 26> C    -3.521834     0.416704    -0.641707
| 27> H    -4.415125     0.072610    -1.169463
| 28> H    -2.770023     0.750687    -1.362938
| 29> H    -3.771890     1.257028     0.009737
| 30> C    -2.962551    -0.670893     0.155835
| 31> N    -2.521026    -1.549916     0.774681
| 32> C     0.228629    -0.280017     2.584486
| 33> H     0.714961     0.680656     2.393218
| 34> H     0.283891    -0.518299     3.649945
| 35> H    -0.817668    -0.207908     2.277543
| 36> C     0.896892    -1.320153     1.810061
| 37> N     1.443888    -2.142706     1.196648
| 38> C    -0.226089    -2.727932    -1.430774
| 39> H    -0.807743    -2.950396    -0.531871
| 40> H     0.778763    -3.136843    -1.297843
| 41> H    -0.702493    -3.180592    -2.304381
| 42> C    -0.149832    -1.279374    -1.601161
| 43> N    -0.091626    -0.127925    -1.752283
| 44> *
| 45>
| 46>                          ****END OF INPUT****

CARTESIAN COORDINATES (ANGSTROEM)
---------------------------------
  C      3.284478   -0.449991   -1.065195
  H      2.814587   -0.304480   -2.041484
  H      2.975738   -1.417131   -0.656168
  H      4.371783   -0.430081   -1.175019
  C      2.853523    0.605739   -0.152772
  N      2.518408    1.446237    0.576143
  C      0.246009    3.205123   -0.870046
  H      0.511187    2.428286   -1.592493
  H      1.157935    3.565734   -0.388984
  H     -0.257880    4.030542   -1.380002
  C     -0.641053    2.625213    0.134208
  N     -1.366079    2.176264    0.923754
  C     -3.521834    0.416704   -0.641707
  H     -4.415125    0.072610   -1.169463
  H     -2.770023    0.750687   -1.362938
  H     -3.771890    1.257028    0.009737
  C     -2.962551   -0.670893    0.155835
  N     -2.521026   -1.549916    0.774681
  C      0.228629   -0.280017    2.584486
  H      0.714961    0.680656    2.393218
  H      0.283891   -0.518299    3.649945
  H     -0.817668   -0.207908    2.277543
  C      0.896892   -1.320153    1.810061
  N      1.443888   -2.142706    1.196648
  C     -0.226089   -2.727932   -1.430774
  H     -0.807743   -2.950396   -0.531871
  H      0.778763   -3.136843   -1.297843
  H     -0.702493   -3.180592   -2.304381
  C     -0.149832   -1.279374   -1.601161
  N     -0.091626   -0.127925   -1.752283

 Total Charge           Charge          ....    0
 Multiplicity           Mult            ....    1
 Number of Electrons    NEL             ....  110
 Basis Dimension        Dim             ....  555

ORBITAL ENERGIES
----------------

  NO   OCC          E(Eh)            E(eV)
   0   2.0000     -15.570158      -423.6855
   1   2.0000     -15.564819      -423.5403
   2   2.0000     -15.563802      -423.5126
   3   2.0000     -15.559516      -423.3959
   4   2.0000     -15.554703      -423.2650
   5   2.0000     -11.285104      -307.0833
   6   2.0000     -11.278584      -306.9059
   7   2.0000     -11.277586      -306.8787
   8   2.0000     -11.273651      -306.7716
   9   2.0000     -11.271243      -306.7061
  10   2.0000     -11.269546      -306.6599
  11   2.0000     -11.267208      -306.5963
  12   2.0000     -11.266337      -306.5726
  13   2.0000     -11.261646      -306.4450
  14   2.0000     -11.246958      -306.0453
  15   2.0000      -1.220303       -33.2061
  16   2.0000      -1.213974       -33.0339
  17   2.0000      -1.212544       -32.9950
  18   2.0000      -1.208372       -32.8815
  19   2.0000      -1.204861       -32.7859
  20   2.0000      -1.027842       -27.9690
  21   2.0000      -1.026827       -27.9414
  22   2.0000      -1.025037       -27.8927
  23   2.0000      -1.020437       -27.7675
  24   2.0000      -1.009060       -27.4579
  25   2.0000      -0.687671       -18.7125
  26   2.0000      -0.686918       -18.6920
  27   2.0000      -0.683933       -18.6108
  28   2.0000      -0.679848       -18.4996
  29   2.0000      -0.669868       -18.2280
  30   2.0000      -0.626458       -17.0468
  31   2.0000      -0.622313       -16.9340
  32   2.0000      -0.620296       -16.8791
  33   2.0000      -0.618353       -16.8262
  34   2.0000      -0.614962       -16.7340
  35   2.0000      -0.611765       -16.6470
  36   2.0000      -0.608639       -16.5619
  37   2.0000      -0.604764       -16.4565
  38   2.0000      -0.597552       -16.2602
  39   2.0000      -0.593895       -16.1607
  40   2.0000      -0.557698       -15.1757
  41   2.0000      -0.553274       -15.0553
  42   2.0000      -0.551071       -14.9954
  43   2.0000      -0.548905       -14.9365
  44   2.0000      -0.544493       -14.8164
  45   2.0000      -0.467249       -12.7145
  46   2.0000      -0.463680       -12.6174
  47   2.0000      -0.459630       -12.5072
  48   2.0000      -0.455305       -12.3895
  49   2.0000      -0.455130       -12.3847
  50   2.0000      -0.453414       -12.3380
  51   2.0000      -0.450286       -12.2529
  52   2.0000      -0.448704       -12.2099
  53   2.0000      -0.444272       -12.0893
  54   2.0000      -0.442293       -12.0354
  55   0.0000       0.126179         3.4335
  56   0.0000       0.143578         3.9070
  57   0.0000       0.149881         4.0785
  58   0.0000       0.161242         4.3876
  59   0.0000       0.167713         4.5637

MULLIKEN ATOMIC CHARGES
-----------------------
   0 C :   -0.301384
   1 H :    0.173917
   2 H :    0.195139
   3 H :    0.173202
   4 C :   -0.071552
   5 N :   -0.171776
   6 C :   -0.291400
   7 H :    0.184450
   8 H :    0.184810
   9 H :    0.165583
  10 C :   -0.069945
  11 N :   -0.174444
  12 C :   -0.291788
  13 H :    0.170566
  14 H :    0.180609
  15 H :    0.186061
  16 C :   -0.080341
  17 N :   -0.167762
  18 C :   -0.290866
  19 H :    0.193599
  20 H :    0.164450
  21 H :    0.199786
  22 C :   -0.070957
  23 N :   -0.190306
  24 C :   -0.267519
  25 H :    0.206135
  26 H :    0.174729
  27 H :    0.167142
  28 C :   -0.097358
  29 N :   -0.182778
Sum of atomic charges:   -0.0000000

LOEWDIN ATOMIC CHARGES
----------------------
   0 C :   -0.284495
   1 H :    0.150374
   2 H :    0.154163
   3 H :    0.148020
   4 C :   -0.200430
   5 N :    0.036596
   6 C :   -0.288633
   7 H :    0.151343
   8 H :    0.153234
   9 H :    0.145091
  10 C :   -0.202288
  11 N :    0.032973
  12 C :   -0.285631
  13 H :    0.146155
  14 H :    0.152912
  15 H :    0.154687
  16 C :   -0.203164
  17 N :    0.031584
  18 C :   -0.278668
  19 H :    0.154515
  20 H :    0.148239
  21 H :    0.154658
  22 C :   -0.193142
  23 N :    0.019506
  24 C :   -0.283394
  25 H :    0.158830
  26 H :    0.151537
  27 H :    0.146753
  28 C :   -0.202388
  29 N :    0.031064

  Mayer bond orders larger than 0.100000
B(  0-C ,  1-H ) :   0.9179 B(  0-C ,  2-H ) :   0.9077 B(  0-C ,  3-H ) :   0.9112
B(  0-C ,  4-C ) :   0.8957 B(  4-C ,  5-N ) :   2.7255 B(  6-C ,  7-H ) :   0.9148
B(  6-C ,  8-H ) :   0.9136 B(  6-C ,  9-H ) :   0.9121 B(  6-C , 10-C ) :   0.8932
B( 10-C , 11-N ) :   2.7340 B( 12-C , 13-H ) :   0.9107 B( 12-C , 14-H ) :   0.9155
B( 12-C , 15-H ) :   0.9141 B( 12-C , 16-C ) :   0.8946 B( 16-C , 17-N ) :   2.7378
B( 18-C , 19-H ) :   0.9071 B( 18-C , 20-H ) :   0.9096 B( 18-C , 21-H ) :   0.9061
B( 18-C , 22-C ) :   0.8990 B( 22-C , 23-N ) :   2.7419 B( 24-C , 25-H ) :   0.9065
B( 24-C , 26-H ) :   0.9137 B( 24-C , 27-H ) :   0.9089 B( 24-C , 28-C ) :   0.8922
B( 28-C , 29-N ) :   2.7161

MP2 TOTAL ENERGY:     -662.459425484 Eh
FINAL SINGLE POINT ENERGY      -662.459425483567

DIPOLE MOMENT
-------------
                                X             Y             Z
Electronic contribution:     -0.08398      -0.43775       3.90914
Nuclear contribution   :      0.06635       0.64277      -5.59595
                        -----------------------------------------
Total Dipole Moment    :     -0.01763       0.20502      -1.68681
                        -----------------------------------------
Magnitude (a.u.)       :      1.69932
Magnitude (Debye)      :      4.31932

Rotational constants in cm-1:     0.017721     0.014636     0.011796
Rotational constants in MHz :   531.275413   438.781278   353.638125

                             ****ORCA TERMINATED NORMALLY****
TOTAL RUN TIME: 0 days 0 hours 22 minutes 30 seconds 370 msec
