                         Program Version 4.2.0 -  RELEASE  -
|  1> # 12meoh.boyd.etal.mol0,9,11
|  2> ! MP2 def2-TZVP EnGrad TightSCF
|  3>
|  4> %pal
|  5>     nprocs 6
|  6> end
|  7>
|  8> %maxcore 8000
|  9>
| 10> %scf
| 11>     ConvForced true
| 12> end
| 13>
| 14> *xyz 0 1
| 15> O  -1.776108874  -2.741384797  -1.019308298
| 16> H  -2.520094035  -2.452295987  -0.420778302
| 17> C  -2.174025166  -3.952700964  -1.647004581
| 18> H  -1.359803895  -4.272673416  -2.304149236
| 19> H  -3.075973971  -3.808692420  -2.256751112
| 20> H  -2.370225393  -4.752784761  -0.918966137
| 21> O   1.390610024   3.194080770  -1.536658882
| 22> H   2.162932299   2.881562730  -0.993525056
| 23> C   1.202977189   4.580367182  -1.302880219
| 24> H   0.374773115   4.915764831  -1.934164643
| 25> H   2.098649340   5.157710875  -1.570472348
| 26> H   0.950320401   4.800436015  -0.254328827
| 27> O   3.252955559   0.588596242   1.858934315
| 28> H   3.621209177  -0.251605199   1.476063364
| 29> C   4.040824528   0.944288422   2.989639460
| 30> H   3.670521436   1.902573549   3.363847391
| 31> H   5.103749934   1.055868619   2.734277559
| 32> H   3.948540682   0.200279590   3.792908518
| 33> *
| 34>
| 35>                          ****END OF INPUT****

CARTESIAN COORDINATES (ANGSTROEM)
---------------------------------
  O     -1.776109   -2.741385   -1.019308
  H     -2.520094   -2.452296   -0.420778
  C     -2.174025   -3.952701   -1.647005
  H     -1.359804   -4.272673   -2.304149
  H     -3.075974   -3.808692   -2.256751
  H     -2.370225   -4.752785   -0.918966
  O      1.390610    3.194081   -1.536659
  H      2.162932    2.881563   -0.993525
  C      1.202977    4.580367   -1.302880
  H      0.374773    4.915765   -1.934165
  H      2.098649    5.157711   -1.570472
  H      0.950320    4.800436   -0.254329
  O      3.252956    0.588596    1.858934
  H      3.621209   -0.251605    1.476063
  C      4.040825    0.944288    2.989639
  H      3.670521    1.902574    3.363847
  H      5.103750    1.055869    2.734278
  H      3.948541    0.200280    3.792909

 Total Charge           Charge          ....    0
 Multiplicity           Mult            ....    1
 Number of Electrons    NEL             ....   54
 Basis Dimension        Dim             ....  258

ORBITAL ENERGIES
----------------

  NO   OCC          E(Eh)            E(eV)
   0   2.0000     -20.559438      -559.4508
   1   2.0000     -20.553367      -559.2855
   2   2.0000     -20.545401      -559.0688
   3   2.0000     -11.273585      -306.7698
   4   2.0000     -11.267824      -306.6131
   5   2.0000     -11.262273      -306.4620
   6   2.0000      -1.348630       -36.6981
   7   2.0000      -1.342521       -36.5319
   8   2.0000      -1.336328       -36.3633
   9   2.0000      -0.921665       -25.0798
  10   2.0000      -0.915216       -24.9043
  11   2.0000      -0.909699       -24.7542
  12   2.0000      -0.683613       -18.6020
  13   2.0000      -0.677232       -18.4284
  14   2.0000      -0.671655       -18.2767
  15   2.0000      -0.619006       -16.8440
  16   2.0000      -0.613289       -16.6884
  17   2.0000      -0.606871       -16.5138
  18   2.0000      -0.592936       -16.1346
  19   2.0000      -0.586907       -15.9706
  20   2.0000      -0.581665       -15.8279
  21   2.0000      -0.502219       -13.6661
  22   2.0000      -0.496038       -13.4979
  23   2.0000      -0.488786       -13.3005
  24   2.0000      -0.451159       -12.2767
  25   2.0000      -0.444598       -12.0981
  26   2.0000      -0.437519       -11.9055
  27   0.0000       0.127372         3.4660
  28   0.0000       0.138854         3.7784
  29   0.0000       0.152487         4.1494
  30   0.0000       0.172488         4.6936
  31   0.0000       0.179415         4.8821

MULLIKEN ATOMIC CHARGES
-----------------------
   0 O :   -0.492404
   1 H :    0.321664
   2 C :   -0.173466
   3 H :    0.128352
   4 H :    0.108844
   5 H :    0.107010
   6 O :   -0.497930
   7 H :    0.327412
   8 C :   -0.169505
   9 H :    0.125783
  10 H :    0.104671
  11 H :    0.107603
  12 O :   -0.498238
  13 H :    0.324955
  14 C :   -0.174118
  15 H :    0.128277
  16 H :    0.109705
  17 H :    0.111385
Sum of atomic charges:   -0.0000000

LOEWDIN ATOMIC CHARGES
----------------------
   0 O :   -0.107240
   1 H :    0.192755
   2 C :   -0.385042
   3 H :    0.110105
   4 H :    0.095008
   5 H :    0.094415
   6 O :   -0.104824
   7 H :    0.192919
   8 C :   -0.387148
   9 H :    0.109160
  10 H :    0.093714
  11 H :    0.094898
  12 O :   -0.109786
  13 H :    0.191734
  14 C :   -0.382052
  15 H :    0.109855
  16 H :    0.095294
  17 H :    0.096236

  Mayer bond orders larger than 0.100000
B(  0-O ,  1-H ) :   0.8416 B(  0-O ,  2-C ) :   0.9296 B(  2-C ,  3-H ) :   0.9376
B(  2-C ,  4-H ) :   0.9397 B(  2-C ,  5-H ) :   0.9378 B(  6-O ,  7-H ) :   0.8369
B(  6-O ,  8-C ) :   0.9341 B(  8-C ,  9-H ) :   0.9380 B(  8-C , 10-H ) :   0.9402
B(  8-C , 11-H ) :   0.9373 B( 12-O , 13-H ) :   0.8400 B( 12-O , 14-C ) :   0.9244
B( 14-C , 15-H ) :   0.9380 B( 14-C , 16-H ) :   0.9384 B( 14-C , 17-H ) :   0.9382

MP2 TOTAL ENERGY:     -346.520694600 Eh
FINAL SINGLE POINT ENERGY      -346.520694599656

DIPOLE MOMENT
-------------
                                X             Y             Z
Electronic contribution:     -0.29993      -0.59786      -1.03960
Nuclear contribution   :      0.64440       0.24315       1.82998
                        -----------------------------------------
Total Dipole Moment    :      0.34447      -0.35470       0.79039
                        -----------------------------------------
Magnitude (a.u.)       :      0.93230
Magnitude (Debye)      :      2.36971

Rotational constants in cm-1:     0.033117     0.013714     0.009866
Rotational constants in MHz :   992.814515   411.120649   295.771644

                             ****ORCA TERMINATED NORMALLY****
TOTAL RUN TIME: 0 days 0 hours 0 minutes 43 seconds 97 msec
