                         Program Version 4.2.0 -  RELEASE  -
|  1> # 12h2o.su.etal.mol3,4,5,6,9,10,11
|  2> ! MP2 def2-TZVP EnGrad TightSCF
|  3>
|  4> %pal
|  5>     nprocs 6
|  6> end
|  7>
|  8> %maxcore 8000
|  9>
| 10> %scf
| 11>     ConvForced true
| 12> end
| 13>
| 14> *xyz 0 1
| 15> O  -1.752130000  -0.741530000  -2.896280000
| 16> H  -2.036450000  -0.920500000  -1.984040000
| 17> H  -0.921210000  -1.242140000  -2.984230000
| 18> O  -0.885520000   1.737840000   0.052730000
| 19> H  -1.032320000   2.090180000  -0.841890000
| 20> H  -1.284090000   0.839590000   0.017130000
| 21> O   0.885520000  -1.737840000   0.052730000
| 22> H   1.284090000  -0.839590000   0.017130000
| 23> H   1.032320000  -2.090180000  -0.841890000
| 24> O   1.737840000   0.885520000  -0.052730000
| 25> H   2.090180000   1.032320000   0.841890000
| 26> H   0.839590000   1.284090000  -0.017130000
| 27> O   0.741530000  -1.752130000   2.896280000
| 28> H   0.920500000  -2.036450000   1.984040000
| 29> H   1.242140000  -0.921210000   2.984230000
| 30> O  -0.923410000   1.794470000  -2.768350000
| 31> H  -1.359750000   2.338250000  -3.430940000
| 32> H  -1.303000000   0.879480000  -2.865760000
| 33> O  -0.741530000   1.752130000   2.896280000
| 34> H  -0.920500000   2.036450000   1.984040000
| 35> H  -1.242140000   0.921210000   2.984230000
| 36> *
| 37>
| 38>                          ****END OF INPUT****

CARTESIAN COORDINATES (ANGSTROEM)
---------------------------------
  O     -1.752130   -0.741530   -2.896280
  H     -2.036450   -0.920500   -1.984040
  H     -0.921210   -1.242140   -2.984230
  O     -0.885520    1.737840    0.052730
  H     -1.032320    2.090180   -0.841890
  H     -1.284090    0.839590    0.017130
  O      0.885520   -1.737840    0.052730
  H      1.284090   -0.839590    0.017130
  H      1.032320   -2.090180   -0.841890
  O      1.737840    0.885520   -0.052730
  H      2.090180    1.032320    0.841890
  H      0.839590    1.284090   -0.017130
  O      0.741530   -1.752130    2.896280
  H      0.920500   -2.036450    1.984040
  H      1.242140   -0.921210    2.984230
  O     -0.923410    1.794470   -2.768350
  H     -1.359750    2.338250   -3.430940
  H     -1.303000    0.879480   -2.865760
  O     -0.741530    1.752130    2.896280
  H     -0.920500    2.036450    1.984040
  H     -1.242140    0.921210    2.984230

 Total Charge           Charge          ....    0
 Multiplicity           Mult            ....    1
 Number of Electrons    NEL             ....   70
 Basis Dimension        Dim             ....  301

ORBITAL ENERGIES
----------------

  NO   OCC          E(Eh)            E(eV)
   0   2.0000     -20.627409      -561.3003
   1   2.0000     -20.598440      -560.5121
   2   2.0000     -20.569335      -559.7200
   3   2.0000     -20.567549      -559.6715
   4   2.0000     -20.566048      -559.6306
   5   2.0000     -20.539663      -558.9126
   6   2.0000     -20.530575      -558.6654
   7   2.0000      -1.412945       -38.4482
   8   2.0000      -1.386860       -37.7384
   9   2.0000      -1.358718       -36.9726
  10   2.0000      -1.351685       -36.7812
  11   2.0000      -1.342771       -36.5387
  12   2.0000      -1.321548       -35.9612
  13   2.0000      -1.312003       -35.7014
  14   2.0000      -0.769929       -20.9508
  15   2.0000      -0.747488       -20.3402
  16   2.0000      -0.738567       -20.0974
  17   2.0000      -0.721232       -19.6257
  18   2.0000      -0.720688       -19.6109
  19   2.0000      -0.692375       -18.8405
  20   2.0000      -0.681206       -18.5366
  21   2.0000      -0.653331       -17.7780
  22   2.0000      -0.631184       -17.1754
  23   2.0000      -0.611884       -16.6502
  24   2.0000      -0.597860       -16.2686
  25   2.0000      -0.587607       -15.9896
  26   2.0000      -0.559159       -15.2155
  27   2.0000      -0.554048       -15.0764
  28   2.0000      -0.548262       -14.9190
  29   2.0000      -0.534769       -14.5518
  30   2.0000      -0.518893       -14.1198
  31   2.0000      -0.517146       -14.0723
  32   2.0000      -0.508503       -13.8371
  33   2.0000      -0.487004       -13.2521
  34   2.0000      -0.476039       -12.9537
  35   0.0000       0.065508         1.7826
  36   0.0000       0.117907         3.2084
  37   0.0000       0.124589         3.3902
  38   0.0000       0.140614         3.8263
  39   0.0000       0.170658         4.6438

MULLIKEN ATOMIC CHARGES
-----------------------
   0 O :   -0.673378
   1 H :    0.357569
   2 H :    0.363887
   3 O :   -0.725766
   4 H :    0.395559
   5 H :    0.337175
   6 O :   -0.730247
   7 H :    0.356230
   8 H :    0.328276
   9 O :   -0.712172
  10 H :    0.349074
  11 H :    0.382598
  12 O :   -0.699709
  13 H :    0.371097
  14 H :    0.321455
  15 O :   -0.737204
  16 H :    0.346063
  17 H :    0.370752
  18 O :   -0.702045
  19 H :    0.368265
  20 H :    0.332524
Sum of atomic charges:   -0.0000000

LOEWDIN ATOMIC CHARGES
----------------------
   0 O :   -0.263892
   1 H :    0.172452
   2 H :    0.178431
   3 O :   -0.281539
   4 H :    0.159306
   5 H :    0.167667
   6 O :   -0.343947
   7 H :    0.142512
   8 H :    0.156831
   9 O :   -0.305518
  10 H :    0.166027
  11 H :    0.147599
  12 O :   -0.340535
  13 H :    0.152602
  14 H :    0.156085
  15 O :   -0.337657
  16 H :    0.158686
  17 H :    0.143504
  18 O :   -0.339446
  19 H :    0.149156
  20 H :    0.161675

  Mayer bond orders larger than 0.100000
B(  0-O ,  1-H ) :   0.8363 B(  0-O ,  2-H ) :   0.8316 B(  3-O ,  4-H ) :   0.7766
B(  3-O ,  5-H ) :   0.8384 B(  6-O ,  7-H ) :   0.7617 B(  6-O ,  8-H ) :   0.8542
B(  7-H ,  9-O ) :   0.1134 B(  9-O , 10-H ) :   0.8410 B(  9-O , 11-H ) :   0.7745
B( 12-O , 13-H ) :   0.8183 B( 12-O , 14-H ) :   0.8583 B( 15-O , 16-H ) :   0.8459
B( 15-O , 17-H ) :   0.7681 B( 18-O , 19-H ) :   0.8229 B( 18-O , 20-H ) :   0.8516

MP2 TOTAL ENERGY:     -534.246442398 Eh
FINAL SINGLE POINT ENERGY      -534.246442398030

DIPOLE MOMENT
-------------
                                X             Y             Z
Electronic contribution:     -0.13308       0.18067      -0.25989
Nuclear contribution   :     -0.67857      -0.42069      -2.09298
                        -----------------------------------------
Total Dipole Moment    :     -0.81165      -0.24002      -2.35286
                        -----------------------------------------
Magnitude (a.u.)       :      2.50047
Magnitude (Debye)      :      6.35570

Rotational constants in cm-1:     0.041216     0.022328     0.017939
Rotational constants in MHz :  1235.631933   669.373725   537.812078

                             ****ORCA TERMINATED NORMALLY****
TOTAL RUN TIME: 0 days 0 hours 1 minutes 51 seconds 244 msec
