                         Program Version 4.2.0 -  RELEASE  -
|  1> # 12h2o.su.etal.mol0,1,2,3,5,6,8,10
|  2> ! MP2 def2-TZVP EnGrad TightSCF
|  3>
|  4> %pal
|  5>     nprocs 6
|  6> end
|  7>
|  8> %maxcore 8000
|  9>
| 10> %scf
| 11>     ConvForced true
| 12> end
| 13>
| 14> *xyz 0 1
| 15> O   1.794470000   0.923410000   2.768350000
| 16> H   2.338250000   1.359750000   3.430940000
| 17> H   0.879480000   1.303000000   2.865760000
| 18> O  -1.794470000  -0.923410000   2.768350000
| 19> H  -2.338250000  -1.359750000   3.430940000
| 20> H  -0.879480000  -1.303000000   2.865760000
| 21> O   0.923410000  -1.794470000  -2.768350000
| 22> H   1.359750000  -2.338250000  -3.430940000
| 23> H   1.303000000  -0.879480000  -2.865760000
| 24> O  -1.752130000  -0.741530000  -2.896280000
| 25> H  -2.036450000  -0.920500000  -1.984040000
| 26> H  -0.921210000  -1.242140000  -2.984230000
| 27> O   0.885520000  -1.737840000   0.052730000
| 28> H   1.284090000  -0.839590000   0.017130000
| 29> H   1.032320000  -2.090180000  -0.841890000
| 30> O   1.737840000   0.885520000  -0.052730000
| 31> H   2.090180000   1.032320000   0.841890000
| 32> H   0.839590000   1.284090000  -0.017130000
| 33> O   1.752130000   0.741530000  -2.896280000
| 34> H   2.036450000   0.920500000  -1.984040000
| 35> H   0.921210000   1.242140000  -2.984230000
| 36> O  -0.923410000   1.794470000  -2.768350000
| 37> H  -1.359750000   2.338250000  -3.430940000
| 38> H  -1.303000000   0.879480000  -2.865760000
| 39> *
| 40>
| 41>                          ****END OF INPUT****

CARTESIAN COORDINATES (ANGSTROEM)
---------------------------------
  O      1.794470    0.923410    2.768350
  H      2.338250    1.359750    3.430940
  H      0.879480    1.303000    2.865760
  O     -1.794470   -0.923410    2.768350
  H     -2.338250   -1.359750    3.430940
  H     -0.879480   -1.303000    2.865760
  O      0.923410   -1.794470   -2.768350
  H      1.359750   -2.338250   -3.430940
  H      1.303000   -0.879480   -2.865760
  O     -1.752130   -0.741530   -2.896280
  H     -2.036450   -0.920500   -1.984040
  H     -0.921210   -1.242140   -2.984230
  O      0.885520   -1.737840    0.052730
  H      1.284090   -0.839590    0.017130
  H      1.032320   -2.090180   -0.841890
  O      1.737840    0.885520   -0.052730
  H      2.090180    1.032320    0.841890
  H      0.839590    1.284090   -0.017130
  O      1.752130    0.741530   -2.896280
  H      2.036450    0.920500   -1.984040
  H      0.921210    1.242140   -2.984230
  O     -0.923410    1.794470   -2.768350
  H     -1.359750    2.338250   -3.430940
  H     -1.303000    0.879480   -2.865760

 Total Charge           Charge          ....    0
 Multiplicity           Mult            ....    1
 Number of Electrons    NEL             ....   80
 Basis Dimension        Dim             ....  344

ORBITAL ENERGIES
----------------

  NO   OCC          E(Eh)            E(eV)
   0   2.0000     -20.600214      -560.5603
   1   2.0000     -20.579426      -559.9947
   2   2.0000     -20.560683      -559.4846
   3   2.0000     -20.556377      -559.3675
   4   2.0000     -20.551856      -559.2444
   5   2.0000     -20.544887      -559.0548
   6   2.0000     -20.544197      -559.0360
   7   2.0000     -20.494498      -557.6836
   8   2.0000      -1.379691       -37.5433
   9   2.0000      -1.364431       -37.1281
  10   2.0000      -1.355629       -36.8885
  11   2.0000      -1.343837       -36.5677
  12   2.0000      -1.331736       -36.2384
  13   2.0000      -1.331421       -36.2298
  14   2.0000      -1.320770       -35.9400
  15   2.0000      -1.278783       -34.7975
  16   2.0000      -0.745534       -20.2870
  17   2.0000      -0.729480       -19.8502
  18   2.0000      -0.719856       -19.5883
  19   2.0000      -0.712159       -19.3788
  20   2.0000      -0.707860       -19.2619
  21   2.0000      -0.699691       -19.0396
  22   2.0000      -0.698221       -18.9996
  23   2.0000      -0.663679       -18.0596
  24   2.0000      -0.629722       -17.1356
  25   2.0000      -0.615484       -16.7482
  26   2.0000      -0.598494       -16.2858
  27   2.0000      -0.585017       -15.9191
  28   2.0000      -0.574522       -15.6335
  29   2.0000      -0.568695       -15.4750
  30   2.0000      -0.558622       -15.2009
  31   2.0000      -0.543768       -14.7967
  32   2.0000      -0.534070       -14.5328
  33   2.0000      -0.507598       -13.8124
  34   2.0000      -0.501985       -13.6597
  35   2.0000      -0.499903       -13.6031
  36   2.0000      -0.494630       -13.4596
  37   2.0000      -0.491723       -13.3805
  38   2.0000      -0.489113       -13.3094
  39   2.0000      -0.445350       -12.1186
  40   0.0000       0.094105         2.5607
  41   0.0000       0.129385         3.5208
  42   0.0000       0.140901         3.8341
  43   0.0000       0.157182         4.2771
  44   0.0000       0.168753         4.5920

MULLIKEN ATOMIC CHARGES
-----------------------
   0 O :   -0.697907
   1 H :    0.355048
   2 H :    0.361513
   3 O :   -0.695653
   4 H :    0.335710
   5 H :    0.358877
   6 O :   -0.753900
   7 H :    0.345123
   8 H :    0.382172
   9 O :   -0.713826
  10 H :    0.361615
  11 H :    0.379367
  12 O :   -0.739356
  13 H :    0.345912
  14 H :    0.356923
  15 O :   -0.727634
  16 H :    0.386490
  17 H :    0.358052
  18 O :   -0.726056
  19 H :    0.384184
  20 H :    0.368787
  21 O :   -0.746731
  22 H :    0.340798
  23 H :    0.380493
Sum of atomic charges:   -0.0000000

LOEWDIN ATOMIC CHARGES
----------------------
   0 O :   -0.308768
   1 H :    0.165191
   2 H :    0.187892
   3 O :   -0.343765
   4 H :    0.156760
   5 H :    0.185412
   6 O :   -0.315620
   7 H :    0.156356
   8 H :    0.146043
   9 O :   -0.284732
  10 H :    0.174170
  11 H :    0.154195
  12 O :   -0.372588
  13 H :    0.135210
  14 H :    0.141905
  15 O :   -0.285548
  16 H :    0.157111
  17 H :    0.177781
  18 O :   -0.288631
  19 H :    0.154987
  20 H :    0.149799
  21 O :   -0.343975
  22 H :    0.155533
  23 H :    0.145282

  Mayer bond orders larger than 0.100000
B(  0-O ,  1-H ) :   0.8401 B(  0-O ,  2-H ) :   0.8276 B(  3-O ,  4-H ) :   0.8544
B(  3-O ,  5-H ) :   0.8316 B(  6-O ,  7-H ) :   0.8431 B(  6-O ,  8-H ) :   0.7276
B(  8-H , 18-O ) :   0.1223 B(  9-O , 10-H ) :   0.8336 B(  9-O , 11-H ) :   0.7865
B(  9-O , 23-H ) :   0.1115 B( 12-O , 13-H ) :   0.8121 B( 12-O , 14-H ) :   0.8258
B( 15-O , 16-H ) :   0.7934 B( 15-O , 17-H ) :   0.8285 B( 18-O , 19-H ) :   0.8062
B( 18-O , 20-H ) :   0.7912 B( 21-O , 22-H ) :   0.8487 B( 21-O , 23-H ) :   0.7465

MP2 TOTAL ENERGY:     -610.582856066 Eh
FINAL SINGLE POINT ENERGY      -610.582856065670

DIPOLE MOMENT
-------------
                                X             Y             Z
Electronic contribution:      0.10721       0.05410       0.02005
Nuclear contribution   :     -0.00045       0.90834       1.37221
                        -----------------------------------------
Total Dipole Moment    :      0.10676       0.96244       1.39226
                        -----------------------------------------
Magnitude (a.u.)       :      1.69590
Magnitude (Debye)      :      4.31064

Rotational constants in cm-1:     0.030711     0.016736     0.014868
Rotational constants in MHz :   920.691587   501.724171   445.721818

                             ****ORCA TERMINATED NORMALLY****
TOTAL RUN TIME: 0 days 0 hours 2 minutes 55 seconds 86 msec
