                         Program Version 3.0.3 - RELEASE   -
|  1> ! wB97X-D3 Def2-TZVP def2-TZVP/J RIJCOSX TightSCF Grid4 COSMO
|  2>
|  3> %pal nprocs 12 end
|  4>
|  5> %scf
|  6>         maxiter 400
|  7> end
|  8>
|  9> %cosmo
| 10>         SMD true
| 11>         solvent "WATER"
| 12> end
| 13>
| 14> * xyz  0  1
| 15> O  2.058060	1.146415	0.564795
| 16> H  1.473215	1.534133	-0.147809
| 17> H  1.405646	1.034526	1.313103
| 18> O  -0.035310	0.618318	2.216835
| 19> H  -0.107341	-0.371979	2.002888
| 20> H  -0.140860	0.690084	3.185867
| 21> O  -0.166175	-1.811537	1.248646
| 22> H  0.682620	-1.732733	0.655002
| 23> H  -0.037390	-2.607309	1.801101
| 24> O  -1.824273	1.377725	0.327617
| 25> H  -2.028575	0.440047	0.000218
| 26> H  -1.261105	1.202414	1.136796
| 27> O  1.824462	-1.376068	-0.327440
| 28> H  1.261390	-1.201948	-1.136960
| 29> H  2.027249	-0.438196	0.000071
| 30> O  0.167013	1.810406	-1.249586
| 31> H  0.038807	2.607561	-1.800229
| 32> H  -0.681228	1.731835	-0.655496
| 33> O  0.034448	-0.620056	-2.217192
| 34> H  0.107751	0.370191	-2.004270
| 35> H  0.141661	-0.692702	-3.185987
| 36> O  -2.058830	-1.144534	-0.563642
| 37> H  -1.407367	-1.033775	-1.312850
| 38> H  -1.473869	-1.532821	0.148524
| 39> **                         ****END OF INPUT****

CARTESIAN COORDINATES (ANGSTROEM)
---------------------------------
  O      2.058060    1.146415    0.564795
  H      1.473215    1.534133   -0.147809
  H      1.405646    1.034526    1.313103
  O     -0.035310    0.618318    2.216835
  H     -0.107341   -0.371979    2.002888
  H     -0.140860    0.690084    3.185867
  O     -0.166175   -1.811537    1.248646
  H      0.682620   -1.732733    0.655002
  H     -0.037390   -2.607309    1.801101
  O     -1.824273    1.377725    0.327617
  H     -2.028575    0.440047    0.000218
  H     -1.261105    1.202414    1.136796
  O      1.824462   -1.376068   -0.327440
  H      1.261390   -1.201948   -1.136960
  H      2.027249   -0.438196    0.000071
  O      0.167013    1.810406   -1.249586
  H      0.038807    2.607561   -1.800229
  H     -0.681228    1.731835   -0.655496
  O      0.034448   -0.620056   -2.217192
  H      0.107751    0.370191   -2.004270
  H      0.141661   -0.692702   -3.185987
  O     -2.058830   -1.144534   -0.563642
  H     -1.407367   -1.033775   -1.312850
  H     -1.473869   -1.532821    0.148524

 Total Charge           Charge          ....    0
 Multiplicity           Mult            ....    1
 Number of Electrons    NEL             ....   80
 Basis Dimension        Dim             ....  344

ORBITAL ENERGIES
----------------

  NO   OCC          E(Eh)            E(eV)
   0   2.0000     -19.240272      -523.5544
   1   2.0000     -19.240264      -523.5542
   2   2.0000     -19.239041      -523.5209
   3   2.0000     -19.238911      -523.5174
   4   2.0000     -19.226355      -523.1757
   5   2.0000     -19.226238      -523.1725
   6   2.0000     -19.223924      -523.1096
   7   2.0000     -19.223841      -523.1073
   8   2.0000      -1.146578       -31.2000
   9   2.0000      -1.133252       -30.8374
  10   2.0000      -1.126847       -30.6631
  11   2.0000      -1.119618       -30.4664
  12   2.0000      -1.114126       -30.3169
  13   2.0000      -1.106777       -30.1169
  14   2.0000      -1.100263       -29.9397
  15   2.0000      -1.087875       -29.6026
  16   2.0000      -0.649077       -17.6623
  17   2.0000      -0.648222       -17.6390
  18   2.0000      -0.627377       -17.0718
  19   2.0000      -0.626996       -17.0614
  20   2.0000      -0.622530       -16.9399
  21   2.0000      -0.620078       -16.8732
  22   2.0000      -0.615375       -16.7452
  23   2.0000      -0.613174       -16.6853
  24   2.0000      -0.557816       -15.1790
  25   2.0000      -0.534386       -14.5414
  26   2.0000      -0.517469       -14.0810
  27   2.0000      -0.514808       -14.0087
  28   2.0000      -0.510495       -13.8913
  29   2.0000      -0.491230       -13.3671
  30   2.0000      -0.484310       -13.1787
  31   2.0000      -0.461175       -12.5492
  32   2.0000      -0.426738       -11.6121
  33   2.0000      -0.425951       -11.5907
  34   2.0000      -0.420340       -11.4380
  35   2.0000      -0.418924       -11.3995
  36   2.0000      -0.414733       -11.2855
  37   2.0000      -0.411186       -11.1889
  38   2.0000      -0.407859       -11.0984
  39   2.0000      -0.407724       -11.0947
  40   0.0000       0.099428         2.7056
  41   0.0000       0.136524         3.7150
  42   0.0000       0.153476         4.1763
  43   0.0000       0.172957         4.7064
  44   0.0000       0.186835         5.0840

MULLIKEN ATOMIC CHARGES
-----------------------
   0 O :   -0.779362
   1 H :    0.383085
   2 H :    0.379246
   3 O :   -0.775048
   4 H :    0.378782
   5 H :    0.408379
   6 O :   -0.782024
   7 H :    0.383137
   8 H :    0.409789
   9 O :   -0.770319
  10 H :    0.383310
  11 H :    0.381254
  12 O :   -0.770294
  13 H :    0.381833
  14 H :    0.382653
  15 O :   -0.781508
  16 H :    0.409881
  17 H :    0.382112
  18 O :   -0.774626
  19 H :    0.378613
  20 H :    0.408256
  21 O :   -0.779106
  22 H :    0.379129
  23 H :    0.382830
Sum of atomic charges:   -0.0000000

LOEWDIN ATOMIC CHARGES
----------------------
   0 O :   -0.350181
   1 H :    0.146179
   2 H :    0.147243
   3 O :   -0.295025
   4 H :    0.149773
   5 H :    0.191670
   6 O :   -0.292246
   7 H :    0.149047
   8 H :    0.189831
   9 O :   -0.331071
  10 H :    0.147491
  11 H :    0.146937
  12 O :   -0.330725
  13 H :    0.147184
  14 H :    0.147308
  15 O :   -0.292069
  16 H :    0.189895
  17 H :    0.148756
  18 O :   -0.294896
  19 H :    0.149770
  20 H :    0.191675
  21 O :   -0.349931
  22 H :    0.147243
  23 H :    0.146140

  Mayer bond orders larger than 0.1
B(  0-O ,  1-H ) :   0.7996 B(  0-O ,  2-H ) :   0.8022 B(  0-O , 14-H ) :   0.1399
B(  2-H ,  3-O ) :   0.1008 B(  3-O ,  4-H ) :   0.7538 B(  3-O ,  5-H ) :   0.8372
B(  3-O , 11-H ) :   0.1071 B(  4-H ,  6-O ) :   0.1409 B(  6-O ,  7-H ) :   0.7129
B(  6-O ,  8-H ) :   0.8355 B(  7-H , 12-O ) :   0.1909 B(  9-O , 10-H ) :   0.7688
B(  9-O , 11-H ) :   0.7952 B(  9-O , 17-H ) :   0.1911 B( 10-H , 21-O ) :   0.1396
B( 12-O , 13-H ) :   0.7950 B( 12-O , 14-H ) :   0.7691 B( 13-H , 18-O ) :   0.1068
B( 15-O , 16-H ) :   0.8355 B( 15-O , 17-H ) :   0.7136 B( 15-O , 19-H ) :   0.1405
B( 18-O , 19-H ) :   0.7544 B( 18-O , 20-H ) :   0.8373 B( 18-O , 22-H ) :   0.1008
B( 21-O , 22-H ) :   0.8023 B( 21-O , 23-H ) :   0.7998

Dispersion correction           -0.012575925
FINAL SINGLE POINT ENERGY      -611.666864728937

DIPOLE MOMENT
-------------
                                X             Y             Z
Electronic contribution:      0.00201      -0.00188      -0.00116
Nuclear contribution   :      0.00151      -0.00167      -0.00008
                        -----------------------------------------
Total Dipole Moment    :      0.00352      -0.00355      -0.00124
                        -----------------------------------------
Magnitude (a.u.)       :      0.00515
Magnitude (Debye)      :      0.01309

                             ****ORCA TERMINATED NORMALLY****
TOTAL RUN TIME: 0 days 0 hours 1 minutes 11 seconds 102 msec
