                         Program Version 3.0.3 - RELEASE   -
|  1> ! wB97X-D3 MA-Def2-TZVP def2-TZVP/J RIJCOSX TightSCF Grid4
|  2>
|  3> %pal nprocs 1 end
|  4>
|  5> %scf
|  6>         maxiter 400
|  7> end
|  8>
|  9> * xyz  0  1
| 10> O  2.051532	1.097154	0.526730
| 11> H  1.482804	1.519451	-0.173114
| 12> H  1.423730	1.043711	1.293118
| 13> O  -0.064418	0.597699	2.244940
| 14> H  -0.120509	-0.396767	2.020135
| 15> H  -0.161931	0.670983	3.211493
| 16> O  -0.131955	-1.814448	1.286191
| 17> H  0.725702	-1.704082	0.638498
| 18> H  -0.004630	-2.643515	1.781636
| 19> O  -1.774149	1.404553	0.274919
| 20> H  -2.035090	0.461960	-0.020397
| 21> H  -1.266315	1.236579	1.115430
| 22> O  1.774148	-1.404554	-0.274919
| 23> H  1.266315	-1.236580	-1.115431
| 24> H  2.035090	-0.461960	0.020397
| 25> O  0.131954	1.814447	-1.286190
| 26> H  0.004631	2.643515	-1.781636
| 27> H  -0.725703	1.704082	-0.638499
| 28> O  0.064419	-0.597699	-2.244940
| 29> H  0.120509	0.396766	-2.020134
| 30> H  0.161929	-0.670982	-3.211494
| 31> O  -2.051532	-1.097154	-0.526730
| 32> H  -1.423729	-1.043712	-1.293118
| 33> H  -1.482805	-1.519452	0.173114
| 34> **                         ****END OF INPUT****

CARTESIAN COORDINATES (ANGSTROEM)
---------------------------------
  O      2.051532    1.097154    0.526730
  H      1.482804    1.519451   -0.173114
  H      1.423730    1.043711    1.293118
  O     -0.064418    0.597699    2.244940
  H     -0.120509   -0.396767    2.020135
  H     -0.161931    0.670983    3.211493
  O     -0.131955   -1.814448    1.286191
  H      0.725702   -1.704082    0.638498
  H     -0.004630   -2.643515    1.781636
  O     -1.774149    1.404553    0.274919
  H     -2.035090    0.461960   -0.020397
  H     -1.266315    1.236579    1.115430
  O      1.774148   -1.404554   -0.274919
  H      1.266315   -1.236580   -1.115431
  H      2.035090   -0.461960    0.020397
  O      0.131954    1.814447   -1.286190
  H      0.004631    2.643515   -1.781636
  H     -0.725703    1.704082   -0.638499
  O      0.064419   -0.597699   -2.244940
  H      0.120509    0.396766   -2.020134
  H      0.161929   -0.670982   -3.211494
  O     -2.051532   -1.097154   -0.526730
  H     -1.423729   -1.043712   -1.293118
  H     -1.482805   -1.519452    0.173114

 Total Charge           Charge          ....    0
 Multiplicity           Mult            ....    1
 Number of Electrons    NEL             ....   80
 Basis Dimension        Dim             ....  376

ORBITAL ENERGIES
----------------

  NO   OCC          E(Eh)            E(eV)
   0   2.0000     -19.257764      -524.0304
   1   2.0000     -19.257763      -524.0304
   2   2.0000     -19.246881      -523.7343
   3   2.0000     -19.246881      -523.7342
   4   2.0000     -19.229495      -523.2612
   5   2.0000     -19.229493      -523.2611
   6   2.0000     -19.221671      -523.0483
   7   2.0000     -19.221669      -523.0482
   8   2.0000      -1.156275       -31.4638
   9   2.0000      -1.146785       -31.2056
  10   2.0000      -1.135702       -30.9040
  11   2.0000      -1.127357       -30.6769
  12   2.0000      -1.119792       -30.4711
  13   2.0000      -1.108996       -30.1773
  14   2.0000      -1.100622       -29.9494
  15   2.0000      -1.090804       -29.6823
  16   2.0000      -0.667986       -18.1768
  17   2.0000      -0.666899       -18.1473
  18   2.0000      -0.639258       -17.3951
  19   2.0000      -0.637113       -17.3367
  20   2.0000      -0.626668       -17.0525
  21   2.0000      -0.621265       -16.9055
  22   2.0000      -0.621192       -16.9035
  23   2.0000      -0.613127       -16.6840
  24   2.0000      -0.567936       -15.4543
  25   2.0000      -0.537785       -14.6339
  26   2.0000      -0.530996       -14.4491
  27   2.0000      -0.511840       -13.9279
  28   2.0000      -0.504324       -13.7233
  29   2.0000      -0.502668       -13.6783
  30   2.0000      -0.487842       -13.2749
  31   2.0000      -0.459712       -12.5094
  32   2.0000      -0.439404       -11.9568
  33   2.0000      -0.435549       -11.8519
  34   2.0000      -0.429105       -11.6765
  35   2.0000      -0.425589       -11.5809
  36   2.0000      -0.414510       -11.2794
  37   2.0000      -0.411652       -11.2016
  38   2.0000      -0.400442       -10.8966
  39   2.0000      -0.399595       -10.8735
  40   0.0000       0.051326         1.3967
  41   0.0000       0.066082         1.7982
  42   0.0000       0.083916         2.2835
  43   0.0000       0.089565         2.4372
  44   0.0000       0.113214         3.0807

MULLIKEN ATOMIC CHARGES
-----------------------
   0 O :   -0.760205
   1 H :    0.407114
   2 H :    0.401774
   3 O :   -0.811447
   4 H :    0.400650
   5 H :    0.360071
   6 O :   -0.868692
   7 H :    0.419423
   8 H :    0.361844
   9 O :   -0.774394
  10 H :    0.452508
  11 H :    0.411325
  12 O :   -0.774215
  13 H :    0.411244
  14 H :    0.452463
  15 O :   -0.868745
  16 H :    0.361874
  17 H :    0.419446
  18 O :   -0.811437
  19 H :    0.400645
  20 H :    0.360070
  21 O :   -0.760181
  22 H :    0.401785
  23 H :    0.407082
Sum of atomic charges:   -0.0000000

LOEWDIN ATOMIC CHARGES
----------------------
   0 O :   -0.385004
   1 H :    0.196801
   2 H :    0.197062
   3 O :   -0.404026
   4 H :    0.196254
   5 H :    0.195891
   6 O :   -0.429947
   7 H :    0.188193
   8 H :    0.192585
   9 O :   -0.347404
  10 H :    0.201780
  11 H :    0.197816
  12 O :   -0.347402
  13 H :    0.197815
  14 H :    0.201780
  15 O :   -0.429947
  16 H :    0.192586
  17 H :    0.188192
  18 O :   -0.404024
  19 H :    0.196253
  20 H :    0.195890
  21 O :   -0.385003
  22 H :    0.197062
  23 H :    0.196801

  Mayer bond orders larger than 0.1
B(  0-O ,  1-H ) :   0.8425 B(  0-O ,  2-H ) :   0.8544 B(  3-O ,  4-H ) :   0.7675
B(  3-O ,  5-H ) :   0.8729 B(  4-H ,  6-O ) :   0.1055 B(  6-O ,  7-H ) :   0.6504
B(  6-O ,  8-H ) :   0.8717 B(  7-H , 12-O ) :   0.2453 B(  9-O , 10-H ) :   0.7767
B(  9-O , 11-H ) :   0.8458 B(  9-O , 17-H ) :   0.2453 B( 12-O , 13-H ) :   0.8458
B( 12-O , 14-H ) :   0.7767 B( 15-O , 16-H ) :   0.8717 B( 15-O , 17-H ) :   0.6503
B( 15-O , 19-H ) :   0.1055 B( 18-O , 19-H ) :   0.7675 B( 18-O , 20-H ) :   0.8729
B( 21-O , 22-H ) :   0.8544 B( 21-O , 23-H ) :   0.8425

Dispersion correction           -0.012578721
FINAL SINGLE POINT ENERGY      -611.633523805211

DIPOLE MOMENT
-------------
                                X             Y             Z
Electronic contribution:     -0.00002       0.00000       0.00001
Nuclear contribution   :      0.00000       0.00000      -0.00000
                        -----------------------------------------
Total Dipole Moment    :     -0.00002       0.00000       0.00001
                        -----------------------------------------
Magnitude (a.u.)       :      0.00002
Magnitude (Debye)      :      0.00005

                             ****ORCA TERMINATED NORMALLY****
TOTAL RUN TIME: 0 days 0 hours 5 minutes 31 seconds 792 msec
