                         Program Version 4.2.0 -  RELEASE  -
|  1> # 12h2o.su.etal.mol0,2,3,4,5,6,11
|  2> ! MP2 def2-TZVP EnGrad TightSCF
|  3>
|  4> %pal
|  5>     nprocs 6
|  6> end
|  7>
|  8> %maxcore 8000
|  9>
| 10> %scf
| 11>     ConvForced true
| 12> end
| 13>
| 14> *xyz 0 1
| 15> O   1.794470000   0.923410000   2.768350000
| 16> H   2.338250000   1.359750000   3.430940000
| 17> H   0.879480000   1.303000000   2.865760000
| 18> O   0.923410000  -1.794470000  -2.768350000
| 19> H   1.359750000  -2.338250000  -3.430940000
| 20> H   1.303000000  -0.879480000  -2.865760000
| 21> O  -1.752130000  -0.741530000  -2.896280000
| 22> H  -2.036450000  -0.920500000  -1.984040000
| 23> H  -0.921210000  -1.242140000  -2.984230000
| 24> O  -0.885520000   1.737840000   0.052730000
| 25> H  -1.032320000   2.090180000  -0.841890000
| 26> H  -1.284090000   0.839590000   0.017130000
| 27> O   0.885520000  -1.737840000   0.052730000
| 28> H   1.284090000  -0.839590000   0.017130000
| 29> H   1.032320000  -2.090180000  -0.841890000
| 30> O   1.737840000   0.885520000  -0.052730000
| 31> H   2.090180000   1.032320000   0.841890000
| 32> H   0.839590000   1.284090000  -0.017130000
| 33> O  -0.741530000   1.752130000   2.896280000
| 34> H  -0.920500000   2.036450000   1.984040000
| 35> H  -1.242140000   0.921210000   2.984230000
| 36> *
| 37>
| 38>                          ****END OF INPUT****

CARTESIAN COORDINATES (ANGSTROEM)
---------------------------------
  O      1.794470    0.923410    2.768350
  H      2.338250    1.359750    3.430940
  H      0.879480    1.303000    2.865760
  O      0.923410   -1.794470   -2.768350
  H      1.359750   -2.338250   -3.430940
  H      1.303000   -0.879480   -2.865760
  O     -1.752130   -0.741530   -2.896280
  H     -2.036450   -0.920500   -1.984040
  H     -0.921210   -1.242140   -2.984230
  O     -0.885520    1.737840    0.052730
  H     -1.032320    2.090180   -0.841890
  H     -1.284090    0.839590    0.017130
  O      0.885520   -1.737840    0.052730
  H      1.284090   -0.839590    0.017130
  H      1.032320   -2.090180   -0.841890
  O      1.737840    0.885520   -0.052730
  H      2.090180    1.032320    0.841890
  H      0.839590    1.284090   -0.017130
  O     -0.741530    1.752130    2.896280
  H     -0.920500    2.036450    1.984040
  H     -1.242140    0.921210    2.984230

 Total Charge           Charge          ....    0
 Multiplicity           Mult            ....    1
 Number of Electrons    NEL             ....   70
 Basis Dimension        Dim             ....  301

ORBITAL ENERGIES
----------------

  NO   OCC          E(Eh)            E(eV)
   0   2.0000     -20.623898      -561.2048
   1   2.0000     -20.604915      -560.6883
   2   2.0000     -20.584969      -560.1455
   3   2.0000     -20.550774      -559.2150
   4   2.0000     -20.536595      -558.8292
   5   2.0000     -20.532006      -558.7043
   6   2.0000     -20.498102      -557.7817
   7   2.0000      -1.407314       -38.2950
   8   2.0000      -1.385207       -37.6934
   9   2.0000      -1.373081       -37.3634
  10   2.0000      -1.332721       -36.2652
  11   2.0000      -1.326961       -36.1085
  12   2.0000      -1.315347       -35.7924
  13   2.0000      -1.281730       -34.8777
  14   2.0000      -0.766454       -20.8563
  15   2.0000      -0.750938       -20.4341
  16   2.0000      -0.734951       -19.9990
  17   2.0000      -0.705855       -19.2073
  18   2.0000      -0.702074       -19.1044
  19   2.0000      -0.699460       -19.0333
  20   2.0000      -0.666939       -18.1483
  21   2.0000      -0.651863       -17.7381
  22   2.0000      -0.621539       -16.9129
  23   2.0000      -0.606371       -16.5002
  24   2.0000      -0.596319       -16.2267
  25   2.0000      -0.578984       -15.7550
  26   2.0000      -0.559783       -15.2325
  27   2.0000      -0.553522       -15.0621
  28   2.0000      -0.539496       -14.6804
  29   2.0000      -0.519384       -14.1332
  30   2.0000      -0.515580       -14.0296
  31   2.0000      -0.497958       -13.5501
  32   2.0000      -0.485109       -13.2005
  33   2.0000      -0.473896       -12.8954
  34   2.0000      -0.449029       -12.2187
  35   0.0000       0.083499         2.2721
  36   0.0000       0.114007         3.1023
  37   0.0000       0.139817         3.8046
  38   0.0000       0.152460         4.1487
  39   0.0000       0.168609         4.5881

MULLIKEN ATOMIC CHARGES
-----------------------
   0 O :   -0.731356
   1 H :    0.333729
   2 H :    0.369652
   3 O :   -0.714354
   4 H :    0.360947
   5 H :    0.374677
   6 O :   -0.704034
   7 H :    0.324377
   8 H :    0.364133
   9 O :   -0.718145
  10 H :    0.379566
  11 H :    0.364019
  12 O :   -0.743411
  13 H :    0.351632
  14 H :    0.349352
  15 O :   -0.734202
  16 H :    0.380855
  17 H :    0.345807
  18 O :   -0.691551
  19 H :    0.384610
  20 H :    0.353695
Sum of atomic charges:   -0.0000000

LOEWDIN ATOMIC CHARGES
----------------------
   0 O :   -0.337864
   1 H :    0.152609
   2 H :    0.144002
   3 O :   -0.287287
   4 H :    0.166321
   5 H :    0.192943
   6 O :   -0.345074
   7 H :    0.155693
   8 H :    0.149133
   9 O :   -0.277391
  10 H :    0.182217
  11 H :    0.180324
  12 O :   -0.374005
  13 H :    0.136308
  14 H :    0.138647
  15 O :   -0.322408
  16 H :    0.151722
  17 H :    0.135319
  18 O :   -0.273013
  19 H :    0.157808
  20 H :    0.173996

  Mayer bond orders larger than 0.100000
B(  0-O ,  1-H ) :   0.8522 B(  0-O ,  2-H ) :   0.7655 B(  3-O ,  4-H ) :   0.8334
B(  3-O ,  5-H ) :   0.8171 B(  6-O ,  7-H ) :   0.8585 B(  6-O ,  8-H ) :   0.8145
B(  9-O , 10-H ) :   0.8215 B(  9-O , 11-H ) :   0.8197 B( 12-O , 13-H ) :   0.7909
B( 12-O , 14-H ) :   0.8383 B( 15-O , 16-H ) :   0.7960 B( 15-O , 17-H ) :   0.8093
B( 18-O , 19-H ) :   0.8072 B( 18-O , 20-H ) :   0.8397

MP2 TOTAL ENERGY:     -534.247378143 Eh
FINAL SINGLE POINT ENERGY      -534.247378142806

DIPOLE MOMENT
-------------
                                X             Y             Z
Electronic contribution:     -0.17141       0.23243       0.05162
Nuclear contribution   :     -0.19491       0.42145      -0.77428
                        -----------------------------------------
Total Dipole Moment    :     -0.36633       0.65388      -0.72266
                        -----------------------------------------
Magnitude (a.u.)       :      1.04114
Magnitude (Debye)      :      2.64638

Rotational constants in cm-1:     0.053368     0.020790     0.017097
Rotational constants in MHz :  1599.944119   623.255948   512.550070

                             ****ORCA TERMINATED NORMALLY****
TOTAL RUN TIME: 0 days 0 hours 1 minutes 55 seconds 448 msec
