                         Program Version 4.2.0 -  RELEASE  -
|  1> # 12h2o.su.etal.mol2,6,7,8,9,11
|  2> ! MP2 def2-TZVP EnGrad TightSCF
|  3>
|  4> %pal
|  5>     nprocs 6
|  6> end
|  7>
|  8> %maxcore 8000
|  9>
| 10> %scf
| 11>     ConvForced true
| 12> end
| 13>
| 14> *xyz 0 1
| 15> O   0.923410000  -1.794470000  -2.768350000
| 16> H   1.359750000  -2.338250000  -3.430940000
| 17> H   1.303000000  -0.879480000  -2.865760000
| 18> O   1.737840000   0.885520000  -0.052730000
| 19> H   2.090180000   1.032320000   0.841890000
| 20> H   0.839590000   1.284090000  -0.017130000
| 21> O  -1.737840000  -0.885520000  -0.052730000
| 22> H  -2.090180000  -1.032320000   0.841890000
| 23> H  -0.839590000  -1.284090000  -0.017130000
| 24> O   1.752130000   0.741530000  -2.896280000
| 25> H   2.036450000   0.920500000  -1.984040000
| 26> H   0.921210000   1.242140000  -2.984230000
| 27> O   0.741530000  -1.752130000   2.896280000
| 28> H   0.920500000  -2.036450000   1.984040000
| 29> H   1.242140000  -0.921210000   2.984230000
| 30> O  -0.741530000   1.752130000   2.896280000
| 31> H  -0.920500000   2.036450000   1.984040000
| 32> H  -1.242140000   0.921210000   2.984230000
| 33> *
| 34>
| 35>                          ****END OF INPUT****

CARTESIAN COORDINATES (ANGSTROEM)
---------------------------------
  O      0.923410   -1.794470   -2.768350
  H      1.359750   -2.338250   -3.430940
  H      1.303000   -0.879480   -2.865760
  O      1.737840    0.885520   -0.052730
  H      2.090180    1.032320    0.841890
  H      0.839590    1.284090   -0.017130
  O     -1.737840   -0.885520   -0.052730
  H     -2.090180   -1.032320    0.841890
  H     -0.839590   -1.284090   -0.017130
  O      1.752130    0.741530   -2.896280
  H      2.036450    0.920500   -1.984040
  H      0.921210    1.242140   -2.984230
  O      0.741530   -1.752130    2.896280
  H      0.920500   -2.036450    1.984040
  H      1.242140   -0.921210    2.984230
  O     -0.741530    1.752130    2.896280
  H     -0.920500    2.036450    1.984040
  H     -1.242140    0.921210    2.984230

 Total Charge           Charge          ....    0
 Multiplicity           Mult            ....    1
 Number of Electrons    NEL             ....   60
 Basis Dimension        Dim             ....  258

ORBITAL ENERGIES
----------------

  NO   OCC          E(Eh)            E(eV)
   0   2.0000     -20.609699      -560.8184
   1   2.0000     -20.585308      -560.1547
   2   2.0000     -20.579531      -559.9975
   3   2.0000     -20.574999      -559.8742
   4   2.0000     -20.570580      -559.7539
   5   2.0000     -20.513519      -558.2012
   6   2.0000      -1.388481       -37.7825
   7   2.0000      -1.364204       -37.1219
   8   2.0000      -1.362445       -37.0740
   9   2.0000      -1.358433       -36.9648
  10   2.0000      -1.346152       -36.6307
  11   2.0000      -1.295556       -35.2539
  12   2.0000      -0.751594       -20.4519
  13   2.0000      -0.727283       -19.7904
  14   2.0000      -0.723905       -19.6985
  15   2.0000      -0.720813       -19.6143
  16   2.0000      -0.707579       -19.2542
  17   2.0000      -0.684150       -18.6167
  18   2.0000      -0.634331       -17.2610
  19   2.0000      -0.601852       -16.3772
  20   2.0000      -0.596158       -16.2223
  21   2.0000      -0.594818       -16.1858
  22   2.0000      -0.585571       -15.9342
  23   2.0000      -0.553542       -15.0626
  24   2.0000      -0.545960       -14.8563
  25   2.0000      -0.530418       -14.4334
  26   2.0000      -0.521902       -14.2017
  27   2.0000      -0.512908       -13.9569
  28   2.0000      -0.502437       -13.6720
  29   2.0000      -0.464031       -12.6269
  30   0.0000       0.063925         1.7395
  31   0.0000       0.118523         3.2252
  32   0.0000       0.120312         3.2739
  33   0.0000       0.134406         3.6574
  34   0.0000       0.165578         4.5056

MULLIKEN ATOMIC CHARGES
-----------------------
   0 O :   -0.736083
   1 H :    0.323225
   2 H :    0.368714
   3 O :   -0.695562
   4 H :    0.354878
   5 H :    0.344877
   6 O :   -0.679608
   7 H :    0.330396
   8 H :    0.347918
   9 O :   -0.690624
  10 H :    0.384109
  11 H :    0.345043
  12 O :   -0.676151
  13 H :    0.339562
  14 H :    0.338073
  15 O :   -0.676449
  16 H :    0.331538
  17 H :    0.346145
Sum of atomic charges:   -0.0000000

LOEWDIN ATOMIC CHARGES
----------------------
   0 O :   -0.374509
   1 H :    0.147983
   2 H :    0.142437
   3 O :   -0.313651
   4 H :    0.171329
   5 H :    0.172314
   6 O :   -0.333563
   7 H :    0.160203
   8 H :    0.172179
   9 O :   -0.275210
  10 H :    0.158837
  11 H :    0.169970
  12 O :   -0.327195
  13 H :    0.163959
  14 H :    0.164241
  15 O :   -0.327530
  16 H :    0.160314
  17 H :    0.167892

  Mayer bond orders larger than 0.100000
B(  0-O ,  1-H ) :   0.8613 B(  0-O ,  2-H ) :   0.7801 B(  3-O ,  4-H ) :   0.8382
B(  3-O ,  5-H ) :   0.8362 B(  6-O ,  7-H ) :   0.8543 B(  6-O ,  8-H ) :   0.8379
B(  9-O , 10-H ) :   0.8055 B(  9-O , 11-H ) :   0.8449 B( 12-O , 13-H ) :   0.8492
B( 12-O , 14-H ) :   0.8488 B( 15-O , 16-H ) :   0.8542 B( 15-O , 17-H ) :   0.8434

MP2 TOTAL ENERGY:     -457.901066291 Eh
FINAL SINGLE POINT ENERGY      -457.901066290727

DIPOLE MOMENT
-------------
                                X             Y             Z
Electronic contribution:      0.07390       0.12700       0.13472
Nuclear contribution   :      0.22418       0.87464       0.22986
                        -----------------------------------------
Total Dipole Moment    :      0.29808       1.00163       0.36458
                        -----------------------------------------
Magnitude (a.u.)       :      1.10682
Magnitude (Debye)      :      2.81330

Rotational constants in cm-1:     0.050057     0.022128     0.020056
Rotational constants in MHz :  1500.673065   663.391380   601.266162

                             ****ORCA TERMINATED NORMALLY****
TOTAL RUN TIME: 0 days 0 hours 0 minutes 54 seconds 895 msec
