                         Program Version 4.2.0 -  RELEASE  -
|  1> # 12mecn.remya.etal.2.mol0,4,7
|  2> ! MP2 def2-TZVP EnGrad TightSCF
|  3>
|  4> %pal
|  5>     nprocs 6
|  6> end
|  7>
|  8> %maxcore 8000
|  9>
| 10> %scf
| 11>     ConvForced true
| 12> end
| 13>
| 14> *xyz 0 1
| 15> C  -0.869520000  -3.929380000   1.700199000
| 16> H  -0.057420000  -3.268850000   2.015352000
| 17> H  -0.697530000  -4.930670000   2.101524000
| 18> H  -1.821490000  -3.546590000   2.077146000
| 19> C  -0.916080000  -3.969960000   0.256749000
| 20> N  -0.955390000  -3.995980000  -0.909290000
| 21> C  -1.509690000  -0.693960000  -1.610140000
| 22> H  -1.327010000  -1.692700000  -2.017370000
| 23> H  -0.742170000  -0.000650000  -1.964400000
| 24> H  -2.491920000  -0.334310000  -1.929350000
| 25> C  -1.473570000  -0.748120000  -0.167200000
| 26> N  -1.447490000  -0.793720000   0.998938000
| 27> C   1.502241000   0.651296000   1.710523000
| 28> H   1.309219000   1.637164000   2.143202000
| 29> H   2.493408000   0.297996000   2.009069000
| 30> H   0.746597000  -0.059850000   2.055508000
| 31> C   1.447974000   0.738517000   0.269805000
| 32> N   1.405612000   0.808047000  -0.894380000
| 33> *
| 34>
| 35>                          ****END OF INPUT****

CARTESIAN COORDINATES (ANGSTROEM)
---------------------------------
  C     -0.869520   -3.929380    1.700199
  H     -0.057420   -3.268850    2.015352
  H     -0.697530   -4.930670    2.101524
  H     -1.821490   -3.546590    2.077146
  C     -0.916080   -3.969960    0.256749
  N     -0.955390   -3.995980   -0.909290
  C     -1.509690   -0.693960   -1.610140
  H     -1.327010   -1.692700   -2.017370
  H     -0.742170   -0.000650   -1.964400
  H     -2.491920   -0.334310   -1.929350
  C     -1.473570   -0.748120   -0.167200
  N     -1.447490   -0.793720    0.998938
  C      1.502241    0.651296    1.710523
  H      1.309219    1.637164    2.143202
  H      2.493408    0.297996    2.009069
  H      0.746597   -0.059850    2.055508
  C      1.447974    0.738517    0.269805
  N      1.405612    0.808047   -0.894380

 Total Charge           Charge          ....    0
 Multiplicity           Mult            ....    1
 Number of Electrons    NEL             ....   66
 Basis Dimension        Dim             ....  333

ORBITAL ENERGIES
----------------

  NO   OCC          E(Eh)            E(eV)
   0   2.0000     -15.571457      -423.7209
   1   2.0000     -15.570615      -423.6980
   2   2.0000     -15.568540      -423.6415
   3   2.0000     -11.284524      -307.0675
   4   2.0000     -11.282518      -307.0129
   5   2.0000     -11.281820      -306.9939
   6   2.0000     -11.276198      -306.8409
   7   2.0000     -11.275752      -306.8288
   8   2.0000     -11.260129      -306.4037
   9   2.0000      -1.218712       -33.1628
  10   2.0000      -1.215251       -33.0687
  11   2.0000      -1.212649       -32.9979
  12   2.0000      -1.038504       -28.2591
  13   2.0000      -1.037725       -28.2379
  14   2.0000      -1.026888       -27.9430
  15   2.0000      -0.695397       -18.9227
  16   2.0000      -0.694290       -18.8926
  17   2.0000      -0.684151       -18.6167
  18   2.0000      -0.630278       -17.1507
  19   2.0000      -0.629078       -17.1181
  20   2.0000      -0.626612       -17.0510
  21   2.0000      -0.624281       -16.9876
  22   2.0000      -0.612085       -16.6557
  23   2.0000      -0.609572       -16.5873
  24   2.0000      -0.559982       -15.2379
  25   2.0000      -0.555893       -15.1266
  26   2.0000      -0.555487       -15.1156
  27   2.0000      -0.462668       -12.5898
  28   2.0000      -0.459799       -12.5118
  29   2.0000      -0.458422       -12.4743
  30   2.0000      -0.456989       -12.4353
  31   2.0000      -0.455005       -12.3813
  32   2.0000      -0.451733       -12.2923
  33   0.0000       0.115328         3.1382
  34   0.0000       0.142248         3.8708
  35   0.0000       0.155745         4.2380
  36   0.0000       0.164108         4.4656
  37   0.0000       0.173707         4.7268

MULLIKEN ATOMIC CHARGES
-----------------------
   0 C :   -0.255462
   1 H :    0.163323
   2 H :    0.173431
   3 H :    0.179300
   4 C :   -0.121968
   5 N :   -0.138127
   6 C :   -0.291883
   7 H :    0.200008
   8 H :    0.199267
   9 H :    0.160908
  10 C :   -0.072194
  11 N :   -0.196534
  12 C :   -0.284099
  13 H :    0.170017
  14 H :    0.167713
  15 H :    0.193307
  16 C :   -0.104616
  17 N :   -0.142391
Sum of atomic charges:   -0.0000000

LOEWDIN ATOMIC CHARGES
----------------------
   0 C :   -0.285107
   1 H :    0.152638
   2 H :    0.149165
   3 H :    0.156825
   4 C :   -0.211590
   5 N :    0.034581
   6 C :   -0.279898
   7 H :    0.157596
   8 H :    0.156345
   9 H :    0.150853
  10 C :   -0.200622
  11 N :    0.019683
  12 C :   -0.283532
  13 H :    0.153674
  14 H :    0.150950
  15 H :    0.153644
  16 C :   -0.210377
  17 N :    0.035172

  Mayer bond orders larger than 0.100000
B(  0-C ,  1-H ) :   0.9161 B(  0-C ,  2-H ) :   0.9113 B(  0-C ,  3-H ) :   0.9126
B(  0-C ,  4-C ) :   0.9113 B(  4-C ,  5-N ) :   2.7796 B(  6-C ,  7-H ) :   0.9029
B(  6-C ,  8-H ) :   0.9031 B(  6-C ,  9-H ) :   0.9137 B(  6-C , 10-C ) :   0.8968
B( 10-C , 11-N ) :   2.7310 B( 12-C , 13-H ) :   0.9145 B( 12-C , 14-H ) :   0.9175
B( 12-C , 15-H ) :   0.9060 B( 12-C , 16-C ) :   0.8997 B( 16-C , 17-N ) :   2.7727

MP2 TOTAL ENERGY:     -397.467126566 Eh
FINAL SINGLE POINT ENERGY      -397.467126566484

DIPOLE MOMENT
-------------
                                X             Y             Z
Electronic contribution:     -0.14652      -0.02291      -3.17082
Nuclear contribution   :      0.20548       0.03075       4.62775
                        -----------------------------------------
Total Dipole Moment    :      0.05896       0.00784       1.45693
                        -----------------------------------------
Magnitude (a.u.)       :      1.45814
Magnitude (Debye)      :      3.70630

Rotational constants in cm-1:     0.059445     0.025636     0.021912
Rotational constants in MHz :  1782.119355   768.540047   656.893768

                             ****ORCA TERMINATED NORMALLY****
TOTAL RUN TIME: 0 days 0 hours 4 minutes 6 seconds 980 msec
