                         Program Version 4.2.0 -  RELEASE  -
|  1> # 12mecn.remya.etal.2.mol1,8,10
|  2> ! MP2 def2-TZVP EnGrad TightSCF
|  3>
|  4> %pal
|  5>     nprocs 6
|  6> end
|  7>
|  8> %maxcore 8000
|  9>
| 10> %scf
| 11>     ConvForced true
| 12> end
| 13>
| 14> *xyz 0 1
| 15> C  -4.697980000  -0.249690000   1.746215000
| 16> H  -4.927570000   0.755530000   2.111799000
| 17> H  -3.709180000  -0.561560000   2.093253000
| 18> H  -5.432280000  -0.961520000   2.128066000
| 19> C  -4.714100000  -0.247110000   0.301670000
| 20> N  -4.729750000  -0.234960000  -0.865260000
| 21> C   1.912641000  -2.468050000  -1.750510000
| 22> H   2.876947000  -2.793500000  -2.151200000
| 23> H   1.688016000  -1.463720000  -2.122170000
| 24> H   1.123460000  -3.154780000  -2.069590000
| 25> C   1.977850000  -2.444240000  -0.306900000
| 26> N   2.036566000  -2.426130000   0.858249000
| 27> C   4.602033000   0.321019000  -1.784800000
| 28> H   4.827650000  -0.662160000  -2.207910000
| 29> H   5.320558000   1.057980000  -2.148500000
| 30> H   3.601982000   0.643751000  -2.087520000
| 31> C   4.654967000   0.244048000  -0.343060000
| 32> N   4.691648000   0.166590000   0.820757000
| 33> *
| 34>
| 35>                          ****END OF INPUT****

CARTESIAN COORDINATES (ANGSTROEM)
---------------------------------
  C     -4.697980   -0.249690    1.746215
  H     -4.927570    0.755530    2.111799
  H     -3.709180   -0.561560    2.093253
  H     -5.432280   -0.961520    2.128066
  C     -4.714100   -0.247110    0.301670
  N     -4.729750   -0.234960   -0.865260
  C      1.912641   -2.468050   -1.750510
  H      2.876947   -2.793500   -2.151200
  H      1.688016   -1.463720   -2.122170
  H      1.123460   -3.154780   -2.069590
  C      1.977850   -2.444240   -0.306900
  N      2.036566   -2.426130    0.858249
  C      4.602033    0.321019   -1.784800
  H      4.827650   -0.662160   -2.207910
  H      5.320558    1.057980   -2.148500
  H      3.601982    0.643751   -2.087520
  C      4.654967    0.244048   -0.343060
  N      4.691648    0.166590    0.820757

 Total Charge           Charge          ....    0
 Multiplicity           Mult            ....    1
 Number of Electrons    NEL             ....   66
 Basis Dimension        Dim             ....  333

ORBITAL ENERGIES
----------------

  NO   OCC          E(Eh)            E(eV)
   0   2.0000     -15.573097      -423.7655
   1   2.0000     -15.571635      -423.7257
   2   2.0000     -15.571504      -423.7222
   3   2.0000     -11.289214      -307.1951
   4   2.0000     -11.288613      -307.1788
   5   2.0000     -11.283192      -307.0313
   6   2.0000     -11.280540      -306.9591
   7   2.0000     -11.276727      -306.8553
   8   2.0000     -11.276590      -306.8516
   9   2.0000      -1.214543       -33.0494
  10   2.0000      -1.212534       -32.9947
  11   2.0000      -1.211252       -32.9599
  12   2.0000      -1.048054       -28.5190
  13   2.0000      -1.045144       -28.4398
  14   2.0000      -1.042997       -28.3814
  15   2.0000      -0.703248       -19.1364
  16   2.0000      -0.700361       -19.0578
  17   2.0000      -0.699012       -19.0211
  18   2.0000      -0.642220       -17.4757
  19   2.0000      -0.638813       -17.3830
  20   2.0000      -0.633496       -17.2383
  21   2.0000      -0.632689       -17.2163
  22   2.0000      -0.628440       -17.1007
  23   2.0000      -0.628339       -17.0980
  24   2.0000      -0.556321       -15.1383
  25   2.0000      -0.553998       -15.0751
  26   2.0000      -0.551353       -15.0031
  27   2.0000      -0.462746       -12.5920
  28   2.0000      -0.457854       -12.4588
  29   2.0000      -0.457307       -12.4440
  30   2.0000      -0.456950       -12.4342
  31   2.0000      -0.453919       -12.3518
  32   2.0000      -0.447023       -12.1641
  33   0.0000       0.096518         2.6264
  34   0.0000       0.121227         3.2988
  35   0.0000       0.143942         3.9169
  36   0.0000       0.148369         4.0373
  37   0.0000       0.156508         4.2588

MULLIKEN ATOMIC CHARGES
-----------------------
   0 C :   -0.279240
   1 H :    0.172063
   2 H :    0.177680
   3 H :    0.171720
   4 C :   -0.145272
   5 N :   -0.096954
   6 C :   -0.282021
   7 H :    0.165292
   8 H :    0.164341
   9 H :    0.184000
  10 C :   -0.155896
  11 N :   -0.075665
  12 C :   -0.284068
  13 H :    0.163803
  14 H :    0.182120
  15 H :    0.166512
  16 C :   -0.154587
  17 N :   -0.073828
Sum of atomic charges:    0.0000000

LOEWDIN ATOMIC CHARGES
----------------------
   0 C :   -0.282796
   1 H :    0.153215
   2 H :    0.154704
   3 H :    0.151761
   4 C :   -0.219048
   5 N :    0.042162
   6 C :   -0.287333
   7 H :    0.149614
   8 H :    0.149418
   9 H :    0.154231
  10 C :   -0.224436
  11 N :    0.058512
  12 C :   -0.287822
  13 H :    0.149381
  14 H :    0.152484
  15 H :    0.150265
  16 C :   -0.224580
  17 N :    0.060267

  Mayer bond orders larger than 0.100000
B(  0-C ,  1-H ) :   0.9156 B(  0-C ,  2-H ) :   0.9151 B(  0-C ,  3-H ) :   0.9167
B(  0-C ,  4-C ) :   0.9014 B(  4-C ,  5-N ) :   2.8399 B(  6-C ,  7-H ) :   0.9227
B(  6-C ,  8-H ) :   0.9203 B(  6-C ,  9-H ) :   0.9101 B(  6-C , 10-C ) :   0.8977
B( 10-C , 11-N ) :   2.8290 B( 12-C , 13-H ) :   0.9202 B( 12-C , 14-H ) :   0.9114
B( 12-C , 15-H ) :   0.9227 B( 12-C , 16-C ) :   0.8977 B( 16-C , 17-N ) :   2.8270

MP2 TOTAL ENERGY:     -397.448355897 Eh
FINAL SINGLE POINT ENERGY      -397.448355896710

DIPOLE MOMENT
-------------
                                X             Y             Z
Electronic contribution:      0.22809      -0.12387       3.27741
Nuclear contribution   :     -0.32802       0.17888      -4.62291
                        -----------------------------------------
Total Dipole Moment    :     -0.09993       0.05501      -1.34549
                        -----------------------------------------
Magnitude (a.u.)       :      1.35032
Magnitude (Debye)      :      3.43224

Rotational constants in cm-1:     0.050711     0.008067     0.007957
Rotational constants in MHz :  1520.291419   241.845838   238.529953

                             ****ORCA TERMINATED NORMALLY****
TOTAL RUN TIME: 0 days 0 hours 2 minutes 24 seconds 743 msec
