                         Program Version 4.2.0 -  RELEASE  -
|  1> # 12h2o.su.etal.mol1,2,6,7
|  2> ! MP2 def2-TZVP EnGrad TightSCF
|  3>
|  4> %pal
|  5>     nprocs 6
|  6> end
|  7>
|  8> %maxcore 8000
|  9>
| 10> %scf
| 11>     ConvForced true
| 12> end
| 13>
| 14> *xyz 0 1
| 15> O  -1.794470000  -0.923410000   2.768350000
| 16> H  -2.338250000  -1.359750000   3.430940000
| 17> H  -0.879480000  -1.303000000   2.865760000
| 18> O   0.923410000  -1.794470000  -2.768350000
| 19> H   1.359750000  -2.338250000  -3.430940000
| 20> H   1.303000000  -0.879480000  -2.865760000
| 21> O   1.737840000   0.885520000  -0.052730000
| 22> H   2.090180000   1.032320000   0.841890000
| 23> H   0.839590000   1.284090000  -0.017130000
| 24> O  -1.737840000  -0.885520000  -0.052730000
| 25> H  -2.090180000  -1.032320000   0.841890000
| 26> H  -0.839590000  -1.284090000  -0.017130000
| 27> *
| 28>
| 29>                          ****END OF INPUT****

CARTESIAN COORDINATES (ANGSTROEM)
---------------------------------
  O     -1.794470   -0.923410    2.768350
  H     -2.338250   -1.359750    3.430940
  H     -0.879480   -1.303000    2.865760
  O      0.923410   -1.794470   -2.768350
  H      1.359750   -2.338250   -3.430940
  H      1.303000   -0.879480   -2.865760
  O      1.737840    0.885520   -0.052730
  H      2.090180    1.032320    0.841890
  H      0.839590    1.284090   -0.017130
  O     -1.737840   -0.885520   -0.052730
  H     -2.090180   -1.032320    0.841890
  H     -0.839590   -1.284090   -0.017130

 Total Charge           Charge          ....    0
 Multiplicity           Mult            ....    1
 Number of Electrons    NEL             ....   40
 Basis Dimension        Dim             ....  172

ORBITAL ENERGIES
----------------

  NO   OCC          E(Eh)            E(eV)
   0   2.0000     -20.590680      -560.3009
   1   2.0000     -20.562345      -559.5298
   2   2.0000     -20.548233      -559.1459
   3   2.0000     -20.521669      -558.4230
   4   2.0000      -1.368491       -37.2385
   5   2.0000      -1.338357       -36.4185
   6   2.0000      -1.323557       -36.0158
   7   2.0000      -1.300666       -35.3929
   8   2.0000      -0.735475       -20.0133
   9   2.0000      -0.700376       -19.0582
  10   2.0000      -0.691687       -18.8218
  11   2.0000      -0.670851       -18.2548
  12   2.0000      -0.603861       -16.4319
  13   2.0000      -0.578317       -15.7368
  14   2.0000      -0.559803       -15.2330
  15   2.0000      -0.553496       -15.0614
  16   2.0000      -0.519947       -14.1485
  17   2.0000      -0.505486       -13.7550
  18   2.0000      -0.491302       -13.3690
  19   2.0000      -0.467115       -12.7109
  20   0.0000       0.098314         2.6753
  21   0.0000       0.128463         3.4957
  22   0.0000       0.147738         4.0202
  23   0.0000       0.178998         4.8708
  24   0.0000       0.197754         5.3812

MULLIKEN ATOMIC CHARGES
-----------------------
   0 O :   -0.691691
   1 H :    0.350977
   2 H :    0.349434
   3 O :   -0.683116
   4 H :    0.332819
   5 H :    0.350890
   6 O :   -0.684918
   7 H :    0.333909
   8 H :    0.350561
   9 O :   -0.698945
  10 H :    0.359632
  11 H :    0.330448
Sum of atomic charges:    0.0000000

LOEWDIN ATOMIC CHARGES
----------------------
   0 O :   -0.310526
   1 H :    0.162661
   2 H :    0.183220
   3 O :   -0.338558
   4 H :    0.155340
   5 H :    0.183526
   6 O :   -0.339094
   7 H :    0.163784
   8 H :    0.175794
   9 O :   -0.346888
  10 H :    0.146293
  11 H :    0.164449

  Mayer bond orders larger than 0.100000
B(  0-O ,  1-H ) :   0.8423 B(  0-O ,  2-H ) :   0.8373 B(  3-O ,  4-H ) :   0.8559
B(  3-O ,  5-H ) :   0.8391 B(  6-O ,  7-H ) :   0.8546 B(  6-O ,  8-H ) :   0.8388
B(  9-O , 10-H ) :   0.8254 B(  9-O , 11-H ) :   0.8499

MP2 TOTAL ENERGY:     -305.259269027 Eh
FINAL SINGLE POINT ENERGY      -305.259269026925

DIPOLE MOMENT
-------------
                                X             Y             Z
Electronic contribution:     -0.20254       0.07443      -0.09232
Nuclear contribution   :      0.98813      -0.37017       1.54856
                        -----------------------------------------
Total Dipole Moment    :      0.78559      -0.29574       1.45623
                        -----------------------------------------
Magnitude (a.u.)       :      1.68084
Magnitude (Debye)      :      4.27236

Rotational constants in cm-1:     0.108800     0.042233     0.032335
Rotational constants in MHz :  3261.753536  1266.123007   969.388329

                             ****ORCA TERMINATED NORMALLY****
TOTAL RUN TIME: 0 days 0 hours 0 minutes 21 seconds 785 msec
