                         Program Version 4.2.0 -  RELEASE  -
|  1> # 12mecn.remya.etal.2.mol2,3,9
|  2> ! MP2 def2-TZVP EnGrad TightSCF
|  3>
|  4> %pal
|  5>     nprocs 6
|  6> end
|  7>
|  8> %maxcore 8000
|  9>
| 10> %scf
| 11>     ConvForced true
| 12> end
| 13>
| 14> *xyz 0 1
| 15> C  -4.219070000  -3.477410000  -1.501740000
| 16> H  -3.251530000  -3.803540000  -1.893830000
| 17> H  -4.452920000  -2.481700000  -1.890840000
| 18> H  -4.992170000  -4.178130000  -1.824640000
| 19> C  -4.154550000  -3.418790000  -0.058340000
| 20> N  -4.091140000  -3.354840000   1.104432000
| 21> C  -5.181310000   2.853865000  -1.626100000
| 22> H  -5.488260000   3.811434000  -2.053310000
| 23> H  -5.857590000   2.068112000  -1.968630000
| 24> H  -4.170750000   2.611402000  -1.966640000
| 25> C  -5.187260000   2.919160000  -0.181450000
| 26> N  -5.181700000   2.970641000   0.983640000
| 27> C   0.923766000   4.000693000  -1.575910000
| 28> H   0.011949000   4.478423000  -1.939550000
| 29> H   0.947903000   2.966558000  -1.929960000
| 30> H   1.805950000   4.519548000  -1.956520000
| 31> C   0.942834000   3.994846000  -0.131200000
| 32> N   0.960035000   3.982544000   1.035639000
| 33> *
| 34>
| 35>                          ****END OF INPUT****

CARTESIAN COORDINATES (ANGSTROEM)
---------------------------------
  C     -4.219070   -3.477410   -1.501740
  H     -3.251530   -3.803540   -1.893830
  H     -4.452920   -2.481700   -1.890840
  H     -4.992170   -4.178130   -1.824640
  C     -4.154550   -3.418790   -0.058340
  N     -4.091140   -3.354840    1.104432
  C     -5.181310    2.853865   -1.626100
  H     -5.488260    3.811434   -2.053310
  H     -5.857590    2.068112   -1.968630
  H     -4.170750    2.611402   -1.966640
  C     -5.187260    2.919160   -0.181450
  N     -5.181700    2.970641    0.983640
  C      0.923766    4.000693   -1.575910
  H      0.011949    4.478423   -1.939550
  H      0.947903    2.966558   -1.929960
  H      1.805950    4.519548   -1.956520
  C      0.942834    3.994846   -0.131200
  N      0.960035    3.982544    1.035639

 Total Charge           Charge          ....    0
 Multiplicity           Mult            ....    1
 Number of Electrons    NEL             ....   66
 Basis Dimension        Dim             ....  333

ORBITAL ENERGIES
----------------

  NO   OCC          E(Eh)            E(eV)
   0   2.0000     -15.573906      -423.7875
   1   2.0000     -15.573777      -423.7840
   2   2.0000     -15.573275      -423.7703
   3   2.0000     -11.289273      -307.1967
   4   2.0000     -11.288241      -307.1686
   5   2.0000     -11.287399      -307.1457
   6   2.0000     -11.280026      -306.9451
   7   2.0000     -11.279776      -306.9383
   8   2.0000     -11.279476      -306.9301
   9   2.0000      -1.215002       -33.0619
  10   2.0000      -1.214840       -33.0575
  11   2.0000      -1.213965       -33.0337
  12   2.0000      -1.047093       -28.4928
  13   2.0000      -1.046284       -28.4708
  14   2.0000      -1.046060       -28.4647
  15   2.0000      -0.704233       -19.1631
  16   2.0000      -0.702724       -19.1221
  17   2.0000      -0.702263       -19.1095
  18   2.0000      -0.636611       -17.3231
  19   2.0000      -0.636425       -17.3180
  20   2.0000      -0.634774       -17.2731
  21   2.0000      -0.634373       -17.2622
  22   2.0000      -0.633916       -17.2497
  23   2.0000      -0.632590       -17.2136
  24   2.0000      -0.555769       -15.1232
  25   2.0000      -0.555510       -15.1162
  26   2.0000      -0.555056       -15.1038
  27   2.0000      -0.458310       -12.4713
  28   2.0000      -0.458204       -12.4684
  29   2.0000      -0.458047       -12.4641
  30   2.0000      -0.457866       -12.4592
  31   2.0000      -0.457511       -12.4495
  32   2.0000      -0.456822       -12.4308
  33   0.0000       0.096488         2.6256
  34   0.0000       0.112561         3.0629
  35   0.0000       0.127200         3.4613
  36   0.0000       0.162141         4.4121
  37   0.0000       0.165574         4.5055

MULLIKEN ATOMIC CHARGES
-----------------------
   0 C :   -0.280078
   1 H :    0.172183
   2 H :    0.165036
   3 H :    0.173049
   4 C :   -0.146070
   5 N :   -0.084113
   6 C :   -0.283566
   7 H :    0.173375
   8 H :    0.170065
   9 H :    0.165590
  10 C :   -0.144679
  11 N :   -0.080785
  12 C :   -0.281459
  13 H :    0.168064
  14 H :    0.170012
  15 H :    0.173282
  16 C :   -0.144808
  17 N :   -0.085097
Sum of atomic charges:   -0.0000000

LOEWDIN ATOMIC CHARGES
----------------------
   0 C :   -0.285262
   1 H :    0.152336
   2 H :    0.150713
   3 H :    0.151027
   4 C :   -0.220481
   5 N :    0.051669
   6 C :   -0.286162
   7 H :    0.151214
   8 H :    0.150383
   9 H :    0.150438
  10 C :   -0.220374
  11 N :    0.054501
  12 C :   -0.285197
  13 H :    0.149802
  14 H :    0.152234
  15 H :    0.152018
  16 C :   -0.220451
  17 N :    0.051592

  Mayer bond orders larger than 0.100000
B(  0-C ,  1-H ) :   0.9170 B(  0-C ,  2-H ) :   0.9184 B(  0-C ,  3-H ) :   0.9168
B(  0-C ,  4-C ) :   0.9024 B(  4-C ,  5-N ) :   2.8326 B(  6-C ,  7-H ) :   0.9165
B(  6-C ,  8-H ) :   0.9181 B(  6-C ,  9-H ) :   0.9192 B(  6-C , 10-C ) :   0.9020
B( 10-C , 11-N ) :   2.8303 B( 12-C , 13-H ) :   0.9180 B( 12-C , 14-H ) :   0.9182
B( 12-C , 15-H ) :   0.9164 B( 12-C , 16-C ) :   0.9014 B( 16-C , 17-N ) :   2.8320

MP2 TOTAL ENERGY:     -397.446804113 Eh
FINAL SINGLE POINT ENERGY      -397.446804112935

DIPOLE MOMENT
-------------
                                X             Y             Z
Electronic contribution:      0.14543       0.29338       9.48007
Nuclear contribution   :     -0.23604      -0.43010     -13.94161
                        -----------------------------------------
Total Dipole Moment    :     -0.09061      -0.13672      -4.46154
                        -----------------------------------------
Magnitude (a.u.)       :      4.46455
Magnitude (Debye)      :     11.34799

Rotational constants in cm-1:     0.024030     0.009233     0.007629
Rotational constants in MHz :   720.390973   276.792551   228.715538

                             ****ORCA TERMINATED NORMALLY****
TOTAL RUN TIME: 0 days 0 hours 2 minutes 7 seconds 150 msec
