                         Program Version 4.2.0 -  RELEASE  -
|  1> # 12meoh.boyd.etal.mol2,4,9
|  2> ! MP2 def2-TZVP EnGrad TightSCF
|  3>
|  4> %pal
|  5>     nprocs 6
|  6> end
|  7>
|  8> %maxcore 8000
|  9>
| 10> %scf
| 11>     ConvForced true
| 12> end
| 13>
| 14> *xyz 0 1
| 15> O  -3.839777402   2.233595098   0.660436763
| 16> H  -2.958345897   1.907036203   0.973588449
| 17> C  -3.600368059   3.168790682  -0.390480452
| 18> H  -4.551709193   3.344148967  -0.901254863
| 19> H  -2.868237594   2.789240199  -1.113617525
| 20> H  -3.243594915   4.128998607   0.009549480
| 21> O  -1.358578914   1.232360421   1.189721000
| 22> H  -1.058250183   1.216459361   0.238591307
| 23> C  -0.389763452   1.957872567   1.943072362
| 24> H  -0.747220771   2.012806578   2.975200343
| 25> H  -0.260410585   2.982763209   1.565366540
| 26> H   0.585220638   1.453754179   1.934070793
| 27> O   1.390610024   3.194080770  -1.536658882
| 28> H   2.162932299   2.881562730  -0.993525056
| 29> C   1.202977189   4.580367182  -1.302880219
| 30> H   0.374773115   4.915764831  -1.934164643
| 31> H   2.098649340   5.157710875  -1.570472348
| 32> H   0.950320401   4.800436015  -0.254328827
| 33> *
| 34>
| 35>                          ****END OF INPUT****

CARTESIAN COORDINATES (ANGSTROEM)
---------------------------------
  O     -3.839777    2.233595    0.660437
  H     -2.958346    1.907036    0.973588
  C     -3.600368    3.168791   -0.390480
  H     -4.551709    3.344149   -0.901255
  H     -2.868238    2.789240   -1.113618
  H     -3.243595    4.128999    0.009549
  O     -1.358579    1.232360    1.189721
  H     -1.058250    1.216459    0.238591
  C     -0.389763    1.957873    1.943072
  H     -0.747221    2.012807    2.975200
  H     -0.260411    2.982763    1.565367
  H      0.585221    1.453754    1.934071
  O      1.390610    3.194081   -1.536659
  H      2.162932    2.881563   -0.993525
  C      1.202977    4.580367   -1.302880
  H      0.374773    4.915765   -1.934165
  H      2.098649    5.157711   -1.570472
  H      0.950320    4.800436   -0.254329

 Total Charge           Charge          ....    0
 Multiplicity           Mult            ....    1
 Number of Electrons    NEL             ....   54
 Basis Dimension        Dim             ....  258

ORBITAL ENERGIES
----------------

  NO   OCC          E(Eh)            E(eV)
   0   2.0000     -20.585602      -560.1627
   1   2.0000     -20.574441      -559.8590
   2   2.0000     -20.516503      -558.2824
   3   2.0000     -11.289670      -307.2076
   4   2.0000     -11.284819      -307.0755
   5   2.0000     -11.253847      -306.2327
   6   2.0000      -1.376855       -37.4661
   7   2.0000      -1.364655       -37.1341
   8   2.0000      -1.312778       -35.7225
   9   2.0000      -0.940429       -25.5904
  10   2.0000      -0.933441       -25.4002
  11   2.0000      -0.899523       -24.4773
  12   2.0000      -0.706839       -19.2341
  13   2.0000      -0.698280       -19.0012
  14   2.0000      -0.675704       -18.3868
  15   2.0000      -0.633209       -17.2305
  16   2.0000      -0.629576       -17.1316
  17   2.0000      -0.609512       -16.5857
  18   2.0000      -0.607288       -16.5251
  19   2.0000      -0.594386       -16.1741
  20   2.0000      -0.563722       -15.3397
  21   2.0000      -0.524926       -14.2840
  22   2.0000      -0.514125       -13.9901
  23   2.0000      -0.488528       -13.2935
  24   2.0000      -0.464195       -12.6314
  25   2.0000      -0.458300       -12.4710
  26   2.0000      -0.419817       -11.4238
  27   0.0000       0.100350         2.7307
  28   0.0000       0.141904         3.8614
  29   0.0000       0.146848         3.9959
  30   0.0000       0.163132         4.4390
  31   0.0000       0.193767         5.2727

MULLIKEN ATOMIC CHARGES
-----------------------
   0 O :   -0.520981
   1 H :    0.353150
   2 C :   -0.181906
   3 H :    0.125706
   4 H :    0.091102
   5 H :    0.097291
   6 O :   -0.518019
   7 H :    0.346639
   8 C :   -0.182560
   9 H :    0.146794
  10 H :    0.118258
  11 H :    0.119743
  12 O :   -0.504156
  13 H :    0.324798
  14 C :   -0.175986
  15 H :    0.135693
  16 H :    0.119833
  17 H :    0.104600
Sum of atomic charges:    0.0000000

LOEWDIN ATOMIC CHARGES
----------------------
   0 O :   -0.120313
   1 H :    0.159211
   2 C :   -0.394830
   3 H :    0.106888
   4 H :    0.088112
   5 H :    0.090631
   6 O :   -0.076875
   7 H :    0.201625
   8 C :   -0.374462
   9 H :    0.115458
  10 H :    0.099300
  11 H :    0.102160
  12 O :   -0.106962
  13 H :    0.191279
  14 C :   -0.385112
  15 H :    0.112531
  16 H :    0.098425
  17 H :    0.092936

  Mayer bond orders larger than 0.100000
B(  0-O ,  1-H ) :   0.7958 B(  0-O ,  2-C ) :   0.9457 B(  2-C ,  3-H ) :   0.9422
B(  2-C ,  4-H ) :   0.9378 B(  2-C ,  5-H ) :   0.9384 B(  6-O ,  7-H ) :   0.8243
B(  6-O ,  8-C ) :   0.8780 B(  8-C ,  9-H ) :   0.9397 B(  8-C , 10-H ) :   0.9360
B(  8-C , 11-H ) :   0.9369 B( 12-O , 13-H ) :   0.8394 B( 12-O , 14-C ) :   0.9156
B( 14-C , 15-H ) :   0.9373 B( 14-C , 16-H ) :   0.9414 B( 14-C , 17-H ) :   0.9352

MP2 TOTAL ENERGY:     -346.530997721 Eh
FINAL SINGLE POINT ENERGY      -346.530997721180

DIPOLE MOMENT
-------------
                                X             Y             Z
Electronic contribution:     -1.30548      -3.95984       0.20436
Nuclear contribution   :      3.24309       4.67255      -0.17630
                        -----------------------------------------
Total Dipole Moment    :      1.93762       0.71271       0.02806
                        -----------------------------------------
Magnitude (a.u.)       :      2.06473
Magnitude (Debye)      :      5.24812

Rotational constants in cm-1:     0.084390     0.032217     0.025206
Rotational constants in MHz :  2529.937329   965.835659   755.665665

                             ****ORCA TERMINATED NORMALLY****
TOTAL RUN TIME: 0 days 0 hours 1 minutes 13 seconds 803 msec
