                         Program Version 4.2.0 -  RELEASE  -
|  1> # 12meoh.boyd.etal.mol0,2,4
|  2> ! MP2 def2-TZVP EnGrad TightSCF
|  3>
|  4> %pal
|  5>     nprocs 6
|  6> end
|  7>
|  8> %maxcore 8000
|  9>
| 10> %scf
| 11>     ConvForced true
| 12> end
| 13>
| 14> *xyz 0 1
| 15> O  -1.776108874  -2.741384797  -1.019308298
| 16> H  -2.520094035  -2.452295987  -0.420778302
| 17> C  -2.174025166  -3.952700964  -1.647004581
| 18> H  -1.359803895  -4.272673416  -2.304149236
| 19> H  -3.075973971  -3.808692420  -2.256751112
| 20> H  -2.370225393  -4.752784761  -0.918966137
| 21> O  -3.839777402   2.233595098   0.660436763
| 22> H  -2.958345897   1.907036203   0.973588449
| 23> C  -3.600368059   3.168790682  -0.390480452
| 24> H  -4.551709193   3.344148967  -0.901254863
| 25> H  -2.868237594   2.789240199  -1.113617525
| 26> H  -3.243594915   4.128998607   0.009549480
| 27> O  -1.358578914   1.232360421   1.189721000
| 28> H  -1.058250183   1.216459361   0.238591307
| 29> C  -0.389763452   1.957872567   1.943072362
| 30> H  -0.747220771   2.012806578   2.975200343
| 31> H  -0.260410585   2.982763209   1.565366540
| 32> H   0.585220638   1.453754179   1.934070793
| 33> *
| 34>
| 35>                          ****END OF INPUT****

CARTESIAN COORDINATES (ANGSTROEM)
---------------------------------
  O     -1.776109   -2.741385   -1.019308
  H     -2.520094   -2.452296   -0.420778
  C     -2.174025   -3.952701   -1.647005
  H     -1.359804   -4.272673   -2.304149
  H     -3.075974   -3.808692   -2.256751
  H     -2.370225   -4.752785   -0.918966
  O     -3.839777    2.233595    0.660437
  H     -2.958346    1.907036    0.973588
  C     -3.600368    3.168791   -0.390480
  H     -4.551709    3.344149   -0.901255
  H     -2.868238    2.789240   -1.113618
  H     -3.243595    4.128999    0.009549
  O     -1.358579    1.232360    1.189721
  H     -1.058250    1.216459    0.238591
  C     -0.389763    1.957873    1.943072
  H     -0.747221    2.012807    2.975200
  H     -0.260411    2.982763    1.565367
  H      0.585221    1.453754    1.934071

 Total Charge           Charge          ....    0
 Multiplicity           Mult            ....    1
 Number of Electrons    NEL             ....   54
 Basis Dimension        Dim             ....  258

ORBITAL ENERGIES
----------------

  NO   OCC          E(Eh)            E(eV)
   0   2.0000     -20.587670      -560.2190
   1   2.0000     -20.556562      -559.3725
   2   2.0000     -20.519959      -558.3765
   3   2.0000     -11.289336      -307.1985
   4   2.0000     -11.270298      -306.6804
   5   2.0000     -11.257137      -306.3223
   6   2.0000      -1.378812       -37.5194
   7   2.0000      -1.345754       -36.6198
   8   2.0000      -1.316232       -35.8165
   9   2.0000      -0.940569       -25.5942
  10   2.0000      -0.917827       -24.9753
  11   2.0000      -0.902778       -24.5659
  12   2.0000      -0.708123       -19.2690
  13   2.0000      -0.680192       -18.5090
  14   2.0000      -0.678412       -18.4605
  15   2.0000      -0.631858       -17.1937
  16   2.0000      -0.615972       -16.7614
  17   2.0000      -0.610965       -16.6252
  18   2.0000      -0.597602       -16.2616
  19   2.0000      -0.590168       -16.0593
  20   2.0000      -0.566956       -15.4277
  21   2.0000      -0.525900       -14.3105
  22   2.0000      -0.499249       -13.5852
  23   2.0000      -0.490579       -13.3493
  24   2.0000      -0.460658       -12.5351
  25   2.0000      -0.447673       -12.1818
  26   2.0000      -0.423214       -11.5162
  27   0.0000       0.112725         3.0674
  28   0.0000       0.139133         3.7860
  29   0.0000       0.159889         4.3508
  30   0.0000       0.174220         4.7408
  31   0.0000       0.184324         5.0157

MULLIKEN ATOMIC CHARGES
-----------------------
   0 O :   -0.503304
   1 H :    0.328338
   2 C :   -0.173026
   3 H :    0.126791
   4 H :    0.110943
   5 H :    0.110138
   6 O :   -0.522615
   7 H :    0.353504
   8 C :   -0.180107
   9 H :    0.126626
  10 H :    0.084671
  11 H :    0.102146
  12 O :   -0.516309
  13 H :    0.343470
  14 C :   -0.187989
  15 H :    0.143944
  16 H :    0.123717
  17 H :    0.129063
Sum of atomic charges:    0.0000000

LOEWDIN ATOMIC CHARGES
----------------------
   0 O :   -0.111753
   1 H :    0.195028
   2 C :   -0.384207
   3 H :    0.109521
   4 H :    0.095663
   5 H :    0.095587
   6 O :   -0.121281
   7 H :    0.158845
   8 C :   -0.394275
   9 H :    0.107276
  10 H :    0.086484
  11 H :    0.091967
  12 O :   -0.078055
  13 H :    0.201052
  14 C :   -0.372802
  15 H :    0.115620
  16 H :    0.100702
  17 H :    0.104626

  Mayer bond orders larger than 0.100000
B(  0-O ,  1-H ) :   0.8374 B(  0-O ,  2-C ) :   0.9270 B(  2-C ,  3-H ) :   0.9377
B(  2-C ,  4-H ) :   0.9399 B(  2-C ,  5-H ) :   0.9385 B(  6-O ,  7-H ) :   0.7952
B(  6-O ,  8-C ) :   0.9437 B(  8-C ,  9-H ) :   0.9429 B(  8-C , 10-H ) :   0.9375
B(  8-C , 11-H ) :   0.9384 B( 12-O , 13-H ) :   0.8264 B( 12-O , 14-C ) :   0.8755
B( 14-C , 15-H ) :   0.9395 B( 14-C , 16-H ) :   0.9364 B( 14-C , 17-H ) :   0.9350

MP2 TOTAL ENERGY:     -346.529670596 Eh
FINAL SINGLE POINT ENERGY      -346.529670595971

DIPOLE MOMENT
-------------
                                X             Y             Z
Electronic contribution:     -0.80571      -0.71508       1.38161
Nuclear contribution   :      1.69920       0.71817      -1.59697
                        -----------------------------------------
Total Dipole Moment    :      0.89349       0.00309      -0.21536
                        -----------------------------------------
Magnitude (a.u.)       :      0.91908
Magnitude (Debye)      :      2.33612

Rotational constants in cm-1:     0.080652     0.021163     0.017429
Rotational constants in MHz :  2417.871366   634.438530   522.517126

                             ****ORCA TERMINATED NORMALLY****
TOTAL RUN TIME: 0 days 0 hours 1 minutes 3 seconds 713 msec
