                         Program Version 4.2.0 -  RELEASE  -
|  1> # 12meoh.boyd.etal.mol6,9
|  2> ! MP2 def2-TZVP EnGrad TightSCF
|  3>
|  4> %pal
|  5>     nprocs 6
|  6> end
|  7>
|  8> %maxcore 8000
|  9>
| 10> %scf
| 11>     ConvForced true
| 12> end
| 13>
| 14> *xyz 0 1
| 15> O   2.622209273  -1.703002590  -1.445859723
| 16> H   1.828551432  -1.986513781  -0.909754968
| 17> C   2.781117675  -2.615822239  -2.525472890
| 18> H   3.691063626  -2.339003544  -3.065143454
| 19> H   1.934727323  -2.559520367  -3.223226661
| 20> H   2.879948338  -3.653846211  -2.177750170
| 21> O   1.390610024   3.194080770  -1.536658882
| 22> H   2.162932299   2.881562730  -0.993525056
| 23> C   1.202977189   4.580367182  -1.302880219
| 24> H   0.374773115   4.915764831  -1.934164643
| 25> H   2.098649340   5.157710875  -1.570472348
| 26> H   0.950320401   4.800436015  -0.254328827
| 27> *
| 28>
| 29>                          ****END OF INPUT****

CARTESIAN COORDINATES (ANGSTROEM)
---------------------------------
  O      2.622209   -1.703003   -1.445860
  H      1.828551   -1.986514   -0.909755
  C      2.781118   -2.615822   -2.525473
  H      3.691064   -2.339004   -3.065143
  H      1.934727   -2.559520   -3.223227
  H      2.879948   -3.653846   -2.177750
  O      1.390610    3.194081   -1.536659
  H      2.162932    2.881563   -0.993525
  C      1.202977    4.580367   -1.302880
  H      0.374773    4.915765   -1.934165
  H      2.098649    5.157711   -1.570472
  H      0.950320    4.800436   -0.254329

 Total Charge           Charge          ....    0
 Multiplicity           Mult            ....    1
 Number of Electrons    NEL             ....   36
 Basis Dimension        Dim             ....  172

ORBITAL ENERGIES
----------------

  NO   OCC          E(Eh)            E(eV)
   0   2.0000     -20.555765      -559.3508
   1   2.0000     -20.552137      -559.2521
   2   2.0000     -11.269541      -306.6598
   3   2.0000     -11.267605      -306.6071
   4   2.0000      -1.343837       -36.5677
   5   2.0000      -1.342924       -36.5428
   6   2.0000      -0.917248       -24.9596
   7   2.0000      -0.915286       -24.9062
   8   2.0000      -0.678858       -18.4727
   9   2.0000      -0.677920       -18.4471
  10   2.0000      -0.614808       -16.7298
  11   2.0000      -0.612727       -16.6732
  12   2.0000      -0.589183       -16.0325
  13   2.0000      -0.587586       -15.9890
  14   2.0000      -0.497853       -13.5473
  15   2.0000      -0.494702       -13.4615
  16   2.0000      -0.446830       -12.1589
  17   2.0000      -0.443746       -12.0749
  18   0.0000       0.133231         3.6254
  19   0.0000       0.143617         3.9080
  20   0.0000       0.175134         4.7656
  21   0.0000       0.183112         4.9827
  22   0.0000       0.230463         6.2712

MULLIKEN ATOMIC CHARGES
-----------------------
   0 O :   -0.499020
   1 H :    0.322471
   2 C :   -0.171388
   3 H :    0.128478
   4 H :    0.111457
   5 H :    0.108208
   6 O :   -0.496174
   7 H :    0.325234
   8 C :   -0.171258
   9 H :    0.127350
  10 H :    0.108029
  11 H :    0.106613
Sum of atomic charges:    0.0000000

LOEWDIN ATOMIC CHARGES
----------------------
   0 O :   -0.111652
   1 H :    0.192974
   2 C :   -0.382212
   3 H :    0.110116
   4 H :    0.095944
   5 H :    0.094964
   6 O :   -0.104738
   7 H :    0.192296
   8 C :   -0.386893
   9 H :    0.109820
  10 H :    0.094843
  11 H :    0.094538

  Mayer bond orders larger than 0.100000
B(  0-O ,  1-H ) :   0.8408 B(  0-O ,  2-C ) :   0.9259 B(  2-C ,  3-H ) :   0.9376
B(  2-C ,  4-H ) :   0.9392 B(  2-C ,  5-H ) :   0.9388 B(  6-O ,  7-H ) :   0.8395
B(  6-O ,  8-C ) :   0.9312 B(  8-C ,  9-H ) :   0.9377 B(  8-C , 10-H ) :   0.9401
B(  8-C , 11-H ) :   0.9373

MP2 TOTAL ENERGY:     -231.013288797 Eh
FINAL SINGLE POINT ENERGY      -231.013288797220

DIPOLE MOMENT
-------------
                                X             Y             Z
Electronic contribution:      0.04877      -0.55077       0.91861
Nuclear contribution   :     -0.06624       0.35778      -0.60731
                        -----------------------------------------
Total Dipole Moment    :     -0.01748      -0.19298       0.31130
                        -----------------------------------------
Magnitude (a.u.)       :      0.36668
Magnitude (Debye)      :      0.93203

Rotational constants in cm-1:     1.008159     0.025899     0.025584
Rotational constants in MHz : 30223.855300   776.434908   766.979296

                             ****ORCA TERMINATED NORMALLY****
TOTAL RUN TIME: 0 days 0 hours 0 minutes 26 seconds 762 msec
