                         Program Version 4.2.0 -  RELEASE  -
|  1> # 12meoh.boyd.etal.mol6,7,10
|  2> ! MP2 def2-TZVP EnGrad TightSCF
|  3>
|  4> %pal
|  5>     nprocs 6
|  6> end
|  7>
|  8> %maxcore 8000
|  9>
| 10> %scf
| 11>     ConvForced true
| 12> end
| 13>
| 14> *xyz 0 1
| 15> O   2.622209273  -1.703002590  -1.445859723
| 16> H   1.828551432  -1.986513781  -0.909754968
| 17> C   2.781117675  -2.615822239  -2.525472890
| 18> H   3.691063626  -2.339003544  -3.065143454
| 19> H   1.934727323  -2.559520367  -3.223226661
| 20> H   2.879948338  -3.653846211  -2.177750170
| 21> O   4.310535586  -1.588322800   0.656128299
| 22> H   3.804372199  -1.630404735  -0.196849819
| 23> C   4.312298137  -2.894980854   1.222112691
| 24> H   4.713177833  -2.819907076   2.237066773
| 25> H   4.957796734  -3.574699304   0.648211180
| 26> H   3.302735989  -3.324433205   1.269756773
| 27> O  -5.201143618   0.064582726  -0.172223772
| 28> H  -4.686891530   0.869258890   0.107806143
| 29> C  -6.513192168   0.171391798   0.359883449
| 30> H  -7.049381312  -0.749234190   0.111361174
| 31> H  -7.057741163   1.017801101  -0.081819420
| 32> H  -6.514770575   0.292264928   1.453058834
| 33> *
| 34>
| 35>                          ****END OF INPUT****

CARTESIAN COORDINATES (ANGSTROEM)
---------------------------------
  O      2.622209   -1.703003   -1.445860
  H      1.828551   -1.986514   -0.909755
  C      2.781118   -2.615822   -2.525473
  H      3.691064   -2.339004   -3.065143
  H      1.934727   -2.559520   -3.223227
  H      2.879948   -3.653846   -2.177750
  O      4.310536   -1.588323    0.656128
  H      3.804372   -1.630405   -0.196850
  C      4.312298   -2.894981    1.222113
  H      4.713178   -2.819907    2.237067
  H      4.957797   -3.574699    0.648211
  H      3.302736   -3.324433    1.269757
  O     -5.201144    0.064583   -0.172224
  H     -4.686892    0.869259    0.107806
  C     -6.513192    0.171392    0.359883
  H     -7.049381   -0.749234    0.111361
  H     -7.057741    1.017801   -0.081819
  H     -6.514771    0.292265    1.453059

 Total Charge           Charge          ....    0
 Multiplicity           Mult            ....    1
 Number of Electrons    NEL             ....   54
 Basis Dimension        Dim             ....  258

ORBITAL ENERGIES
----------------

  NO   OCC          E(Eh)            E(eV)
   0   2.0000     -20.589400      -560.2661
   1   2.0000     -20.560015      -559.4665
   2   2.0000     -20.517565      -558.3113
   3   2.0000     -11.290620      -307.2334
   4   2.0000     -11.273438      -306.7659
   5   2.0000     -11.255059      -306.2657
   6   2.0000      -1.381530       -37.5933
   7   2.0000      -1.350089       -36.7378
   8   2.0000      -1.314622       -35.7727
   9   2.0000      -0.942440       -25.6451
  10   2.0000      -0.921327       -25.0706
  11   2.0000      -0.900666       -24.5084
  12   2.0000      -0.710526       -19.3344
  13   2.0000      -0.684596       -18.6288
  14   2.0000      -0.679110       -18.4795
  15   2.0000      -0.633268       -17.2321
  16   2.0000      -0.618979       -16.8433
  17   2.0000      -0.612276       -16.6609
  18   2.0000      -0.596073       -16.2200
  19   2.0000      -0.593835       -16.1591
  20   2.0000      -0.565561       -15.3897
  21   2.0000      -0.526375       -14.3234
  22   2.0000      -0.502151       -13.6642
  23   2.0000      -0.491141       -13.3646
  24   2.0000      -0.458501       -12.4765
  25   2.0000      -0.450896       -12.2695
  26   2.0000      -0.420940       -11.4544
  27   0.0000       0.114632         3.1193
  28   0.0000       0.133137         3.6228
  29   0.0000       0.159596         4.3428
  30   0.0000       0.173990         4.7345
  31   0.0000       0.176333         4.7983

MULLIKEN ATOMIC CHARGES
-----------------------
   0 O :   -0.514448
   1 H :    0.341791
   2 C :   -0.188013
   3 H :    0.144509
   4 H :    0.128340
   5 H :    0.124492
   6 O :   -0.523205
   7 H :    0.353664
   8 C :   -0.177666
   9 H :    0.126453
  10 H :    0.101261
  11 H :    0.082822
  12 O :   -0.498065
  13 H :    0.322433
  14 C :   -0.172423
  15 H :    0.128888
  16 H :    0.109442
  17 H :    0.109724
Sum of atomic charges:    0.0000000

LOEWDIN ATOMIC CHARGES
----------------------
   0 O :   -0.073475
   1 H :    0.202015
   2 C :   -0.375270
   3 H :    0.115947
   4 H :    0.104634
   5 H :    0.100589
   6 O :   -0.119761
   7 H :    0.158081
   8 C :   -0.397570
   9 H :    0.107114
  10 H :    0.091571
  11 H :    0.086125
  12 O :   -0.107770
  13 H :    0.191254
  14 C :   -0.384783
  15 H :    0.110336
  16 H :    0.095389
  17 H :    0.095574

  Mayer bond orders larger than 0.100000
B(  0-O ,  1-H ) :   0.8274 B(  0-O ,  2-C ) :   0.8736 B(  2-C ,  3-H ) :   0.9392
B(  2-C ,  4-H ) :   0.9354 B(  2-C ,  5-H ) :   0.9367 B(  6-O ,  7-H ) :   0.7922
B(  6-O ,  8-C ) :   0.9468 B(  8-C ,  9-H ) :   0.9424 B(  8-C , 10-H ) :   0.9406
B(  8-C , 11-H ) :   0.9356 B( 12-O , 13-H ) :   0.8416 B( 12-O , 14-C ) :   0.9264
B( 14-C , 15-H ) :   0.9376 B( 14-C , 16-H ) :   0.9390 B( 14-C , 17-H ) :   0.9386

MP2 TOTAL ENERGY:     -346.528128078 Eh
FINAL SINGLE POINT ENERGY      -346.528128078006

DIPOLE MOMENT
-------------
                                X             Y             Z
Electronic contribution:      1.43889       2.69388      -0.34646
Nuclear contribution   :     -2.57291      -3.20582      -0.00926
                        -----------------------------------------
Total Dipole Moment    :     -1.13402      -0.51194      -0.35572
                        -----------------------------------------
Magnitude (a.u.)       :      1.29407
Magnitude (Debye)      :      3.28926

Rotational constants in cm-1:     0.090352     0.008172     0.007664
Rotational constants in MHz :  2708.689899   244.985029   229.760960

                             ****ORCA TERMINATED NORMALLY****
TOTAL RUN TIME: 0 days 0 hours 0 minutes 48 seconds 105 msec
