                         Program Version 4.2.0 -  RELEASE  -
|  1> # 12meoh.boyd.etal.mol0,7
|  2> ! MP2 def2-TZVP EnGrad TightSCF
|  3>
|  4> %pal
|  5>     nprocs 6
|  6> end
|  7>
|  8> %maxcore 8000
|  9>
| 10> %scf
| 11>     ConvForced true
| 12> end
| 13>
| 14> *xyz 0 1
| 15> O  -1.776108874  -2.741384797  -1.019308298
| 16> H  -2.520094035  -2.452295987  -0.420778302
| 17> C  -2.174025166  -3.952700964  -1.647004581
| 18> H  -1.359803895  -4.272673416  -2.304149236
| 19> H  -3.075973971  -3.808692420  -2.256751112
| 20> H  -2.370225393  -4.752784761  -0.918966137
| 21> O   4.310535586  -1.588322800   0.656128299
| 22> H   3.804372199  -1.630404735  -0.196849819
| 23> C   4.312298137  -2.894980854   1.222112691
| 24> H   4.713177833  -2.819907076   2.237066773
| 25> H   4.957796734  -3.574699304   0.648211180
| 26> H   3.302735989  -3.324433205   1.269756773
| 27> *
| 28>
| 29>                          ****END OF INPUT****

CARTESIAN COORDINATES (ANGSTROEM)
---------------------------------
  O     -1.776109   -2.741385   -1.019308
  H     -2.520094   -2.452296   -0.420778
  C     -2.174025   -3.952701   -1.647005
  H     -1.359804   -4.272673   -2.304149
  H     -3.075974   -3.808692   -2.256751
  H     -2.370225   -4.752785   -0.918966
  O      4.310536   -1.588323    0.656128
  H      3.804372   -1.630405   -0.196850
  C      4.312298   -2.894981    1.222113
  H      4.713178   -2.819907    2.237067
  H      4.957797   -3.574699    0.648211
  H      3.302736   -3.324433    1.269757

 Total Charge           Charge          ....    0
 Multiplicity           Mult            ....    1
 Number of Electrons    NEL             ....   36
 Basis Dimension        Dim             ....  172

ORBITAL ENERGIES
----------------

  NO   OCC          E(Eh)            E(eV)
   0   2.0000     -20.561161      -559.4976
   1   2.0000     -20.552661      -559.2663
   2   2.0000     -11.274550      -306.7961
   3   2.0000     -11.267566      -306.6061
   4   2.0000      -1.350292       -36.7433
   5   2.0000      -1.342390       -36.5283
   6   2.0000      -0.922147       -25.0929
   7   2.0000      -0.915392       -24.9091
   8   2.0000      -0.684722       -18.6322
   9   2.0000      -0.677328       -18.4310
  10   2.0000      -0.620340       -16.8803
  11   2.0000      -0.612675       -16.6717
  12   2.0000      -0.594402       -16.1745
  13   2.0000      -0.586505       -15.9596
  14   2.0000      -0.503470       -13.7001
  15   2.0000      -0.496612       -13.5135
  16   2.0000      -0.452052       -12.3010
  17   2.0000      -0.444622       -12.0988
  18   0.0000       0.131564         3.5800
  19   0.0000       0.140852         3.8328
  20   0.0000       0.173049         4.7089
  21   0.0000       0.180138         4.9018
  22   0.0000       0.225337         6.1317

MULLIKEN ATOMIC CHARGES
-----------------------
   0 O :   -0.497073
   1 H :    0.322872
   2 C :   -0.173583
   3 H :    0.127770
   4 H :    0.110422
   5 H :    0.109609
   6 O :   -0.497264
   7 H :    0.323456
   8 C :   -0.174629
   9 H :    0.127436
  10 H :    0.107496
  11 H :    0.113489
Sum of atomic charges:   -0.0000000

LOEWDIN ATOMIC CHARGES
----------------------
   0 O :   -0.109508
   1 H :    0.193069
   2 C :   -0.384425
   3 H :    0.109969
   4 H :    0.095579
   5 H :    0.095325
   6 O :   -0.109438
   7 H :    0.190447
   8 C :   -0.381694
   9 H :    0.109386
  10 H :    0.094780
  11 H :    0.096511

  Mayer bond orders larger than 0.100000
B(  0-O ,  1-H ) :   0.8411 B(  0-O ,  2-C ) :   0.9267 B(  2-C ,  3-H ) :   0.9376
B(  2-C ,  4-H ) :   0.9398 B(  2-C ,  5-H ) :   0.9380 B(  6-O ,  7-H ) :   0.8420
B(  6-O ,  8-C ) :   0.9278 B(  8-C ,  9-H ) :   0.9378 B(  8-C , 10-H ) :   0.9382
B(  8-C , 11-H ) :   0.9401

MP2 TOTAL ENERGY:     -231.013469641 Eh
FINAL SINGLE POINT ENERGY      -231.013469640905

DIPOLE MOMENT
-------------
                                X             Y             Z
Electronic contribution:      0.68834       3.21590       0.12966
Nuclear contribution   :     -1.64190      -4.08077      -0.31427
                        -----------------------------------------
Total Dipole Moment    :     -0.95356      -0.86487      -0.18461
                        -----------------------------------------
Magnitude (a.u.)       :      1.30052
Magnitude (Debye)      :      3.30567

Rotational constants in cm-1:     0.453651     0.022474     0.021908
Rotational constants in MHz : 13600.104258   673.760409   656.798128

                             ****ORCA TERMINATED NORMALLY****
TOTAL RUN TIME: 0 days 0 hours 0 minutes 17 seconds 505 msec
