                         Program Version 4.2.0 -  RELEASE  -
|  1> # 12h2o.su.etal.mol0,1,2,3,4,5,6,7,9,10
|  2> ! MP2 def2-TZVP EnGrad TightSCF
|  3>
|  4> %pal
|  5>     nprocs 6
|  6> end
|  7>
|  8> %maxcore 8000
|  9>
| 10> %scf
| 11>     ConvForced true
| 12> end
| 13>
| 14> *xyz 0 1
| 15> O   1.794470000   0.923410000   2.768350000
| 16> H   2.338250000   1.359750000   3.430940000
| 17> H   0.879480000   1.303000000   2.865760000
| 18> O  -1.794470000  -0.923410000   2.768350000
| 19> H  -2.338250000  -1.359750000   3.430940000
| 20> H  -0.879480000  -1.303000000   2.865760000
| 21> O   0.923410000  -1.794470000  -2.768350000
| 22> H   1.359750000  -2.338250000  -3.430940000
| 23> H   1.303000000  -0.879480000  -2.865760000
| 24> O  -1.752130000  -0.741530000  -2.896280000
| 25> H  -2.036450000  -0.920500000  -1.984040000
| 26> H  -0.921210000  -1.242140000  -2.984230000
| 27> O  -0.885520000   1.737840000   0.052730000
| 28> H  -1.032320000   2.090180000  -0.841890000
| 29> H  -1.284090000   0.839590000   0.017130000
| 30> O   0.885520000  -1.737840000   0.052730000
| 31> H   1.284090000  -0.839590000   0.017130000
| 32> H   1.032320000  -2.090180000  -0.841890000
| 33> O   1.737840000   0.885520000  -0.052730000
| 34> H   2.090180000   1.032320000   0.841890000
| 35> H   0.839590000   1.284090000  -0.017130000
| 36> O  -1.737840000  -0.885520000  -0.052730000
| 37> H  -2.090180000  -1.032320000   0.841890000
| 38> H  -0.839590000  -1.284090000  -0.017130000
| 39> O   0.741530000  -1.752130000   2.896280000
| 40> H   0.920500000  -2.036450000   1.984040000
| 41> H   1.242140000  -0.921210000   2.984230000
| 42> O  -0.923410000   1.794470000  -2.768350000
| 43> H  -1.359750000   2.338250000  -3.430940000
| 44> H  -1.303000000   0.879480000  -2.865760000
| 45> *
| 46>
| 47>                          ****END OF INPUT****

CARTESIAN COORDINATES (ANGSTROEM)
---------------------------------
  O      1.794470    0.923410    2.768350
  H      2.338250    1.359750    3.430940
  H      0.879480    1.303000    2.865760
  O     -1.794470   -0.923410    2.768350
  H     -2.338250   -1.359750    3.430940
  H     -0.879480   -1.303000    2.865760
  O      0.923410   -1.794470   -2.768350
  H      1.359750   -2.338250   -3.430940
  H      1.303000   -0.879480   -2.865760
  O     -1.752130   -0.741530   -2.896280
  H     -2.036450   -0.920500   -1.984040
  H     -0.921210   -1.242140   -2.984230
  O     -0.885520    1.737840    0.052730
  H     -1.032320    2.090180   -0.841890
  H     -1.284090    0.839590    0.017130
  O      0.885520   -1.737840    0.052730
  H      1.284090   -0.839590    0.017130
  H      1.032320   -2.090180   -0.841890
  O      1.737840    0.885520   -0.052730
  H      2.090180    1.032320    0.841890
  H      0.839590    1.284090   -0.017130
  O     -1.737840   -0.885520   -0.052730
  H     -2.090180   -1.032320    0.841890
  H     -0.839590   -1.284090   -0.017130
  O      0.741530   -1.752130    2.896280
  H      0.920500   -2.036450    1.984040
  H      1.242140   -0.921210    2.984230
  O     -0.923410    1.794470   -2.768350
  H     -1.359750    2.338250   -3.430940
  H     -1.303000    0.879480   -2.865760

 Total Charge           Charge          ....    0
 Multiplicity           Mult            ....    1
 Number of Electrons    NEL             ....  100
 Basis Dimension        Dim             ....  430

ORBITAL ENERGIES
----------------

  NO   OCC          E(Eh)            E(eV)
   0   2.0000     -20.614314      -560.9440
   1   2.0000     -20.609507      -560.8132
   2   2.0000     -20.555933      -559.3554
   3   2.0000     -20.551040      -559.2222
   4   2.0000     -20.546669      -559.1033
   5   2.0000     -20.540281      -558.9295
   6   2.0000     -20.537131      -558.8437
   7   2.0000     -20.533647      -558.7489
   8   2.0000     -20.531574      -558.6925
   9   2.0000     -20.517435      -558.3078
  10   2.0000      -1.394964       -37.9589
  11   2.0000      -1.390133       -37.8274
  12   2.0000      -1.355467       -36.8841
  13   2.0000      -1.343837       -36.5677
  14   2.0000      -1.342346       -36.5271
  15   2.0000      -1.330446       -36.2033
  16   2.0000      -1.323574       -36.0163
  17   2.0000      -1.316179       -35.8151
  18   2.0000      -1.314370       -35.7658
  19   2.0000      -1.298513       -35.3343
  20   2.0000      -0.760185       -20.6857
  21   2.0000      -0.755457       -20.5570
  22   2.0000      -0.722128       -19.6501
  23   2.0000      -0.711422       -19.3588
  24   2.0000      -0.707515       -19.2525
  25   2.0000      -0.702427       -19.1140
  26   2.0000      -0.700085       -19.0503
  27   2.0000      -0.697240       -18.9729
  28   2.0000      -0.694545       -18.8995
  29   2.0000      -0.678785       -18.4707
  30   2.0000      -0.642770       -17.4907
  31   2.0000      -0.632374       -17.2078
  32   2.0000      -0.609335       -16.5809
  33   2.0000      -0.605647       -16.4805
  34   2.0000      -0.593445       -16.1485
  35   2.0000      -0.578829       -15.7507
  36   2.0000      -0.571693       -15.5566
  37   2.0000      -0.565492       -15.3878
  38   2.0000      -0.557036       -15.1577
  39   2.0000      -0.541029       -14.7221
  40   2.0000      -0.537850       -14.6357
  41   2.0000      -0.532630       -14.4936
  42   2.0000      -0.503466       -13.7000
  43   2.0000      -0.494226       -13.4486
  44   2.0000      -0.491584       -13.3767
  45   2.0000      -0.486509       -13.2386
  46   2.0000      -0.485409       -13.2086
  47   2.0000      -0.482736       -13.1359
  48   2.0000      -0.479916       -13.0592
  49   2.0000      -0.465820       -12.6756
  50   0.0000       0.099978         2.7205
  51   0.0000       0.109061         2.9677
  52   0.0000       0.151558         4.1241
  53   0.0000       0.158118         4.3026
  54   0.0000       0.188725         5.1355

MULLIKEN ATOMIC CHARGES
-----------------------
   0 O :   -0.726842
   1 H :    0.364189
   2 H :    0.387907
   3 O :   -0.743300
   4 H :    0.334977
   5 H :    0.372882
   6 O :   -0.727000
   7 H :    0.365885
   8 H :    0.388425
   9 O :   -0.718891
  10 H :    0.389552
  11 H :    0.361620
  12 O :   -0.745830
  13 H :    0.375253
  14 H :    0.366156
  15 O :   -0.756492
  16 H :    0.360958
  17 H :    0.377682
  18 O :   -0.737287
  19 H :    0.367041
  20 H :    0.369466
  21 O :   -0.762153
  22 H :    0.384607
  23 H :    0.357941
  24 O :   -0.718550
  25 H :    0.387432
  26 H :    0.364198
  27 O :   -0.744288
  28 H :    0.333177
  29 H :    0.371285
Sum of atomic charges:   -0.0000000

LOEWDIN ATOMIC CHARGES
----------------------
   0 O :   -0.289171
   1 H :    0.168059
   2 H :    0.198335
   3 O :   -0.343912
   4 H :    0.152882
   5 H :    0.143515
   6 O :   -0.288696
   7 H :    0.168975
   8 H :    0.198622
   9 O :   -0.287644
  10 H :    0.156729
  11 H :    0.147066
  12 O :   -0.323294
  13 H :    0.149103
  14 H :    0.139929
  15 O :   -0.304286
  16 H :    0.141453
  17 H :    0.150336
  18 O :   -0.320021
  19 H :    0.145364
  20 H :    0.142094
  21 O :   -0.305673
  22 H :    0.153743
  23 H :    0.139772
  24 O :   -0.287137
  25 H :    0.156101
  26 H :    0.148298
  27 O :   -0.345494
  28 H :    0.151720
  29 H :    0.143234

  Mayer bond orders larger than 0.100000
B(  0-O ,  1-H ) :   0.8320 B(  0-O ,  2-H ) :   0.8067 B(  3-O ,  4-H ) :   0.8517
B(  3-O ,  5-H ) :   0.7485 B(  5-H , 24-O ) :   0.1133 B(  6-O ,  7-H ) :   0.8314
B(  6-O ,  8-H ) :   0.8065 B(  9-O , 10-H ) :   0.7955 B(  9-O , 11-H ) :   0.8156
B(  9-O , 29-H ) :   0.1126 B( 12-O , 13-H ) :   0.8007 B( 12-O , 14-H ) :   0.7771
B( 12-O , 20-H ) :   0.1229 B( 15-O , 16-H ) :   0.7441 B( 15-O , 17-H ) :   0.8081
B( 16-H , 18-O ) :   0.1328 B( 18-O , 19-H ) :   0.8194 B( 18-O , 20-H ) :   0.7550
B( 21-O , 22-H ) :   0.7889 B( 21-O , 23-H ) :   0.7657 B( 24-O , 25-H ) :   0.8001
B( 24-O , 26-H ) :   0.8115 B( 27-O , 28-H ) :   0.8525 B( 27-O , 29-H ) :   0.7491

MP2 TOTAL ENERGY:     -763.265457913 Eh
FINAL SINGLE POINT ENERGY      -763.265457913339

DIPOLE MOMENT
-------------
                                X             Y             Z
Electronic contribution:      0.26131      -0.21090       0.01454
Nuclear contribution   :      1.02062      -0.11069       0.00000
                        -----------------------------------------
Total Dipole Moment    :      1.28193      -0.32159       0.01454
                        -----------------------------------------
Magnitude (a.u.)       :      1.32173
Magnitude (Debye)      :      3.35958

Rotational constants in cm-1:     0.025588     0.013804     0.013569
Rotational constants in MHz :   767.115829   413.836248   406.793516

                             ****ORCA TERMINATED NORMALLY****
TOTAL RUN TIME: 0 days 0 hours 6 minutes 44 seconds 74 msec
