                         Program Version 4.2.0 -  RELEASE  -
|  1> ! MP2 def2-TZVP EnGrad TightSCF FrozenCore
|  2>
|  3> %pal
|  4>     nprocs 8
|  5> end
|  6>
|  7> %maxcore 8000
|  8>
|  9> %scf
| 10>     ConvForced true
| 11> end
| 12>
| 13> *xyz 0 1
| 14> O          0.00000        0.00000        0.00000
| 15> H          0.96460        0.00000        0.00000
| 16> H         -0.26210        0.00000       -0.95416
| 17> O         -0.93182        0.18215       -2.54298
| 18> H         -1.66354        0.83708       -2.44791
| 19> H         -1.35422       -0.59543       -2.92891
| 20> O         -3.01222        1.84807       -1.94912
| 21> H         -3.08376        2.78545       -2.16558
| 22> H         -2.91943        1.81596       -0.96702
| 23> O         -2.39006        1.58969        0.70209
| 24> H         -2.64071        0.73720        1.10535
| 25> H         -1.43133        1.46712        0.59922
| 26> O         -2.04315       -1.10011        1.62421
| 27> H         -1.78136       -1.29933        2.53151
| 28> H         -1.20449       -0.92981        1.15224
| 29> *
| 30>
| 31>
| 32>                          ****END OF INPUT****

CARTESIAN COORDINATES (ANGSTROEM)
---------------------------------
  O      0.000000    0.000000    0.000000
  H      0.964600    0.000000    0.000000
  H     -0.262100    0.000000   -0.954160
  O     -0.931820    0.182150   -2.542980
  H     -1.663540    0.837080   -2.447910
  H     -1.354220   -0.595430   -2.928910
  O     -3.012220    1.848070   -1.949120
  H     -3.083760    2.785450   -2.165580
  H     -2.919430    1.815960   -0.967020
  O     -2.390060    1.589690    0.702090
  H     -2.640710    0.737200    1.105350
  H     -1.431330    1.467120    0.599220
  O     -2.043150   -1.100110    1.624210
  H     -1.781360   -1.299330    2.531510
  H     -1.204490   -0.929810    1.152240

 Total Charge           Charge          ....    0
 Multiplicity           Mult            ....    1
 Number of Electrons    NEL             ....   50
 Basis Dimension        Dim             ....  215

ORBITAL ENERGIES
----------------

  NO   OCC          E(Eh)            E(eV)
   0   2.0000     -20.566358      -559.6390
   1   2.0000     -20.558573      -559.4272
   2   2.0000     -20.555162      -559.3344
   3   2.0000     -20.553729      -559.2954
   4   2.0000     -20.550111      -559.1970
   5   2.0000      -1.361960       -37.0608
   6   2.0000      -1.347560       -36.6690
   7   2.0000      -1.345317       -36.6079
   8   2.0000      -1.335259       -36.3342
   9   2.0000      -1.327518       -36.1236
  10   2.0000      -0.729479       -19.8501
  11   2.0000      -0.720717       -19.6117
  12   2.0000      -0.713121       -19.4050
  13   2.0000      -0.707065       -19.2402
  14   2.0000      -0.693701       -18.8766
  15   2.0000      -0.624090       -16.9824
  16   2.0000      -0.600460       -16.3394
  17   2.0000      -0.587421       -15.9845
  18   2.0000      -0.574735       -15.6393
  19   2.0000      -0.549930       -14.9643
  20   2.0000      -0.516688       -14.0598
  21   2.0000      -0.507263       -13.8033
  22   2.0000      -0.503226       -13.6935
  23   2.0000      -0.501535       -13.6475
  24   2.0000      -0.494611       -13.4591
  25   0.0000       0.118063         3.2127
  26   0.0000       0.148264         4.0345
  27   0.0000       0.158560         4.3146
  28   0.0000       0.169803         4.6206
  29   0.0000       0.222864         6.0644

MULLIKEN ATOMIC CHARGES
-----------------------
   0 O :   -0.756643
   1 H :    0.347978
   2 H :    0.394498
   3 O :   -0.732754
   4 H :    0.390369
   5 H :    0.349305
   6 O :   -0.733904
   7 H :    0.343716
   8 H :    0.393252
   9 O :   -0.728403
  10 H :    0.385271
  11 H :    0.354014
  12 O :   -0.715050
  13 H :    0.338593
  14 H :    0.369758
Sum of atomic charges:   -0.0000000

LOEWDIN ATOMIC CHARGES
----------------------
   0 O :   -0.325602
   1 H :    0.160798
   2 H :    0.152764
   3 O :   -0.308267
   4 H :    0.153438
   5 H :    0.163543
   6 O :   -0.314573
   7 H :    0.160821
   8 H :    0.153229
   9 O :   -0.301723
  10 H :    0.161681
  11 H :    0.153129
  12 O :   -0.321462
  13 H :    0.159871
  14 H :    0.152353

  Mayer bond orders larger than 0.100000
B(  0-O ,  1-H ) :   0.8441 B(  0-O ,  2-H ) :   0.7428 B(  2-H ,  3-O ) :   0.1015
B(  3-O ,  4-H ) :   0.7566 B(  3-O ,  5-H ) :   0.8432 B(  6-O ,  7-H ) :   0.8455
B(  6-O ,  8-H ) :   0.7593 B(  9-O , 10-H ) :   0.7996 B(  9-O , 11-H ) :   0.8220
B( 12-O , 13-H ) :   0.8498 B( 12-O , 14-H ) :   0.7990

MP2 TOTAL ENERGY:     -381.628115149 Eh
FINAL SINGLE POINT ENERGY      -381.628115148920

DIPOLE MOMENT
-------------
                                X             Y             Z
Electronic contribution:     -0.22753       0.05344      -0.08137
Nuclear contribution   :      1.14713      -0.18425       0.21337
                        -----------------------------------------
Total Dipole Moment    :      0.91959      -0.13081       0.13200
                        -----------------------------------------
Magnitude (a.u.)       :      0.93818
Magnitude (Debye)      :      2.38467

Rotational constants in cm-1:     0.091942     0.056468     0.041360
Rotational constants in MHz :  2756.358590  1692.857715  1239.942378

                             ****ORCA TERMINATED NORMALLY****
TOTAL RUN TIME: 0 days 0 hours 0 minutes 50 seconds 422 msec
