                         Program Version 3.0.3 - RELEASE   -
|  1> ! wB97X-D3 MA-Def2-TZVP def2-TZVP/J RIJCOSX TightSCF Grid4
|  2>
|  3> %pal nprocs 1 end
|  4>
|  5> %scf
|  6>         maxiter 400
|  7> end
|  8>
|  9> * xyz  0  1
| 10> O  -1.649069	-0.525879	-0.733540
| 11> H  -0.714469	-0.631187	-1.120970
| 12> H  -2.072867	0.109615	-1.340155
| 13> O  -0.862891	0.536431	1.555554
| 14> H  -1.205954	1.449143	1.560469
| 15> H  -1.276262	0.128437	0.720528
| 16> O  1.612153	0.651692	0.644285
| 17> H  2.167706	0.130342	1.252751
| 18> H  0.692548	0.626555	1.078586
| 19> O  0.869103	-0.689149	-1.513373
| 20> H  1.263573	-0.161655	-0.739236
| 21> H  1.169521	-1.601679	-1.345336
| 22> **                         ****END OF INPUT****

CARTESIAN COORDINATES (ANGSTROEM)
---------------------------------
  O     -1.649069   -0.525879   -0.733540
  H     -0.714469   -0.631187   -1.120970
  H     -2.072867    0.109615   -1.340155
  O     -0.862891    0.536431    1.555554
  H     -1.205954    1.449143    1.560469
  H     -1.276262    0.128437    0.720528
  O      1.612153    0.651692    0.644285
  H      2.167706    0.130342    1.252751
  H      0.692548    0.626555    1.078586
  O      0.869103   -0.689149   -1.513373
  H      1.263573   -0.161655   -0.739236
  H      1.169521   -1.601679   -1.345336

 Total Charge           Charge          ....    0
 Multiplicity           Mult            ....    1
 Number of Electrons    NEL             ....   40
 Basis Dimension        Dim             ....  188

ORBITAL ENERGIES
----------------

  NO   OCC          E(Eh)            E(eV)
   0   2.0000     -19.238834      -523.5153
   1   2.0000     -19.238804      -523.5145
   2   2.0000     -19.238242      -523.4992
   3   2.0000     -19.237948      -523.4912
   4   2.0000      -1.143063       -31.1043
   5   2.0000      -1.123544       -30.5732
   6   2.0000      -1.122472       -30.5440
   7   2.0000      -1.103407       -30.0252
   8   2.0000      -0.644238       -17.5306
   9   2.0000      -0.633534       -17.2393
  10   2.0000      -0.625249       -17.0139
  11   2.0000      -0.622658       -16.9434
  12   2.0000      -0.539891       -14.6912
  13   2.0000      -0.511388       -13.9156
  14   2.0000      -0.501925       -13.6581
  15   2.0000      -0.479717       -13.0538
  16   2.0000      -0.423541       -11.5251
  17   2.0000      -0.420572       -11.4443
  18   2.0000      -0.416198       -11.3253
  19   2.0000      -0.410923       -11.1818
  20   0.0000       0.061444         1.6720
  21   0.0000       0.095044         2.5863
  22   0.0000       0.100984         2.7479
  23   0.0000       0.127474         3.4687
  24   0.0000       0.134803         3.6682

MULLIKEN ATOMIC CHARGES
-----------------------
   0 O :   -0.751789
   1 H :    0.395344
   2 H :    0.350231
   3 O :   -0.746888
   4 H :    0.350002
   5 H :    0.409350
   6 O :   -0.746094
   7 H :    0.350133
   8 H :    0.383530
   9 O :   -0.755277
  10 H :    0.411456
  11 H :    0.350002
Sum of atomic charges:   -0.0000000

LOEWDIN ATOMIC CHARGES
----------------------
   0 O :   -0.386900
   1 H :    0.191602
   2 H :    0.192532
   3 O :   -0.382802
   4 H :    0.192333
   5 H :    0.194740
   6 O :   -0.388207
   7 H :    0.191822
   8 H :    0.190192
   9 O :   -0.382668
  10 H :    0.194806
  11 H :    0.192550

  Mayer bond orders larger than 0.1
B(  0-O ,  1-H ) :   0.7825 B(  0-O ,  2-H ) :   0.8948 B(  3-O ,  4-H ) :   0.8964
B(  3-O ,  5-H ) :   0.7808 B(  3-O ,  8-H ) :   0.1096 B(  6-O ,  7-H ) :   0.8949
B(  6-O ,  8-H ) :   0.7827 B(  9-O , 10-H ) :   0.7807 B(  9-O , 11-H ) :   0.8964

Dispersion correction           -0.003096318
FINAL SINGLE POINT ENERGY      -305.802303675987

DIPOLE MOMENT
-------------
                                X             Y             Z
Electronic contribution:     -0.01899      -0.01894      -0.02943
Nuclear contribution   :      0.07092       0.08605       0.13383
                        -----------------------------------------
Total Dipole Moment    :      0.05194       0.06711       0.10440
                        -----------------------------------------
Magnitude (a.u.)       :      0.13454
Magnitude (Debye)      :      0.34196

                             ****ORCA TERMINATED NORMALLY****
TOTAL RUN TIME: 0 days 0 hours 1 minutes 6 seconds 935 msec
