                         Program Version 4.2.0 -  RELEASE  -
|  1> # 12h2o.su.etal.mol0,1,2,4,5,6,8,9
|  2> ! MP2 def2-TZVP EnGrad TightSCF
|  3>
|  4> %pal
|  5>     nprocs 6
|  6> end
|  7>
|  8> %maxcore 8000
|  9>
| 10> %scf
| 11>     ConvForced true
| 12> end
| 13>
| 14> *xyz 0 1
| 15> O   1.794470000   0.923410000   2.768350000
| 16> H   2.338250000   1.359750000   3.430940000
| 17> H   0.879480000   1.303000000   2.865760000
| 18> O  -1.794470000  -0.923410000   2.768350000
| 19> H  -2.338250000  -1.359750000   3.430940000
| 20> H  -0.879480000  -1.303000000   2.865760000
| 21> O   0.923410000  -1.794470000  -2.768350000
| 22> H   1.359750000  -2.338250000  -3.430940000
| 23> H   1.303000000  -0.879480000  -2.865760000
| 24> O  -0.885520000   1.737840000   0.052730000
| 25> H  -1.032320000   2.090180000  -0.841890000
| 26> H  -1.284090000   0.839590000   0.017130000
| 27> O   0.885520000  -1.737840000   0.052730000
| 28> H   1.284090000  -0.839590000   0.017130000
| 29> H   1.032320000  -2.090180000  -0.841890000
| 30> O   1.737840000   0.885520000  -0.052730000
| 31> H   2.090180000   1.032320000   0.841890000
| 32> H   0.839590000   1.284090000  -0.017130000
| 33> O   1.752130000   0.741530000  -2.896280000
| 34> H   2.036450000   0.920500000  -1.984040000
| 35> H   0.921210000   1.242140000  -2.984230000
| 36> O   0.741530000  -1.752130000   2.896280000
| 37> H   0.920500000  -2.036450000   1.984040000
| 38> H   1.242140000  -0.921210000   2.984230000
| 39> *
| 40>
| 41>                          ****END OF INPUT****

CARTESIAN COORDINATES (ANGSTROEM)
---------------------------------
  O      1.794470    0.923410    2.768350
  H      2.338250    1.359750    3.430940
  H      0.879480    1.303000    2.865760
  O     -1.794470   -0.923410    2.768350
  H     -2.338250   -1.359750    3.430940
  H     -0.879480   -1.303000    2.865760
  O      0.923410   -1.794470   -2.768350
  H      1.359750   -2.338250   -3.430940
  H      1.303000   -0.879480   -2.865760
  O     -0.885520    1.737840    0.052730
  H     -1.032320    2.090180   -0.841890
  H     -1.284090    0.839590    0.017130
  O      0.885520   -1.737840    0.052730
  H      1.284090   -0.839590    0.017130
  H      1.032320   -2.090180   -0.841890
  O      1.737840    0.885520   -0.052730
  H      2.090180    1.032320    0.841890
  H      0.839590    1.284090   -0.017130
  O      1.752130    0.741530   -2.896280
  H      2.036450    0.920500   -1.984040
  H      0.921210    1.242140   -2.984230
  O      0.741530   -1.752130    2.896280
  H      0.920500   -2.036450    1.984040
  H      1.242140   -0.921210    2.984230

 Total Charge           Charge          ....    0
 Multiplicity           Mult            ....    1
 Number of Electrons    NEL             ....   80
 Basis Dimension        Dim             ....  344

ORBITAL ENERGIES
----------------

  NO   OCC          E(Eh)            E(eV)
   0   2.0000     -20.616272      -560.9973
   1   2.0000     -20.604770      -560.6843
   2   2.0000     -20.582590      -560.0808
   3   2.0000     -20.569517      -559.7250
   4   2.0000     -20.536035      -558.8139
   5   2.0000     -20.532241      -558.7107
   6   2.0000     -20.513237      -558.1936
   7   2.0000     -20.504863      -557.9657
   8   2.0000      -1.397162       -38.0187
   9   2.0000      -1.386671       -37.7332
  10   2.0000      -1.373277       -37.3688
  11   2.0000      -1.356749       -36.9190
  12   2.0000      -1.326596       -36.0985
  13   2.0000      -1.320833       -35.9417
  14   2.0000      -1.297304       -35.3014
  15   2.0000      -1.285634       -34.9839
  16   2.0000      -0.762247       -20.7418
  17   2.0000      -0.742295       -20.1989
  18   2.0000      -0.739492       -20.1226
  19   2.0000      -0.726818       -19.7777
  20   2.0000      -0.705161       -19.1884
  21   2.0000      -0.694569       -18.9002
  22   2.0000      -0.678869       -18.4730
  23   2.0000      -0.671344       -18.2682
  24   2.0000      -0.648806       -17.6549
  25   2.0000      -0.627305       -17.0698
  26   2.0000      -0.616282       -16.7699
  27   2.0000      -0.595288       -16.1986
  28   2.0000      -0.585514       -15.9326
  29   2.0000      -0.571392       -15.5484
  30   2.0000      -0.551695       -15.0124
  31   2.0000      -0.547887       -14.9088
  32   2.0000      -0.536968       -14.6117
  33   2.0000      -0.524771       -14.2798
  34   2.0000      -0.514710       -14.0060
  35   2.0000      -0.506879       -13.7929
  36   2.0000      -0.483505       -13.1568
  37   2.0000      -0.473820       -12.8933
  38   2.0000      -0.464616       -12.6428
  39   2.0000      -0.455553       -12.3962
  40   0.0000       0.082821         2.2537
  41   0.0000       0.105917         2.8821
  42   0.0000       0.153047         4.1646
  43   0.0000       0.160503         4.3675
  44   0.0000       0.184456         5.0193

MULLIKEN ATOMIC CHARGES
-----------------------
   0 O :   -0.724402
   1 H :    0.366104
   2 H :    0.384920
   3 O :   -0.746893
   4 H :    0.321669
   5 H :    0.372225
   6 O :   -0.736847
   7 H :    0.333934
   8 H :    0.370721
   9 O :   -0.692371
  10 H :    0.347211
  11 H :    0.390489
  12 O :   -0.750269
  13 H :    0.342281
  14 H :    0.371053
  15 O :   -0.748980
  16 H :    0.383468
  17 H :    0.354042
  18 O :   -0.689399
  19 H :    0.391708
  20 H :    0.335713
  21 O :   -0.719702
  22 H :    0.389911
  23 H :    0.353415
Sum of atomic charges:    0.0000000

LOEWDIN ATOMIC CHARGES
----------------------
   0 O :   -0.287886
   1 H :    0.169058
   2 H :    0.197150
   3 O :   -0.380498
   4 H :    0.146884
   5 H :    0.142232
   6 O :   -0.341603
   7 H :    0.152290
   8 H :    0.143649
   9 O :   -0.288236
  10 H :    0.168045
  11 H :    0.192426
  12 O :   -0.350173
  13 H :    0.134883
  14 H :    0.149838
  15 O :   -0.302947
  16 H :    0.153190
  17 H :    0.140191
  18 O :   -0.274269
  19 H :    0.158918
  20 H :    0.165134
  21 O :   -0.290428
  22 H :    0.158209
  23 H :    0.143942

  Mayer bond orders larger than 0.100000
B(  0-O ,  1-H ) :   0.8313 B(  0-O ,  2-H ) :   0.8090 B(  3-O ,  4-H ) :   0.8622
B(  3-O ,  5-H ) :   0.7633 B(  5-H , 21-O ) :   0.1072 B(  6-O ,  7-H ) :   0.8522
B(  6-O ,  8-H ) :   0.7650 B(  9-O , 10-H ) :   0.8430 B(  9-O , 11-H ) :   0.8071
B( 12-O , 13-H ) :   0.7925 B( 12-O , 14-H ) :   0.8062 B( 15-O , 16-H ) :   0.8028
B( 15-O , 17-H ) :   0.7705 B( 18-O , 19-H ) :   0.7937 B( 18-O , 20-H ) :   0.8493
B( 21-O , 22-H ) :   0.7905 B( 21-O , 23-H ) :   0.8240

MP2 TOTAL ENERGY:     -610.584698269 Eh
FINAL SINGLE POINT ENERGY      -610.584698269141

DIPOLE MOMENT
-------------
                                X             Y             Z
Electronic contribution:      0.22302       0.29726       0.01463
Nuclear contribution   :      0.33544       1.78355      -0.14168
                        -----------------------------------------
Total Dipole Moment    :      0.55846       2.08081      -0.12705
                        -----------------------------------------
Magnitude (a.u.)       :      2.15819
Magnitude (Debye)      :      5.48567

Rotational constants in cm-1:     0.036681     0.018173     0.016601
Rotational constants in MHz :  1099.677411   544.801883   497.687108

                             ****ORCA TERMINATED NORMALLY****
TOTAL RUN TIME: 0 days 0 hours 3 minutes 9 seconds 699 msec
