                         Program Version 4.2.0 -  RELEASE  -
|  1> # 12h2o.su.etal.mol1,4,7,10,11
|  2> ! MP2 def2-TZVP EnGrad TightSCF
|  3>
|  4> %pal
|  5>     nprocs 6
|  6> end
|  7>
|  8> %maxcore 8000
|  9>
| 10> %scf
| 11>     ConvForced true
| 12> end
| 13>
| 14> *xyz 0 1
| 15> O  -1.794470000  -0.923410000   2.768350000
| 16> H  -2.338250000  -1.359750000   3.430940000
| 17> H  -0.879480000  -1.303000000   2.865760000
| 18> O  -0.885520000   1.737840000   0.052730000
| 19> H  -1.032320000   2.090180000  -0.841890000
| 20> H  -1.284090000   0.839590000   0.017130000
| 21> O  -1.737840000  -0.885520000  -0.052730000
| 22> H  -2.090180000  -1.032320000   0.841890000
| 23> H  -0.839590000  -1.284090000  -0.017130000
| 24> O  -0.923410000   1.794470000  -2.768350000
| 25> H  -1.359750000   2.338250000  -3.430940000
| 26> H  -1.303000000   0.879480000  -2.865760000
| 27> O  -0.741530000   1.752130000   2.896280000
| 28> H  -0.920500000   2.036450000   1.984040000
| 29> H  -1.242140000   0.921210000   2.984230000
| 30> *
| 31>
| 32>                          ****END OF INPUT****

CARTESIAN COORDINATES (ANGSTROEM)
---------------------------------
  O     -1.794470   -0.923410    2.768350
  H     -2.338250   -1.359750    3.430940
  H     -0.879480   -1.303000    2.865760
  O     -0.885520    1.737840    0.052730
  H     -1.032320    2.090180   -0.841890
  H     -1.284090    0.839590    0.017130
  O     -1.737840   -0.885520   -0.052730
  H     -2.090180   -1.032320    0.841890
  H     -0.839590   -1.284090   -0.017130
  O     -0.923410    1.794470   -2.768350
  H     -1.359750    2.338250   -3.430940
  H     -1.303000    0.879480   -2.865760
  O     -0.741530    1.752130    2.896280
  H     -0.920500    2.036450    1.984040
  H     -1.242140    0.921210    2.984230

 Total Charge           Charge          ....    0
 Multiplicity           Mult            ....    1
 Number of Electrons    NEL             ....   50
 Basis Dimension        Dim             ....  215

ORBITAL ENERGIES
----------------

  NO   OCC          E(Eh)            E(eV)
   0   2.0000     -20.616656      -561.0077
   1   2.0000     -20.579929      -560.0083
   2   2.0000     -20.577570      -559.9442
   3   2.0000     -20.508758      -558.0717
   4   2.0000     -20.493535      -557.6574
   5   2.0000      -1.397175       -38.0191
   6   2.0000      -1.361110       -37.0377
   7   2.0000      -1.357572       -36.9414
   8   2.0000      -1.296639       -35.2833
   9   2.0000      -1.277810       -34.7710
  10   2.0000      -0.762478       -20.7481
  11   2.0000      -0.726006       -19.7556
  12   2.0000      -0.723978       -19.7004
  13   2.0000      -0.678061       -18.4510
  14   2.0000      -0.661156       -17.9910
  15   2.0000      -0.636332       -17.3155
  16   2.0000      -0.601915       -16.3789
  17   2.0000      -0.593218       -16.1423
  18   2.0000      -0.569736       -15.5033
  19   2.0000      -0.546487       -14.8707
  20   2.0000      -0.521238       -14.1836
  21   2.0000      -0.514086       -13.9890
  22   2.0000      -0.498092       -13.5538
  23   2.0000      -0.460527       -12.5316
  24   2.0000      -0.443166       -12.0592
  25   0.0000       0.089684         2.4404
  26   0.0000       0.118699         3.2300
  27   0.0000       0.147790         4.0216
  28   0.0000       0.177686         4.8351
  29   0.0000       0.202925         5.5219

MULLIKEN ATOMIC CHARGES
-----------------------
   0 O :   -0.711657
   1 H :    0.365813
   2 H :    0.368233
   3 O :   -0.739980
   4 H :    0.362999
   5 H :    0.338349
   6 O :   -0.695501
   7 H :    0.379440
   8 H :    0.342945
   9 O :   -0.691972
  10 H :    0.346978
  11 H :    0.356318
  12 O :   -0.726945
  13 H :    0.373474
  14 H :    0.331507
Sum of atomic charges:   -0.0000000

LOEWDIN ATOMIC CHARGES
----------------------
   0 O :   -0.286216
   1 H :    0.168468
   2 H :    0.191155
   3 O :   -0.348796
   4 H :    0.146931
   5 H :    0.136423
   6 O :   -0.299318
   7 H :    0.152979
   8 H :    0.172465
   9 O :   -0.310237
  10 H :    0.161022
  11 H :    0.185525
  12 O :   -0.357749
  13 H :    0.151883
  14 H :    0.135465

  Mayer bond orders larger than 0.100000
B(  0-O ,  1-H ) :   0.8311 B(  0-O ,  2-H ) :   0.8220 B(  3-O ,  4-H ) :   0.8207
B(  3-O ,  5-H ) :   0.7951 B(  6-O ,  7-H ) :   0.8053 B(  6-O ,  8-H ) :   0.8439
B(  9-O , 10-H ) :   0.8447 B(  9-O , 11-H ) :   0.8333 B( 12-O , 13-H ) :   0.8124
B( 12-O , 14-H ) :   0.8471

MP2 TOTAL ENERGY:     -381.596391614 Eh
FINAL SINGLE POINT ENERGY      -381.596391614281

DIPOLE MOMENT
-------------
                                X             Y             Z
Electronic contribution:      0.02706       0.05232      -0.05670
Nuclear contribution   :     -0.93537      -2.35144      -0.68611
                        -----------------------------------------
Total Dipole Moment    :     -0.90832      -2.29912      -0.74281
                        -----------------------------------------
Magnitude (a.u.)       :      2.58123
Magnitude (Debye)      :      6.56097

Rotational constants in cm-1:     0.114158     0.038566     0.029102
Rotational constants in MHz :  3422.359895  1156.174486   872.458773

                             ****ORCA TERMINATED NORMALLY****
TOTAL RUN TIME: 0 days 0 hours 0 minutes 42 seconds 153 msec
