                         Program Version 4.2.0 -  RELEASE  -
|  1> # 12mecn.remya.etal.2.mol0,3,8
|  2> ! MP2 def2-TZVP EnGrad TightSCF
|  3>
|  4> %pal
|  5>     nprocs 6
|  6> end
|  7>
|  8> %maxcore 8000
|  9>
| 10> %scf
| 11>     ConvForced true
| 12> end
| 13>
| 14> *xyz 0 1
| 15> C  -0.869520000  -3.929380000   1.700199000
| 16> H  -0.057420000  -3.268850000   2.015352000
| 17> H  -0.697530000  -4.930670000   2.101524000
| 18> H  -1.821490000  -3.546590000   2.077146000
| 19> C  -0.916080000  -3.969960000   0.256749000
| 20> N  -0.955390000  -3.995980000  -0.909290000
| 21> C  -5.181310000   2.853865000  -1.626100000
| 22> H  -5.488260000   3.811434000  -2.053310000
| 23> H  -5.857590000   2.068112000  -1.968630000
| 24> H  -4.170750000   2.611402000  -1.966640000
| 25> C  -5.187260000   2.919160000  -0.181450000
| 26> N  -5.181700000   2.970641000   0.983640000
| 27> C   1.912641000  -2.468050000  -1.750510000
| 28> H   2.876947000  -2.793500000  -2.151200000
| 29> H   1.688016000  -1.463720000  -2.122170000
| 30> H   1.123460000  -3.154780000  -2.069590000
| 31> C   1.977850000  -2.444240000  -0.306900000
| 32> N   2.036566000  -2.426130000   0.858249000
| 33> *
| 34>
| 35>                          ****END OF INPUT****

CARTESIAN COORDINATES (ANGSTROEM)
---------------------------------
  C     -0.869520   -3.929380    1.700199
  H     -0.057420   -3.268850    2.015352
  H     -0.697530   -4.930670    2.101524
  H     -1.821490   -3.546590    2.077146
  C     -0.916080   -3.969960    0.256749
  N     -0.955390   -3.995980   -0.909290
  C     -5.181310    2.853865   -1.626100
  H     -5.488260    3.811434   -2.053310
  H     -5.857590    2.068112   -1.968630
  H     -4.170750    2.611402   -1.966640
  C     -5.187260    2.919160   -0.181450
  N     -5.181700    2.970641    0.983640
  C      1.912641   -2.468050   -1.750510
  H      2.876947   -2.793500   -2.151200
  H      1.688016   -1.463720   -2.122170
  H      1.123460   -3.154780   -2.069590
  C      1.977850   -2.444240   -0.306900
  N      2.036566   -2.426130    0.858249

 Total Charge           Charge          ....    0
 Multiplicity           Mult            ....    1
 Number of Electrons    NEL             ....   66
 Basis Dimension        Dim             ....  333

ORBITAL ENERGIES
----------------

  NO   OCC          E(Eh)            E(eV)
   0   2.0000     -15.573435      -423.7747
   1   2.0000     -15.571598      -423.7247
   2   2.0000     -15.571417      -423.7198
   3   2.0000     -11.285004      -307.0806
   4   2.0000     -11.283647      -307.0436
   5   2.0000     -11.283035      -307.0270
   6   2.0000     -11.280470      -306.9572
   7   2.0000     -11.273142      -306.7578
   8   2.0000     -11.271457      -306.7119
   9   2.0000      -1.218242       -33.1500
  10   2.0000      -1.215081       -33.0640
  11   2.0000      -1.214248       -33.0414
  12   2.0000      -1.043897       -28.4059
  13   2.0000      -1.036922       -28.2161
  14   2.0000      -1.034218       -28.1425
  15   2.0000      -0.701328       -19.0841
  16   2.0000      -0.695003       -18.9120
  17   2.0000      -0.690798       -18.7976
  18   2.0000      -0.632626       -17.2146
  19   2.0000      -0.631144       -17.1743
  20   2.0000      -0.630350       -17.1527
  21   2.0000      -0.623447       -16.9648
  22   2.0000      -0.621433       -16.9101
  23   2.0000      -0.615368       -16.7450
  24   2.0000      -0.559542       -15.2259
  25   2.0000      -0.556373       -15.1397
  26   2.0000      -0.556349       -15.1390
  27   2.0000      -0.460118       -12.5204
  28   2.0000      -0.459970       -12.5164
  29   2.0000      -0.458425       -12.4744
  30   2.0000      -0.457893       -12.4599
  31   2.0000      -0.457075       -12.4376
  32   2.0000      -0.455866       -12.4047
  33   0.0000       0.119056         3.2397
  34   0.0000       0.127586         3.4718
  35   0.0000       0.142572         3.8796
  36   0.0000       0.170113         4.6290
  37   0.0000       0.171079         4.6553

MULLIKEN ATOMIC CHARGES
-----------------------
   0 C :   -0.284010
   1 H :    0.204797
   2 H :    0.166953
   3 H :    0.168710
   4 C :   -0.103812
   5 N :   -0.152136
   6 C :   -0.280330
   7 H :    0.172265
   8 H :    0.172743
   9 H :    0.172006
  10 C :   -0.145665
  11 N :   -0.091019
  12 C :   -0.284548
  13 H :    0.167382
  14 H :    0.165421
  15 H :    0.204099
  16 C :   -0.105367
  17 N :   -0.147490
Sum of atomic charges:   -0.0000000

LOEWDIN ATOMIC CHARGES
----------------------
   0 C :   -0.281173
   1 H :    0.157461
   2 H :    0.152098
   3 H :    0.152209
   4 C :   -0.207733
   5 N :    0.027913
   6 C :   -0.283814
   7 H :    0.151424
   8 H :    0.151796
   9 H :    0.153119
  10 C :   -0.218768
  11 N :    0.046242
  12 C :   -0.282789
  13 H :    0.151162
  14 H :    0.152594
  15 H :    0.156665
  16 C :   -0.209017
  17 N :    0.030611

  Mayer bond orders larger than 0.100000
B(  0-C ,  1-H ) :   0.9019 B(  0-C ,  2-H ) :   0.9146 B(  0-C ,  3-H ) :   0.9157
B(  0-C ,  4-C ) :   0.9014 B(  4-C ,  5-N ) :   2.7754 B(  6-C ,  7-H ) :   0.9162
B(  6-C ,  8-H ) :   0.9166 B(  6-C ,  9-H ) :   0.9166 B(  6-C , 10-C ) :   0.9028
B( 10-C , 11-N ) :   2.8373 B( 12-C , 13-H ) :   0.9165 B( 12-C , 14-H ) :   0.9151
B( 12-C , 15-H ) :   0.9018 B( 12-C , 16-C ) :   0.9015 B( 16-C , 17-N ) :   2.7747

MP2 TOTAL ENERGY:     -397.459503977 Eh
FINAL SINGLE POINT ENERGY      -397.459503976907

DIPOLE MOMENT
-------------
                                X             Y             Z
Electronic contribution:      0.01561       0.10129       3.14118
Nuclear contribution   :     -0.03786      -0.15983      -4.65105
                        -----------------------------------------
Total Dipole Moment    :     -0.02225      -0.05853      -1.50988
                        -----------------------------------------
Magnitude (a.u.)       :      1.51117
Magnitude (Debye)      :      3.84110

Rotational constants in cm-1:     0.044159     0.008117     0.007711
Rotational constants in MHz :  1323.859901   243.331279   231.179981

                             ****ORCA TERMINATED NORMALLY****
TOTAL RUN TIME: 0 days 0 hours 2 minutes 34 seconds 720 msec
