                         Program Version 4.2.0 -  RELEASE  -
|  1> # 12h2o.su.etal.mol2,5,6,8,9,10,11
|  2> ! MP2 def2-TZVP EnGrad TightSCF
|  3>
|  4> %pal
|  5>     nprocs 6
|  6> end
|  7>
|  8> %maxcore 8000
|  9>
| 10> %scf
| 11>     ConvForced true
| 12> end
| 13>
| 14> *xyz 0 1
| 15> O   0.923410000  -1.794470000  -2.768350000
| 16> H   1.359750000  -2.338250000  -3.430940000
| 17> H   1.303000000  -0.879480000  -2.865760000
| 18> O   0.885520000  -1.737840000   0.052730000
| 19> H   1.284090000  -0.839590000   0.017130000
| 20> H   1.032320000  -2.090180000  -0.841890000
| 21> O   1.737840000   0.885520000  -0.052730000
| 22> H   2.090180000   1.032320000   0.841890000
| 23> H   0.839590000   1.284090000  -0.017130000
| 24> O   1.752130000   0.741530000  -2.896280000
| 25> H   2.036450000   0.920500000  -1.984040000
| 26> H   0.921210000   1.242140000  -2.984230000
| 27> O   0.741530000  -1.752130000   2.896280000
| 28> H   0.920500000  -2.036450000   1.984040000
| 29> H   1.242140000  -0.921210000   2.984230000
| 30> O  -0.923410000   1.794470000  -2.768350000
| 31> H  -1.359750000   2.338250000  -3.430940000
| 32> H  -1.303000000   0.879480000  -2.865760000
| 33> O  -0.741530000   1.752130000   2.896280000
| 34> H  -0.920500000   2.036450000   1.984040000
| 35> H  -1.242140000   0.921210000   2.984230000
| 36> *
| 37>
| 38>                          ****END OF INPUT****

CARTESIAN COORDINATES (ANGSTROEM)
---------------------------------
  O      0.923410   -1.794470   -2.768350
  H      1.359750   -2.338250   -3.430940
  H      1.303000   -0.879480   -2.865760
  O      0.885520   -1.737840    0.052730
  H      1.284090   -0.839590    0.017130
  H      1.032320   -2.090180   -0.841890
  O      1.737840    0.885520   -0.052730
  H      2.090180    1.032320    0.841890
  H      0.839590    1.284090   -0.017130
  O      1.752130    0.741530   -2.896280
  H      2.036450    0.920500   -1.984040
  H      0.921210    1.242140   -2.984230
  O      0.741530   -1.752130    2.896280
  H      0.920500   -2.036450    1.984040
  H      1.242140   -0.921210    2.984230
  O     -0.923410    1.794470   -2.768350
  H     -1.359750    2.338250   -3.430940
  H     -1.303000    0.879480   -2.865760
  O     -0.741530    1.752130    2.896280
  H     -0.920500    2.036450    1.984040
  H     -1.242140    0.921210    2.984230

 Total Charge           Charge          ....    0
 Multiplicity           Mult            ....    1
 Number of Electrons    NEL             ....   70
 Basis Dimension        Dim             ....  301

ORBITAL ENERGIES
----------------

  NO   OCC          E(Eh)            E(eV)
   0   2.0000     -20.623500      -561.1940
   1   2.0000     -20.610173      -560.8313
   2   2.0000     -20.574677      -559.8654
   3   2.0000     -20.565132      -559.6057
   4   2.0000     -20.540938      -558.9474
   5   2.0000     -20.523897      -558.4836
   6   2.0000     -20.522478      -558.4450
   7   2.0000      -1.406575       -38.2748
   8   2.0000      -1.388195       -37.7747
   9   2.0000      -1.357481       -36.9389
  10   2.0000      -1.353592       -36.8331
  11   2.0000      -1.325525       -36.0694
  12   2.0000      -1.311916       -35.6991
  13   2.0000      -1.301476       -35.4150
  14   2.0000      -0.765438       -20.8286
  15   2.0000      -0.755448       -20.5568
  16   2.0000      -0.724209       -19.7067
  17   2.0000      -0.716171       -19.4880
  18   2.0000      -0.708136       -19.2694
  19   2.0000      -0.693982       -18.8842
  20   2.0000      -0.673198       -18.3187
  21   2.0000      -0.651703       -17.7337
  22   2.0000      -0.626327       -17.0432
  23   2.0000      -0.597300       -16.2534
  24   2.0000      -0.591495       -16.0954
  25   2.0000      -0.591062       -16.0836
  26   2.0000      -0.561227       -15.2718
  27   2.0000      -0.551057       -14.9950
  28   2.0000      -0.546465       -14.8701
  29   2.0000      -0.527983       -14.3671
  30   2.0000      -0.518680       -14.1140
  31   2.0000      -0.506272       -13.7763
  32   2.0000      -0.489169       -13.3110
  33   2.0000      -0.474964       -12.9244
  34   2.0000      -0.468848       -12.7580
  35   0.0000       0.074123         2.0170
  36   0.0000       0.104317         2.8386
  37   0.0000       0.135071         3.6755
  38   0.0000       0.151492         4.1223
  39   0.0000       0.166630         4.5342

MULLIKEN ATOMIC CHARGES
-----------------------
   0 O :   -0.743064
   1 H :    0.335311
   2 H :    0.369228
   3 O :   -0.743197
   4 H :    0.332101
   5 H :    0.373600
   6 O :   -0.707498
   7 H :    0.372302
   8 H :    0.363378
   9 O :   -0.713383
  10 H :    0.382310
  11 H :    0.365286
  12 O :   -0.699142
  13 H :    0.378124
  14 H :    0.309026
  15 O :   -0.712492
  16 H :    0.361687
  17 H :    0.373846
  18 O :   -0.679968
  19 H :    0.324089
  20 H :    0.358458
Sum of atomic charges:   -0.0000000

LOEWDIN ATOMIC CHARGES
----------------------
   0 O :   -0.344927
   1 H :    0.152806
   2 H :    0.142411
   3 O :   -0.349176
   4 H :    0.133778
   5 H :    0.150539
   6 O :   -0.274461
   7 H :    0.177853
   8 H :    0.179930
   9 O :   -0.283821
  10 H :    0.155364
  11 H :    0.149293
  12 O :   -0.342383
  13 H :    0.154126
  14 H :    0.150111
  15 O :   -0.314953
  16 H :    0.167999
  17 H :    0.193353
  18 O :   -0.329784
  19 H :    0.157616
  20 H :    0.174325

  Mayer bond orders larger than 0.100000
B(  0-O ,  1-H ) :   0.8513 B(  0-O ,  2-H ) :   0.7546 B(  2-H ,  9-O ) :   0.1072
B(  3-O ,  4-H ) :   0.8087 B(  3-O ,  5-H ) :   0.8045 B(  6-O ,  7-H ) :   0.8255
B(  6-O ,  8-H ) :   0.8236 B(  9-O , 10-H ) :   0.8126 B(  9-O , 11-H ) :   0.8061
B( 12-O , 13-H ) :   0.8060 B( 12-O , 14-H ) :   0.8660 B( 15-O , 16-H ) :   0.8366
B( 15-O , 17-H ) :   0.8202 B( 18-O , 19-H ) :   0.8590 B( 18-O , 20-H ) :   0.8355

MP2 TOTAL ENERGY:     -534.243456606 Eh
FINAL SINGLE POINT ENERGY      -534.243456606362

DIPOLE MOMENT
-------------
                                X             Y             Z
Electronic contribution:     -0.02276       0.29795       0.03382
Nuclear contribution   :     -0.45542       1.47399      -1.95129
                        -----------------------------------------
Total Dipole Moment    :     -0.47818       1.77195      -1.91748
                        -----------------------------------------
Magnitude (a.u.)       :      2.65427
Magnitude (Debye)      :      6.74663

Rotational constants in cm-1:     0.039479     0.020933     0.015978
Rotational constants in MHz :  1183.549374   627.564612   478.998604

                             ****ORCA TERMINATED NORMALLY****
TOTAL RUN TIME: 0 days 0 hours 1 minutes 38 seconds 321 msec
