                         Program Version 3.0.3 - RELEASE   -
|  1> ! B3LYP Def2-SVP def2-SVP/J RIJCOSX TightSCF Grid4 D3BJ COSMO OPT
|  2>
|  3> %pal nprocs 12 end
|  4>
|  5> %scf
|  6>         maxiter 800
|  7> end
|  8>
|  9> %cosmo
| 10>         SMD true
| 11>         solvent "WATER"
| 12> end
| 13>
| 14> * xyz  0  1
| 15>   O      1.865332    0.304650    0.353370
| 16>   H      1.429210    0.120898   -0.478655
| 17>   H      2.615764   -0.289395    0.367303
| 18>   O      0.396493   -0.305056   -1.856578
| 19>   H     -0.428039   -0.427013   -1.385934
| 20>   H      0.152690    0.176718   -2.646949
| 21>   O     -0.427903    0.490518    1.809263
| 22>   H      0.428333    0.425280    1.386373
| 23>   H     -0.408533    1.333882    2.261583
| 24>   O     -1.833920   -0.490113   -0.306058
| 25>   H     -2.359926   -1.221201    0.018071
| 26>   H     -1.429502   -0.119168    0.478211
| 27> **                         ****END OF INPUT****
 Total Charge           Charge          ....    0
 Multiplicity           Mult            ....    1
 Number of Electrons    NEL             ....   40
Dispersion correction           -0.007664395
FINAL SINGLE POINT ENERGY      -305.377735196888
Dispersion correction            ...
Dispersion correction           -0.007552668
FINAL SINGLE POINT ENERGY      -305.381029889896
Dispersion correction            ...
Dispersion correction           -0.007652234
FINAL SINGLE POINT ENERGY      -305.381476341514
Dispersion correction            ...
FINAL SINGLE POINT ENERGY      -305.381966946425
FINAL SINGLE POINT ENERGY      -305.382146990839
FINAL SINGLE POINT ENERGY      -305.382794215494
FINAL SINGLE POINT ENERGY      -305.383213672326
FINAL SINGLE POINT ENERGY      -305.383503628091
FINAL SINGLE POINT ENERGY      -305.383804918769
FINAL SINGLE POINT ENERGY      -305.384239175116
FINAL SINGLE POINT ENERGY      -305.387282241239
FINAL SINGLE POINT ENERGY      -305.387295549438
FINAL SINGLE POINT ENERGY      -305.387285059311
FINAL SINGLE POINT ENERGY      -305.387279551881
FINAL SINGLE POINT ENERGY      -305.387285065278
FINAL SINGLE POINT ENERGY      -305.387162126798
FINAL SINGLE POINT ENERGY      -305.387313155976
Dispersion correction            ...
Dispersion correction           -0.008150601
FINAL SINGLE POINT ENERGY      -305.387338632976
Dispersion correction            ...
Dispersion correction           -0.008137175
FINAL SINGLE POINT ENERGY      -305.387338510264
Dispersion correction            ...
                    ***********************HURRAY********************

CARTESIAN COORDINATES (ANGSTROEM)
---------------------------------
  O      1.841681    0.348023    0.252624
  H      1.352643    0.084417   -0.571634
  H      2.276161   -0.473965    0.530403
  O      0.316962   -0.388749   -1.884680
  H     -0.513499   -0.424471   -1.337790
  H      0.213645    0.421299   -2.407154
  O     -0.322080    0.448354    1.850770
  H      0.525832    0.431448    1.332051
  H     -0.523018    1.394601    1.925487
  O     -1.812769   -0.412809   -0.235866
  H     -2.017971   -1.338101   -0.029838
  H     -1.337587   -0.090048    0.575626

 Multiplicity           Mult            ....    1
 Number of Electrons    NEL             ....   40
 Basis Dimension        Dim             ....   96

ORBITAL ENERGIES
----------------

  NO   OCC          E(Eh)            E(eV)
   0   2.0000     -19.123531      -520.3777
   1   2.0000     -19.121272      -520.3163
   2   2.0000     -19.121100      -520.3116
   3   2.0000     -19.120339      -520.2909
   4   2.0000      -0.994755       -27.0687
   5   2.0000      -0.977771       -26.6065
   6   2.0000      -0.976025       -26.5590
   7   2.0000      -0.959518       -26.1098
   8   2.0000      -0.515396       -14.0246
   9   2.0000      -0.509452       -13.8629
  10   2.0000      -0.507048       -13.7975
  11   2.0000      -0.506569       -13.7844
  12   2.0000      -0.413884       -11.2624
  13   2.0000      -0.385855       -10.4996
  14   2.0000      -0.382680       -10.4133
  15   2.0000      -0.360410        -9.8073
  16   2.0000      -0.305211        -8.3052
  17   2.0000      -0.303967        -8.2714
  18   2.0000      -0.303473        -8.2579
  19   2.0000      -0.298536        -8.1236
  20   0.0000       0.052371         1.4251
  21   0.0000       0.098264         2.6739
  22   0.0000       0.098369         2.6768
  23   0.0000       0.118243         3.2176
  24   0.0000       0.220449         5.9987

MULLIKEN ATOMIC CHARGES
-----------------------
   0 O :   -0.352272
   1 H :    0.146375
   2 H :    0.208232
   3 O :   -0.357643
   4 H :    0.150808
   5 H :    0.205449
   6 O :   -0.355114
   7 H :    0.148520
   8 H :    0.206302
   9 O :   -0.355388
  10 H :    0.207301
  11 H :    0.147430
Sum of atomic charges:   -0.0000000

LOEWDIN ATOMIC CHARGES
----------------------
   0 O :   -0.137866
   1 H :    0.040391
   2 H :    0.104249
   3 O :   -0.146429
   4 H :    0.036920
   5 H :    0.102000
   6 O :   -0.142240
   7 H :    0.036768
   8 H :    0.103003
   9 O :   -0.138705
  10 H :    0.103453
  11 H :    0.038457

  Mayer bond orders larger than 0.1
B(  0-O ,  1-H ) :   0.8845 B(  0-O ,  2-H ) :   0.9737 B(  0-O ,  7-H ) :   0.2215
B(  1-H ,  3-O ) :   0.2205 B(  3-O ,  4-H ) :   0.8808 B(  3-O ,  5-H ) :   0.9756
B(  4-H ,  9-O ) :   0.2197 B(  6-O ,  7-H ) :   0.8811 B(  6-O ,  8-H ) :   0.9750
B(  6-O , 11-H ) :   0.2221 B(  9-O , 10-H ) :   0.9741 B(  9-O , 11-H ) :   0.8811

Dispersion correction           -0.008136860
FINAL SINGLE POINT ENERGY      -305.387343878373

DIPOLE MOMENT
-------------
                                X             Y             Z
Electronic contribution:      0.00971       0.00121       0.00560
Nuclear contribution   :     -0.05942       0.01294       0.04283
                        -----------------------------------------
Total Dipole Moment    :     -0.04970       0.01415       0.04843
                        -----------------------------------------
Magnitude (a.u.)       :      0.07082
Magnitude (Debye)      :      0.18002

                             ****ORCA TERMINATED NORMALLY****
TOTAL RUN TIME: 0 days 0 hours 32 minutes 32 seconds 988 msec
