                         Program Version 3.0.3 - RELEASE   -
|  1> ! BP86 Def2-SVP TightSCF Opt D3BJ COSMO
|  2>
|  3> %pal nprocs 12 end
|  4>
|  5> %scf
|  6>         maxiter 800
|  7> end
|  8>
|  9> %cosmo
| 10> 	SMD true
| 11>         solvent "WATER"
| 12> end
| 13>
| 14> * xyz  0  1
| 15>   O      1.865332    0.304650    0.353370
| 16>   H      1.429210    0.120898   -0.478655
| 17>   H      2.615764   -0.289395    0.367303
| 18>   O      0.396493   -0.305056   -1.856578
| 19>   H     -0.428039   -0.427013   -1.385934
| 20>   H      0.152690    0.176718   -2.646949
| 21>   O     -0.427903    0.490518    1.809263
| 22>   H      0.428333    0.425280    1.386373
| 23>   H     -0.408533    1.333882    2.261583
| 24>   O     -1.833920   -0.490113   -0.306058
| 25>   H     -2.359926   -1.221201    0.018071
| 26>   H     -1.429502   -0.119168    0.478211
| 27> **                         ****END OF INPUT****
 Total Charge           Charge          ....    0
 Multiplicity           Mult            ....    1
 Number of Electrons    NEL             ....   40
Dispersion correction           -0.006821935
FINAL SINGLE POINT ENERGY      -305.530711979988
Dispersion correction            ...
Dispersion correction           -0.006729323
FINAL SINGLE POINT ENERGY      -305.537278060449
Dispersion correction            ...
Dispersion correction           -0.006861586
FINAL SINGLE POINT ENERGY      -305.538454620022
Dispersion correction            ...
FINAL SINGLE POINT ENERGY      -305.539396666984
FINAL SINGLE POINT ENERGY      -305.539721014412
FINAL SINGLE POINT ENERGY      -305.540101632359
FINAL SINGLE POINT ENERGY      -305.540794188009
FINAL SINGLE POINT ENERGY      -305.541390782062
FINAL SINGLE POINT ENERGY      -305.542217610356
FINAL SINGLE POINT ENERGY      -305.543032582335
FINAL SINGLE POINT ENERGY      -305.546694001794
FINAL SINGLE POINT ENERGY      -305.546697321040
FINAL SINGLE POINT ENERGY      -305.552416412265
FINAL SINGLE POINT ENERGY      -305.546720741755
FINAL SINGLE POINT ENERGY      -305.546737787412
FINAL SINGLE POINT ENERGY      -305.546766226270
FINAL SINGLE POINT ENERGY      -305.546780488107
Dispersion correction            ...
Dispersion correction           -0.007396383
FINAL SINGLE POINT ENERGY      -305.546771535566
Dispersion correction            ...
Dispersion correction           -0.007400747
FINAL SINGLE POINT ENERGY      -305.546775840340
Dispersion correction            ...
                    ***********************HURRAY********************

CARTESIAN COORDINATES (ANGSTROEM)
---------------------------------
  O      1.819450    0.392881    0.241960
  H      1.307851    0.087169   -0.582301
  H      2.307522   -0.412736    0.505385
  O      0.330052   -0.424224   -1.795388
  H     -0.538339   -0.429893   -1.266386
  H      0.239226    0.376650   -2.349727
  O     -0.324902    0.386330    1.797639
  H      0.544560    0.402354    1.269760
  H     -0.519217    1.336343    1.926055
  O     -1.827900   -0.356662   -0.254596
  H     -2.027356   -1.294883   -0.063627
  H     -1.310948   -0.063330    0.571226

 Multiplicity           Mult            ....    1
 Number of Electrons    NEL             ....   40
 Basis Dimension        Dim             ....   96

ORBITAL ENERGIES
----------------

  NO   OCC          E(Eh)            E(eV)
   0   2.0000     -18.766637      -510.6662
   1   2.0000     -18.766539      -510.6635
   2   2.0000     -18.766529      -510.6632
   3   2.0000     -18.766409      -510.6599
   4   2.0000      -0.909327       -24.7440
   5   2.0000      -0.889442       -24.2030
   6   2.0000      -0.889319       -24.1996
   7   2.0000      -0.869744       -23.6669
   8   2.0000      -0.461216       -12.5503
   9   2.0000      -0.452627       -12.3166
  10   2.0000      -0.452035       -12.3005
  11   2.0000      -0.450576       -12.2608
  12   2.0000      -0.366779        -9.9806
  13   2.0000      -0.334116        -9.0918
  14   2.0000      -0.333621        -9.0783
  15   2.0000      -0.307368        -8.3639
  16   2.0000      -0.253130        -6.8880
  17   2.0000      -0.252967        -6.8836
  18   2.0000      -0.252835        -6.8800
  19   2.0000      -0.246488        -6.7073
  20   0.0000       0.036156         0.9839
  21   0.0000       0.078342         2.1318
  22   0.0000       0.079392         2.1604
  23   0.0000       0.100068         2.7230
  24   0.0000       0.197108         5.3636

MULLIKEN ATOMIC CHARGES
-----------------------
   0 O :   -0.357981
   1 H :    0.147349
   2 H :    0.209587
   3 O :   -0.355695
   4 H :    0.147521
   5 H :    0.208987
   6 O :   -0.358053
   7 H :    0.149817
   8 H :    0.209223
   9 O :   -0.359461
  10 H :    0.209889
  11 H :    0.148816
Sum of atomic charges:   -0.0000000

LOEWDIN ATOMIC CHARGES
----------------------
   0 O :   -0.138655
   1 H :    0.033696
   2 H :    0.104999
   3 O :   -0.138141
   4 H :    0.033688
   5 H :    0.104861
   6 O :   -0.137992
   7 H :    0.034173
   8 H :    0.104852
   9 O :   -0.140006
  10 H :    0.105032
  11 H :    0.033492

  Mayer bond orders larger than 0.1
B(  0-O ,  1-H ) :   0.8472 B(  0-O ,  2-H ) :   0.9737 B(  0-O ,  7-H ) :   0.2550
B(  1-H ,  3-O ) :   0.2570 B(  3-O ,  4-H ) :   0.8480 B(  3-O ,  5-H ) :   0.9736
B(  4-H ,  9-O ) :   0.2559 B(  6-O ,  7-H ) :   0.8471 B(  6-O ,  8-H ) :   0.9730
B(  6-O , 11-H ) :   0.2565 B(  9-O , 10-H ) :   0.9732 B(  9-O , 11-H ) :   0.8459

Dispersion correction           -0.007401682
FINAL SINGLE POINT ENERGY      -305.546778675633

DIPOLE MOMENT
-------------
                                X             Y             Z
Electronic contribution:      0.00318      -0.00367      -0.00015
Nuclear contribution   :      0.00824       0.00418       0.02593
                        -----------------------------------------
Total Dipole Moment    :      0.01142       0.00051       0.02578
                        -----------------------------------------
Magnitude (a.u.)       :      0.02820
Magnitude (Debye)      :      0.07168

                             ****ORCA TERMINATED NORMALLY****
TOTAL RUN TIME: 0 days 0 hours 21 minutes 28 seconds 501 msec
