                         Program Version 4.2.0 -  RELEASE  -
|  1> # 12mecn.remya.etal.2.mol8,11
|  2> ! MP2 def2-TZVP EnGrad TightSCF
|  3>
|  4> %pal
|  5>     nprocs 6
|  6> end
|  7>
|  8> %maxcore 8000
|  9>
| 10> %scf
| 11>     ConvForced true
| 12> end
| 13>
| 14> *xyz 0 1
| 15> C   1.912641000  -2.468050000  -1.750510000
| 16> H   2.876947000  -2.793500000  -2.151200000
| 17> H   1.688016000  -1.463720000  -2.122170000
| 18> H   1.123460000  -3.154780000  -2.069590000
| 19> C   1.977850000  -2.444240000  -0.306900000
| 20> N   2.036566000  -2.426130000   0.858249000
| 21> C   4.214163000   3.378139000   1.593627000
| 22> H   3.242643000   3.657109000   2.012358000
| 23> H   4.969258000   4.086643000   1.941290000
| 24> H   4.482966000   2.372549000   1.931698000
| 25> C   4.130759000   3.388436000   0.150192000
| 26> N   4.050180000   3.381449000  -1.013420000
| 27> *
| 28>
| 29>                          ****END OF INPUT****

CARTESIAN COORDINATES (ANGSTROEM)
---------------------------------
  C      1.912641   -2.468050   -1.750510
  H      2.876947   -2.793500   -2.151200
  H      1.688016   -1.463720   -2.122170
  H      1.123460   -3.154780   -2.069590
  C      1.977850   -2.444240   -0.306900
  N      2.036566   -2.426130    0.858249
  C      4.214163    3.378139    1.593627
  H      3.242643    3.657109    2.012358
  H      4.969258    4.086643    1.941290
  H      4.482966    2.372549    1.931698
  C      4.130759    3.388436    0.150192
  N      4.050180    3.381449   -1.013420

 Total Charge           Charge          ....    0
 Multiplicity           Mult            ....    1
 Number of Electrons    NEL             ....   44
 Basis Dimension        Dim             ....  222

ORBITAL ENERGIES
----------------

  NO   OCC          E(Eh)            E(eV)
   0   2.0000     -15.572593      -423.7518
   1   2.0000     -15.572584      -423.7516
   2   2.0000     -11.283141      -307.0299
   3   2.0000     -11.282917      -307.0238
   4   2.0000     -11.280136      -306.9481
   5   2.0000     -11.280134      -306.9480
   6   2.0000      -1.214451       -33.0469
   7   2.0000      -1.214300       -33.0428
   8   2.0000      -1.042234       -28.3606
   9   2.0000      -1.041857       -28.3504
  10   2.0000      -0.698922       -19.0186
  11   2.0000      -0.698102       -18.9963
  12   2.0000      -0.631067       -17.1722
  13   2.0000      -0.629705       -17.1351
  14   2.0000      -0.628931       -17.1141
  15   2.0000      -0.628866       -17.1123
  16   2.0000      -0.556047       -15.1308
  17   2.0000      -0.555947       -15.1281
  18   2.0000      -0.457549       -12.4505
  19   2.0000      -0.457463       -12.4482
  20   2.0000      -0.457362       -12.4455
  21   2.0000      -0.457159       -12.4399
  22   0.0000       0.116638         3.1739
  23   0.0000       0.125384         3.4119
  24   0.0000       0.172227         4.6865
  25   0.0000       0.172621         4.6973
  26   0.0000       0.172712         4.6997

MULLIKEN ATOMIC CHARGES
-----------------------
   0 C :   -0.278469
   1 H :    0.172262
   2 H :    0.177631
   3 H :    0.171018
   4 C :   -0.145203
   5 N :   -0.097239
   6 C :   -0.279654
   7 H :    0.172477
   8 H :    0.171066
   9 H :    0.177485
  10 C :   -0.144807
  11 N :   -0.096567
Sum of atomic charges:    0.0000000

LOEWDIN ATOMIC CHARGES
----------------------
   0 C :   -0.282871
   1 H :    0.153167
   2 H :    0.154571
   3 H :    0.152288
   4 C :   -0.219013
   5 N :    0.041859
   6 C :   -0.283041
   7 H :    0.153430
   8 H :    0.150847
   9 H :    0.154871
  10 C :   -0.218357
  11 N :    0.042249

  Mayer bond orders larger than 0.100000
B(  0-C ,  1-H ) :   0.9158 B(  0-C ,  2-H ) :   0.9149 B(  0-C ,  3-H ) :   0.9163
B(  0-C ,  4-C ) :   0.9019 B(  4-C ,  5-N ) :   2.8401 B(  6-C ,  7-H ) :   0.9158
B(  6-C ,  8-H ) :   0.9166 B(  6-C ,  9-H ) :   0.9146 B(  6-C , 10-C ) :   0.9030
B( 10-C , 11-N ) :   2.8400

MP2 TOTAL ENERGY:     -264.967698216 Eh
FINAL SINGLE POINT ENERGY      -264.967698215737

DIPOLE MOMENT
-------------
                                X             Y             Z
Electronic contribution:     -0.03334       0.06896      -0.00975
Nuclear contribution   :      0.05584      -0.09397       0.00954
                        -----------------------------------------
Total Dipole Moment    :      0.02250      -0.02502      -0.00020
                        -----------------------------------------
Magnitude (a.u.)       :      0.03364
Magnitude (Debye)      :      0.08551

Rotational constants in cm-1:     0.157946     0.020692     0.018424
Rotational constants in MHz :  4735.100116   620.330701   552.349796

                             ****ORCA TERMINATED NORMALLY****
TOTAL RUN TIME: 0 days 0 hours 0 minutes 40 seconds 712 msec
