                         Program Version 4.2.0 -  RELEASE  -
|  1> # 12h2o.su.etal.mol0,3,5,6,7,10,11
|  2> ! MP2 def2-TZVP EnGrad TightSCF
|  3>
|  4> %pal
|  5>     nprocs 6
|  6> end
|  7>
|  8> %maxcore 8000
|  9>
| 10> %scf
| 11>     ConvForced true
| 12> end
| 13>
| 14> *xyz 0 1
| 15> O   1.794470000   0.923410000   2.768350000
| 16> H   2.338250000   1.359750000   3.430940000
| 17> H   0.879480000   1.303000000   2.865760000
| 18> O  -1.752130000  -0.741530000  -2.896280000
| 19> H  -2.036450000  -0.920500000  -1.984040000
| 20> H  -0.921210000  -1.242140000  -2.984230000
| 21> O   0.885520000  -1.737840000   0.052730000
| 22> H   1.284090000  -0.839590000   0.017130000
| 23> H   1.032320000  -2.090180000  -0.841890000
| 24> O   1.737840000   0.885520000  -0.052730000
| 25> H   2.090180000   1.032320000   0.841890000
| 26> H   0.839590000   1.284090000  -0.017130000
| 27> O  -1.737840000  -0.885520000  -0.052730000
| 28> H  -2.090180000  -1.032320000   0.841890000
| 29> H  -0.839590000  -1.284090000  -0.017130000
| 30> O  -0.923410000   1.794470000  -2.768350000
| 31> H  -1.359750000   2.338250000  -3.430940000
| 32> H  -1.303000000   0.879480000  -2.865760000
| 33> O  -0.741530000   1.752130000   2.896280000
| 34> H  -0.920500000   2.036450000   1.984040000
| 35> H  -1.242140000   0.921210000   2.984230000
| 36> *
| 37>
| 38>                          ****END OF INPUT****

CARTESIAN COORDINATES (ANGSTROEM)
---------------------------------
  O      1.794470    0.923410    2.768350
  H      2.338250    1.359750    3.430940
  H      0.879480    1.303000    2.865760
  O     -1.752130   -0.741530   -2.896280
  H     -2.036450   -0.920500   -1.984040
  H     -0.921210   -1.242140   -2.984230
  O      0.885520   -1.737840    0.052730
  H      1.284090   -0.839590    0.017130
  H      1.032320   -2.090180   -0.841890
  O      1.737840    0.885520   -0.052730
  H      2.090180    1.032320    0.841890
  H      0.839590    1.284090   -0.017130
  O     -1.737840   -0.885520   -0.052730
  H     -2.090180   -1.032320    0.841890
  H     -0.839590   -1.284090   -0.017130
  O     -0.923410    1.794470   -2.768350
  H     -1.359750    2.338250   -3.430940
  H     -1.303000    0.879480   -2.865760
  O     -0.741530    1.752130    2.896280
  H     -0.920500    2.036450    1.984040
  H     -1.242140    0.921210    2.984230

 Total Charge           Charge          ....    0
 Multiplicity           Mult            ....    1
 Number of Electrons    NEL             ....   70
 Basis Dimension        Dim             ....  301

ORBITAL ENERGIES
----------------

  NO   OCC          E(Eh)            E(eV)
   0   2.0000     -20.615602      -560.9791
   1   2.0000     -20.567696      -559.6755
   2   2.0000     -20.566188      -559.6344
   3   2.0000     -20.563652      -559.5654
   4   2.0000     -20.561737      -559.5133
   5   2.0000     -20.555610      -559.3466
   6   2.0000     -20.511095      -558.1353
   7   2.0000      -1.401116       -38.1263
   8   2.0000      -1.362343       -37.0712
   9   2.0000      -1.355954       -36.8974
  10   2.0000      -1.347593       -36.6699
  11   2.0000      -1.339814       -36.4582
  12   2.0000      -1.333304       -36.2810
  13   2.0000      -1.293021       -35.1849
  14   2.0000      -0.758109       -20.6292
  15   2.0000      -0.726047       -19.7567
  16   2.0000      -0.725265       -19.7355
  17   2.0000      -0.715279       -19.4637
  18   2.0000      -0.712893       -19.3988
  19   2.0000      -0.706619       -19.2281
  20   2.0000      -0.680859       -18.5271
  21   2.0000      -0.640330       -17.4243
  22   2.0000      -0.619700       -16.8629
  23   2.0000      -0.602857       -16.4046
  24   2.0000      -0.591426       -16.0935
  25   2.0000      -0.580503       -15.7963
  26   2.0000      -0.570719       -15.5301
  27   2.0000      -0.541741       -14.7415
  28   2.0000      -0.541441       -14.7333
  29   2.0000      -0.517534       -14.0828
  30   2.0000      -0.507764       -13.8170
  31   2.0000      -0.504293       -13.7225
  32   2.0000      -0.502801       -13.6819
  33   2.0000      -0.496908       -13.5215
  34   2.0000      -0.461685       -12.5631
  35   0.0000       0.077386         2.1058
  36   0.0000       0.114427         3.1137
  37   0.0000       0.135560         3.6888
  38   0.0000       0.153353         4.1730
  39   0.0000       0.172902         4.7049

MULLIKEN ATOMIC CHARGES
-----------------------
   0 O :   -0.736306
   1 H :    0.341855
   2 H :    0.368939
   3 O :   -0.691191
   4 H :    0.388111
   5 H :    0.336155
   6 O :   -0.710940
   7 H :    0.383699
   8 H :    0.337546
   9 O :   -0.700367
  10 H :    0.380742
  11 H :    0.342477
  12 O :   -0.730392
  13 H :    0.331940
  14 H :    0.355988
  15 O :   -0.737582
  16 H :    0.321915
  17 H :    0.369988
  18 O :   -0.676045
  19 H :    0.363719
  20 H :    0.359750
Sum of atomic charges:   -0.0000000

LOEWDIN ATOMIC CHARGES
----------------------
   0 O :   -0.338849
   1 H :    0.156399
   2 H :    0.143235
   3 O :   -0.276330
   4 H :    0.159960
   5 H :    0.165285
   6 O :   -0.307783
   7 H :    0.149203
   8 H :    0.161049
   9 O :   -0.294596
  10 H :    0.153619
  11 H :    0.169031
  12 O :   -0.342706
  13 H :    0.159162
  14 H :    0.142555
  15 O :   -0.375592
  16 H :    0.147298
  17 H :    0.142761
  18 O :   -0.265295
  19 H :    0.175131
  20 H :    0.176466

  Mayer bond orders larger than 0.100000
B(  0-O ,  1-H ) :   0.8480 B(  0-O ,  2-H ) :   0.7696 B(  3-O ,  4-H ) :   0.7971
B(  3-O ,  5-H ) :   0.8492 B(  6-O ,  7-H ) :   0.7575 B(  6-O ,  8-H ) :   0.8488
B(  6-O , 14-H ) :   0.1168 B(  7-H ,  9-O ) :   0.1031 B(  9-O , 10-H ) :   0.7930
B(  9-O , 11-H ) :   0.8381 B( 12-O , 13-H ) :   0.8531 B( 12-O , 14-H ) :   0.7603
B( 15-O , 16-H ) :   0.8620 B( 15-O , 17-H ) :   0.7772 B( 18-O , 19-H ) :   0.8322
B( 18-O , 20-H ) :   0.8345

MP2 TOTAL ENERGY:     -534.249756758 Eh
FINAL SINGLE POINT ENERGY      -534.249756757619

DIPOLE MOMENT
-------------
                                X             Y             Z
Electronic contribution:      0.12202       0.02314       0.31281
Nuclear contribution   :     -0.64487      -0.19606       0.77428
                        -----------------------------------------
Total Dipole Moment    :     -0.52285      -0.17293       1.08709
                        -----------------------------------------
Magnitude (a.u.)       :      1.21862
Magnitude (Debye)      :      3.09749

Rotational constants in cm-1:     0.045466     0.019626     0.019047
Rotational constants in MHz :  1363.035189   588.381849   571.019746

                             ****ORCA TERMINATED NORMALLY****
TOTAL RUN TIME: 0 days 0 hours 2 minutes 26 seconds 275 msec
