                         Program Version 4.2.0 -  RELEASE  -
|  1> # 12h2o.su.etal.mol0,2,3,4,7,8,9,10
|  2> ! MP2 def2-TZVP EnGrad TightSCF
|  3>
|  4> %pal
|  5>     nprocs 6
|  6> end
|  7>
|  8> %maxcore 8000
|  9>
| 10> %scf
| 11>     ConvForced true
| 12> end
| 13>
| 14> *xyz 0 1
| 15> O   1.794470000   0.923410000   2.768350000
| 16> H   2.338250000   1.359750000   3.430940000
| 17> H   0.879480000   1.303000000   2.865760000
| 18> O   0.923410000  -1.794470000  -2.768350000
| 19> H   1.359750000  -2.338250000  -3.430940000
| 20> H   1.303000000  -0.879480000  -2.865760000
| 21> O  -1.752130000  -0.741530000  -2.896280000
| 22> H  -2.036450000  -0.920500000  -1.984040000
| 23> H  -0.921210000  -1.242140000  -2.984230000
| 24> O  -0.885520000   1.737840000   0.052730000
| 25> H  -1.032320000   2.090180000  -0.841890000
| 26> H  -1.284090000   0.839590000   0.017130000
| 27> O  -1.737840000  -0.885520000  -0.052730000
| 28> H  -2.090180000  -1.032320000   0.841890000
| 29> H  -0.839590000  -1.284090000  -0.017130000
| 30> O   1.752130000   0.741530000  -2.896280000
| 31> H   2.036450000   0.920500000  -1.984040000
| 32> H   0.921210000   1.242140000  -2.984230000
| 33> O   0.741530000  -1.752130000   2.896280000
| 34> H   0.920500000  -2.036450000   1.984040000
| 35> H   1.242140000  -0.921210000   2.984230000
| 36> O  -0.923410000   1.794470000  -2.768350000
| 37> H  -1.359750000   2.338250000  -3.430940000
| 38> H  -1.303000000   0.879480000  -2.865760000
| 39> *
| 40>
| 41>                          ****END OF INPUT****

CARTESIAN COORDINATES (ANGSTROEM)
---------------------------------
  O      1.794470    0.923410    2.768350
  H      2.338250    1.359750    3.430940
  H      0.879480    1.303000    2.865760
  O      0.923410   -1.794470   -2.768350
  H      1.359750   -2.338250   -3.430940
  H      1.303000   -0.879480   -2.865760
  O     -1.752130   -0.741530   -2.896280
  H     -2.036450   -0.920500   -1.984040
  H     -0.921210   -1.242140   -2.984230
  O     -0.885520    1.737840    0.052730
  H     -1.032320    2.090180   -0.841890
  H     -1.284090    0.839590    0.017130
  O     -1.737840   -0.885520   -0.052730
  H     -2.090180   -1.032320    0.841890
  H     -0.839590   -1.284090   -0.017130
  O      1.752130    0.741530   -2.896280
  H      2.036450    0.920500   -1.984040
  H      0.921210    1.242140   -2.984230
  O      0.741530   -1.752130    2.896280
  H      0.920500   -2.036450    1.984040
  H      1.242140   -0.921210    2.984230
  O     -0.923410    1.794470   -2.768350
  H     -1.359750    2.338250   -3.430940
  H     -1.303000    0.879480   -2.865760

 Total Charge           Charge          ....    0
 Multiplicity           Mult            ....    1
 Number of Electrons    NEL             ....   80
 Basis Dimension        Dim             ....  344

ORBITAL ENERGIES
----------------

  NO   OCC          E(Eh)            E(eV)
   0   2.0000     -20.610303      -560.8349
   1   2.0000     -20.584928      -560.1444
   2   2.0000     -20.569923      -559.7361
   3   2.0000     -20.561677      -559.5117
   4   2.0000     -20.556276      -559.3647
   5   2.0000     -20.553202      -559.2811
   6   2.0000     -20.545395      -559.0686
   7   2.0000     -20.511576      -558.1483
   8   2.0000      -1.393489       -37.9188
   9   2.0000      -1.365459       -37.1560
  10   2.0000      -1.362823       -37.0843
  11   2.0000      -1.354236       -36.8506
  12   2.0000      -1.341528       -36.5048
  13   2.0000      -1.330461       -36.2037
  14   2.0000      -1.327153       -36.1137
  15   2.0000      -1.295820       -35.2611
  16   2.0000      -0.752352       -20.4725
  17   2.0000      -0.729994       -19.8641
  18   2.0000      -0.729614       -19.8538
  19   2.0000      -0.722317       -19.6552
  20   2.0000      -0.717466       -19.5233
  21   2.0000      -0.710071       -19.3220
  22   2.0000      -0.695249       -18.9187
  23   2.0000      -0.681663       -18.5490
  24   2.0000      -0.641702       -17.4616
  25   2.0000      -0.616604       -16.7787
  26   2.0000      -0.604896       -16.4601
  27   2.0000      -0.597545       -16.2600
  28   2.0000      -0.586311       -15.9543
  29   2.0000      -0.573099       -15.5948
  30   2.0000      -0.565623       -15.3914
  31   2.0000      -0.551914       -15.0183
  32   2.0000      -0.526767       -14.3340
  33   2.0000      -0.524289       -14.2666
  34   2.0000      -0.511303       -13.9133
  35   2.0000      -0.504855       -13.7378
  36   2.0000      -0.503805       -13.7092
  37   2.0000      -0.500473       -13.6186
  38   2.0000      -0.492516       -13.4020
  39   2.0000      -0.462315       -12.5802
  40   0.0000       0.089649         2.4395
  41   0.0000       0.125461         3.4140
  42   0.0000       0.135089         3.6760
  43   0.0000       0.149028         4.0552
  44   0.0000       0.163016         4.4359

MULLIKEN ATOMIC CHARGES
-----------------------
   0 O :   -0.699858
   1 H :    0.350916
   2 H :    0.370853
   3 O :   -0.750054
   4 H :    0.344460
   5 H :    0.380373
   6 O :   -0.722942
   7 H :    0.382922
   8 H :    0.370556
   9 O :   -0.738052
  10 H :    0.362554
  11 H :    0.338222
  12 O :   -0.713875
  13 H :    0.374736
  14 H :    0.365679
  15 O :   -0.711638
  16 H :    0.359450
  17 H :    0.380044
  18 O :   -0.703224
  19 H :    0.321722
  20 H :    0.362899
  21 O :   -0.755925
  22 H :    0.348187
  23 H :    0.381996
Sum of atomic charges:   -0.0000000

LOEWDIN ATOMIC CHARGES
----------------------
   0 O :   -0.311626
   1 H :    0.163086
   2 H :    0.191831
   3 O :   -0.345030
   4 H :    0.157219
   5 H :    0.145015
   6 O :   -0.285892
   7 H :    0.155402
   8 H :    0.150526
   9 O :   -0.372384
  10 H :    0.144134
  11 H :    0.133660
  12 O :   -0.277273
  13 H :    0.179933
  14 H :    0.180984
  15 O :   -0.283596
  16 H :    0.173262
  17 H :    0.154349
  18 O :   -0.345967
  19 H :    0.154934
  20 H :    0.149462
  21 O :   -0.315791
  22 H :    0.157856
  23 H :    0.145907

  Mayer bond orders larger than 0.100000
B(  0-O ,  1-H ) :   0.8423 B(  0-O ,  2-H ) :   0.8216 B(  3-O ,  4-H ) :   0.8468
B(  3-O ,  5-H ) :   0.7464 B(  5-H , 15-O ) :   0.1118 B(  6-O ,  7-H ) :   0.8109
B(  6-O ,  8-H ) :   0.7898 B(  6-O , 23-H ) :   0.1214 B(  9-O , 10-H ) :   0.8215
B(  9-O , 11-H ) :   0.8177 B( 12-O , 13-H ) :   0.8243 B( 12-O , 14-H ) :   0.8206
B( 15-O , 16-H ) :   0.8349 B( 15-O , 17-H ) :   0.7865 B( 18-O , 19-H ) :   0.8611
B( 18-O , 20-H ) :   0.8097 B( 21-O , 22-H ) :   0.8414 B( 21-O , 23-H ) :   0.7282

MP2 TOTAL ENERGY:     -610.583977740 Eh
FINAL SINGLE POINT ENERGY      -610.583977740356

DIPOLE MOMENT
-------------
                                X             Y             Z
Electronic contribution:     -0.02628      -0.03005       0.00558
Nuclear contribution   :      0.25712       0.22578       0.05351
                        -----------------------------------------
Total Dipole Moment    :      0.23084       0.19572       0.05910
                        -----------------------------------------
Magnitude (a.u.)       :      0.30836
Magnitude (Debye)      :      0.78380

Rotational constants in cm-1:     0.032079     0.015578     0.015219
Rotational constants in MHz :   961.704589   467.014990   456.266779

                             ****ORCA TERMINATED NORMALLY****
TOTAL RUN TIME: 0 days 0 hours 2 minutes 52 seconds 588 msec
