                         Program Version 4.2.0 -  RELEASE  -
|  1> # 12h2o.su.etal.mol1,6,8,11
|  2> ! MP2 def2-TZVP EnGrad TightSCF
|  3>
|  4> %pal
|  5>     nprocs 6
|  6> end
|  7>
|  8> %maxcore 8000
|  9>
| 10> %scf
| 11>     ConvForced true
| 12> end
| 13>
| 14> *xyz 0 1
| 15> O  -1.794470000  -0.923410000   2.768350000
| 16> H  -2.338250000  -1.359750000   3.430940000
| 17> H  -0.879480000  -1.303000000   2.865760000
| 18> O   1.737840000   0.885520000  -0.052730000
| 19> H   2.090180000   1.032320000   0.841890000
| 20> H   0.839590000   1.284090000  -0.017130000
| 21> O   1.752130000   0.741530000  -2.896280000
| 22> H   2.036450000   0.920500000  -1.984040000
| 23> H   0.921210000   1.242140000  -2.984230000
| 24> O  -0.741530000   1.752130000   2.896280000
| 25> H  -0.920500000   2.036450000   1.984040000
| 26> H  -1.242140000   0.921210000   2.984230000
| 27> *
| 28>
| 29>                          ****END OF INPUT****

CARTESIAN COORDINATES (ANGSTROEM)
---------------------------------
  O     -1.794470   -0.923410    2.768350
  H     -2.338250   -1.359750    3.430940
  H     -0.879480   -1.303000    2.865760
  O      1.737840    0.885520   -0.052730
  H      2.090180    1.032320    0.841890
  H      0.839590    1.284090   -0.017130
  O      1.752130    0.741530   -2.896280
  H      2.036450    0.920500   -1.984040
  H      0.921210    1.242140   -2.984230
  O     -0.741530    1.752130    2.896280
  H     -0.920500    2.036450    1.984040
  H     -1.242140    0.921210    2.984230

 Total Charge           Charge          ....    0
 Multiplicity           Mult            ....    1
 Number of Electrons    NEL             ....   40
 Basis Dimension        Dim             ....  172

ORBITAL ENERGIES
----------------

  NO   OCC          E(Eh)            E(eV)
   0   2.0000     -20.600379      -560.5648
   1   2.0000     -20.587972      -560.2272
   2   2.0000     -20.552649      -559.2660
   3   2.0000     -20.531131      -558.6805
   4   2.0000      -1.378114       -37.5004
   5   2.0000      -1.366258       -37.1778
   6   2.0000      -1.334574       -36.3156
   7   2.0000      -1.312942       -35.7270
   8   2.0000      -0.745431       -20.2842
   9   2.0000      -0.729086       -19.8394
  10   2.0000      -0.703253       -19.1365
  11   2.0000      -0.682413       -18.5694
  12   2.0000      -0.618735       -16.8366
  13   2.0000      -0.607477       -16.5303
  14   2.0000      -0.574774       -15.6404
  15   2.0000      -0.550284       -14.9740
  16   2.0000      -0.538553       -14.6548
  17   2.0000      -0.529104       -14.3976
  18   2.0000      -0.499597       -13.5947
  19   2.0000      -0.477411       -12.9910
  20   0.0000       0.085941         2.3386
  21   0.0000       0.115490         3.1426
  22   0.0000       0.159946         4.3523
  23   0.0000       0.160657         4.3717
  24   0.0000       0.183281         4.9873

MULLIKEN ATOMIC CHARGES
-----------------------
   0 O :   -0.696623
   1 H :    0.357007
   2 H :    0.361717
   3 O :   -0.689023
   4 H :    0.356104
   5 H :    0.334139
   6 O :   -0.691069
   7 H :    0.369938
   8 H :    0.315600
   9 O :   -0.699154
  10 H :    0.319851
  11 H :    0.361514
Sum of atomic charges:   -0.0000000

LOEWDIN ATOMIC CHARGES
----------------------
   0 O :   -0.310610
   1 H :    0.165685
   2 H :    0.188878
   3 O :   -0.316021
   4 H :    0.172621
   5 H :    0.169353
   6 O :   -0.338657
   7 H :    0.152982
   8 H :    0.156382
   9 O :   -0.343980
  10 H :    0.154484
  11 H :    0.148883

  Mayer bond orders larger than 0.100000
B(  0-O ,  1-H ) :   0.8391 B(  0-O ,  2-H ) :   0.8299 B(  3-O ,  4-H ) :   0.8379
B(  3-O ,  5-H ) :   0.8455 B(  6-O ,  7-H ) :   0.8216 B(  6-O ,  8-H ) :   0.8652
B(  9-O , 10-H ) :   0.8621 B(  9-O , 11-H ) :   0.8128

MP2 TOTAL ENERGY:     -305.266061491 Eh
FINAL SINGLE POINT ENERGY      -305.266061490669

DIPOLE MOMENT
-------------
                                X             Y             Z
Electronic contribution:      0.12964      -0.22320       0.01985
Nuclear contribution   :     -1.16604      -0.11452       1.40687
                        -----------------------------------------
Total Dipole Moment    :     -1.03640      -0.33771       1.42673
                        -----------------------------------------
Magnitude (a.u.)       :      1.79547
Magnitude (Debye)      :      4.56373

Rotational constants in cm-1:     0.174300     0.029672     0.026857
Rotational constants in MHz :  5225.369630   889.557960   805.140077

                             ****ORCA TERMINATED NORMALLY****
TOTAL RUN TIME: 0 days 0 hours 0 minutes 15 seconds 169 msec
