                         Program Version 4.2.0 -  RELEASE  -
|  1> # 12h2o.su.etal.mol2,4,6,7,9,10,11
|  2> ! MP2 def2-TZVP EnGrad TightSCF
|  3>
|  4> %pal
|  5>     nprocs 6
|  6> end
|  7>
|  8> %maxcore 8000
|  9>
| 10> %scf
| 11>     ConvForced true
| 12> end
| 13>
| 14> *xyz 0 1
| 15> O   0.923410000  -1.794470000  -2.768350000
| 16> H   1.359750000  -2.338250000  -3.430940000
| 17> H   1.303000000  -0.879480000  -2.865760000
| 18> O  -0.885520000   1.737840000   0.052730000
| 19> H  -1.032320000   2.090180000  -0.841890000
| 20> H  -1.284090000   0.839590000   0.017130000
| 21> O   1.737840000   0.885520000  -0.052730000
| 22> H   2.090180000   1.032320000   0.841890000
| 23> H   0.839590000   1.284090000  -0.017130000
| 24> O  -1.737840000  -0.885520000  -0.052730000
| 25> H  -2.090180000  -1.032320000   0.841890000
| 26> H  -0.839590000  -1.284090000  -0.017130000
| 27> O   0.741530000  -1.752130000   2.896280000
| 28> H   0.920500000  -2.036450000   1.984040000
| 29> H   1.242140000  -0.921210000   2.984230000
| 30> O  -0.923410000   1.794470000  -2.768350000
| 31> H  -1.359750000   2.338250000  -3.430940000
| 32> H  -1.303000000   0.879480000  -2.865760000
| 33> O  -0.741530000   1.752130000   2.896280000
| 34> H  -0.920500000   2.036450000   1.984040000
| 35> H  -1.242140000   0.921210000   2.984230000
| 36> *
| 37>
| 38>                          ****END OF INPUT****

CARTESIAN COORDINATES (ANGSTROEM)
---------------------------------
  O      0.923410   -1.794470   -2.768350
  H      1.359750   -2.338250   -3.430940
  H      1.303000   -0.879480   -2.865760
  O     -0.885520    1.737840    0.052730
  H     -1.032320    2.090180   -0.841890
  H     -1.284090    0.839590    0.017130
  O      1.737840    0.885520   -0.052730
  H      2.090180    1.032320    0.841890
  H      0.839590    1.284090   -0.017130
  O     -1.737840   -0.885520   -0.052730
  H     -2.090180   -1.032320    0.841890
  H     -0.839590   -1.284090   -0.017130
  O      0.741530   -1.752130    2.896280
  H      0.920500   -2.036450    1.984040
  H      1.242140   -0.921210    2.984230
  O     -0.923410    1.794470   -2.768350
  H     -1.359750    2.338250   -3.430940
  H     -1.303000    0.879480   -2.865760
  O     -0.741530    1.752130    2.896280
  H     -0.920500    2.036450    1.984040
  H     -1.242140    0.921210    2.984230

 Total Charge           Charge          ....    0
 Multiplicity           Mult            ....    1
 Number of Electrons    NEL             ....   70
 Basis Dimension        Dim             ....  301

ORBITAL ENERGIES
----------------

  NO   OCC          E(Eh)            E(eV)
   0   2.0000     -20.602356      -560.6186
   1   2.0000     -20.594441      -560.4032
   2   2.0000     -20.568572      -559.6993
   3   2.0000     -20.566648      -559.6469
   4   2.0000     -20.556204      -559.3628
   5   2.0000     -20.537094      -558.8427
   6   2.0000     -20.528665      -558.6134
   7   2.0000      -1.383878       -37.6572
   8   2.0000      -1.372680       -37.3525
   9   2.0000      -1.347500       -36.6673
  10   2.0000      -1.347066       -36.6555
  11   2.0000      -1.341983       -36.5172
  12   2.0000      -1.318490       -35.8779
  13   2.0000      -1.308683       -35.6111
  14   2.0000      -0.740795       -20.1581
  15   2.0000      -0.738959       -20.1081
  16   2.0000      -0.721302       -19.6276
  17   2.0000      -0.710276       -19.3276
  18   2.0000      -0.709945       -19.3186
  19   2.0000      -0.688182       -18.7264
  20   2.0000      -0.682215       -18.5640
  21   2.0000      -0.632207       -17.2032
  22   2.0000      -0.612554       -16.6685
  23   2.0000      -0.591901       -16.1064
  24   2.0000      -0.585553       -15.9337
  25   2.0000      -0.579596       -15.7716
  26   2.0000      -0.563852       -15.3432
  27   2.0000      -0.553859       -15.0713
  28   2.0000      -0.538328       -14.6487
  29   2.0000      -0.528276       -14.3751
  30   2.0000      -0.512921       -13.9573
  31   2.0000      -0.510214       -13.8836
  32   2.0000      -0.499709       -13.5978
  33   2.0000      -0.483179       -13.1480
  34   2.0000      -0.476620       -12.9695
  35   0.0000       0.083600         2.2749
  36   0.0000       0.110650         3.0109
  37   0.0000       0.132931         3.6172
  38   0.0000       0.140440         3.8216
  39   0.0000       0.160802         4.3756

MULLIKEN ATOMIC CHARGES
-----------------------
   0 O :   -0.699811
   1 H :    0.340254
   2 H :    0.360529
   3 O :   -0.748633
   4 H :    0.382958
   5 H :    0.350406
   6 O :   -0.725270
   7 H :    0.324409
   8 H :    0.365503
   9 O :   -0.688361
  10 H :    0.357271
  11 H :    0.370437
  12 O :   -0.682540
  13 H :    0.334166
  14 H :    0.348227
  15 O :   -0.702066
  16 H :    0.352739
  17 H :    0.366257
  18 O :   -0.698935
  19 H :    0.374378
  20 H :    0.318083
Sum of atomic charges:   -0.0000000

LOEWDIN ATOMIC CHARGES
----------------------
   0 O :   -0.344558
   1 H :    0.158969
   2 H :    0.186231
   3 O :   -0.301963
   4 H :    0.153392
   5 H :    0.139537
   6 O :   -0.363303
   7 H :    0.154944
   8 H :    0.141651
   9 O :   -0.287035
  10 H :    0.171775
  11 H :    0.181891
  12 O :   -0.330179
  13 H :    0.161294
  14 H :    0.168720
  15 O :   -0.310918
  16 H :    0.164110
  17 H :    0.188974
  18 O :   -0.339589
  19 H :    0.151507
  20 H :    0.154549

  Mayer bond orders larger than 0.100000
B(  0-O ,  1-H ) :   0.8518 B(  0-O ,  2-H ) :   0.8305 B(  3-O ,  4-H ) :   0.7997
B(  3-O ,  5-H ) :   0.7760 B(  6-O ,  7-H ) :   0.8584 B(  6-O ,  8-H ) :   0.7865
B(  9-O , 10-H ) :   0.8364 B(  9-O , 11-H ) :   0.8202 B( 12-O , 13-H ) :   0.8522
B( 12-O , 14-H ) :   0.8415 B( 15-O , 16-H ) :   0.8415 B( 15-O , 17-H ) :   0.8246
B( 18-O , 19-H ) :   0.8133 B( 18-O , 20-H ) :   0.8604

MP2 TOTAL ENERGY:     -534.235357886 Eh
FINAL SINGLE POINT ENERGY      -534.235357886085

DIPOLE MOMENT
-------------
                                X             Y             Z
Electronic contribution:     -0.20121      -0.02980      -0.11566
Nuclear contribution   :     -0.45394      -0.45439      -1.86312
                        -----------------------------------------
Total Dipole Moment    :     -0.65515      -0.48419      -1.97878
                        -----------------------------------------
Magnitude (a.u.)       :      2.13992
Magnitude (Debye)      :      5.43924

Rotational constants in cm-1:     0.035322     0.023362     0.018327
Rotational constants in MHz :  1058.937339   700.366439   549.434433

                             ****ORCA TERMINATED NORMALLY****
TOTAL RUN TIME: 0 days 0 hours 1 minutes 37 seconds 950 msec
