                         Program Version 4.2.0 -  RELEASE  -
|  1> # 12h2o.su.etal.mol2,4,8,9,11
|  2> ! MP2 def2-TZVP EnGrad TightSCF
|  3>
|  4> %pal
|  5>     nprocs 6
|  6> end
|  7>
|  8> %maxcore 8000
|  9>
| 10> %scf
| 11>     ConvForced true
| 12> end
| 13>
| 14> *xyz 0 1
| 15> O   0.923410000  -1.794470000  -2.768350000
| 16> H   1.359750000  -2.338250000  -3.430940000
| 17> H   1.303000000  -0.879480000  -2.865760000
| 18> O  -0.885520000   1.737840000   0.052730000
| 19> H  -1.032320000   2.090180000  -0.841890000
| 20> H  -1.284090000   0.839590000   0.017130000
| 21> O   1.752130000   0.741530000  -2.896280000
| 22> H   2.036450000   0.920500000  -1.984040000
| 23> H   0.921210000   1.242140000  -2.984230000
| 24> O   0.741530000  -1.752130000   2.896280000
| 25> H   0.920500000  -2.036450000   1.984040000
| 26> H   1.242140000  -0.921210000   2.984230000
| 27> O  -0.741530000   1.752130000   2.896280000
| 28> H  -0.920500000   2.036450000   1.984040000
| 29> H  -1.242140000   0.921210000   2.984230000
| 30> *
| 31>
| 32>                          ****END OF INPUT****

CARTESIAN COORDINATES (ANGSTROEM)
---------------------------------
  O      0.923410   -1.794470   -2.768350
  H      1.359750   -2.338250   -3.430940
  H      1.303000   -0.879480   -2.865760
  O     -0.885520    1.737840    0.052730
  H     -1.032320    2.090180   -0.841890
  H     -1.284090    0.839590    0.017130
  O      1.752130    0.741530   -2.896280
  H      2.036450    0.920500   -1.984040
  H      0.921210    1.242140   -2.984230
  O      0.741530   -1.752130    2.896280
  H      0.920500   -2.036450    1.984040
  H      1.242140   -0.921210    2.984230
  O     -0.741530    1.752130    2.896280
  H     -0.920500    2.036450    1.984040
  H     -1.242140    0.921210    2.984230

 Total Charge           Charge          ....    0
 Multiplicity           Mult            ....    1
 Number of Electrons    NEL             ....   50
 Basis Dimension        Dim             ....  215

ORBITAL ENERGIES
----------------

  NO   OCC          E(Eh)            E(eV)
   0   2.0000     -20.611071      -560.8557
   1   2.0000     -20.605951      -560.7164
   2   2.0000     -20.557829      -559.4070
   3   2.0000     -20.537182      -558.8451
   4   2.0000     -20.530530      -558.6641
   5   2.0000      -1.396260       -37.9942
   6   2.0000      -1.384116       -37.6637
   7   2.0000      -1.337044       -36.3828
   8   2.0000      -1.318975       -35.8911
   9   2.0000      -1.312938       -35.7268
  10   2.0000      -0.753816       -20.5124
  11   2.0000      -0.746424       -20.3112
  12   2.0000      -0.704192       -19.1620
  13   2.0000      -0.699634       -19.0380
  14   2.0000      -0.689563       -18.7640
  15   2.0000      -0.630896       -17.1676
  16   2.0000      -0.622848       -16.9486
  17   2.0000      -0.574956       -15.6454
  18   2.0000      -0.571296       -15.5458
  19   2.0000      -0.560203       -15.2439
  20   2.0000      -0.543849       -14.7989
  21   2.0000      -0.527627       -14.3575
  22   2.0000      -0.502632       -13.6773
  23   2.0000      -0.483020       -13.1436
  24   2.0000      -0.480991       -13.0884
  25   0.0000       0.068736         1.8704
  26   0.0000       0.117592         3.1998
  27   0.0000       0.135667         3.6917
  28   0.0000       0.163353         4.4451
  29   0.0000       0.170047         4.6272

MULLIKEN ATOMIC CHARGES
-----------------------
   0 O :   -0.736036
   1 H :    0.330186
   2 H :    0.363136
   3 O :   -0.692640
   4 H :    0.342439
   5 H :    0.355765
   6 O :   -0.671861
   7 H :    0.363379
   8 H :    0.349455
   9 O :   -0.684671
  10 H :    0.338214
  11 H :    0.345606
  12 O :   -0.698539
  13 H :    0.366791
  14 H :    0.328776
Sum of atomic charges:    0.0000000

LOEWDIN ATOMIC CHARGES
----------------------
   0 O :   -0.374066
   1 H :    0.150781
   2 H :    0.140850
   3 O :   -0.317025
   4 H :    0.166237
   5 H :    0.179880
   6 O :   -0.267331
   7 H :    0.176481
   8 H :    0.171644
   9 O :   -0.333862
  10 H :    0.165379
  11 H :    0.168074
  12 O :   -0.338708
  13 H :    0.151690
  14 H :    0.159979

  Mayer bond orders larger than 0.100000
B(  0-O ,  1-H ) :   0.8582 B(  0-O ,  2-H ) :   0.7898 B(  3-O ,  4-H ) :   0.8456
B(  3-O ,  5-H ) :   0.8348 B(  6-O ,  7-H ) :   0.8332 B(  6-O ,  8-H ) :   0.8413
B(  9-O , 10-H ) :   0.8521 B(  9-O , 11-H ) :   0.8441 B( 12-O , 13-H ) :   0.8250
B( 12-O , 14-H ) :   0.8547

MP2 TOTAL ENERGY:     -381.581240060 Eh
FINAL SINGLE POINT ENERGY      -381.581240060064

DIPOLE MOMENT
-------------
                                X             Y             Z
Electronic contribution:      0.13768       0.25012       0.19923
Nuclear contribution   :     -0.22976       0.42024      -2.09298
                        -----------------------------------------
Total Dipole Moment    :     -0.09209       0.67036      -1.89375
                        -----------------------------------------
Magnitude (a.u.)       :      2.01101
Magnitude (Debye)      :      5.11157

Rotational constants in cm-1:     0.060637     0.025249     0.019210
Rotational constants in MHz :  1817.865353   756.955166   575.897909

                             ****ORCA TERMINATED NORMALLY****
TOTAL RUN TIME: 0 days 0 hours 0 minutes 30 seconds 438 msec
