                         Program Version 4.2.0 -  RELEASE  -
|  1> # 12h2o.su.etal.mol4,5,6,7,11
|  2> ! MP2 def2-TZVP EnGrad TightSCF
|  3>
|  4> %pal
|  5>     nprocs 6
|  6> end
|  7>
|  8> %maxcore 8000
|  9>
| 10> %scf
| 11>     ConvForced true
| 12> end
| 13>
| 14> *xyz 0 1
| 15> O  -0.885520000   1.737840000   0.052730000
| 16> H  -1.032320000   2.090180000  -0.841890000
| 17> H  -1.284090000   0.839590000   0.017130000
| 18> O   0.885520000  -1.737840000   0.052730000
| 19> H   1.284090000  -0.839590000   0.017130000
| 20> H   1.032320000  -2.090180000  -0.841890000
| 21> O   1.737840000   0.885520000  -0.052730000
| 22> H   2.090180000   1.032320000   0.841890000
| 23> H   0.839590000   1.284090000  -0.017130000
| 24> O  -1.737840000  -0.885520000  -0.052730000
| 25> H  -2.090180000  -1.032320000   0.841890000
| 26> H  -0.839590000  -1.284090000  -0.017130000
| 27> O  -0.741530000   1.752130000   2.896280000
| 28> H  -0.920500000   2.036450000   1.984040000
| 29> H  -1.242140000   0.921210000   2.984230000
| 30> *
| 31>
| 32>                          ****END OF INPUT****

CARTESIAN COORDINATES (ANGSTROEM)
---------------------------------
  O     -0.885520    1.737840    0.052730
  H     -1.032320    2.090180   -0.841890
  H     -1.284090    0.839590    0.017130
  O      0.885520   -1.737840    0.052730
  H      1.284090   -0.839590    0.017130
  H      1.032320   -2.090180   -0.841890
  O      1.737840    0.885520   -0.052730
  H      2.090180    1.032320    0.841890
  H      0.839590    1.284090   -0.017130
  O     -1.737840   -0.885520   -0.052730
  H     -2.090180   -1.032320    0.841890
  H     -0.839590   -1.284090   -0.017130
  O     -0.741530    1.752130    2.896280
  H     -0.920500    2.036450    1.984040
  H     -1.242140    0.921210    2.984230

 Total Charge           Charge          ....    0
 Multiplicity           Mult            ....    1
 Number of Electrons    NEL             ....   50
 Basis Dimension        Dim             ....  215

ORBITAL ENERGIES
----------------

  NO   OCC          E(Eh)            E(eV)
   0   2.0000     -20.588051      -560.2294
   1   2.0000     -20.576749      -559.9218
   2   2.0000     -20.568257      -559.6907
   3   2.0000     -20.566878      -559.6532
   4   2.0000     -20.546511      -559.0990
   5   2.0000      -1.382921       -37.6312
   6   2.0000      -1.363643       -37.1066
   7   2.0000      -1.356472       -36.9115
   8   2.0000      -1.341285       -36.4982
   9   2.0000      -1.328082       -36.1389
  10   2.0000      -0.742734       -20.2108
  11   2.0000      -0.728876       -19.8337
  12   2.0000      -0.720277       -19.5997
  13   2.0000      -0.720008       -19.5924
  14   2.0000      -0.698287       -19.0014
  15   2.0000      -0.636394       -17.3172
  16   2.0000      -0.610421       -16.6104
  17   2.0000      -0.603183       -16.4134
  18   2.0000      -0.582488       -15.8503
  19   2.0000      -0.562256       -15.2998
  20   2.0000      -0.530290       -14.4299
  21   2.0000      -0.522082       -14.2066
  22   2.0000      -0.514410       -13.9978
  23   2.0000      -0.509634       -13.8678
  24   2.0000      -0.492667       -13.4062
  25   0.0000       0.096317         2.6209
  26   0.0000       0.138949         3.7810
  27   0.0000       0.147517         4.0141
  28   0.0000       0.165309         4.4983
  29   0.0000       0.205163         5.5828

MULLIKEN ATOMIC CHARGES
-----------------------
   0 O :   -0.739995
   1 H :    0.361653
   2 H :    0.365927
   3 O :   -0.718025
   4 H :    0.370636
   5 H :    0.350038
   6 O :   -0.719608
   7 H :    0.357853
   8 H :    0.370058
   9 O :   -0.712976
  10 H :    0.344476
  11 H :    0.372390
  12 O :   -0.691123
  13 H :    0.372279
  14 H :    0.316417
Sum of atomic charges:    0.0000000

LOEWDIN ATOMIC CHARGES
----------------------
   0 O :   -0.297078
   1 H :    0.172440
   2 H :    0.144893
   3 O :   -0.310861
   4 H :    0.145464
   5 H :    0.167416
   6 O :   -0.309613
   7 H :    0.170523
   8 H :    0.144118
   9 O :   -0.308393
  10 H :    0.163938
  11 H :    0.146121
  12 O :   -0.336792
  13 H :    0.151544
  14 H :    0.156279

  Mayer bond orders larger than 0.100000
B(  0-O ,  1-H ) :   0.8334 B(  0-O ,  2-H ) :   0.7502 B(  2-H ,  9-O ) :   0.1172
B(  3-O ,  4-H ) :   0.7627 B(  3-O ,  5-H ) :   0.8421 B(  3-O , 11-H ) :   0.1155
B(  4-H ,  6-O ) :   0.1108 B(  6-O ,  7-H ) :   0.8367 B(  6-O ,  8-H ) :   0.7755
B(  9-O , 10-H ) :   0.8449 B(  9-O , 11-H ) :   0.7583 B( 12-O , 13-H ) :   0.8193
B( 12-O , 14-H ) :   0.8636

MP2 TOTAL ENERGY:     -381.617125042 Eh
FINAL SINGLE POINT ENERGY      -381.617125042232

DIPOLE MOMENT
-------------
                                X             Y             Z
Electronic contribution:      0.14586       0.08071      -0.05091
Nuclear contribution   :     -0.56566      -0.45497      -0.68611
                        -----------------------------------------
Total Dipole Moment    :     -0.41980      -0.37426      -0.73702
                        -----------------------------------------
Magnitude (a.u.)       :      0.92709
Magnitude (Debye)      :      2.35648

Rotational constants in cm-1:     0.080791     0.054338     0.044639
Rotational constants in MHz :  2422.043036  1629.024717  1338.239827

                             ****ORCA TERMINATED NORMALLY****
TOTAL RUN TIME: 0 days 0 hours 0 minutes 38 seconds 591 msec
