                         Program Version 3.0.3 - RELEASE   -
|  1> ! B3LYP Def2-TZVP def2-TZVP/J RIJCOSX TightSCF Grid4 D3BJ
|  2>
|  3> %pal nprocs 12 end
|  4>
|  5> %scf
|  6>         maxiter 400
|  7> end
|  8>
|  9> * xyz  0  1
| 10> O  2.457257	2.397426	-0.267372
| 11> H  3.017986	3.181022	-0.204139
| 12> H  1.562206	2.705308	-0.626310
| 13> O  -0.004265	-1.132195	3.009743
| 14> H  0.534598	-0.395356	2.650859
| 15> H  -0.929761	-0.808062	2.932240
| 16> O  0.230509	0.997770	-3.181232
| 17> H  1.152565	0.728158	-2.858862
| 18> H  0.290968	1.089486	-4.141043
| 19> O  -2.536983	-0.402347	2.216348
| 20> H  -2.638598	-1.125322	1.514406
| 21> H  -3.366518	-0.387810	2.711862
| 22> O  2.517790	0.346076	-2.122132
| 23> H  2.305056	-0.423938	-1.551825
| 24> H  2.695571	1.072781	-1.486019
| 25> O  1.239904	-1.326839	-0.401033
| 26> H  0.362901	-1.124132	-0.832840
| 27> H  1.037457	-2.138383	0.114826
| 28> O  1.099843	0.707888	1.319297
| 29> H  1.738187	1.388078	1.007364
| 30> H  1.244971	-0.063087	0.704513
| 31> O  -1.111539	-0.594207	-1.400346
| 32> H  -0.844185	-0.140031	-2.230426
| 33> H  -1.278590	0.148954	-0.758864
| 34> O  -2.552884	-2.238477	0.342879
| 35> H  -2.269362	-1.784753	-0.478255
| 36> H  -1.735335	-2.714575	0.614464
| 37> O  -0.068813	-3.019093	1.236365
| 38> H  -0.014969	-2.334922	1.984010
| 39> H  0.130715	-3.871690	1.646390
| 40> O  -1.353287	1.301129	0.454200
| 41> H  -0.454320	1.142824	0.853547
| 42> H  -1.975497	0.921760	1.112839
| 43> O  0.092668	2.932261	-1.218857
| 44> H  -0.614553	2.585778	-0.636924
| 45> H  0.038316	2.378516	-2.029672
| 46> **                         ****END OF INPUT****

CARTESIAN COORDINATES (ANGSTROEM)
---------------------------------
  O      2.457257    2.397426   -0.267372
  H      3.017986    3.181022   -0.204139
  H      1.562206    2.705308   -0.626310
  O     -0.004265   -1.132195    3.009743
  H      0.534598   -0.395356    2.650859
  H     -0.929761   -0.808062    2.932240
  O      0.230509    0.997770   -3.181232
  H      1.152565    0.728158   -2.858862
  H      0.290968    1.089486   -4.141043
  O     -2.536983   -0.402347    2.216348
  H     -2.638598   -1.125322    1.514406
  H     -3.366518   -0.387810    2.711862
  O      2.517790    0.346076   -2.122132
  H      2.305056   -0.423938   -1.551825
  H      2.695571    1.072781   -1.486019
  O      1.239904   -1.326839   -0.401033
  H      0.362901   -1.124132   -0.832840
  H      1.037457   -2.138383    0.114826
  O      1.099843    0.707888    1.319297
  H      1.738187    1.388078    1.007364
  H      1.244971   -0.063087    0.704513
  O     -1.111539   -0.594207   -1.400346
  H     -0.844185   -0.140031   -2.230426
  H     -1.278590    0.148954   -0.758864
  O     -2.552884   -2.238477    0.342879
  H     -2.269362   -1.784753   -0.478255
  H     -1.735335   -2.714575    0.614464
  O     -0.068813   -3.019093    1.236365
  H     -0.014969   -2.334922    1.984010
  H      0.130715   -3.871690    1.646390
  O     -1.353287    1.301129    0.454200
  H     -0.454320    1.142824    0.853547
  H     -1.975497    0.921760    1.112839
  O      0.092668    2.932261   -1.218857
  H     -0.614553    2.585778   -0.636924
  H      0.038316    2.378516   -2.029672

 Total Charge           Charge          ....    0
 Multiplicity           Mult            ....    1
 Number of Electrons    NEL             ....  120
 Basis Dimension        Dim             ....  516

ORBITAL ENERGIES
----------------

  NO   OCC          E(Eh)            E(eV)
   0   2.0000     -19.142835      -520.9030
   1   2.0000     -19.140592      -520.8420
   2   2.0000     -19.139434      -520.8105
   3   2.0000     -19.138730      -520.7913
   4   2.0000     -19.125068      -520.4196
   5   2.0000     -19.124889      -520.4147
   6   2.0000     -19.124523      -520.4047
   7   2.0000     -19.123879      -520.3872
   8   2.0000     -19.122115      -520.3392
   9   2.0000     -19.121541      -520.3236
  10   2.0000     -19.121422      -520.3204
  11   2.0000     -19.119183      -520.2594
  12   2.0000      -1.040012       -28.3002
  13   2.0000      -1.032353       -28.0917
  14   2.0000      -1.025743       -27.9119
  15   2.0000      -1.024405       -27.8755
  16   2.0000      -1.019954       -27.7544
  17   2.0000      -1.011281       -27.5184
  18   2.0000      -1.011026       -27.5114
  19   2.0000      -1.001433       -27.2504
  20   2.0000      -0.999444       -27.1963
  21   2.0000      -0.998623       -27.1739
  22   2.0000      -0.994766       -27.0690
  23   2.0000      -0.983261       -26.7559
  24   2.0000      -0.558881       -15.2079
  25   2.0000      -0.554173       -15.0798
  26   2.0000      -0.552078       -15.0228
  27   2.0000      -0.549502       -14.9527
  28   2.0000      -0.542612       -14.7652
  29   2.0000      -0.538248       -14.6465
  30   2.0000      -0.535539       -14.5728
  31   2.0000      -0.534341       -14.5402
  32   2.0000      -0.521285       -14.1849
  33   2.0000      -0.516032       -14.0419
  34   2.0000      -0.514542       -14.0014
  35   2.0000      -0.513598       -13.9757
  36   2.0000      -0.474642       -12.9157
  37   2.0000      -0.446911       -12.1611
  38   2.0000      -0.434728       -11.8296
  39   2.0000      -0.433251       -11.7894
  40   2.0000      -0.411404       -11.1949
  41   2.0000      -0.409891       -11.1537
  42   2.0000      -0.407952       -11.1009
  43   2.0000      -0.404046       -10.9947
  44   2.0000      -0.384154       -10.4534
  45   2.0000      -0.381024       -10.3682
  46   2.0000      -0.376267       -10.2388
  47   2.0000      -0.352681        -9.5969
  48   2.0000      -0.337357        -9.1799
  49   2.0000      -0.336263        -9.1502
  50   2.0000      -0.334426        -9.1002
  51   2.0000      -0.333964        -9.0876
  52   2.0000      -0.324532        -8.8310
  53   2.0000      -0.323057        -8.7908
  54   2.0000      -0.322844        -8.7850
  55   2.0000      -0.319676        -8.6988
  56   2.0000      -0.318298        -8.6613
  57   2.0000      -0.316236        -8.6052
  58   2.0000      -0.315152        -8.5757
  59   2.0000      -0.313750        -8.5376
  60   0.0000       0.001634         0.0445
  61   0.0000       0.018861         0.5132
  62   0.0000       0.031802         0.8654
  63   0.0000       0.032176         0.8755
  64   0.0000       0.072920         1.9843

MULLIKEN ATOMIC CHARGES
-----------------------
   0 O :   -0.724199
   1 H :    0.330722
   2 H :    0.376147
   3 O :   -0.683175
   4 H :    0.370996
   5 H :    0.356432
   6 O :   -0.727287
   7 H :    0.370726
   8 H :    0.331138
   9 O :   -0.724271
  10 H :    0.366768
  11 H :    0.332251
  12 O :   -0.687719
  13 H :    0.372723
  14 H :    0.354822
  15 O :   -0.733345
  16 H :    0.359742
  17 H :    0.358059
  18 O :   -0.740022
  19 H :    0.365282
  20 H :    0.354686
  21 O :   -0.732099
  22 H :    0.362414
  23 H :    0.355531
  24 O :   -0.678600
  25 H :    0.365556
  26 H :    0.354746
  27 O :   -0.725270
  28 H :    0.366763
  29 H :    0.330293
  30 O :   -0.732780
  31 H :    0.361983
  32 H :    0.357592
  33 O :   -0.693748
  34 H :    0.371898
  35 H :    0.355244
Sum of atomic charges:   -0.0000000

LOEWDIN ATOMIC CHARGES
----------------------
   0 O :   -0.297051
   1 H :    0.157217
   2 H :    0.140174
   3 O :   -0.268429
   4 H :    0.147319
   5 H :    0.141406
   6 O :   -0.302583
   7 H :    0.138878
   8 H :    0.156907
   9 O :   -0.297527
  10 H :    0.141655
  11 H :    0.157840
  12 O :   -0.271619
  13 H :    0.147231
  14 H :    0.140191
  15 O :   -0.289065
  16 H :    0.132464
  17 H :    0.142484
  18 O :   -0.289228
  19 H :    0.142527
  20 H :    0.131346
  21 O :   -0.289834
  22 H :    0.144219
  23 H :    0.129892
  24 O :   -0.275377
  25 H :    0.151595
  26 H :    0.141242
  27 O :   -0.297860
  28 H :    0.135970
  29 H :    0.156539
  30 O :   -0.291173
  31 H :    0.132387
  32 H :    0.141626
  33 O :   -0.272199
  34 H :    0.149479
  35 H :    0.141357

  Mayer bond orders larger than 0.1
B(  0-O ,  1-H ) :   0.8907 B(  0-O ,  2-H ) :   0.7373 B(  2-H , 33-O ) :   0.1641
B(  3-O ,  4-H ) :   0.8262 B(  3-O ,  5-H ) :   0.8292 B(  3-O , 28-H ) :   0.1858
B(  6-O ,  7-H ) :   0.7320 B(  6-O ,  8-H ) :   0.8911 B(  7-H , 12-O ) :   0.1783
B(  9-O , 10-H ) :   0.7347 B(  9-O , 11-H ) :   0.8903 B( 10-H , 24-O ) :   0.1792
B( 12-O , 13-H ) :   0.8270 B( 12-O , 14-H ) :   0.8288 B( 15-O , 16-H ) :   0.7671
B( 15-O , 17-H ) :   0.8214 B( 15-O , 20-H ) :   0.1457 B( 16-H , 21-O ) :   0.1508
B( 18-O , 19-H ) :   0.8146 B( 18-O , 20-H ) :   0.7700 B( 18-O , 31-H ) :   0.1375
B( 21-O , 22-H ) :   0.8247 B( 21-O , 23-H ) :   0.7709 B( 23-H , 30-O ) :   0.1449
B( 24-O , 25-H ) :   0.8401 B( 24-O , 26-H ) :   0.8284 B( 27-O , 28-H ) :   0.7271
B( 27-O , 29-H ) :   0.8918 B( 30-O , 31-H ) :   0.7738 B( 30-O , 32-H ) :   0.8222
B( 33-O , 34-H ) :   0.8308 B( 33-O , 35-H ) :   0.8241

Dispersion correction           -0.043196652
FINAL SINGLE POINT ENERGY      -917.344422160329

DIPOLE MOMENT
-------------
                                X             Y             Z
Electronic contribution:      0.00416      -0.00672       0.02357
Nuclear contribution   :     -0.02546       0.07643       0.03032
                        -----------------------------------------
Total Dipole Moment    :     -0.02130       0.06971       0.05389
                        -----------------------------------------
Magnitude (a.u.)       :      0.09065
Magnitude (Debye)      :      0.23040

                             ****ORCA TERMINATED NORMALLY****
TOTAL RUN TIME: 0 days 0 hours 1 minutes 30 seconds 328 msec
