                         Program Version 3.0.3 - RELEASE   -
|  1> ! wB97X-D3 MA-Def2-TZVP def2-TZVP/J RIJCOSX TightSCF Grid4
|  2>
|  3> %pal nprocs 1 end
|  4>
|  5> %scf
|  6>         maxiter 400
|  7> end
|  8>
|  9> * xyz  0  1
| 10> O  2.457257	2.397426	-0.267372
| 11> H  3.017986	3.181022	-0.204139
| 12> H  1.562206	2.705308	-0.626310
| 13> O  -0.004265	-1.132195	3.009743
| 14> H  0.534598	-0.395356	2.650859
| 15> H  -0.929761	-0.808062	2.932240
| 16> O  0.230509	0.997770	-3.181232
| 17> H  1.152565	0.728158	-2.858862
| 18> H  0.290968	1.089486	-4.141043
| 19> O  -2.536983	-0.402347	2.216348
| 20> H  -2.638598	-1.125322	1.514406
| 21> H  -3.366518	-0.387810	2.711862
| 22> O  2.517790	0.346076	-2.122132
| 23> H  2.305056	-0.423938	-1.551825
| 24> H  2.695571	1.072781	-1.486019
| 25> O  1.239904	-1.326839	-0.401033
| 26> H  0.362901	-1.124132	-0.832840
| 27> H  1.037457	-2.138383	0.114826
| 28> O  1.099843	0.707888	1.319297
| 29> H  1.738187	1.388078	1.007364
| 30> H  1.244971	-0.063087	0.704513
| 31> O  -1.111539	-0.594207	-1.400346
| 32> H  -0.844185	-0.140031	-2.230426
| 33> H  -1.278590	0.148954	-0.758864
| 34> O  -2.552884	-2.238477	0.342879
| 35> H  -2.269362	-1.784753	-0.478255
| 36> H  -1.735335	-2.714575	0.614464
| 37> O  -0.068813	-3.019093	1.236365
| 38> H  -0.014969	-2.334922	1.984010
| 39> H  0.130715	-3.871690	1.646390
| 40> O  -1.353287	1.301129	0.454200
| 41> H  -0.454320	1.142824	0.853547
| 42> H  -1.975497	0.921760	1.112839
| 43> O  0.092668	2.932261	-1.218857
| 44> H  -0.614553	2.585778	-0.636924
| 45> H  0.038316	2.378516	-2.029672
| 46> **                         ****END OF INPUT****

CARTESIAN COORDINATES (ANGSTROEM)
---------------------------------
  O      2.457257    2.397426   -0.267372
  H      3.017986    3.181022   -0.204139
  H      1.562206    2.705308   -0.626310
  O     -0.004265   -1.132195    3.009743
  H      0.534598   -0.395356    2.650859
  H     -0.929761   -0.808062    2.932240
  O      0.230509    0.997770   -3.181232
  H      1.152565    0.728158   -2.858862
  H      0.290968    1.089486   -4.141043
  O     -2.536983   -0.402347    2.216348
  H     -2.638598   -1.125322    1.514406
  H     -3.366518   -0.387810    2.711862
  O      2.517790    0.346076   -2.122132
  H      2.305056   -0.423938   -1.551825
  H      2.695571    1.072781   -1.486019
  O      1.239904   -1.326839   -0.401033
  H      0.362901   -1.124132   -0.832840
  H      1.037457   -2.138383    0.114826
  O      1.099843    0.707888    1.319297
  H      1.738187    1.388078    1.007364
  H      1.244971   -0.063087    0.704513
  O     -1.111539   -0.594207   -1.400346
  H     -0.844185   -0.140031   -2.230426
  H     -1.278590    0.148954   -0.758864
  O     -2.552884   -2.238477    0.342879
  H     -2.269362   -1.784753   -0.478255
  H     -1.735335   -2.714575    0.614464
  O     -0.068813   -3.019093    1.236365
  H     -0.014969   -2.334922    1.984010
  H      0.130715   -3.871690    1.646390
  O     -1.353287    1.301129    0.454200
  H     -0.454320    1.142824    0.853547
  H     -1.975497    0.921760    1.112839
  O      0.092668    2.932261   -1.218857
  H     -0.614553    2.585778   -0.636924
  H      0.038316    2.378516   -2.029672

 Total Charge           Charge          ....    0
 Multiplicity           Mult            ....    1
 Number of Electrons    NEL             ....  120
 Basis Dimension        Dim             ....  564

ORBITAL ENERGIES
----------------

  NO   OCC          E(Eh)            E(eV)
   0   2.0000     -19.253481      -523.9139
   1   2.0000     -19.251071      -523.8483
   2   2.0000     -19.249927      -523.8171
   3   2.0000     -19.249429      -523.8036
   4   2.0000     -19.236073      -523.4402
   5   2.0000     -19.235841      -523.4338
   6   2.0000     -19.235472      -523.4238
   7   2.0000     -19.234764      -523.4045
   8   2.0000     -19.233401      -523.3674
   9   2.0000     -19.232418      -523.3407
  10   2.0000     -19.231999      -523.3293
  11   2.0000     -19.230066      -523.2767
  12   2.0000      -1.158828       -31.5333
  13   2.0000      -1.150581       -31.3089
  14   2.0000      -1.143694       -31.1215
  15   2.0000      -1.142407       -31.0865
  16   2.0000      -1.137929       -30.9646
  17   2.0000      -1.129325       -30.7305
  18   2.0000      -1.128959       -30.7205
  19   2.0000      -1.119203       -30.4551
  20   2.0000      -1.116998       -30.3951
  21   2.0000      -1.116287       -30.3757
  22   2.0000      -1.112216       -30.2649
  23   2.0000      -1.100518       -29.9466
  24   2.0000      -0.665187       -18.1007
  25   2.0000      -0.660133       -17.9631
  26   2.0000      -0.658088       -17.9075
  27   2.0000      -0.655051       -17.8248
  28   2.0000      -0.649726       -17.6799
  29   2.0000      -0.644414       -17.5354
  30   2.0000      -0.641512       -17.4564
  31   2.0000      -0.640269       -17.4226
  32   2.0000      -0.626887       -17.0585
  33   2.0000      -0.620948       -16.8968
  34   2.0000      -0.619515       -16.8579
  35   2.0000      -0.618665       -16.8347
  36   2.0000      -0.583661       -15.8822
  37   2.0000      -0.552693       -15.0396
  38   2.0000      -0.540176       -14.6989
  39   2.0000      -0.538756       -14.6603
  40   2.0000      -0.514906       -14.0113
  41   2.0000      -0.512820       -13.9546
  42   2.0000      -0.511512       -13.9190
  43   2.0000      -0.508740       -13.8435
  44   2.0000      -0.486483       -13.2379
  45   2.0000      -0.483214       -13.1489
  46   2.0000      -0.479144       -13.0382
  47   2.0000      -0.453584       -12.3427
  48   2.0000      -0.438356       -11.9283
  49   2.0000      -0.437330       -11.9003
  50   2.0000      -0.435201       -11.8424
  51   2.0000      -0.434845       -11.8327
  52   2.0000      -0.425815       -11.5870
  53   2.0000      -0.423955       -11.5364
  54   2.0000      -0.423720       -11.5300
  55   2.0000      -0.421031       -11.4568
  56   2.0000      -0.419505       -11.4153
  57   2.0000      -0.417184       -11.3521
  58   2.0000      -0.416270       -11.3273
  59   2.0000      -0.414570       -11.2810
  60   0.0000       0.053572         1.4578
  61   0.0000       0.066637         1.8133
  62   0.0000       0.077311         2.1037
  63   0.0000       0.077726         2.1150
  64   0.0000       0.108239         2.9453

MULLIKEN ATOMIC CHARGES
-----------------------
   0 O :   -0.806200
   1 H :    0.358786
   2 H :    0.424389
   3 O :   -0.760888
   4 H :    0.412862
   5 H :    0.407727
   6 O :   -0.823477
   7 H :    0.421214
   8 H :    0.358842
   9 O :   -0.833633
  10 H :    0.416852
  11 H :    0.359747
  12 O :   -0.773383
  13 H :    0.415151
  14 H :    0.412438
  15 O :   -0.845936
  16 H :    0.415873
  17 H :    0.408296
  18 O :   -0.857592
  19 H :    0.420385
  20 H :    0.412321
  21 O :   -0.831718
  22 H :    0.412207
  23 H :    0.411139
  24 O :   -0.744820
  25 H :    0.408127
  26 H :    0.402149
  27 O :   -0.816767
  28 H :    0.413255
  29 H :    0.356694
  30 O :   -0.813570
  31 H :    0.420354
  32 H :    0.409176
  33 O :   -0.793266
  34 H :    0.413005
  35 H :    0.410261
Sum of atomic charges:    0.0000000

LOEWDIN ATOMIC CHARGES
----------------------
   0 O :   -0.394722
   1 H :    0.190345
   2 H :    0.191089
   3 O :   -0.356226
   4 H :    0.197376
   5 H :    0.193411
   6 O :   -0.400307
   7 H :    0.189868
   8 H :    0.190231
   9 O :   -0.396361
  10 H :    0.192577
  11 H :    0.191135
  12 O :   -0.359838
  13 H :    0.197219
  14 H :    0.192446
  15 O :   -0.399165
  16 H :    0.188614
  17 H :    0.195837
  18 O :   -0.400217
  19 H :    0.196072
  20 H :    0.187708
  21 O :   -0.398875
  22 H :    0.197806
  23 H :    0.185796
  24 O :   -0.361996
  25 H :    0.200920
  26 H :    0.192832
  27 O :   -0.397038
  28 H :    0.186983
  29 H :    0.190430
  30 O :   -0.399255
  31 H :    0.188419
  32 H :    0.195025
  33 O :   -0.361140
  34 H :    0.199166
  35 H :    0.193833

  Mayer bond orders larger than 0.1
B(  0-O ,  1-H ) :   0.8761 B(  0-O ,  2-H ) :   0.7576 B(  3-O ,  4-H ) :   0.8368
B(  3-O ,  5-H ) :   0.8520 B(  3-O , 28-H ) :   0.1210 B(  6-O ,  7-H ) :   0.7538
B(  6-O ,  8-H ) :   0.8752 B(  7-H , 12-O ) :   0.1036 B(  9-O , 10-H ) :   0.7568
B(  9-O , 11-H ) :   0.8744 B( 10-H , 24-O ) :   0.1052 B( 12-O , 13-H ) :   0.8373
B( 12-O , 14-H ) :   0.8487 B( 15-O , 16-H ) :   0.7982 B( 15-O , 17-H ) :   0.8267
B( 18-O , 19-H ) :   0.8161 B( 18-O , 20-H ) :   0.8043 B( 21-O , 22-H ) :   0.8319
B( 21-O , 23-H ) :   0.8087 B( 24-O , 25-H ) :   0.8485 B( 24-O , 26-H ) :   0.8498
B( 27-O , 28-H ) :   0.7517 B( 27-O , 29-H ) :   0.8777 B( 30-O , 31-H ) :   0.8092
B( 30-O , 32-H ) :   0.8289 B( 33-O , 34-H ) :   0.8369 B( 33-O , 35-H ) :   0.8437

Dispersion correction           -0.022197757
FINAL SINGLE POINT ENERGY      -917.488555684430

DIPOLE MOMENT
-------------
                                X             Y             Z
Electronic contribution:      0.00406      -0.00292       0.02525
Nuclear contribution   :     -0.02546       0.07643       0.03032
                        -----------------------------------------
Total Dipole Moment    :     -0.02141       0.07351       0.05556
                        -----------------------------------------
Magnitude (a.u.)       :      0.09460
Magnitude (Debye)      :      0.24045

                             ****ORCA TERMINATED NORMALLY****
TOTAL RUN TIME: 0 days 0 hours 15 minutes 4 seconds 8 msec
