                         Program Version 3.0.3 - RELEASE   -
|  1> ! wB97X-D3 Def2-TZVP def2-TZVP/J RIJCOSX TightSCF Grid4
|  2>
|  3> %pal nprocs 12 end
|  4>
|  5> %scf
|  6>         maxiter 400
|  7> end
|  8>
|  9> * xyz  0  1
| 10> O  2.279363	2.297839	-0.284430
| 11> H  2.871367	3.061369	-0.157426
| 12> H  1.388663	2.680307	-0.675004
| 13> O  -0.107418	-1.122614	3.087626
| 14> H  0.482500	-0.421884	2.698435
| 15> H  -1.026222	-0.780723	2.895615
| 16> O  0.200515	1.013535	-3.087602
| 17> H  1.155765	0.715447	-2.784522
| 18> H  0.231979	1.095745	-4.058130
| 19> O  -2.496585	-0.336838	2.046678
| 20> H  -2.532603	-1.120239	1.352221
| 21> H  -3.363033	-0.330253	2.492270
| 22> O  2.473108	0.308701	-2.137483
| 23> H  2.224405	-0.472378	-1.572680
| 24> H  2.600587	1.042525	-1.471117
| 25> O  1.174662	-1.374768	-0.460546
| 26> H  0.282165	-1.114766	-0.871780
| 27> H  0.942771	-2.162910	0.109820
| 28> O  1.165336	0.530008	1.364990
| 29> H  1.742669	1.250870	0.979955
| 30> H  1.245195	-0.225200	0.686579
| 31> O  -1.149560	-0.514798	-1.379943
| 32> H  -0.835277	-0.045163	-2.205528
| 33> H  -1.232770	0.236074	-0.697147
| 34> O  -2.398732	-2.217364	0.314790
| 35> H  -2.095857	-1.737076	-0.502766
| 36> H  -1.574065	-2.686790	0.626566
| 37> O  0.017407	-2.974402	1.321296
| 38> H  -0.004878	-2.271951	2.097191
| 39> H  0.263075	-3.823146	1.732016
| 40> O  -1.186279	1.357325	0.478366
| 41> H  -0.290540	1.100572	0.883978
| 42> H  -1.846443	0.955872	1.113834
| 43> O  0.026744	3.036563	-1.264665
| 44> H  -0.613865	2.629320	-0.620330
| 45> H  -0.014143	2.421192	-2.051125
| 46> **                         ****END OF INPUT****

CARTESIAN COORDINATES (ANGSTROEM)
---------------------------------
  O      2.279363    2.297839   -0.284430
  H      2.871367    3.061369   -0.157426
  H      1.388663    2.680307   -0.675004
  O     -0.107418   -1.122614    3.087626
  H      0.482500   -0.421884    2.698435
  H     -1.026222   -0.780723    2.895615
  O      0.200515    1.013535   -3.087602
  H      1.155765    0.715447   -2.784522
  H      0.231979    1.095745   -4.058130
  O     -2.496585   -0.336838    2.046678
  H     -2.532603   -1.120239    1.352221
  H     -3.363033   -0.330253    2.492270
  O      2.473108    0.308701   -2.137483
  H      2.224405   -0.472378   -1.572680
  H      2.600587    1.042525   -1.471117
  O      1.174662   -1.374768   -0.460546
  H      0.282165   -1.114766   -0.871780
  H      0.942771   -2.162910    0.109820
  O      1.165336    0.530008    1.364990
  H      1.742669    1.250870    0.979955
  H      1.245195   -0.225200    0.686579
  O     -1.149560   -0.514798   -1.379943
  H     -0.835277   -0.045163   -2.205528
  H     -1.232770    0.236074   -0.697147
  O     -2.398732   -2.217364    0.314790
  H     -2.095857   -1.737076   -0.502766
  H     -1.574065   -2.686790    0.626566
  O      0.017407   -2.974402    1.321296
  H     -0.004878   -2.271951    2.097191
  H      0.263075   -3.823146    1.732016
  O     -1.186279    1.357325    0.478366
  H     -0.290540    1.100572    0.883978
  H     -1.846443    0.955872    1.113834
  O      0.026744    3.036563   -1.264665
  H     -0.613865    2.629320   -0.620330
  H     -0.014143    2.421192   -2.051125

 Total Charge           Charge          ....    0
 Multiplicity           Mult            ....    1
 Number of Electrons    NEL             ....  120
 Basis Dimension        Dim             ....  516

ORBITAL ENERGIES
----------------

  NO   OCC          E(Eh)            E(eV)
   0   2.0000     -19.249960      -523.8180
   1   2.0000     -19.249632      -523.8091
   2   2.0000     -19.249371      -523.8020
   3   2.0000     -19.249314      -523.8005
   4   2.0000     -19.234880      -523.4077
   5   2.0000     -19.234836      -523.4065
   6   2.0000     -19.234281      -523.3914
   7   2.0000     -19.234105      -523.3866
   8   2.0000     -19.234019      -523.3843
   9   2.0000     -19.233665      -523.3746
  10   2.0000     -19.233581      -523.3724
  11   2.0000     -19.233396      -523.3673
  12   2.0000      -1.157168       -31.4881
  13   2.0000      -1.147773       -31.2325
  14   2.0000      -1.138336       -30.9757
  15   2.0000      -1.138157       -30.9708
  16   2.0000      -1.132852       -30.8265
  17   2.0000      -1.124860       -30.6090
  18   2.0000      -1.124385       -30.5961
  19   2.0000      -1.113276       -30.2938
  20   2.0000      -1.110495       -30.2181
  21   2.0000      -1.109997       -30.2046
  22   2.0000      -1.105817       -30.0908
  23   2.0000      -1.090637       -29.6777
  24   2.0000      -0.656547       -17.8655
  25   2.0000      -0.654447       -17.8084
  26   2.0000      -0.653221       -17.7751
  27   2.0000      -0.652902       -17.7664
  28   2.0000      -0.647136       -17.6095
  29   2.0000      -0.639447       -17.4002
  30   2.0000      -0.637270       -17.3410
  31   2.0000      -0.636673       -17.3248
  32   2.0000      -0.622541       -16.9402
  33   2.0000      -0.618736       -16.8367
  34   2.0000      -0.616661       -16.7802
  35   2.0000      -0.616331       -16.7712
  36   2.0000      -0.590331       -16.0637
  37   2.0000      -0.555558       -15.1175
  38   2.0000      -0.543893       -14.8001
  39   2.0000      -0.542711       -14.7679
  40   2.0000      -0.515734       -14.0338
  41   2.0000      -0.513709       -13.9787
  42   2.0000      -0.513492       -13.9728
  43   2.0000      -0.506482       -13.7821
  44   2.0000      -0.482399       -13.1267
  45   2.0000      -0.481853       -13.1119
  46   2.0000      -0.479513       -13.0482
  47   2.0000      -0.450868       -12.2687
  48   2.0000      -0.434298       -11.8178
  49   2.0000      -0.434069       -11.8116
  50   2.0000      -0.431862       -11.7515
  51   2.0000      -0.431267       -11.7354
  52   2.0000      -0.421644       -11.4735
  53   2.0000      -0.421283       -11.4637
  54   2.0000      -0.418570       -11.3899
  55   2.0000      -0.417498       -11.3607
  56   2.0000      -0.416427       -11.3315
  57   2.0000      -0.416216       -11.3258
  58   2.0000      -0.415284       -11.3004
  59   2.0000      -0.413648       -11.2559
  60   0.0000       0.082157         2.2356
  61   0.0000       0.104161         2.8344
  62   0.0000       0.118985         3.2378
  63   0.0000       0.119194         3.2434
  64   0.0000       0.159877         4.3505

MULLIKEN ATOMIC CHARGES
-----------------------
   0 O :   -0.771241
   1 H :    0.356248
   2 H :    0.370323
   3 O :   -0.691541
   4 H :    0.393539
   5 H :    0.366618
   6 O :   -0.772452
   7 H :    0.371745
   8 H :    0.356212
   9 O :   -0.771969
  10 H :    0.369613
  11 H :    0.355833
  12 O :   -0.692865
  13 H :    0.393176
  14 H :    0.367097
  15 O :   -0.761862
  16 H :    0.353798
  17 H :    0.386186
  18 O :   -0.764542
  19 H :    0.386876
  20 H :    0.353956
  21 O :   -0.765160
  22 H :    0.387310
  23 H :    0.353712
  24 O :   -0.690516
  25 H :    0.393473
  26 H :    0.367556
  27 O :   -0.771714
  28 H :    0.369696
  29 H :    0.355545
  30 O :   -0.761779
  31 H :    0.352550
  32 H :    0.387301
  33 O :   -0.692899
  34 H :    0.393432
  35 H :    0.366744
Sum of atomic charges:   -0.0000000

LOEWDIN ATOMIC CHARGES
----------------------
   0 O :   -0.318248
   1 H :    0.164115
   2 H :    0.145154
   3 O :   -0.270840
   4 H :    0.156331
   5 H :    0.147491
   6 O :   -0.318911
   7 H :    0.144889
   8 H :    0.163930
   9 O :   -0.319281
  10 H :    0.144168
  11 H :    0.163665
  12 O :   -0.271723
  13 H :    0.156237
  14 H :    0.148075
  15 O :   -0.306772
  16 H :    0.137159
  17 H :    0.148961
  18 O :   -0.310736
  19 H :    0.148801
  20 H :    0.136862
  21 O :   -0.310420
  22 H :    0.148572
  23 H :    0.136794
  24 O :   -0.268934
  25 H :    0.156817
  26 H :    0.148331
  27 O :   -0.320200
  28 H :    0.144859
  29 H :    0.163675
  30 O :   -0.306588
  31 H :    0.137262
  32 H :    0.148895
  33 O :   -0.272906
  34 H :    0.156313
  35 H :    0.148201

  Mayer bond orders larger than 0.1
B(  0-O ,  1-H ) :   0.8770 B(  0-O ,  2-H ) :   0.6990 B(  0-O , 19-H ) :   0.1019
B(  2-H , 33-O ) :   0.2169 B(  3-O ,  4-H ) :   0.8144 B(  3-O ,  5-H ) :   0.8133
B(  3-O , 28-H ) :   0.2194 B(  6-O ,  7-H ) :   0.6983 B(  6-O ,  8-H ) :   0.8769
B(  6-O , 22-H ) :   0.1025 B(  7-H , 12-O ) :   0.2163 B(  9-O , 10-H ) :   0.6959
B(  9-O , 11-H ) :   0.8773 B(  9-O , 32-H ) :   0.1034 B( 10-H , 24-O ) :   0.2207
B( 12-O , 13-H ) :   0.8148 B( 12-O , 14-H ) :   0.8133 B( 15-O , 16-H ) :   0.7547
B( 15-O , 17-H ) :   0.7940 B( 15-O , 20-H ) :   0.1673 B( 16-H , 21-O ) :   0.1661
B( 17-H , 27-O ) :   0.1028 B( 18-O , 19-H ) :   0.7939 B( 18-O , 20-H ) :   0.7527
B( 18-O , 31-H ) :   0.1664 B( 21-O , 22-H ) :   0.7933 B( 21-O , 23-H ) :   0.7526
B( 23-H , 30-O ) :   0.1679 B( 24-O , 25-H ) :   0.8145 B( 24-O , 26-H ) :   0.8134
B( 27-O , 28-H ) :   0.6972 B( 27-O , 29-H ) :   0.8775 B( 30-O , 31-H ) :   0.7555
B( 30-O , 32-H ) :   0.7926 B( 33-O , 34-H ) :   0.8146 B( 33-O , 35-H ) :   0.8136

Dispersion correction           -0.022881938
FINAL SINGLE POINT ENERGY      -917.468254099568

DIPOLE MOMENT
-------------
                                X             Y             Z
Electronic contribution:     -0.00332      -0.00039      -0.00243
Nuclear contribution   :      0.00360      -0.00796       0.00231
                        -----------------------------------------
Total Dipole Moment    :      0.00028      -0.00834      -0.00013
                        -----------------------------------------
Magnitude (a.u.)       :      0.00835
Magnitude (Debye)      :      0.02122

                             ****ORCA TERMINATED NORMALLY****
TOTAL RUN TIME: 0 days 0 hours 2 minutes 5 seconds 733 msec
