                         Program Version 3.0.3 - RELEASE   -
|  1> ! B3LYP Def2-TZVP def2-TZVP/J RIJCOSX TightSCF Grid4 D3BJ COSMO
|  2>
|  3> %pal nprocs 12 end
|  4>
|  5> %scf
|  6>         maxiter 400
|  7> end
|  8>
|  9> %cosmo
| 10>         SMD true
| 11>         solvent "WATER"
| 12> end
| 13>
| 14> * xyz  0  1
| 15> O  2.264033	2.275973	-0.300381
| 16> H  2.880956	3.018420	-0.146502
| 17> H  1.405883	2.694270	-0.677358
| 18> O  -0.111497	-1.088162	3.140692
| 19> H  0.471981	-0.412604	2.701754
| 20> H  -1.032224	-0.776807	2.889644
| 21> O  0.205920	1.026943	-3.063739
| 22> H  1.154385	0.726689	-2.810375
| 23> H  0.200188	1.118770	-4.036950
| 24> O  -2.466241	-0.346180	2.042600
| 25> H  -2.545732	-1.121451	1.368453
| 26> H  -3.323078	-0.307986	2.510975
| 27> O  2.533885	0.293625	-2.121666
| 28> H  2.231179	-0.469617	-1.560279
| 29> H  2.601494	1.045033	-1.460442
| 30> O  1.171295	-1.389130	-0.458004
| 31> H  0.284480	-1.119961	-0.871461
| 32> H  0.908637	-2.149509	0.146213
| 33> O  1.177093	0.535381	1.366800
| 34> H  1.722330	1.263323	0.935090
| 35> H  1.245461	-0.221434	0.690724
| 36> O  -1.151888	-0.508956	-1.396847
| 37> H  -0.791094	-0.023842	-2.200997
| 38> H  -1.231626	0.233814	-0.706997
| 39> O  -2.402285	-2.263426	0.281535
| 40> H  -2.081668	-1.746378	-0.505364
| 41> H  -1.561066	-2.683361	0.632158
| 42> O  -0.004395	-2.952331	1.316150
| 43> H  -0.007866	-2.292573	2.106396
| 44> H  0.247768	-3.819081	1.690674
| 45> O  -1.191861	1.358516	0.487055
| 46> H  -0.294091	1.100563	0.883794
| 47> H  -1.838965	0.908390	1.112785
| 48> O  -0.028973	3.063231	-1.295306
| 49> H  -0.624884	2.619277	-0.633180
| 50> H  -0.017530	2.410572	-2.057644
| 51> **                         ****END OF INPUT****

CARTESIAN COORDINATES (ANGSTROEM)
---------------------------------
  O      2.264033    2.275973   -0.300381
  H      2.880956    3.018420   -0.146502
  H      1.405883    2.694270   -0.677358
  O     -0.111497   -1.088162    3.140692
  H      0.471981   -0.412604    2.701754
  H     -1.032224   -0.776807    2.889644
  O      0.205920    1.026943   -3.063739
  H      1.154385    0.726689   -2.810375
  H      0.200188    1.118770   -4.036950
  O     -2.466241   -0.346180    2.042600
  H     -2.545732   -1.121451    1.368453
  H     -3.323078   -0.307986    2.510975
  O      2.533885    0.293625   -2.121666
  H      2.231179   -0.469617   -1.560279
  H      2.601494    1.045033   -1.460442
  O      1.171295   -1.389130   -0.458004
  H      0.284480   -1.119961   -0.871461
  H      0.908637   -2.149509    0.146213
  O      1.177093    0.535381    1.366800
  H      1.722330    1.263323    0.935090
  H      1.245461   -0.221434    0.690724
  O     -1.151888   -0.508956   -1.396847
  H     -0.791094   -0.023842   -2.200997
  H     -1.231626    0.233814   -0.706997
  O     -2.402285   -2.263426    0.281535
  H     -2.081668   -1.746378   -0.505364
  H     -1.561066   -2.683361    0.632158
  O     -0.004395   -2.952331    1.316150
  H     -0.007866   -2.292573    2.106396
  H      0.247768   -3.819081    1.690674
  O     -1.191861    1.358516    0.487055
  H     -0.294091    1.100563    0.883794
  H     -1.838965    0.908390    1.112785
  O     -0.028973    3.063231   -1.295306
  H     -0.624884    2.619277   -0.633180
  H     -0.017530    2.410572   -2.057644

 Total Charge           Charge          ....    0
 Multiplicity           Mult            ....    1
 Number of Electrons    NEL             ....  120
 Basis Dimension        Dim             ....  516

ORBITAL ENERGIES
----------------

  NO   OCC          E(Eh)            E(eV)
   0   2.0000     -19.133143      -520.6393
   1   2.0000     -19.132855      -520.6315
   2   2.0000     -19.132398      -520.6190
   3   2.0000     -19.132117      -520.6114
   4   2.0000     -19.123879      -520.3872
   5   2.0000     -19.123366      -520.3732
   6   2.0000     -19.123185      -520.3683
   7   2.0000     -19.122952      -520.3620
   8   2.0000     -19.122385      -520.3465
   9   2.0000     -19.122201      -520.3415
  10   2.0000     -19.121864      -520.3324
  11   2.0000     -19.121801      -520.3307
  12   2.0000      -1.034138       -28.1403
  13   2.0000      -1.024011       -27.8648
  14   2.0000      -1.014948       -27.6181
  15   2.0000      -1.014865       -27.6159
  16   2.0000      -1.010282       -27.4912
  17   2.0000      -1.004094       -27.3228
  18   2.0000      -1.003256       -27.3000
  19   2.0000      -0.993272       -27.0283
  20   2.0000      -0.990034       -26.9402
  21   2.0000      -0.989886       -26.9362
  22   2.0000      -0.985732       -26.8231
  23   2.0000      -0.970576       -26.4107
  24   2.0000      -0.541688       -14.7401
  25   2.0000      -0.540069       -14.6960
  26   2.0000      -0.538310       -14.6481
  27   2.0000      -0.537986       -14.6393
  28   2.0000      -0.535214       -14.5639
  29   2.0000      -0.526772       -14.3342
  30   2.0000      -0.524978       -14.2854
  31   2.0000      -0.524346       -14.2682
  32   2.0000      -0.512649       -13.9499
  33   2.0000      -0.510139       -13.8816
  34   2.0000      -0.508855       -13.8467
  35   2.0000      -0.508485       -13.8366
  36   2.0000      -0.477233       -12.9862
  37   2.0000      -0.443780       -12.0759
  38   2.0000      -0.437936       -11.9168
  39   2.0000      -0.436533       -11.8787
  40   2.0000      -0.413218       -11.2442
  41   2.0000      -0.407758       -11.0957
  42   2.0000      -0.407072       -11.0770
  43   2.0000      -0.399653       -10.8751
  44   2.0000      -0.379237       -10.3196
  45   2.0000      -0.378553       -10.3009
  46   2.0000      -0.378266       -10.2931
  47   2.0000      -0.353285        -9.6134
  48   2.0000      -0.327901        -8.9226
  49   2.0000      -0.327605        -8.9146
  50   2.0000      -0.325976        -8.8703
  51   2.0000      -0.325413        -8.8549
  52   2.0000      -0.321754        -8.7554
  53   2.0000      -0.321536        -8.7494
  54   2.0000      -0.318547        -8.6681
  55   2.0000      -0.318108        -8.6562
  56   2.0000      -0.317836        -8.6488
  57   2.0000      -0.316739        -8.6189
  58   2.0000      -0.316347        -8.6082
  59   2.0000      -0.314185        -8.5494
  60   0.0000       0.015732         0.4281
  61   0.0000       0.041233         1.1220
  62   0.0000       0.058842         1.6012
  63   0.0000       0.059132         1.6091
  64   0.0000       0.094745         2.5781

MULLIKEN ATOMIC CHARGES
-----------------------
   0 O :   -0.752981
   1 H :    0.388617
   2 H :    0.376346
   3 O :   -0.745906
   4 H :    0.389437
   5 H :    0.375460
   6 O :   -0.753874
   7 H :    0.378189
   8 H :    0.388348
   9 O :   -0.754782
  10 H :    0.376122
  11 H :    0.387515
  12 O :   -0.748916
  13 H :    0.389360
  14 H :    0.376114
  15 O :   -0.780000
  16 H :    0.366856
  17 H :    0.385867
  18 O :   -0.782788
  19 H :    0.386137
  20 H :    0.366867
  21 O :   -0.783382
  22 H :    0.386147
  23 H :    0.367596
  24 O :   -0.743898
  25 H :    0.389139
  26 H :    0.376098
  27 O :   -0.754151
  28 H :    0.375681
  29 H :    0.387529
  30 O :   -0.780178
  31 H :    0.364800
  32 H :    0.386624
  33 O :   -0.749150
  34 H :    0.389407
  35 H :    0.375750
Sum of atomic charges:   -0.0000000

LOEWDIN ATOMIC CHARGES
----------------------
   0 O :   -0.285905
   1 H :    0.188632
   2 H :    0.151082
   3 O :   -0.317522
   4 H :    0.153695
   5 H :    0.148386
   6 O :   -0.286399
   7 H :    0.150912
   8 H :    0.188396
   9 O :   -0.288267
  10 H :    0.149563
  11 H :    0.187499
  12 O :   -0.319465
  13 H :    0.153545
  14 H :    0.148517
  15 O :   -0.320133
  16 H :    0.138468
  17 H :    0.148771
  18 O :   -0.324783
  19 H :    0.148403
  20 H :    0.138467
  21 O :   -0.323948
  22 H :    0.148079
  23 H :    0.138689
  24 O :   -0.314336
  25 H :    0.154151
  26 H :    0.148713
  27 O :   -0.288256
  28 H :    0.150247
  29 H :    0.187714
  30 O :   -0.320048
  31 H :    0.138382
  32 H :    0.148659
  33 O :   -0.321552
  34 H :    0.153213
  35 H :    0.148432

  Mayer bond orders larger than 0.1
B(  0-O ,  1-H ) :   0.8480 B(  0-O ,  2-H ) :   0.7301 B(  0-O , 14-H ) :   0.1181
B(  0-O , 19-H ) :   0.1267 B(  2-H , 33-O ) :   0.1735 B(  3-O ,  4-H ) :   0.8109
B(  3-O ,  5-H ) :   0.7893 B(  3-O , 28-H ) :   0.1789 B(  5-H ,  9-O ) :   0.1206
B(  6-O ,  7-H ) :   0.7295 B(  6-O ,  8-H ) :   0.8481 B(  6-O , 22-H ) :   0.1262
B(  6-O , 35-H ) :   0.1189 B(  7-H , 12-O ) :   0.1722 B(  9-O , 10-H ) :   0.7241
B(  9-O , 11-H ) :   0.8488 B(  9-O , 32-H ) :   0.1277 B( 10-H , 24-O ) :   0.1805
B( 12-O , 13-H ) :   0.8108 B( 12-O , 14-H ) :   0.7905 B( 15-O , 16-H ) :   0.7499
B( 15-O , 17-H ) :   0.7736 B( 15-O , 20-H ) :   0.1616 B( 16-H , 21-O ) :   0.1589
B( 17-H , 27-O ) :   0.1268 B( 18-O , 19-H ) :   0.7736 B( 18-O , 20-H ) :   0.7473
B( 18-O , 31-H ) :   0.1603 B( 21-O , 22-H ) :   0.7741 B( 21-O , 23-H ) :   0.7474
B( 23-H , 30-O ) :   0.1606 B( 24-O , 25-H ) :   0.8111 B( 24-O , 26-H ) :   0.7894
B( 26-H , 27-O ) :   0.1194 B( 27-O , 28-H ) :   0.7261 B( 27-O , 29-H ) :   0.8488
B( 30-O , 31-H ) :   0.7505 B( 30-O , 32-H ) :   0.7724 B( 33-O , 34-H ) :   0.8104
B( 33-O , 35-H ) :   0.7903

Dispersion correction           -0.044703166
FINAL SINGLE POINT ENERGY      -917.367990475275

DIPOLE MOMENT
-------------
                                X             Y             Z
Electronic contribution:     -0.00323      -0.01119      -0.00313
Nuclear contribution   :      0.01227      -0.01369       0.00277
                        -----------------------------------------
Total Dipole Moment    :      0.00905      -0.02489      -0.00036
                        -----------------------------------------
Magnitude (a.u.)       :      0.02648
Magnitude (Debye)      :      0.06731

                             ****ORCA TERMINATED NORMALLY****
TOTAL RUN TIME: 0 days 0 hours 1 minutes 29 seconds 810 msec
