                         Program Version 3.0.3 - RELEASE   -
|  1> ! wB97X-D3 MA-Def2-TZVP def2-TZVP/J RIJCOSX TightSCF Grid4
|  2>
|  3> %pal nprocs 1 end
|  4>
|  5> %scf
|  6>         maxiter 400
|  7> end
|  8>
|  9> %cosmo
| 10>         SMD true
| 11>         solvent "WATER"
| 12> end
| 13>
| 14> * xyz  0  1
| 15> O  2.264033	2.275973	-0.300381
| 16> H  2.880956	3.018420	-0.146502
| 17> H  1.405883	2.694270	-0.677358
| 18> O  -0.111497	-1.088162	3.140692
| 19> H  0.471981	-0.412604	2.701754
| 20> H  -1.032224	-0.776807	2.889644
| 21> O  0.205920	1.026943	-3.063739
| 22> H  1.154385	0.726689	-2.810375
| 23> H  0.200188	1.118770	-4.036950
| 24> O  -2.466241	-0.346180	2.042600
| 25> H  -2.545732	-1.121451	1.368453
| 26> H  -3.323078	-0.307986	2.510975
| 27> O  2.533885	0.293625	-2.121666
| 28> H  2.231179	-0.469617	-1.560279
| 29> H  2.601494	1.045033	-1.460442
| 30> O  1.171295	-1.389130	-0.458004
| 31> H  0.284480	-1.119961	-0.871461
| 32> H  0.908637	-2.149509	0.146213
| 33> O  1.177093	0.535381	1.366800
| 34> H  1.722330	1.263323	0.935090
| 35> H  1.245461	-0.221434	0.690724
| 36> O  -1.151888	-0.508956	-1.396847
| 37> H  -0.791094	-0.023842	-2.200997
| 38> H  -1.231626	0.233814	-0.706997
| 39> O  -2.402285	-2.263426	0.281535
| 40> H  -2.081668	-1.746378	-0.505364
| 41> H  -1.561066	-2.683361	0.632158
| 42> O  -0.004395	-2.952331	1.316150
| 43> H  -0.007866	-2.292573	2.106396
| 44> H  0.247768	-3.819081	1.690674
| 45> O  -1.191861	1.358516	0.487055
| 46> H  -0.294091	1.100563	0.883794
| 47> H  -1.838965	0.908390	1.112785
| 48> O  -0.028973	3.063231	-1.295306
| 49> H  -0.624884	2.619277	-0.633180
| 50> H  -0.017530	2.410572	-2.057644
| 51> **                         ****END OF INPUT****

CARTESIAN COORDINATES (ANGSTROEM)
---------------------------------
  O      2.264033    2.275973   -0.300381
  H      2.880956    3.018420   -0.146502
  H      1.405883    2.694270   -0.677358
  O     -0.111497   -1.088162    3.140692
  H      0.471981   -0.412604    2.701754
  H     -1.032224   -0.776807    2.889644
  O      0.205920    1.026943   -3.063739
  H      1.154385    0.726689   -2.810375
  H      0.200188    1.118770   -4.036950
  O     -2.466241   -0.346180    2.042600
  H     -2.545732   -1.121451    1.368453
  H     -3.323078   -0.307986    2.510975
  O      2.533885    0.293625   -2.121666
  H      2.231179   -0.469617   -1.560279
  H      2.601494    1.045033   -1.460442
  O      1.171295   -1.389130   -0.458004
  H      0.284480   -1.119961   -0.871461
  H      0.908637   -2.149509    0.146213
  O      1.177093    0.535381    1.366800
  H      1.722330    1.263323    0.935090
  H      1.245461   -0.221434    0.690724
  O     -1.151888   -0.508956   -1.396847
  H     -0.791094   -0.023842   -2.200997
  H     -1.231626    0.233814   -0.706997
  O     -2.402285   -2.263426    0.281535
  H     -2.081668   -1.746378   -0.505364
  H     -1.561066   -2.683361    0.632158
  O     -0.004395   -2.952331    1.316150
  H     -0.007866   -2.292573    2.106396
  H      0.247768   -3.819081    1.690674
  O     -1.191861    1.358516    0.487055
  H     -0.294091    1.100563    0.883794
  H     -1.838965    0.908390    1.112785
  O     -0.028973    3.063231   -1.295306
  H     -0.624884    2.619277   -0.633180
  H     -0.017530    2.410572   -2.057644

 Total Charge           Charge          ....    0
 Multiplicity           Mult            ....    1
 Number of Electrons    NEL             ....  120
 Basis Dimension        Dim             ....  564

ORBITAL ENERGIES
----------------

  NO   OCC          E(Eh)            E(eV)
   0   2.0000     -19.243124      -523.6320
   1   2.0000     -19.242848      -523.6245
   2   2.0000     -19.242363      -523.6113
   3   2.0000     -19.242057      -523.6030
   4   2.0000     -19.234862      -523.4072
   5   2.0000     -19.234344      -523.3931
   6   2.0000     -19.234240      -523.3903
   7   2.0000     -19.234022      -523.3843
   8   2.0000     -19.233466      -523.3692
   9   2.0000     -19.233303      -523.3648
  10   2.0000     -19.233038      -523.3576
  11   2.0000     -19.232970      -523.3557
  12   2.0000      -1.153195       -31.3800
  13   2.0000      -1.142293       -31.0834
  14   2.0000      -1.133101       -30.8332
  15   2.0000      -1.133015       -30.8309
  16   2.0000      -1.128409       -30.7056
  17   2.0000      -1.122041       -30.5323
  18   2.0000      -1.121214       -30.5098
  19   2.0000      -1.111099       -30.2345
  20   2.0000      -1.107722       -30.1427
  21   2.0000      -1.107606       -30.1395
  22   2.0000      -1.103077       -30.0163
  23   2.0000      -1.087942       -29.6044
  24   2.0000      -0.647914       -17.6306
  25   2.0000      -0.647619       -17.6226
  26   2.0000      -0.644692       -17.5430
  27   2.0000      -0.644365       -17.5341
  28   2.0000      -0.641487       -17.4557
  29   2.0000      -0.633479       -17.2378
  30   2.0000      -0.630198       -17.1486
  31   2.0000      -0.629593       -17.1321
  32   2.0000      -0.618582       -16.8325
  33   2.0000      -0.615708       -16.7543
  34   2.0000      -0.614295       -16.7158
  35   2.0000      -0.613919       -16.7056
  36   2.0000      -0.586457       -15.9583
  37   2.0000      -0.549541       -14.9538
  38   2.0000      -0.543916       -14.8007
  39   2.0000      -0.542466       -14.7612
  40   2.0000      -0.518824       -14.1179
  41   2.0000      -0.511469       -13.9178
  42   2.0000      -0.510804       -13.8997
  43   2.0000      -0.501864       -13.6564
  44   2.0000      -0.480867       -13.0850
  45   2.0000      -0.480598       -13.0777
  46   2.0000      -0.480090       -13.0639
  47   2.0000      -0.454204       -12.3595
  48   2.0000      -0.428346       -11.6559
  49   2.0000      -0.428040       -11.6476
  50   2.0000      -0.426194       -11.5973
  51   2.0000      -0.425510       -11.5787
  52   2.0000      -0.422317       -11.4918
  53   2.0000      -0.422136       -11.4869
  54   2.0000      -0.418889       -11.3985
  55   2.0000      -0.418512       -11.3883
  56   2.0000      -0.418302       -11.3826
  57   2.0000      -0.416852       -11.3431
  58   2.0000      -0.416588       -11.3359
  59   2.0000      -0.414785       -11.2869
  60   0.0000       0.063548         1.7292
  61   0.0000       0.082643         2.2488
  62   0.0000       0.094573         2.5735
  63   0.0000       0.094602         2.5742
  64   0.0000       0.111565         3.0358

MULLIKEN ATOMIC CHARGES
-----------------------
   0 O :   -0.875411
   1 H :    0.419680
   2 H :    0.436500
   3 O :   -0.822098
   4 H :    0.445894
   5 H :    0.432617
   6 O :   -0.877602
   7 H :    0.439690
   8 H :    0.419672
   9 O :   -0.877066
  10 H :    0.434900
  11 H :    0.419095
  12 O :   -0.825458
  13 H :    0.445135
  14 H :    0.432549
  15 O :   -0.913025
  16 H :    0.432181
  17 H :    0.445577
  18 O :   -0.905048
  19 H :    0.445407
  20 H :    0.428442
  21 O :   -0.907987
  22 H :    0.445975
  23 H :    0.429880
  24 O :   -0.821562
  25 H :    0.445271
  26 H :    0.433510
  27 O :   -0.876212
  28 H :    0.434551
  29 H :    0.419152
  30 O :   -0.911065
  31 H :    0.427732
  32 H :    0.445529
  33 O :   -0.824530
  34 H :    0.445655
  35 H :    0.432471
Sum of atomic charges:   -0.0000000

LOEWDIN ATOMIC CHARGES
----------------------
   0 O :   -0.387704
   1 H :    0.221090
   2 H :    0.202058
   3 O :   -0.405539
   4 H :    0.205919
   5 H :    0.201659
   6 O :   -0.388213
   7 H :    0.201822
   8 H :    0.220885
   9 O :   -0.390181
  10 H :    0.200381
  11 H :    0.220204
  12 O :   -0.407394
  13 H :    0.205703
  14 H :    0.201730
  15 O :   -0.431290
  16 H :    0.195440
  17 H :    0.203520
  18 O :   -0.435464
  19 H :    0.203271
  20 H :    0.195521
  21 O :   -0.434549
  22 H :    0.202965
  23 H :    0.195691
  24 O :   -0.402610
  25 H :    0.206339
  26 H :    0.201984
  27 O :   -0.390038
  28 H :    0.201126
  29 H :    0.220349
  30 O :   -0.431315
  31 H :    0.195429
  32 H :    0.203452
  33 O :   -0.409398
  34 H :    0.205481
  35 H :    0.201677

  Mayer bond orders larger than 0.1
B(  0-O ,  1-H ) :   0.8273 B(  0-O ,  2-H ) :   0.7464 B(  3-O ,  4-H ) :   0.8128
B(  3-O ,  5-H ) :   0.8013 B(  3-O , 28-H ) :   0.1058 B(  6-O ,  7-H ) :   0.7458
B(  6-O ,  8-H ) :   0.8274 B(  9-O , 10-H ) :   0.7406 B(  9-O , 11-H ) :   0.8276
B( 10-H , 24-O ) :   0.1084 B( 12-O , 13-H ) :   0.8122 B( 12-O , 14-H ) :   0.8024
B( 15-O , 16-H ) :   0.7730 B( 15-O , 17-H ) :   0.7765 B( 18-O , 19-H ) :   0.7756
B( 18-O , 20-H ) :   0.7693 B( 21-O , 22-H ) :   0.7760 B( 21-O , 23-H ) :   0.7702
B( 24-O , 25-H ) :   0.8132 B( 24-O , 26-H ) :   0.8013 B( 27-O , 28-H ) :   0.7427
B( 27-O , 29-H ) :   0.8276 B( 30-O , 31-H ) :   0.7737 B( 30-O , 32-H ) :   0.7752
B( 33-O , 34-H ) :   0.8120 B( 33-O , 35-H ) :   0.8018

Dispersion correction           -0.022842318
FINAL SINGLE POINT ENERGY      -917.508607915734

DIPOLE MOMENT
-------------
                                X             Y             Z
Electronic contribution:     -0.00283      -0.01199      -0.00340
Nuclear contribution   :      0.01227      -0.01369       0.00277
                        -----------------------------------------
Total Dipole Moment    :      0.00944      -0.02569      -0.00062
                        -----------------------------------------
Magnitude (a.u.)       :      0.02738
Magnitude (Debye)      :      0.06958

                             ****ORCA TERMINATED NORMALLY****
TOTAL RUN TIME: 0 days 0 hours 16 minutes 23 seconds 946 msec
