                         Program Version 3.0.3 - RELEASE   -
|  1> ! B3LYP Def2-TZVP def2-TZVP/J RIJCOSX TightSCF Grid4 D3BJ COSMO
|  2>
|  3> %pal nprocs 12 end
|  4>
|  5> %scf
|  6>         maxiter 400
|  7> end
|  8>
|  9> %cosmo
| 10>         SMD true
| 11>         solvent "WATER"
| 12> end
| 13>
| 14> * xyz  0  1
| 15> O  2.342734	2.348307	-0.317083
| 16> H  2.958459	3.091679	-0.231729
| 17> H  1.486626	2.731282	-0.670327
| 18> O  -0.058335	-1.094787	3.212954
| 19> H  0.493328	-0.421761	2.762264
| 20> H  -0.980336	-0.805315	3.008123
| 21> O  0.221313	1.096878	-3.204349
| 22> H  1.131168	0.787350	-2.924211
| 23> H  0.241175	1.169618	-4.170497
| 24> O  -2.470610	-0.412268	2.171581
| 25> H  -2.589343	-1.120549	1.475093
| 26> H  -3.317965	-0.357617	2.639553
| 27> O  2.515752	0.319251	-2.120870
| 28> H  2.281899	-0.446807	-1.557245
| 29> H  2.608974	1.065821	-1.482084
| 30> O  1.249585	-1.457084	-0.413030
| 31> H  0.398365	-1.183297	-0.852645
| 32> H  0.956704	-2.186289	0.185206
| 33> O  1.145980	0.600180	1.335405
| 34> H  1.716070	1.304192	0.941212
| 35> H  1.269471	-0.172566	0.720856
| 36> O  -1.032881	-0.519935	-1.428530
| 37> H  -0.740349	-0.030078	-2.234194
| 38> H  -1.197284	0.196085	-0.758142
| 39> O  -2.477781	-2.260892	0.228847
| 40> H  -2.130598	-1.757580	-0.536764
| 41> H  -1.667461	-2.691113	0.595560
| 42> O  -0.097606	-2.972961	1.333744
| 43> H  -0.051198	-2.347230	2.114372
| 44> H  0.086354	-3.854457	1.693595
| 45> O  -1.284081	1.328628	0.492030
| 46> H  -0.388664	1.118463	0.875791
| 47> H  -1.903682	0.886858	1.120946
| 48> O  -0.034271	3.025842	-1.277021
| 49> H  -0.655318	2.585351	-0.659768
| 50> H  -0.026188	2.436800	-2.068642
| 51> **                         ****END OF INPUT****

CARTESIAN COORDINATES (ANGSTROEM)
---------------------------------
  O      2.342734    2.348307   -0.317083
  H      2.958459    3.091679   -0.231729
  H      1.486626    2.731282   -0.670327
  O     -0.058335   -1.094787    3.212954
  H      0.493328   -0.421761    2.762264
  H     -0.980336   -0.805315    3.008123
  O      0.221313    1.096878   -3.204349
  H      1.131168    0.787350   -2.924211
  H      0.241175    1.169618   -4.170497
  O     -2.470610   -0.412268    2.171581
  H     -2.589343   -1.120549    1.475093
  H     -3.317965   -0.357617    2.639553
  O      2.515752    0.319251   -2.120870
  H      2.281899   -0.446807   -1.557245
  H      2.608974    1.065821   -1.482084
  O      1.249585   -1.457084   -0.413030
  H      0.398365   -1.183297   -0.852645
  H      0.956704   -2.186289    0.185206
  O      1.145980    0.600180    1.335405
  H      1.716070    1.304192    0.941212
  H      1.269471   -0.172566    0.720856
  O     -1.032881   -0.519935   -1.428530
  H     -0.740349   -0.030078   -2.234194
  H     -1.197284    0.196085   -0.758142
  O     -2.477781   -2.260892    0.228847
  H     -2.130598   -1.757580   -0.536764
  H     -1.667461   -2.691113    0.595560
  O     -0.097606   -2.972961    1.333744
  H     -0.051198   -2.347230    2.114372
  H      0.086354   -3.854457    1.693595
  O     -1.284081    1.328628    0.492030
  H     -0.388664    1.118463    0.875791
  H     -1.903682    0.886858    1.120946
  O     -0.034271    3.025842   -1.277021
  H     -0.655318    2.585351   -0.659768
  H     -0.026188    2.436800   -2.068642

 Total Charge           Charge          ....    0
 Multiplicity           Mult            ....    1
 Number of Electrons    NEL             ....  120
 Basis Dimension        Dim             ....  516

ORBITAL ENERGIES
----------------

  NO   OCC          E(Eh)            E(eV)
   0   2.0000     -19.133207      -520.6410
   1   2.0000     -19.131801      -520.6028
   2   2.0000     -19.131432      -520.5927
   3   2.0000     -19.130380      -520.5641
   4   2.0000     -19.123418      -520.3747
   5   2.0000     -19.122703      -520.3552
   6   2.0000     -19.122539      -520.3507
   7   2.0000     -19.122227      -520.3423
   8   2.0000     -19.121712      -520.3282
   9   2.0000     -19.121223      -520.3149
  10   2.0000     -19.120584      -520.2975
  11   2.0000     -19.119892      -520.2787
  12   2.0000      -1.035301       -28.1720
  13   2.0000      -1.025989       -27.9186
  14   2.0000      -1.018797       -27.7229
  15   2.0000      -1.017787       -27.6954
  16   2.0000      -1.014781       -27.6136
  17   2.0000      -1.007859       -27.4252
  18   2.0000      -1.007488       -27.4151
  19   2.0000      -0.998755       -27.1775
  20   2.0000      -0.997417       -27.1411
  21   2.0000      -0.996263       -27.1097
  22   2.0000      -0.992016       -26.9941
  23   2.0000      -0.980081       -26.6694
  24   2.0000      -0.547359       -14.8944
  25   2.0000      -0.544127       -14.8065
  26   2.0000      -0.542199       -14.7540
  27   2.0000      -0.540048       -14.6955
  28   2.0000      -0.538603       -14.6561
  29   2.0000      -0.530185       -14.4271
  30   2.0000      -0.529681       -14.4134
  31   2.0000      -0.529206       -14.4004
  32   2.0000      -0.517956       -14.0943
  33   2.0000      -0.515307       -14.0222
  34   2.0000      -0.512840       -13.9551
  35   2.0000      -0.512605       -13.9487
  36   2.0000      -0.470662       -12.8074
  37   2.0000      -0.440635       -11.9903
  38   2.0000      -0.435511       -11.8509
  39   2.0000      -0.430904       -11.7255
  40   2.0000      -0.408028       -11.1030
  41   2.0000      -0.407245       -11.0817
  42   2.0000      -0.403650       -10.9839
  43   2.0000      -0.403085       -10.9685
  44   2.0000      -0.383453       -10.4343
  45   2.0000      -0.379101       -10.3159
  46   2.0000      -0.377390       -10.2693
  47   2.0000      -0.356049        -9.6886
  48   2.0000      -0.329376        -8.9628
  49   2.0000      -0.328892        -8.9496
  50   2.0000      -0.328138        -8.9291
  51   2.0000      -0.327465        -8.9108
  52   2.0000      -0.322891        -8.7863
  53   2.0000      -0.321966        -8.7611
  54   2.0000      -0.321514        -8.7489
  55   2.0000      -0.319745        -8.7007
  56   2.0000      -0.319429        -8.6921
  57   2.0000      -0.319268        -8.6877
  58   2.0000      -0.318375        -8.6634
  59   2.0000      -0.315914        -8.5964
  60   0.0000       0.015100         0.4109
  61   0.0000       0.040629         1.1056
  62   0.0000       0.058891         1.6025
  63   0.0000       0.059586         1.6214
  64   0.0000       0.092456         2.5159

MULLIKEN ATOMIC CHARGES
-----------------------
   0 O :   -0.745574
   1 H :    0.384945
   2 H :    0.378333
   3 O :   -0.741928
   4 H :    0.379985
   5 H :    0.375025
   6 O :   -0.748535
   7 H :    0.379728
   8 H :    0.384250
   9 O :   -0.741197
  10 H :    0.371796
  11 H :    0.386006
  12 O :   -0.748929
  13 H :    0.381287
  14 H :    0.371195
  15 O :   -0.769874
  16 H :    0.371013
  17 H :    0.374988
  18 O :   -0.767475
  19 H :    0.380792
  20 H :    0.364009
  21 O :   -0.768209
  22 H :    0.377790
  23 H :    0.364740
  24 O :   -0.743607
  25 H :    0.377565
  26 H :    0.372795
  27 O :   -0.741703
  28 H :    0.370032
  29 H :    0.385008
  30 O :   -0.767295
  31 H :    0.369562
  32 H :    0.375654
  33 O :   -0.748161
  34 H :    0.383409
  35 H :    0.372578
Sum of atomic charges:   -0.0000000

LOEWDIN ATOMIC CHARGES
----------------------
   0 O :   -0.278638
   1 H :    0.183666
   2 H :    0.145257
   3 O :   -0.312197
   4 H :    0.149620
   5 H :    0.142523
   6 O :   -0.284817
   7 H :    0.145050
   8 H :    0.183300
   9 O :   -0.274604
  10 H :    0.146657
  11 H :    0.184994
  12 O :   -0.311140
  13 H :    0.148447
  14 H :    0.140549
  15 O :   -0.314843
  16 H :    0.132542
  17 H :    0.142174
  18 O :   -0.303084
  19 H :    0.144699
  20 H :    0.135047
  21 O :   -0.302611
  22 H :    0.144738
  23 H :    0.132022
  24 O :   -0.317843
  25 H :    0.149489
  26 H :    0.142162
  27 O :   -0.273554
  28 H :    0.143489
  29 H :    0.184202
  30 O :   -0.305710
  31 H :    0.133714
  32 H :    0.144278
  33 O :   -0.309607
  34 H :    0.147058
  35 H :    0.142972

  Mayer bond orders larger than 0.1
B(  0-O ,  1-H ) :   0.8522 B(  0-O ,  2-H ) :   0.7572 B(  0-O , 14-H ) :   0.1118
B(  0-O , 19-H ) :   0.1085 B(  2-H , 33-O ) :   0.1408 B(  3-O ,  4-H ) :   0.8272
B(  3-O ,  5-H ) :   0.8036 B(  3-O , 28-H ) :   0.1516 B(  5-H ,  9-O ) :   0.1053
B(  6-O ,  7-H ) :   0.7588 B(  6-O ,  8-H ) :   0.8528 B(  6-O , 22-H ) :   0.1073
B(  6-O , 35-H ) :   0.1048 B(  7-H , 12-O ) :   0.1376 B(  9-O , 10-H ) :   0.7618
B(  9-O , 11-H ) :   0.8520 B(  9-O , 32-H ) :   0.1130 B( 10-H , 24-O ) :   0.1430
B( 12-O , 13-H ) :   0.8243 B( 12-O , 14-H ) :   0.8009 B( 15-O , 16-H ) :   0.7692
B( 15-O , 17-H ) :   0.7965 B( 15-O , 20-H ) :   0.1383 B( 16-H , 21-O ) :   0.1365
B( 17-H , 27-O ) :   0.1133 B( 18-O , 19-H ) :   0.7947 B( 18-O , 20-H ) :   0.7708
B( 18-O , 31-H ) :   0.1387 B( 21-O , 22-H ) :   0.7981 B( 21-O , 23-H ) :   0.7670
B( 23-H , 30-O ) :   0.1403 B( 24-O , 25-H ) :   0.8288 B( 24-O , 26-H ) :   0.8038
B( 26-H , 27-O ) :   0.1081 B( 27-O , 28-H ) :   0.7560 B( 27-O , 29-H ) :   0.8528
B( 30-O , 31-H ) :   0.7681 B( 30-O , 32-H ) :   0.7962 B( 33-O , 34-H ) :   0.8206
B( 33-O , 35-H ) :   0.8045

Dispersion correction           -0.043210789
FINAL SINGLE POINT ENERGY      -917.379752000009

DIPOLE MOMENT
-------------
                                X             Y             Z
Electronic contribution:     -0.02899       0.02228       0.06322
Nuclear contribution   :     -0.04943      -0.00289      -0.03415
                        -----------------------------------------
Total Dipole Moment    :     -0.07843       0.01938       0.02906
                        -----------------------------------------
Magnitude (a.u.)       :      0.08585
Magnitude (Debye)      :      0.21822

                             ****ORCA TERMINATED NORMALLY****
TOTAL RUN TIME: 0 days 0 hours 1 minutes 29 seconds 999 msec
