                         Program Version 3.0.3 - RELEASE   -
|  1> ! wB97X-D3 Def2-TZVP def2-TZVP/J RIJCOSX TightSCF Grid4 COSMO
|  2>
|  3> %pal nprocs 12 end
|  4>
|  5> %scf
|  6>         maxiter 400
|  7> end
|  8>
|  9> %cosmo
| 10>         SMD true
| 11>         solvent "WATER"
| 12> end
| 13>
| 14> * xyz  0  1
| 15> O  2.264033	2.275973	-0.300381
| 16> H  2.880956	3.018420	-0.146502
| 17> H  1.405883	2.694270	-0.677358
| 18> O  -0.111497	-1.088162	3.140692
| 19> H  0.471981	-0.412604	2.701754
| 20> H  -1.032224	-0.776807	2.889644
| 21> O  0.205920	1.026943	-3.063739
| 22> H  1.154385	0.726689	-2.810375
| 23> H  0.200188	1.118770	-4.036950
| 24> O  -2.466241	-0.346180	2.042600
| 25> H  -2.545732	-1.121451	1.368453
| 26> H  -3.323078	-0.307986	2.510975
| 27> O  2.533885	0.293625	-2.121666
| 28> H  2.231179	-0.469617	-1.560279
| 29> H  2.601494	1.045033	-1.460442
| 30> O  1.171295	-1.389130	-0.458004
| 31> H  0.284480	-1.119961	-0.871461
| 32> H  0.908637	-2.149509	0.146213
| 33> O  1.177093	0.535381	1.366800
| 34> H  1.722330	1.263323	0.935090
| 35> H  1.245461	-0.221434	0.690724
| 36> O  -1.151888	-0.508956	-1.396847
| 37> H  -0.791094	-0.023842	-2.200997
| 38> H  -1.231626	0.233814	-0.706997
| 39> O  -2.402285	-2.263426	0.281535
| 40> H  -2.081668	-1.746378	-0.505364
| 41> H  -1.561066	-2.683361	0.632158
| 42> O  -0.004395	-2.952331	1.316150
| 43> H  -0.007866	-2.292573	2.106396
| 44> H  0.247768	-3.819081	1.690674
| 45> O  -1.191861	1.358516	0.487055
| 46> H  -0.294091	1.100563	0.883794
| 47> H  -1.838965	0.908390	1.112785
| 48> O  -0.028973	3.063231	-1.295306
| 49> H  -0.624884	2.619277	-0.633180
| 50> H  -0.017530	2.410572	-2.057644
| 51> **                         ****END OF INPUT****

CARTESIAN COORDINATES (ANGSTROEM)
---------------------------------
  O      2.264033    2.275973   -0.300381
  H      2.880956    3.018420   -0.146502
  H      1.405883    2.694270   -0.677358
  O     -0.111497   -1.088162    3.140692
  H      0.471981   -0.412604    2.701754
  H     -1.032224   -0.776807    2.889644
  O      0.205920    1.026943   -3.063739
  H      1.154385    0.726689   -2.810375
  H      0.200188    1.118770   -4.036950
  O     -2.466241   -0.346180    2.042600
  H     -2.545732   -1.121451    1.368453
  H     -3.323078   -0.307986    2.510975
  O      2.533885    0.293625   -2.121666
  H      2.231179   -0.469617   -1.560279
  H      2.601494    1.045033   -1.460442
  O      1.171295   -1.389130   -0.458004
  H      0.284480   -1.119961   -0.871461
  H      0.908637   -2.149509    0.146213
  O      1.177093    0.535381    1.366800
  H      1.722330    1.263323    0.935090
  H      1.245461   -0.221434    0.690724
  O     -1.151888   -0.508956   -1.396847
  H     -0.791094   -0.023842   -2.200997
  H     -1.231626    0.233814   -0.706997
  O     -2.402285   -2.263426    0.281535
  H     -2.081668   -1.746378   -0.505364
  H     -1.561066   -2.683361    0.632158
  O     -0.004395   -2.952331    1.316150
  H     -0.007866   -2.292573    2.106396
  H      0.247768   -3.819081    1.690674
  O     -1.191861    1.358516    0.487055
  H     -0.294091    1.100563    0.883794
  H     -1.838965    0.908390    1.112785
  O     -0.028973    3.063231   -1.295306
  H     -0.624884    2.619277   -0.633180
  H     -0.017530    2.410572   -2.057644

 Total Charge           Charge          ....    0
 Multiplicity           Mult            ....    1
 Number of Electrons    NEL             ....  120
 Basis Dimension        Dim             ....  516

ORBITAL ENERGIES
----------------

  NO   OCC          E(Eh)            E(eV)
   0   2.0000     -19.241429      -523.5859
   1   2.0000     -19.241149      -523.5783
   2   2.0000     -19.240661      -523.5650
   3   2.0000     -19.240367      -523.5570
   4   2.0000     -19.232959      -523.3554
   5   2.0000     -19.232432      -523.3411
   6   2.0000     -19.232318      -523.3380
   7   2.0000     -19.232098      -523.3320
   8   2.0000     -19.232025      -523.3300
   9   2.0000     -19.231865      -523.3257
  10   2.0000     -19.231603      -523.3185
  11   2.0000     -19.231526      -523.3164
  12   2.0000      -1.152127       -31.3510
  13   2.0000      -1.141147       -31.0522
  14   2.0000      -1.132041       -30.8044
  15   2.0000      -1.131956       -30.8021
  16   2.0000      -1.127351       -30.6768
  17   2.0000      -1.120872       -30.5005
  18   2.0000      -1.120045       -30.4780
  19   2.0000      -1.109994       -30.2045
  20   2.0000      -1.106647       -30.1134
  21   2.0000      -1.106541       -30.1105
  22   2.0000      -1.101902       -29.9843
  23   2.0000      -1.086887       -29.5757
  24   2.0000      -0.646901       -17.6031
  25   2.0000      -0.646600       -17.5949
  26   2.0000      -0.643699       -17.5159
  27   2.0000      -0.643368       -17.5069
  28   2.0000      -0.640431       -17.4270
  29   2.0000      -0.632462       -17.2102
  30   2.0000      -0.629215       -17.1218
  31   2.0000      -0.628601       -17.1051
  32   2.0000      -0.617545       -16.8042
  33   2.0000      -0.614719       -16.7274
  34   2.0000      -0.613299       -16.6887
  35   2.0000      -0.612920       -16.6784
  36   2.0000      -0.585387       -15.9292
  37   2.0000      -0.548399       -14.9227
  38   2.0000      -0.542928       -14.7738
  39   2.0000      -0.541473       -14.7342
  40   2.0000      -0.517843       -14.0912
  41   2.0000      -0.510363       -13.8877
  42   2.0000      -0.509705       -13.8698
  43   2.0000      -0.500788       -13.6271
  44   2.0000      -0.479773       -13.0553
  45   2.0000      -0.479480       -13.0473
  46   2.0000      -0.479004       -13.0344
  47   2.0000      -0.453009       -12.3270
  48   2.0000      -0.427273       -11.6267
  49   2.0000      -0.426954       -11.6180
  50   2.0000      -0.425060       -11.5665
  51   2.0000      -0.424388       -11.5482
  52   2.0000      -0.421237       -11.4624
  53   2.0000      -0.421057       -11.4575
  54   2.0000      -0.417771       -11.3681
  55   2.0000      -0.417450       -11.3594
  56   2.0000      -0.417239       -11.3536
  57   2.0000      -0.415733       -11.3127
  58   2.0000      -0.415391       -11.3034
  59   2.0000      -0.413850       -11.2614
  60   0.0000       0.095185         2.5901
  61   0.0000       0.126229         3.4349
  62   0.0000       0.146305         3.9812
  63   0.0000       0.146547         3.9878
  64   0.0000       0.180673         4.9164

MULLIKEN ATOMIC CHARGES
-----------------------
   0 O :   -0.783518
   1 H :    0.410302
   2 H :    0.380363
   3 O :   -0.757310
   4 H :    0.400262
   5 H :    0.382048
   6 O :   -0.784737
   7 H :    0.382418
   8 H :    0.410108
   9 O :   -0.785174
  10 H :    0.379675
  11 H :    0.409222
  12 O :   -0.760456
  13 H :    0.400149
  14 H :    0.382657
  15 O :   -0.794453
  16 H :    0.365648
  17 H :    0.401177
  18 O :   -0.797108
  19 H :    0.401343
  20 H :    0.364621
  21 O :   -0.797580
  22 H :    0.401209
  23 H :    0.365186
  24 O :   -0.755745
  25 H :    0.400096
  26 H :    0.383033
  27 O :   -0.784484
  28 H :    0.379215
  29 H :    0.409199
  30 O :   -0.794008
  31 H :    0.363105
  32 H :    0.401750
  33 O :   -0.760896
  34 H :    0.400254
  35 H :    0.382426
Sum of atomic charges:   -0.0000000

LOEWDIN ATOMIC CHARGES
----------------------
   0 O :   -0.291315
   1 H :    0.192012
   2 H :    0.152082
   3 O :   -0.319109
   4 H :    0.155222
   5 H :    0.149633
   6 O :   -0.291854
   7 H :    0.151940
   8 H :    0.191788
   9 O :   -0.293749
  10 H :    0.150520
  11 H :    0.190883
  12 O :   -0.320999
  13 H :    0.155031
  14 H :    0.149699
  15 O :   -0.323576
  16 H :    0.139460
  17 H :    0.151184
  18 O :   -0.328239
  19 H :    0.150821
  20 H :    0.139393
  21 O :   -0.327376
  22 H :    0.150459
  23 H :    0.139592
  24 O :   -0.315946
  25 H :    0.155677
  26 H :    0.149998
  27 O :   -0.293692
  28 H :    0.151209
  29 H :    0.191100
  30 O :   -0.323477
  31 H :    0.139330
  32 H :    0.151071
  33 O :   -0.323147
  34 H :    0.154727
  35 H :    0.149650

  Mayer bond orders larger than 0.1
B(  0-O ,  1-H ) :   0.8350 B(  0-O ,  2-H ) :   0.7347 B(  0-O , 14-H ) :   0.1096
B(  0-O , 19-H ) :   0.1177 B(  2-H , 33-O ) :   0.1662 B(  3-O ,  4-H ) :   0.8090
B(  3-O ,  5-H ) :   0.7898 B(  3-O , 28-H ) :   0.1716 B(  5-H ,  9-O ) :   0.1117
B(  6-O ,  7-H ) :   0.7341 B(  6-O ,  8-H ) :   0.8351 B(  6-O , 22-H ) :   0.1175
B(  6-O , 35-H ) :   0.1101 B(  7-H , 12-O ) :   0.1647 B(  9-O , 10-H ) :   0.7290
B(  9-O , 11-H ) :   0.8358 B(  9-O , 32-H ) :   0.1188 B( 10-H , 24-O ) :   0.1733
B( 12-O , 13-H ) :   0.8089 B( 12-O , 14-H ) :   0.7907 B( 15-O , 16-H ) :   0.7541
B( 15-O , 17-H ) :   0.7693 B( 15-O , 20-H ) :   0.1580 B( 16-H , 21-O ) :   0.1550
B( 17-H , 27-O ) :   0.1177 B( 18-O , 19-H ) :   0.7692 B( 18-O , 20-H ) :   0.7519
B( 18-O , 31-H ) :   0.1566 B( 21-O , 22-H ) :   0.7696 B( 21-O , 23-H ) :   0.7522
B( 23-H , 30-O ) :   0.1571 B( 24-O , 25-H ) :   0.8091 B( 24-O , 26-H ) :   0.7896
B( 26-H , 27-O ) :   0.1107 B( 27-O , 28-H ) :   0.7311 B( 27-O , 29-H ) :   0.8359
B( 30-O , 31-H ) :   0.7548 B( 30-O , 32-H ) :   0.7680 B( 33-O , 34-H ) :   0.8084
B( 33-O , 35-H ) :   0.7904

Dispersion correction           -0.022842318
FINAL SINGLE POINT ENERGY      -917.503938590452

DIPOLE MOMENT
-------------
                                X             Y             Z
Electronic contribution:     -0.00266      -0.01175      -0.00343
Nuclear contribution   :      0.01227      -0.01369       0.00277
                        -----------------------------------------
Total Dipole Moment    :      0.00961      -0.02545      -0.00065
                        -----------------------------------------
Magnitude (a.u.)       :      0.02721
Magnitude (Debye)      :      0.06916

                             ****ORCA TERMINATED NORMALLY****
TOTAL RUN TIME: 0 days 0 hours 1 minutes 34 seconds 829 msec
