                         Program Version 4.2.0 -  RELEASE  -
|  1> # 12h2o.su.etal.mol1,2,3,4,5,8,9
|  2> ! MP2 def2-TZVP EnGrad TightSCF
|  3>
|  4> %pal
|  5>     nprocs 6
|  6> end
|  7>
|  8> %maxcore 8000
|  9>
| 10> %scf
| 11>     ConvForced true
| 12> end
| 13>
| 14> *xyz 0 1
| 15> O  -1.794470000  -0.923410000   2.768350000
| 16> H  -2.338250000  -1.359750000   3.430940000
| 17> H  -0.879480000  -1.303000000   2.865760000
| 18> O   0.923410000  -1.794470000  -2.768350000
| 19> H   1.359750000  -2.338250000  -3.430940000
| 20> H   1.303000000  -0.879480000  -2.865760000
| 21> O  -1.752130000  -0.741530000  -2.896280000
| 22> H  -2.036450000  -0.920500000  -1.984040000
| 23> H  -0.921210000  -1.242140000  -2.984230000
| 24> O  -0.885520000   1.737840000   0.052730000
| 25> H  -1.032320000   2.090180000  -0.841890000
| 26> H  -1.284090000   0.839590000   0.017130000
| 27> O   0.885520000  -1.737840000   0.052730000
| 28> H   1.284090000  -0.839590000   0.017130000
| 29> H   1.032320000  -2.090180000  -0.841890000
| 30> O   1.752130000   0.741530000  -2.896280000
| 31> H   2.036450000   0.920500000  -1.984040000
| 32> H   0.921210000   1.242140000  -2.984230000
| 33> O   0.741530000  -1.752130000   2.896280000
| 34> H   0.920500000  -2.036450000   1.984040000
| 35> H   1.242140000  -0.921210000   2.984230000
| 36> *
| 37>
| 38>                          ****END OF INPUT****

CARTESIAN COORDINATES (ANGSTROEM)
---------------------------------
  O     -1.794470   -0.923410    2.768350
  H     -2.338250   -1.359750    3.430940
  H     -0.879480   -1.303000    2.865760
  O      0.923410   -1.794470   -2.768350
  H      1.359750   -2.338250   -3.430940
  H      1.303000   -0.879480   -2.865760
  O     -1.752130   -0.741530   -2.896280
  H     -2.036450   -0.920500   -1.984040
  H     -0.921210   -1.242140   -2.984230
  O     -0.885520    1.737840    0.052730
  H     -1.032320    2.090180   -0.841890
  H     -1.284090    0.839590    0.017130
  O      0.885520   -1.737840    0.052730
  H      1.284090   -0.839590    0.017130
  H      1.032320   -2.090180   -0.841890
  O      1.752130    0.741530   -2.896280
  H      2.036450    0.920500   -1.984040
  H      0.921210    1.242140   -2.984230
  O      0.741530   -1.752130    2.896280
  H      0.920500   -2.036450    1.984040
  H      1.242140   -0.921210    2.984230

 Total Charge           Charge          ....    0
 Multiplicity           Mult            ....    1
 Number of Electrons    NEL             ....   70
 Basis Dimension        Dim             ....  301

ORBITAL ENERGIES
----------------

  NO   OCC          E(Eh)            E(eV)
   0   2.0000     -20.625726      -561.2545
   1   2.0000     -20.586938      -560.1991
   2   2.0000     -20.576980      -559.9281
   3   2.0000     -20.567503      -559.6702
   4   2.0000     -20.565098      -559.6048
   5   2.0000     -20.547785      -559.1337
   6   2.0000     -20.506323      -558.0054
   7   2.0000      -1.412105       -38.4253
   8   2.0000      -1.374225       -37.3946
   9   2.0000      -1.360143       -37.0114
  10   2.0000      -1.349755       -36.7287
  11   2.0000      -1.343094       -36.5474
  12   2.0000      -1.329742       -36.1841
  13   2.0000      -1.288300       -35.0564
  14   2.0000      -0.767928       -20.8964
  15   2.0000      -0.755087       -20.5470
  16   2.0000      -0.729775       -19.8582
  17   2.0000      -0.711227       -19.3535
  18   2.0000      -0.704592       -19.1729
  19   2.0000      -0.699498       -19.0343
  20   2.0000      -0.676444       -18.4070
  21   2.0000      -0.655057       -17.8250
  22   2.0000      -0.621052       -16.8997
  23   2.0000      -0.608623       -16.5615
  24   2.0000      -0.584483       -15.9046
  25   2.0000      -0.582505       -15.8508
  26   2.0000      -0.571662       -15.5557
  27   2.0000      -0.556392       -15.1402
  28   2.0000      -0.538498       -14.6533
  29   2.0000      -0.530442       -14.4341
  30   2.0000      -0.523456       -14.2440
  31   2.0000      -0.509949       -13.8764
  32   2.0000      -0.495004       -13.4697
  33   2.0000      -0.493707       -13.4345
  34   2.0000      -0.456818       -12.4307
  35   0.0000       0.069141         1.8814
  36   0.0000       0.123959         3.3731
  37   0.0000       0.132138         3.5957
  38   0.0000       0.132414         3.6032
  39   0.0000       0.161598         4.3973

MULLIKEN ATOMIC CHARGES
-----------------------
   0 O :   -0.735771
   1 H :    0.321135
   2 H :    0.369848
   3 O :   -0.751904
   4 H :    0.356038
   5 H :    0.382111
   6 O :   -0.712395
   7 H :    0.334511
   8 H :    0.362287
   9 O :   -0.682856
  10 H :    0.326921
  11 H :    0.354203
  12 O :   -0.708647
  13 H :    0.320581
  14 H :    0.380603
  15 O :   -0.680170
  16 H :    0.358243
  17 H :    0.370869
  18 O :   -0.693667
  19 H :    0.386484
  20 H :    0.341576
Sum of atomic charges:   -0.0000000

LOEWDIN ATOMIC CHARGES
----------------------
   0 O :   -0.374598
   1 H :    0.146990
   2 H :    0.142781
   3 O :   -0.312135
   4 H :    0.162131
   5 H :    0.145715
   6 O :   -0.346568
   7 H :    0.160180
   8 H :    0.146573
   9 O :   -0.334817
  10 H :    0.158379
  11 H :    0.174940
  12 O :   -0.322310
  13 H :    0.160631
  14 H :    0.154357
  15 O :   -0.263875
  16 H :    0.172747
  17 H :    0.179938
  18 O :   -0.277867
  19 H :    0.158622
  20 H :    0.168186

  Mayer bond orders larger than 0.100000
B(  0-O ,  1-H ) :   0.8624 B(  0-O ,  2-H ) :   0.7787 B(  3-O ,  4-H ) :   0.8373
B(  3-O ,  5-H ) :   0.7498 B(  6-O ,  7-H ) :   0.8524 B(  6-O ,  8-H ) :   0.8133
B(  9-O , 10-H ) :   0.8561 B(  9-O , 11-H ) :   0.8331 B( 12-O , 13-H ) :   0.8509
B( 12-O , 14-H ) :   0.7989 B( 15-O , 16-H ) :   0.8357 B( 15-O , 17-H ) :   0.8241
B( 18-O , 19-H ) :   0.7991 B( 18-O , 20-H ) :   0.8469

MP2 TOTAL ENERGY:     -534.239711378 Eh
FINAL SINGLE POINT ENERGY      -534.239711378348

DIPOLE MOMENT
-------------
                                X             Y             Z
Electronic contribution:      0.25942       0.05933      -0.27116
Nuclear contribution   :      1.55378       0.08480      -0.86245
                        -----------------------------------------
Total Dipole Moment    :      1.81320       0.14413      -1.13361
                        -----------------------------------------
Magnitude (a.u.)       :      2.14326
Magnitude (Debye)      :      5.44773

Rotational constants in cm-1:     0.041877     0.018906     0.017106
Rotational constants in MHz :  1255.432485   566.780014   512.811241

                             ****ORCA TERMINATED NORMALLY****
TOTAL RUN TIME: 0 days 0 hours 1 minutes 45 seconds 362 msec
