                         Program Version 4.2.0 -  RELEASE  -
|  1> # 12h2o.su.etal.mol4,5,8,10
|  2> ! MP2 def2-TZVP EnGrad TightSCF
|  3>
|  4> %pal
|  5>     nprocs 6
|  6> end
|  7>
|  8> %maxcore 8000
|  9>
| 10> %scf
| 11>     ConvForced true
| 12> end
| 13>
| 14> *xyz 0 1
| 15> O  -0.885520000   1.737840000   0.052730000
| 16> H  -1.032320000   2.090180000  -0.841890000
| 17> H  -1.284090000   0.839590000   0.017130000
| 18> O   0.885520000  -1.737840000   0.052730000
| 19> H   1.284090000  -0.839590000   0.017130000
| 20> H   1.032320000  -2.090180000  -0.841890000
| 21> O   1.752130000   0.741530000  -2.896280000
| 22> H   2.036450000   0.920500000  -1.984040000
| 23> H   0.921210000   1.242140000  -2.984230000
| 24> O  -0.923410000   1.794470000  -2.768350000
| 25> H  -1.359750000   2.338250000  -3.430940000
| 26> H  -1.303000000   0.879480000  -2.865760000
| 27> *
| 28>
| 29>                          ****END OF INPUT****

CARTESIAN COORDINATES (ANGSTROEM)
---------------------------------
  O     -0.885520    1.737840    0.052730
  H     -1.032320    2.090180   -0.841890
  H     -1.284090    0.839590    0.017130
  O      0.885520   -1.737840    0.052730
  H      1.284090   -0.839590    0.017130
  H      1.032320   -2.090180   -0.841890
  O      1.752130    0.741530   -2.896280
  H      2.036450    0.920500   -1.984040
  H      0.921210    1.242140   -2.984230
  O     -0.923410    1.794470   -2.768350
  H     -1.359750    2.338250   -3.430940
  H     -1.303000    0.879480   -2.865760

 Total Charge           Charge          ....    0
 Multiplicity           Mult            ....    1
 Number of Electrons    NEL             ....   40
 Basis Dimension        Dim             ....  172

ORBITAL ENERGIES
----------------

  NO   OCC          E(Eh)            E(eV)
   0   2.0000     -20.623267      -561.1876
   1   2.0000     -20.561972      -559.5197
   2   2.0000     -20.549841      -559.1896
   3   2.0000     -20.547446      -559.1244
   4   2.0000      -1.403408       -38.1887
   5   2.0000      -1.337832       -36.4043
   6   2.0000      -1.332030       -36.2464
   7   2.0000      -1.326456       -36.0947
   8   2.0000      -0.769099       -20.9282
   9   2.0000      -0.703520       -19.1438
  10   2.0000      -0.699792       -19.0423
  11   2.0000      -0.697252       -18.9732
  12   2.0000      -0.638678       -17.3793
  13   2.0000      -0.590893       -16.0790
  14   2.0000      -0.577360       -15.7108
  15   2.0000      -0.563751       -15.3404
  16   2.0000      -0.545977       -14.8568
  17   2.0000      -0.505540       -13.7565
  18   2.0000      -0.496818       -13.5191
  19   2.0000      -0.492254       -13.3949
  20   0.0000       0.082083         2.2336
  21   0.0000       0.123358         3.3567
  22   0.0000       0.154845         4.2136
  23   0.0000       0.179283         4.8785
  24   0.0000       0.187202         5.0940

MULLIKEN ATOMIC CHARGES
-----------------------
   0 O :   -0.694810
   1 H :    0.361303
   2 H :    0.328133
   3 O :   -0.680527
   4 H :    0.337987
   5 H :    0.339869
   6 O :   -0.700893
   7 H :    0.329556
   8 H :    0.358030
   9 O :   -0.713278
  10 H :    0.367106
  11 H :    0.367523
Sum of atomic charges:   -0.0000000

LOEWDIN ATOMIC CHARGES
----------------------
   0 O :   -0.343922
   1 H :    0.146172
   2 H :    0.164770
   3 O :   -0.336469
   4 H :    0.168790
   5 H :    0.165294
   6 O :   -0.343144
   7 H :    0.158584
   8 H :    0.146722
   9 O :   -0.286703
  10 H :    0.169149
  11 H :    0.190756

  Mayer bond orders larger than 0.100000
B(  0-O ,  1-H ) :   0.8260 B(  0-O ,  2-H ) :   0.8526 B(  3-O ,  4-H ) :   0.8462
B(  3-O ,  5-H ) :   0.8502 B(  6-O ,  7-H ) :   0.8555 B(  6-O ,  8-H ) :   0.8230
B(  9-O , 10-H ) :   0.8300 B(  9-O , 11-H ) :   0.8225

MP2 TOTAL ENERGY:     -305.267308670 Eh
FINAL SINGLE POINT ENERGY      -305.267308669731

DIPOLE MOMENT
-------------
                                X             Y             Z
Electronic contribution:      0.01267       0.07247       0.05965
Nuclear contribution   :     -1.13412       0.25668      -1.49504
                        -----------------------------------------
Total Dipole Moment    :     -1.12145       0.32915      -1.43539
                        -----------------------------------------
Magnitude (a.u.)       :      1.85104
Magnitude (Debye)      :      4.70496

Rotational constants in cm-1:     0.100640     0.067961     0.045490
Rotational constants in MHz :  3017.118383  2037.431765  1363.745350

                             ****ORCA TERMINATED NORMALLY****
TOTAL RUN TIME: 0 days 0 hours 0 minutes 18 seconds 168 msec
