                         Program Version 4.2.0 -  RELEASE  -
|  1> # 12mecn.remya.etal.2.mol3,7,11
|  2> ! MP2 def2-TZVP EnGrad TightSCF
|  3>
|  4> %pal
|  5>     nprocs 6
|  6> end
|  7>
|  8> %maxcore 8000
|  9>
| 10> %scf
| 11>     ConvForced true
| 12> end
| 13>
| 14> *xyz 0 1
| 15> C  -5.181310000   2.853865000  -1.626100000
| 16> H  -5.488260000   3.811434000  -2.053310000
| 17> H  -5.857590000   2.068112000  -1.968630000
| 18> H  -4.170750000   2.611402000  -1.966640000
| 19> C  -5.187260000   2.919160000  -0.181450000
| 20> N  -5.181700000   2.970641000   0.983640000
| 21> C   1.502241000   0.651296000   1.710523000
| 22> H   1.309219000   1.637164000   2.143202000
| 23> H   2.493408000   0.297996000   2.009069000
| 24> H   0.746597000  -0.059850000   2.055508000
| 25> C   1.447974000   0.738517000   0.269805000
| 26> N   1.405612000   0.808047000  -0.894380000
| 27> C   4.214163000   3.378139000   1.593627000
| 28> H   3.242643000   3.657109000   2.012358000
| 29> H   4.969258000   4.086643000   1.941290000
| 30> H   4.482966000   2.372549000   1.931698000
| 31> C   4.130759000   3.388436000   0.150192000
| 32> N   4.050180000   3.381449000  -1.013420000
| 33> *
| 34>
| 35>                          ****END OF INPUT****

CARTESIAN COORDINATES (ANGSTROEM)
---------------------------------
  C     -5.181310    2.853865   -1.626100
  H     -5.488260    3.811434   -2.053310
  H     -5.857590    2.068112   -1.968630
  H     -4.170750    2.611402   -1.966640
  C     -5.187260    2.919160   -0.181450
  N     -5.181700    2.970641    0.983640
  C      1.502241    0.651296    1.710523
  H      1.309219    1.637164    2.143202
  H      2.493408    0.297996    2.009069
  H      0.746597   -0.059850    2.055508
  C      1.447974    0.738517    0.269805
  N      1.405612    0.808047   -0.894380
  C      4.214163    3.378139    1.593627
  H      3.242643    3.657109    2.012358
  H      4.969258    4.086643    1.941290
  H      4.482966    2.372549    1.931698
  C      4.130759    3.388436    0.150192
  N      4.050180    3.381449   -1.013420

 Total Charge           Charge          ....    0
 Multiplicity           Mult            ....    1
 Number of Electrons    NEL             ....   66
 Basis Dimension        Dim             ....  333

ORBITAL ENERGIES
----------------

  NO   OCC          E(Eh)            E(eV)
   0   2.0000     -15.572184      -423.7407
   1   2.0000     -15.571966      -423.7347
   2   2.0000     -15.571484      -423.7216
   3   2.0000     -11.289478      -307.2023
   4   2.0000     -11.289047      -307.1906
   5   2.0000     -11.282159      -307.0031
   6   2.0000     -11.279671      -306.9355
   7   2.0000     -11.277128      -306.8662
   8   2.0000     -11.276487      -306.8488
   9   2.0000      -1.214112       -33.0377
  10   2.0000      -1.212857       -33.0035
  11   2.0000      -1.211451       -32.9653
  12   2.0000      -1.048278       -28.5251
  13   2.0000      -1.045330       -28.4449
  14   2.0000      -1.041502       -28.3407
  15   2.0000      -0.703640       -19.1470
  16   2.0000      -0.700336       -19.0571
  17   2.0000      -0.699054       -19.0222
  18   2.0000      -0.642135       -17.4734
  19   2.0000      -0.639631       -17.4053
  20   2.0000      -0.633368       -17.2348
  21   2.0000      -0.630038       -17.1442
  22   2.0000      -0.628714       -17.1082
  23   2.0000      -0.627543       -17.0763
  24   2.0000      -0.555668       -15.1205
  25   2.0000      -0.554276       -15.0826
  26   2.0000      -0.551488       -15.0067
  27   2.0000      -0.463251       -12.6057
  28   2.0000      -0.457411       -12.4468
  29   2.0000      -0.457283       -12.4433
  30   2.0000      -0.456836       -12.4311
  31   2.0000      -0.454060       -12.3556
  32   2.0000      -0.447024       -12.1642
  33   0.0000       0.096594         2.6285
  34   0.0000       0.122162         3.3242
  35   0.0000       0.143915         3.9161
  36   0.0000       0.148018         4.0278
  37   0.0000       0.156046         4.2462

MULLIKEN ATOMIC CHARGES
-----------------------
   0 C :   -0.281472
   1 H :    0.172001
   2 H :    0.171419
   3 H :    0.178740
   4 C :   -0.145122
   5 N :   -0.095573
   6 C :   -0.280438
   7 H :    0.164455
   8 H :    0.164919
   9 H :    0.183882
  10 C :   -0.156682
  11 N :   -0.076112
  12 C :   -0.283535
  13 H :    0.165098
  14 H :    0.182561
  15 H :    0.163558
  16 C :   -0.155025
  17 N :   -0.072673
Sum of atomic charges:    0.0000000

LOEWDIN ATOMIC CHARGES
----------------------
   0 C :   -0.283044
   1 H :    0.151626
   2 H :    0.151605
   3 H :    0.155181
   4 C :   -0.218060
   5 N :    0.042687
   6 C :   -0.287134
   7 H :    0.149433
   8 H :    0.149904
   9 H :    0.154606
  10 C :   -0.225201
  11 N :    0.058421
  12 C :   -0.288012
  13 H :    0.149735
  14 H :    0.152023
  15 H :    0.149517
  16 C :   -0.223984
  17 N :    0.060696

  Mayer bond orders larger than 0.100000
B(  0-C ,  1-H ) :   0.9159 B(  0-C ,  2-H ) :   0.9165 B(  0-C ,  3-H ) :   0.9150
B(  0-C ,  4-C ) :   0.9025 B(  4-C ,  5-N ) :   2.8404 B(  6-C ,  7-H ) :   0.9206
B(  6-C ,  8-H ) :   0.9228 B(  6-C ,  9-H ) :   0.9103 B(  6-C , 10-C ) :   0.8961
B( 10-C , 11-N ) :   2.8291 B( 12-C , 13-H ) :   0.9221 B( 12-C , 14-H ) :   0.9108
B( 12-C , 15-H ) :   0.9207 B( 12-C , 16-C ) :   0.8999 B( 16-C , 17-N ) :   2.8276

MP2 TOTAL ENERGY:     -397.448467711 Eh
FINAL SINGLE POINT ENERGY      -397.448467710627

DIPOLE MOMENT
-------------
                                X             Y             Z
Electronic contribution:     -0.32501       0.37843      -3.26441
Nuclear contribution   :      0.47438      -0.54458       4.60725
                        -----------------------------------------
Total Dipole Moment    :      0.14938      -0.16615       1.34284
                        -----------------------------------------
Magnitude (a.u.)       :      1.36130
Magnitude (Debye)      :      3.46015

Rotational constants in cm-1:     0.051439     0.008215     0.008053
Rotational constants in MHz :  1542.090877   246.289692   241.418670

                             ****ORCA TERMINATED NORMALLY****
TOTAL RUN TIME: 0 days 0 hours 2 minutes 26 seconds 380 msec
