                         Program Version 4.2.0 -  RELEASE  -
|  1> # 12h2o.su.etal.mol1,2,3,5,6,7,8,11
|  2> ! MP2 def2-TZVP EnGrad TightSCF
|  3>
|  4> %pal
|  5>     nprocs 6
|  6> end
|  7>
|  8> %maxcore 8000
|  9>
| 10> %scf
| 11>     ConvForced true
| 12> end
| 13>
| 14> *xyz 0 1
| 15> O  -1.794470000  -0.923410000   2.768350000
| 16> H  -2.338250000  -1.359750000   3.430940000
| 17> H  -0.879480000  -1.303000000   2.865760000
| 18> O   0.923410000  -1.794470000  -2.768350000
| 19> H   1.359750000  -2.338250000  -3.430940000
| 20> H   1.303000000  -0.879480000  -2.865760000
| 21> O  -1.752130000  -0.741530000  -2.896280000
| 22> H  -2.036450000  -0.920500000  -1.984040000
| 23> H  -0.921210000  -1.242140000  -2.984230000
| 24> O   0.885520000  -1.737840000   0.052730000
| 25> H   1.284090000  -0.839590000   0.017130000
| 26> H   1.032320000  -2.090180000  -0.841890000
| 27> O   1.737840000   0.885520000  -0.052730000
| 28> H   2.090180000   1.032320000   0.841890000
| 29> H   0.839590000   1.284090000  -0.017130000
| 30> O  -1.737840000  -0.885520000  -0.052730000
| 31> H  -2.090180000  -1.032320000   0.841890000
| 32> H  -0.839590000  -1.284090000  -0.017130000
| 33> O   1.752130000   0.741530000  -2.896280000
| 34> H   2.036450000   0.920500000  -1.984040000
| 35> H   0.921210000   1.242140000  -2.984230000
| 36> O  -0.741530000   1.752130000   2.896280000
| 37> H  -0.920500000   2.036450000   1.984040000
| 38> H  -1.242140000   0.921210000   2.984230000
| 39> *
| 40>
| 41>                          ****END OF INPUT****

CARTESIAN COORDINATES (ANGSTROEM)
---------------------------------
  O     -1.794470   -0.923410    2.768350
  H     -2.338250   -1.359750    3.430940
  H     -0.879480   -1.303000    2.865760
  O      0.923410   -1.794470   -2.768350
  H      1.359750   -2.338250   -3.430940
  H      1.303000   -0.879480   -2.865760
  O     -1.752130   -0.741530   -2.896280
  H     -2.036450   -0.920500   -1.984040
  H     -0.921210   -1.242140   -2.984230
  O      0.885520   -1.737840    0.052730
  H      1.284090   -0.839590    0.017130
  H      1.032320   -2.090180   -0.841890
  O      1.737840    0.885520   -0.052730
  H      2.090180    1.032320    0.841890
  H      0.839590    1.284090   -0.017130
  O     -1.737840   -0.885520   -0.052730
  H     -2.090180   -1.032320    0.841890
  H     -0.839590   -1.284090   -0.017130
  O      1.752130    0.741530   -2.896280
  H      2.036450    0.920500   -1.984040
  H      0.921210    1.242140   -2.984230
  O     -0.741530    1.752130    2.896280
  H     -0.920500    2.036450    1.984040
  H     -1.242140    0.921210    2.984230

 Total Charge           Charge          ....    0
 Multiplicity           Mult            ....    1
 Number of Electrons    NEL             ....   80
 Basis Dimension        Dim             ....  344

ORBITAL ENERGIES
----------------

  NO   OCC          E(Eh)            E(eV)
   0   2.0000     -20.629235      -561.3500
   1   2.0000     -20.613585      -560.9242
   2   2.0000     -20.586927      -560.1988
   3   2.0000     -20.560865      -559.4896
   4   2.0000     -20.555386      -559.3405
   5   2.0000     -20.546611      -559.1017
   6   2.0000     -20.523774      -558.4803
   7   2.0000     -20.494261      -557.6772
   8   2.0000      -1.412654       -38.4403
   9   2.0000      -1.393828       -37.9280
  10   2.0000      -1.376564       -37.4582
  11   2.0000      -1.348173       -36.6857
  12   2.0000      -1.337381       -36.3920
  13   2.0000      -1.334589       -36.3160
  14   2.0000      -1.309454       -35.6320
  15   2.0000      -1.279031       -34.8042
  16   2.0000      -0.771446       -20.9921
  17   2.0000      -0.759532       -20.6679
  18   2.0000      -0.737029       -20.0556
  19   2.0000      -0.728016       -19.8103
  20   2.0000      -0.712943       -19.4002
  21   2.0000      -0.706952       -19.2371
  22   2.0000      -0.691730       -18.8229
  23   2.0000      -0.659205       -17.9379
  24   2.0000      -0.655615       -17.8402
  25   2.0000      -0.632221       -17.2036
  26   2.0000      -0.617071       -16.7914
  27   2.0000      -0.607161       -16.5217
  28   2.0000      -0.587569       -15.9886
  29   2.0000      -0.575038       -15.6476
  30   2.0000      -0.566400       -15.4125
  31   2.0000      -0.551325       -15.0023
  32   2.0000      -0.545411       -14.8414
  33   2.0000      -0.526804       -14.3351
  34   2.0000      -0.516413       -14.0523
  35   2.0000      -0.502531       -13.6746
  36   2.0000      -0.499502       -13.5921
  37   2.0000      -0.490947       -13.3593
  38   2.0000      -0.474530       -12.9126
  39   2.0000      -0.444501       -12.0955
  40   0.0000       0.078919         2.1475
  41   0.0000       0.108758         2.9595
  42   0.0000       0.137018         3.7285
  43   0.0000       0.147980         4.0267
  44   0.0000       0.163701         4.4545

MULLIKEN ATOMIC CHARGES
-----------------------
   0 O :   -0.716310
   1 H :    0.364396
   2 H :    0.375961
   3 O :   -0.749727
   4 H :    0.348082
   5 H :    0.382503
   6 O :   -0.738763
   7 H :    0.370425
   8 H :    0.344063
   9 O :   -0.730532
  10 H :    0.351178
  11 H :    0.380619
  12 O :   -0.719919
  13 H :    0.380415
  14 H :    0.366777
  15 O :   -0.750744
  16 H :    0.359493
  17 H :    0.347388
  18 O :   -0.698593
  19 H :    0.384892
  20 H :    0.362164
  21 O :   -0.702985
  22 H :    0.325620
  23 H :    0.363599
Sum of atomic charges:   -0.0000000

LOEWDIN ATOMIC CHARGES
----------------------
   0 O :   -0.287356
   1 H :    0.168055
   2 H :    0.193531
   3 O :   -0.313155
   4 H :    0.158120
   5 H :    0.146488
   6 O :   -0.361860
   7 H :    0.149921
   8 H :    0.138572
   9 O :   -0.319677
  10 H :    0.136974
  11 H :    0.150907
  12 O :   -0.277078
  13 H :    0.182596
  14 H :    0.181574
  15 O :   -0.351445
  16 H :    0.143745
  17 H :    0.137308
  18 O :   -0.272146
  19 H :    0.157638
  20 H :    0.176256
  21 O :   -0.344154
  22 H :    0.156321
  23 H :    0.148866

  Mayer bond orders larger than 0.100000
B(  0-O ,  1-H ) :   0.8318 B(  0-O ,  2-H ) :   0.8165 B(  3-O ,  4-H ) :   0.8417
B(  3-O ,  5-H ) :   0.7447 B(  6-O ,  7-H ) :   0.8172 B(  6-O ,  8-H ) :   0.8288
B(  9-O , 10-H ) :   0.8037 B(  9-O , 11-H ) :   0.7994 B(  9-O , 17-H ) :   0.1029
B( 12-O , 13-H ) :   0.8208 B( 12-O , 14-H ) :   0.8183 B( 15-O , 16-H ) :   0.8261
B( 15-O , 17-H ) :   0.7739 B( 18-O , 19-H ) :   0.8078 B( 18-O , 20-H ) :   0.8301
B( 21-O , 22-H ) :   0.8580 B( 21-O , 23-H ) :   0.8160

MP2 TOTAL ENERGY:     -610.580409353 Eh
FINAL SINGLE POINT ENERGY      -610.580409353282

DIPOLE MOMENT
-------------
                                X             Y             Z
Electronic contribution:      0.31183       0.24773       0.07483
Nuclear contribution   :      0.87642      -0.37074       1.46039
                        -----------------------------------------
Total Dipole Moment    :      1.18824      -0.12301       1.53522
                        -----------------------------------------
Magnitude (a.u.)       :      1.94524
Magnitude (Debye)      :      4.94440

Rotational constants in cm-1:     0.037543     0.018035     0.015226
Rotational constants in MHz :  1125.521129   540.662622   456.475724

                             ****ORCA TERMINATED NORMALLY****
TOTAL RUN TIME: 0 days 0 hours 3 minutes 10 seconds 135 msec
