                         Program Version 4.2.0 -  RELEASE  -
|  1> # 12h2o.su.etal.mol2,5,7,8,9,10,11
|  2> ! MP2 def2-TZVP EnGrad TightSCF
|  3>
|  4> %pal
|  5>     nprocs 6
|  6> end
|  7>
|  8> %maxcore 8000
|  9>
| 10> %scf
| 11>     ConvForced true
| 12> end
| 13>
| 14> *xyz 0 1
| 15> O   0.923410000  -1.794470000  -2.768350000
| 16> H   1.359750000  -2.338250000  -3.430940000
| 17> H   1.303000000  -0.879480000  -2.865760000
| 18> O   0.885520000  -1.737840000   0.052730000
| 19> H   1.284090000  -0.839590000   0.017130000
| 20> H   1.032320000  -2.090180000  -0.841890000
| 21> O  -1.737840000  -0.885520000  -0.052730000
| 22> H  -2.090180000  -1.032320000   0.841890000
| 23> H  -0.839590000  -1.284090000  -0.017130000
| 24> O   1.752130000   0.741530000  -2.896280000
| 25> H   2.036450000   0.920500000  -1.984040000
| 26> H   0.921210000   1.242140000  -2.984230000
| 27> O   0.741530000  -1.752130000   2.896280000
| 28> H   0.920500000  -2.036450000   1.984040000
| 29> H   1.242140000  -0.921210000   2.984230000
| 30> O  -0.923410000   1.794470000  -2.768350000
| 31> H  -1.359750000   2.338250000  -3.430940000
| 32> H  -1.303000000   0.879480000  -2.865760000
| 33> O  -0.741530000   1.752130000   2.896280000
| 34> H  -0.920500000   2.036450000   1.984040000
| 35> H  -1.242140000   0.921210000   2.984230000
| 36> *
| 37>
| 38>                          ****END OF INPUT****

CARTESIAN COORDINATES (ANGSTROEM)
---------------------------------
  O      0.923410   -1.794470   -2.768350
  H      1.359750   -2.338250   -3.430940
  H      1.303000   -0.879480   -2.865760
  O      0.885520   -1.737840    0.052730
  H      1.284090   -0.839590    0.017130
  H      1.032320   -2.090180   -0.841890
  O     -1.737840   -0.885520   -0.052730
  H     -2.090180   -1.032320    0.841890
  H     -0.839590   -1.284090   -0.017130
  O      1.752130    0.741530   -2.896280
  H      2.036450    0.920500   -1.984040
  H      0.921210    1.242140   -2.984230
  O      0.741530   -1.752130    2.896280
  H      0.920500   -2.036450    1.984040
  H      1.242140   -0.921210    2.984230
  O     -0.923410    1.794470   -2.768350
  H     -1.359750    2.338250   -3.430940
  H     -1.303000    0.879480   -2.865760
  O     -0.741530    1.752130    2.896280
  H     -0.920500    2.036450    1.984040
  H     -1.242140    0.921210    2.984230

 Total Charge           Charge          ....    0
 Multiplicity           Mult            ....    1
 Number of Electrons    NEL             ....   70
 Basis Dimension        Dim             ....  301

ORBITAL ENERGIES
----------------

  NO   OCC          E(Eh)            E(eV)
   0   2.0000     -20.598345      -560.5095
   1   2.0000     -20.593258      -560.3710
   2   2.0000     -20.589023      -560.2558
   3   2.0000     -20.560553      -559.4811
   4   2.0000     -20.557916      -559.4093
   5   2.0000     -20.538152      -558.8715
   6   2.0000     -20.532168      -558.7087
   7   2.0000      -1.386161       -37.7194
   8   2.0000      -1.376594       -37.4590
   9   2.0000      -1.372439       -37.3460
  10   2.0000      -1.342192       -36.5229
  11   2.0000      -1.337030       -36.3824
  12   2.0000      -1.319987       -35.9187
  13   2.0000      -1.312814       -35.7235
  14   2.0000      -0.749788       -20.4028
  15   2.0000      -0.738570       -20.0975
  16   2.0000      -0.735797       -20.0221
  17   2.0000      -0.726961       -19.7816
  18   2.0000      -0.699889       -19.0450
  19   2.0000      -0.691305       -18.8114
  20   2.0000      -0.686539       -18.6817
  21   2.0000      -0.638124       -17.3642
  22   2.0000      -0.621075       -16.9003
  23   2.0000      -0.605693       -16.4817
  24   2.0000      -0.582922       -15.8621
  25   2.0000      -0.575465       -15.6592
  26   2.0000      -0.570703       -15.5296
  27   2.0000      -0.551974       -15.0200
  28   2.0000      -0.540463       -14.7067
  29   2.0000      -0.530631       -14.4392
  30   2.0000      -0.520144       -14.1538
  31   2.0000      -0.510569       -13.8933
  32   2.0000      -0.502876       -13.6839
  33   2.0000      -0.484191       -13.1755
  34   2.0000      -0.479874       -13.0580
  35   0.0000       0.079608         2.1662
  36   0.0000       0.117057         3.1853
  37   0.0000       0.125977         3.4280
  38   0.0000       0.145867         3.9693
  39   0.0000       0.169759         4.6194

MULLIKEN ATOMIC CHARGES
-----------------------
   0 O :   -0.741270
   1 H :    0.343050
   2 H :    0.369550
   3 O :   -0.718623
   4 H :    0.331423
   5 H :    0.393696
   6 O :   -0.721723
   7 H :    0.327054
   8 H :    0.364843
   9 O :   -0.695938
  10 H :    0.344619
  11 H :    0.381995
  12 O :   -0.701485
  13 H :    0.370273
  14 H :    0.328269
  15 O :   -0.707500
  16 H :    0.355827
  17 H :    0.378896
  18 O :   -0.684945
  19 H :    0.339520
  20 H :    0.342470
Sum of atomic charges:   -0.0000000

LOEWDIN ATOMIC CHARGES
----------------------
   0 O :   -0.340638
   1 H :    0.156922
   2 H :    0.142579
   3 O :   -0.282930
   4 H :    0.166441
   5 H :    0.158712
   6 O :   -0.362004
   7 H :    0.156603
   8 H :    0.142753
   9 O :   -0.278153
  10 H :    0.165936
  11 H :    0.156760
  12 O :   -0.339485
  13 H :    0.150219
  14 H :    0.159597
  15 O :   -0.311586
  16 H :    0.165770
  17 H :    0.194980
  18 O :   -0.333424
  19 H :    0.165149
  20 H :    0.165798

  Mayer bond orders larger than 0.100000
B(  0-O ,  1-H ) :   0.8475 B(  0-O ,  2-H ) :   0.7568 B(  2-H ,  9-O ) :   0.1019
B(  3-O ,  4-H ) :   0.8436 B(  3-O ,  5-H ) :   0.7782 B(  6-O ,  7-H ) :   0.8571
B(  6-O ,  8-H ) :   0.7955 B(  9-O , 10-H ) :   0.8456 B(  9-O , 11-H ) :   0.7863
B( 12-O , 13-H ) :   0.8200 B( 12-O , 14-H ) :   0.8547 B( 15-O , 16-H ) :   0.8394
B( 15-O , 17-H ) :   0.8154 B( 18-O , 19-H ) :   0.8503 B( 18-O , 20-H ) :   0.8457

MP2 TOTAL ENERGY:     -534.241577739 Eh
FINAL SINGLE POINT ENERGY      -534.241577738873

DIPOLE MOMENT
-------------
                                X             Y             Z
Electronic contribution:     -0.00640       0.15395      -0.17609
Nuclear contribution   :      0.45337       0.56611      -1.95129
                        -----------------------------------------
Total Dipole Moment    :      0.44697       0.72006      -2.12739
                        -----------------------------------------
Magnitude (a.u.)       :      2.28999
Magnitude (Debye)      :      5.82068

Rotational constants in cm-1:     0.036938     0.019949     0.015886
Rotational constants in MHz :  1107.364246   598.067449   476.235944

                             ****ORCA TERMINATED NORMALLY****
TOTAL RUN TIME: 0 days 0 hours 1 minutes 35 seconds 674 msec
