                         Program Version 4.2.0 -  RELEASE  -
|  1> # 12meoh.boyd.etal.mol6,7,9
|  2> ! MP2 def2-TZVP EnGrad TightSCF
|  3>
|  4> %pal
|  5>     nprocs 6
|  6> end
|  7>
|  8> %maxcore 8000
|  9>
| 10> %scf
| 11>     ConvForced true
| 12> end
| 13>
| 14> *xyz 0 1
| 15> O   2.622209273  -1.703002590  -1.445859723
| 16> H   1.828551432  -1.986513781  -0.909754968
| 17> C   2.781117675  -2.615822239  -2.525472890
| 18> H   3.691063626  -2.339003544  -3.065143454
| 19> H   1.934727323  -2.559520367  -3.223226661
| 20> H   2.879948338  -3.653846211  -2.177750170
| 21> O   4.310535586  -1.588322800   0.656128299
| 22> H   3.804372199  -1.630404735  -0.196849819
| 23> C   4.312298137  -2.894980854   1.222112691
| 24> H   4.713177833  -2.819907076   2.237066773
| 25> H   4.957796734  -3.574699304   0.648211180
| 26> H   3.302735989  -3.324433205   1.269756773
| 27> O   1.390610024   3.194080770  -1.536658882
| 28> H   2.162932299   2.881562730  -0.993525056
| 29> C   1.202977189   4.580367182  -1.302880219
| 30> H   0.374773115   4.915764831  -1.934164643
| 31> H   2.098649340   5.157710875  -1.570472348
| 32> H   0.950320401   4.800436015  -0.254328827
| 33> *
| 34>
| 35>                          ****END OF INPUT****

CARTESIAN COORDINATES (ANGSTROEM)
---------------------------------
  O      2.622209   -1.703003   -1.445860
  H      1.828551   -1.986514   -0.909755
  C      2.781118   -2.615822   -2.525473
  H      3.691064   -2.339004   -3.065143
  H      1.934727   -2.559520   -3.223227
  H      2.879948   -3.653846   -2.177750
  O      4.310536   -1.588323    0.656128
  H      3.804372   -1.630405   -0.196850
  C      4.312298   -2.894981    1.222113
  H      4.713178   -2.819907    2.237067
  H      4.957797   -3.574699    0.648211
  H      3.302736   -3.324433    1.269757
  O      1.390610    3.194081   -1.536659
  H      2.162932    2.881563   -0.993525
  C      1.202977    4.580367   -1.302880
  H      0.374773    4.915765   -1.934165
  H      2.098649    5.157711   -1.570472
  H      0.950320    4.800436   -0.254329

 Total Charge           Charge          ....    0
 Multiplicity           Mult            ....    1
 Number of Electrons    NEL             ....   54
 Basis Dimension        Dim             ....  258

ORBITAL ENERGIES
----------------

  NO   OCC          E(Eh)            E(eV)
   0   2.0000     -20.589322      -560.2639
   1   2.0000     -20.551645      -559.2387
   2   2.0000     -20.519509      -558.3642
   3   2.0000     -11.290404      -307.2275
   4   2.0000     -11.266940      -306.5890
   5   2.0000     -11.256661      -306.3093
   6   2.0000      -1.381433       -37.5907
   7   2.0000      -1.342465       -36.5303
   8   2.0000      -1.316529       -35.8246
   9   2.0000      -0.942253       -25.6400
  10   2.0000      -0.914668       -24.8894
  11   2.0000      -0.902303       -24.5529
  12   2.0000      -0.710452       -19.3324
  13   2.0000      -0.680254       -18.5107
  14   2.0000      -0.677368       -18.4321
  15   2.0000      -0.633230       -17.2311
  16   2.0000      -0.612560       -16.6686
  17   2.0000      -0.612092       -16.6559
  18   2.0000      -0.597727       -16.2650
  19   2.0000      -0.587197       -15.9784
  20   2.0000      -0.567340       -15.4381
  21   2.0000      -0.526440       -14.3252
  22   2.0000      -0.494257       -13.4494
  23   2.0000      -0.491797       -13.3825
  24   2.0000      -0.459445       -12.5021
  25   2.0000      -0.443238       -12.0611
  26   2.0000      -0.422826       -11.5057
  27   0.0000       0.113412         3.0861
  28   0.0000       0.141474         3.8497
  29   0.0000       0.159703         4.3457
  30   0.0000       0.175271         4.7694
  31   0.0000       0.180876         4.9219

MULLIKEN ATOMIC CHARGES
-----------------------
   0 O :   -0.514045
   1 H :    0.341844
   2 C :   -0.187545
   3 H :    0.144215
   4 H :    0.129676
   5 H :    0.123550
   6 O :   -0.525652
   7 H :    0.353555
   8 C :   -0.177169
   9 H :    0.126431
  10 H :    0.101976
  11 H :    0.083339
  12 O :   -0.500118
  13 H :    0.327551
  14 C :   -0.170530
  15 H :    0.126317
  16 H :    0.108692
  17 H :    0.107912
Sum of atomic charges:    0.0000000

LOEWDIN ATOMIC CHARGES
----------------------
   0 O :   -0.073290
   1 H :    0.202103
   2 C :   -0.374910
   3 H :    0.115962
   4 H :    0.105144
   5 H :    0.100197
   6 O :   -0.121046
   7 H :    0.157870
   8 C :   -0.397200
   9 H :    0.107111
  10 H :    0.091838
  11 H :    0.086344
  12 O :   -0.106266
  13 H :    0.193124
  14 C :   -0.386543
  15 H :    0.109446
  16 H :    0.095109
  17 H :    0.095007

  Mayer bond orders larger than 0.100000
B(  0-O ,  1-H ) :   0.8273 B(  0-O ,  2-C ) :   0.8733 B(  2-C ,  3-H ) :   0.9393
B(  2-C ,  4-H ) :   0.9354 B(  2-C ,  5-H ) :   0.9366 B(  6-O ,  7-H ) :   0.7914
B(  6-O ,  8-C ) :   0.9458 B(  8-C ,  9-H ) :   0.9423 B(  8-C , 10-H ) :   0.9408
B(  8-C , 11-H ) :   0.9357 B( 12-O , 13-H ) :   0.8383 B( 12-O , 14-C ) :   0.9302
B( 14-C , 15-H ) :   0.9378 B( 14-C , 16-H ) :   0.9402 B( 14-C , 17-H ) :   0.9375

MP2 TOTAL ENERGY:     -346.528840456 Eh
FINAL SINGLE POINT ENERGY      -346.528840455726

DIPOLE MOMENT
-------------
                                X             Y             Z
Electronic contribution:     -0.05759       1.19194      -0.00824
Nuclear contribution   :     -0.44910      -1.89201      -0.31347
                        -----------------------------------------
Total Dipole Moment    :     -0.50670      -0.70008      -0.32171
                        -----------------------------------------
Magnitude (a.u.)       :      0.92214
Magnitude (Debye)      :      2.34390

Rotational constants in cm-1:     0.090805     0.017355     0.014836
Rotational constants in MHz :  2722.256492   520.303998   444.767149

                             ****ORCA TERMINATED NORMALLY****
TOTAL RUN TIME: 0 days 0 hours 1 minutes 1 seconds 599 msec
