                         Program Version 4.2.0 -  RELEASE  -
|  1> # 12h2o.su.etal.mol2,5,6,8,9
|  2> ! MP2 def2-TZVP EnGrad TightSCF
|  3>
|  4> %pal
|  5>     nprocs 6
|  6> end
|  7>
|  8> %maxcore 8000
|  9>
| 10> %scf
| 11>     ConvForced true
| 12> end
| 13>
| 14> *xyz 0 1
| 15> O   0.923410000  -1.794470000  -2.768350000
| 16> H   1.359750000  -2.338250000  -3.430940000
| 17> H   1.303000000  -0.879480000  -2.865760000
| 18> O   0.885520000  -1.737840000   0.052730000
| 19> H   1.284090000  -0.839590000   0.017130000
| 20> H   1.032320000  -2.090180000  -0.841890000
| 21> O   1.737840000   0.885520000  -0.052730000
| 22> H   2.090180000   1.032320000   0.841890000
| 23> H   0.839590000   1.284090000  -0.017130000
| 24> O   1.752130000   0.741530000  -2.896280000
| 25> H   2.036450000   0.920500000  -1.984040000
| 26> H   0.921210000   1.242140000  -2.984230000
| 27> O   0.741530000  -1.752130000   2.896280000
| 28> H   0.920500000  -2.036450000   1.984040000
| 29> H   1.242140000  -0.921210000   2.984230000
| 30> *
| 31>
| 32>                          ****END OF INPUT****

CARTESIAN COORDINATES (ANGSTROEM)
---------------------------------
  O      0.923410   -1.794470   -2.768350
  H      1.359750   -2.338250   -3.430940
  H      1.303000   -0.879480   -2.865760
  O      0.885520   -1.737840    0.052730
  H      1.284090   -0.839590    0.017130
  H      1.032320   -2.090180   -0.841890
  O      1.737840    0.885520   -0.052730
  H      2.090180    1.032320    0.841890
  H      0.839590    1.284090   -0.017130
  O      1.752130    0.741530   -2.896280
  H      2.036450    0.920500   -1.984040
  H      0.921210    1.242140   -2.984230
  O      0.741530   -1.752130    2.896280
  H      0.920500   -2.036450    1.984040
  H      1.242140   -0.921210    2.984230

 Total Charge           Charge          ....    0
 Multiplicity           Mult            ....    1
 Number of Electrons    NEL             ....   50
 Basis Dimension        Dim             ....  215

ORBITAL ENERGIES
----------------

  NO   OCC          E(Eh)            E(eV)
   0   2.0000     -20.636410      -561.5453
   1   2.0000     -20.593859      -560.3874
   2   2.0000     -20.541441      -558.9610
   3   2.0000     -20.525596      -558.5299
   4   2.0000     -20.524047      -558.4877
   5   2.0000      -1.419604       -38.6294
   6   2.0000      -1.381914       -37.6038
   7   2.0000      -1.327340       -36.1188
   8   2.0000      -1.313579       -35.7443
   9   2.0000      -1.303174       -35.4612
  10   2.0000      -0.778950       -21.1963
  11   2.0000      -0.744135       -20.2489
  12   2.0000      -0.711365       -19.3572
  13   2.0000      -0.697596       -18.9826
  14   2.0000      -0.676012       -18.3952
  15   2.0000      -0.660481       -17.9726
  16   2.0000      -0.614350       -16.7173
  17   2.0000      -0.599077       -16.3017
  18   2.0000      -0.566788       -15.4231
  19   2.0000      -0.555120       -15.1056
  20   2.0000      -0.531822       -14.4716
  21   2.0000      -0.523342       -14.2409
  22   2.0000      -0.489349       -13.3159
  23   2.0000      -0.476369       -12.9627
  24   2.0000      -0.470491       -12.8027
  25   0.0000       0.073103         1.9892
  26   0.0000       0.120634         3.2826
  27   0.0000       0.153565         4.1787
  28   0.0000       0.172157         4.6846
  29   0.0000       0.195146         5.3102

MULLIKEN ATOMIC CHARGES
-----------------------
   0 O :   -0.734544
   1 H :    0.335325
   2 H :    0.369091
   3 O :   -0.737387
   4 H :    0.328217
   5 H :    0.374383
   6 O :   -0.708516
   7 H :    0.371089
   8 H :    0.370373
   9 O :   -0.688565
  10 H :    0.385002
  11 H :    0.349471
  12 O :   -0.689190
  13 H :    0.378777
  14 H :    0.296473
Sum of atomic charges:   -0.0000000

LOEWDIN ATOMIC CHARGES
----------------------
   0 O :   -0.339956
   1 H :    0.153134
   2 H :    0.143301
   3 O :   -0.346373
   4 H :    0.132578
   5 H :    0.151140
   6 O :   -0.276824
   7 H :    0.178318
   8 H :    0.185332
   9 O :   -0.271606
  10 H :    0.157990
  11 H :    0.172161
  12 O :   -0.340601
  13 H :    0.154480
  14 H :    0.146928

  Mayer bond orders larger than 0.100000
B(  0-O ,  1-H ) :   0.8514 B(  0-O ,  2-H ) :   0.7681 B(  3-O ,  4-H ) :   0.8148
B(  3-O ,  5-H ) :   0.8039 B(  6-O ,  7-H ) :   0.8271 B(  6-O ,  8-H ) :   0.8238
B(  9-O , 10-H ) :   0.8076 B(  9-O , 11-H ) :   0.8420 B( 12-O , 13-H ) :   0.8063
B( 12-O , 14-H ) :   0.8749

MP2 TOTAL ENERGY:     -381.598198553 Eh
FINAL SINGLE POINT ENERGY      -381.598198553008

DIPOLE MOMENT
-------------
                                X             Y             Z
Electronic contribution:     -0.01893       0.08402      -0.18858
Nuclear contribution   :      0.78939       2.23794      -0.63259
                        -----------------------------------------
Total Dipole Moment    :      0.77046       2.32196      -0.82117
                        -----------------------------------------
Magnitude (a.u.)       :      2.58059
Magnitude (Debye)      :      6.55933

Rotational constants in cm-1:     0.119536     0.038611     0.029433
Rotational constants in MHz :  3583.612300  1157.528046   882.371365

                             ****ORCA TERMINATED NORMALLY****
TOTAL RUN TIME: 0 days 0 hours 0 minutes 36 seconds 208 msec
