                         Program Version 4.2.0 -  RELEASE  -
|  1> # Functional Basis-set
|  2> ! MP2 def2-TZVP
|  3>
|  4> # Type of calculation
|  5> ! OPT
|  6>
|  7> # Options
|  8> ! TightSCF Grid4
|  9> %maxcore 2000
| 10>
| 11> %pal nprocs 24 end
| 12>
| 13> *xyz  0  1
| 14> O    -2.867666    -1.821372    -0.772018
| 15> H    -1.982241    -2.110818    -0.955241
| 16> H    -2.999116    -1.037472    -1.292291
| 17> O     0.043817    -1.866490    -0.767104
| 18> H     0.048987    -1.609614     0.152031
| 19> H     0.923713    -2.171052    -0.955827
| 20> O     2.930036    -1.852845    -0.941014
| 21> H     2.970082    -0.973048    -1.322711
| 22> H     3.610150    -2.363474    -1.348915
| 23> O    -2.935599     0.927315    -1.851481
| 24> H    -2.976890     1.307539    -0.971120
| 25> H    -3.617549     1.333190    -2.361278
| 26> O    -0.049937     0.768624    -1.864595
| 27> H    -0.051102    -0.150622    -1.608116
| 28> H    -0.930018     0.953578    -2.170817
| 29> O     2.861689     0.784646    -1.824610
| 30> H     1.975329     0.963600    -2.113946
| 31> H     2.990362     1.304807    -1.040165
| 32> O    -2.870860     1.809723     0.786711
| 33> H    -2.994629     1.024733     1.307312
| 34> H    -1.986549     2.104959     0.965905
| 35> O     0.041043     1.866434     0.769987
| 36> H     0.041900     1.609528    -0.149127
| 37> H     0.919901     2.177253     0.953121
| 38> O     2.927814     1.864104     0.922952
| 39> H     2.972441     0.984434     1.304398
| 40> H     3.610126     2.376036     1.325540
| 41> O    -2.921378    -0.938585     1.865604
| 42> H    -2.966858    -1.319314     0.985644
| 43> H    -3.599494    -1.345653     2.379560
| 44> O    -0.035371    -0.767829     1.868273
| 45> H    -0.040157     0.151604     1.612372
| 46> H    -0.914375    -0.955770     2.175766
| 47> O     2.876537    -0.774086     1.807503
| 48> H     3.001442    -1.293952     1.022253
| 49> H     1.993489    -0.957585     2.104019
| 50> *
| 51>
| 52>                          ****END OF INPUT****
 Total Charge           Charge          ....    0
 Multiplicity           Mult            ....    1
 Number of Electrons    NEL             ....  120
MP2 TOTAL ENERGY:     -915.950886765 Eh
FINAL SINGLE POINT ENERGY      -915.950886765485
MP2 TOTAL ENERGY:     -915.960977453 Eh
FINAL SINGLE POINT ENERGY      -915.960977453179
MP2 TOTAL ENERGY:     -915.962946490 Eh
FINAL SINGLE POINT ENERGY      -915.962946489848
MP2 TOTAL ENERGY:     -915.964405746 Eh
FINAL SINGLE POINT ENERGY      -915.964405746458
MP2 TOTAL ENERGY:     -915.965494957 Eh
FINAL SINGLE POINT ENERGY      -915.965494956895
MP2 TOTAL ENERGY:     -915.966202995 Eh
FINAL SINGLE POINT ENERGY      -915.966202994742
MP2 TOTAL ENERGY:     -915.966505063 Eh
FINAL SINGLE POINT ENERGY      -915.966505062595
MP2 TOTAL ENERGY:     -915.966524351 Eh
FINAL SINGLE POINT ENERGY      -915.966524350511
                    ***********************HURRAY********************

CARTESIAN COORDINATES (ANGSTROEM)
---------------------------------
  O     -2.790918   -1.747081   -0.719255
  H     -1.881495   -2.034912   -0.911267
  H     -2.919405   -0.944781   -1.258444
  O      0.039653   -1.793190   -0.737757
  H      0.048349   -1.530637    0.211369
  H      0.946406   -2.098981   -0.922376
  O      2.848299   -1.797373   -0.901555
  H      2.892387   -0.886079   -1.299511
  H      3.544964   -2.310124   -1.324821
  O     -2.854315    0.887958   -1.796310
  H     -2.899301    1.284494   -0.884492
  H     -3.553109    1.309232   -2.307811
  O     -0.045084    0.739332   -1.791488
  H     -0.049817   -0.209900   -1.529238
  H     -0.952169    0.919739   -2.098754
  O      2.785620    0.731340   -1.750083
  H      1.875240    0.919050   -2.037700
  H      2.911272    1.270509   -0.947259
  O     -2.793971    1.735722    0.733193
  H     -2.914595    0.932549    1.272937
  H     -1.885513    2.029340    0.920883
  O      0.036663    1.793741    0.740516
  H      0.041150    1.530861   -0.208566
  H      0.942426    2.105720    0.919158
  O      2.846864    1.808624    0.883943
  H      2.895128    0.897471    1.281595
  H      3.546063    2.322069    1.302178
  O     -2.840204   -0.899308    1.810298
  H     -2.889711   -1.296189    0.898845
  H     -3.534975   -1.321954    2.326130
  O     -0.031476   -0.738775    1.795286
  H     -0.039863    0.210558    1.533596
  H     -0.937370   -0.922463    2.104167
  O      2.799013   -0.720955    1.733269
  H      2.920919   -1.259866    0.929706
  H      1.891948   -0.913213    2.028194

 Multiplicity           Mult            ....    1
 Number of Electrons    NEL             ....  120
 Basis Dimension        Dim             ....  516

ORBITAL ENERGIES
----------------

  NO   OCC          E(Eh)            E(eV)
   0   2.0000     -20.569012      -559.7113
   1   2.0000     -20.568984      -559.7105
   2   2.0000     -20.568978      -559.7103
   3   2.0000     -20.568956      -559.7097
   4   2.0000     -20.556827      -559.3797
   5   2.0000     -20.556787      -559.3786
   6   2.0000     -20.556784      -559.3785
   7   2.0000     -20.556684      -559.3758
   8   2.0000     -20.552414      -559.2596
   9   2.0000     -20.552413      -559.2596
  10   2.0000     -20.552377      -559.2586
  11   2.0000     -20.552332      -559.2574
  12   2.0000      -1.373551       -37.3762
  13   2.0000      -1.366455       -37.1831
  14   2.0000      -1.360087       -37.0098
  15   2.0000      -1.360061       -37.0091
  16   2.0000      -1.356663       -36.9167
  17   2.0000      -1.348088       -36.6833
  18   2.0000      -1.348063       -36.6826
  19   2.0000      -1.338920       -36.4339
  20   2.0000      -1.337098       -36.3843
  21   2.0000      -1.337061       -36.3833
  22   2.0000      -1.332279       -36.2532
  23   2.0000      -1.323609       -36.0172
  24   2.0000      -0.738825       -20.1045
  25   2.0000      -0.736454       -20.0399
  26   2.0000      -0.736410       -20.0387
  27   2.0000      -0.735931       -20.0257
  28   2.0000      -0.728148       -19.8139
  29   2.0000      -0.724836       -19.7238
  30   2.0000      -0.722711       -19.6660
  31   2.0000      -0.722679       -19.6651
  32   2.0000      -0.708988       -19.2926
  33   2.0000      -0.706667       -19.2294
  34   2.0000      -0.704305       -19.1651
  35   2.0000      -0.704270       -19.1642
  36   2.0000      -0.658831       -17.9277
  37   2.0000      -0.629581       -17.1318
  38   2.0000      -0.620444       -16.8832
  39   2.0000      -0.620421       -16.8825
  40   2.0000      -0.594019       -16.1641
  41   2.0000      -0.593992       -16.1633
  42   2.0000      -0.593177       -16.1412
  43   2.0000      -0.590896       -16.0791
  44   2.0000      -0.566655       -15.4195
  45   2.0000      -0.566638       -15.4190
  46   2.0000      -0.561585       -15.2815
  47   2.0000      -0.538124       -14.6431
  48   2.0000      -0.519258       -14.1297
  49   2.0000      -0.519226       -14.1289
  50   2.0000      -0.517901       -14.0928
  51   2.0000      -0.517324       -14.0771
  52   2.0000      -0.507920       -13.8212
  53   2.0000      -0.506470       -13.7818
  54   2.0000      -0.506437       -13.7808
  55   2.0000      -0.503223       -13.6934
  56   2.0000      -0.502363       -13.6700
  57   2.0000      -0.499808       -13.6005
  58   2.0000      -0.499764       -13.5993
  59   2.0000      -0.498126       -13.5547
  60   0.0000       0.117691         3.2025
  61   0.0000       0.132678         3.6103
  62   0.0000       0.144895         3.9428
  63   0.0000       0.144924         3.9436
  64   0.0000       0.187607         5.1050

MULLIKEN ATOMIC CHARGES
-----------------------
   0 O :   -0.733889
   1 H :    0.387985
   2 H :    0.374700
   3 O :   -0.768517
   4 H :    0.373335
   5 H :    0.384564
   6 O :   -0.763021
   7 H :    0.392726
   8 H :    0.352131
   9 O :   -0.762964
  10 H :    0.392691
  11 H :    0.352088
  12 O :   -0.768373
  13 H :    0.373316
  14 H :    0.384492
  15 O :   -0.733897
  16 H :    0.387888
  17 H :    0.374702
  18 O :   -0.733873
  19 H :    0.374674
  20 H :    0.387861
  21 O :   -0.768351
  22 H :    0.373404
  23 H :    0.384412
  24 O :   -0.762937
  25 H :    0.392646
  26 H :    0.352104
  27 O :   -0.762987
  28 H :    0.392716
  29 H :    0.352136
  30 O :   -0.768493
  31 H :    0.373482
  32 H :    0.384525
  33 O :   -0.733829
  34 H :    0.374696
  35 H :    0.387861
Sum of atomic charges:   -0.0000000

LOEWDIN ATOMIC CHARGES
----------------------
   0 O :   -0.290678
   1 H :    0.156297
   2 H :    0.149799
   3 O :   -0.305093
   4 H :    0.142962
   5 H :    0.152482
   6 O :   -0.315677
   7 H :    0.148873
   8 H :    0.161141
   9 O :   -0.315770
  10 H :    0.148863
  11 H :    0.161132
  12 O :   -0.304978
  13 H :    0.142939
  14 H :    0.152509
  15 O :   -0.290727
  16 H :    0.156259
  17 H :    0.149734
  18 O :   -0.290729
  19 H :    0.149765
  20 H :    0.156310
  21 O :   -0.305054
  22 H :    0.142932
  23 H :    0.152548
  24 O :   -0.315730
  25 H :    0.148880
  26 H :    0.161140
  27 O :   -0.315649
  28 H :    0.148885
  29 H :    0.161149
  30 O :   -0.305209
  31 H :    0.142933
  32 H :    0.152440
  33 O :   -0.290761
  34 H :    0.149747
  35 H :    0.156331

  Mayer bond orders larger than 0.100000
B(  0-O ,  1-H ) :   0.7968 B(  0-O ,  2-H ) :   0.7937 B(  0-O , 28-H ) :   0.1168
B(  3-O ,  4-H ) :   0.7547 B(  3-O ,  5-H ) :   0.7901 B(  3-O , 13-H ) :   0.1002
B(  4-H , 30-O ) :   0.1003 B(  6-O ,  7-H ) :   0.7252 B(  6-O ,  8-H ) :   0.8394
B(  7-H , 15-O ) :   0.1170 B(  9-O , 10-H ) :   0.7253 B(  9-O , 11-H ) :   0.8395
B( 10-H , 18-O ) :   0.1168 B( 12-O , 13-H ) :   0.7548 B( 12-O , 14-H ) :   0.7902
B( 12-O , 22-H ) :   0.1002 B( 15-O , 16-H ) :   0.7968 B( 15-O , 17-H ) :   0.7936
B( 18-O , 19-H ) :   0.7936 B( 18-O , 20-H ) :   0.7969 B( 21-O , 22-H ) :   0.7547
B( 21-O , 23-H ) :   0.7904 B( 21-O , 31-H ) :   0.1001 B( 24-O , 25-H ) :   0.7253
B( 24-O , 26-H ) :   0.8395 B( 25-H , 33-O ) :   0.1169 B( 27-O , 28-H ) :   0.7253
B( 27-O , 29-H ) :   0.8394 B( 30-O , 31-H ) :   0.7548 B( 30-O , 32-H ) :   0.7902
B( 33-O , 34-H ) :   0.7936 B( 33-O , 35-H ) :   0.7970

MP2 TOTAL ENERGY:     -915.966533064 Eh
FINAL SINGLE POINT ENERGY      -915.966533063941

DIPOLE MOMENT
-------------
                                X             Y             Z
Electronic contribution:     -0.00010      -0.00034      -0.00017
Nuclear contribution   :     -0.00113       0.00202      -0.00133
                        -----------------------------------------
Total Dipole Moment    :     -0.00123       0.00167      -0.00149
                        -----------------------------------------
Magnitude (a.u.)       :      0.00256
Magnitude (Debye)      :      0.00651

Rotational constants in cm-1:     0.020379     0.010750     0.010749
Rotational constants in MHz :   610.944042   322.276351   322.248141

                             ****ORCA TERMINATED NORMALLY****
TOTAL RUN TIME: 0 days 1 hours 11 minutes 27 seconds 190 msec
