                         Program Version 4.2.0 -  RELEASE  -
|  1> # 12h2o.su.etal.mol0,4,5,6,7,9,11
|  2> ! MP2 def2-TZVP EnGrad TightSCF
|  3>
|  4> %pal
|  5>     nprocs 6
|  6> end
|  7>
|  8> %maxcore 8000
|  9>
| 10> %scf
| 11>     ConvForced true
| 12> end
| 13>
| 14> *xyz 0 1
| 15> O   1.794470000   0.923410000   2.768350000
| 16> H   2.338250000   1.359750000   3.430940000
| 17> H   0.879480000   1.303000000   2.865760000
| 18> O  -0.885520000   1.737840000   0.052730000
| 19> H  -1.032320000   2.090180000  -0.841890000
| 20> H  -1.284090000   0.839590000   0.017130000
| 21> O   0.885520000  -1.737840000   0.052730000
| 22> H   1.284090000  -0.839590000   0.017130000
| 23> H   1.032320000  -2.090180000  -0.841890000
| 24> O   1.737840000   0.885520000  -0.052730000
| 25> H   2.090180000   1.032320000   0.841890000
| 26> H   0.839590000   1.284090000  -0.017130000
| 27> O  -1.737840000  -0.885520000  -0.052730000
| 28> H  -2.090180000  -1.032320000   0.841890000
| 29> H  -0.839590000  -1.284090000  -0.017130000
| 30> O   0.741530000  -1.752130000   2.896280000
| 31> H   0.920500000  -2.036450000   1.984040000
| 32> H   1.242140000  -0.921210000   2.984230000
| 33> O  -0.741530000   1.752130000   2.896280000
| 34> H  -0.920500000   2.036450000   1.984040000
| 35> H  -1.242140000   0.921210000   2.984230000
| 36> *
| 37>
| 38>                          ****END OF INPUT****

CARTESIAN COORDINATES (ANGSTROEM)
---------------------------------
  O      1.794470    0.923410    2.768350
  H      2.338250    1.359750    3.430940
  H      0.879480    1.303000    2.865760
  O     -0.885520    1.737840    0.052730
  H     -1.032320    2.090180   -0.841890
  H     -1.284090    0.839590    0.017130
  O      0.885520   -1.737840    0.052730
  H      1.284090   -0.839590    0.017130
  H      1.032320   -2.090180   -0.841890
  O      1.737840    0.885520   -0.052730
  H      2.090180    1.032320    0.841890
  H      0.839590    1.284090   -0.017130
  O     -1.737840   -0.885520   -0.052730
  H     -2.090180   -1.032320    0.841890
  H     -0.839590   -1.284090   -0.017130
  O      0.741530   -1.752130    2.896280
  H      0.920500   -2.036450    1.984040
  H      1.242140   -0.921210    2.984230
  O     -0.741530    1.752130    2.896280
  H     -0.920500    2.036450    1.984040
  H     -1.242140    0.921210    2.984230

 Total Charge           Charge          ....    0
 Multiplicity           Mult            ....    1
 Number of Electrons    NEL             ....   70
 Basis Dimension        Dim             ....  301

ORBITAL ENERGIES
----------------

  NO   OCC          E(Eh)            E(eV)
   0   2.0000     -20.593415      -560.3753
   1   2.0000     -20.587224      -560.2068
   2   2.0000     -20.577402      -559.9396
   3   2.0000     -20.576784      -559.9228
   4   2.0000     -20.565758      -559.6227
   5   2.0000     -20.547327      -559.1212
   6   2.0000     -20.515044      -558.2427
   7   2.0000      -1.388785       -37.7907
   8   2.0000      -1.376213       -37.4487
   9   2.0000      -1.370301       -37.2878
  10   2.0000      -1.355828       -36.8940
  11   2.0000      -1.350738       -36.7555
  12   2.0000      -1.331021       -36.2189
  13   2.0000      -1.299940       -35.3732
  14   2.0000      -0.750495       -20.4220
  15   2.0000      -0.734798       -19.9949
  16   2.0000      -0.732496       -19.9322
  17   2.0000      -0.730578       -19.8800
  18   2.0000      -0.728586       -19.8258
  19   2.0000      -0.710244       -19.3267
  20   2.0000      -0.678413       -18.4606
  21   2.0000      -0.650010       -17.6877
  22   2.0000      -0.618966       -16.8429
  23   2.0000      -0.616717       -16.7817
  24   2.0000      -0.601358       -16.3638
  25   2.0000      -0.592423       -16.1206
  26   2.0000      -0.575608       -15.6631
  27   2.0000      -0.542824       -14.7710
  28   2.0000      -0.530749       -14.4424
  29   2.0000      -0.526462       -14.3258
  30   2.0000      -0.523265       -14.2388
  31   2.0000      -0.519567       -14.1381
  32   2.0000      -0.508246       -13.8301
  33   2.0000      -0.496200       -13.5023
  34   2.0000      -0.465007       -12.6535
  35   0.0000       0.096718         2.6318
  36   0.0000       0.140127         3.8131
  37   0.0000       0.143304         3.8995
  38   0.0000       0.144707         3.9377
  39   0.0000       0.199400         5.4259

MULLIKEN ATOMIC CHARGES
-----------------------
   0 O :   -0.754164
   1 H :    0.350460
   2 H :    0.384796
   3 O :   -0.745163
   4 H :    0.365886
   5 H :    0.367710
   6 O :   -0.741614
   7 H :    0.374561
   8 H :    0.356358
   9 O :   -0.730864
  10 H :    0.379412
  11 H :    0.355544
  12 O :   -0.715676
  13 H :    0.349811
  14 H :    0.375445
  15 O :   -0.734235
  16 H :    0.366578
  17 H :    0.350872
  18 O :   -0.698337
  19 H :    0.390628
  20 H :    0.351991
Sum of atomic charges:   -0.0000000

LOEWDIN ATOMIC CHARGES
----------------------
   0 O :   -0.314474
   1 H :    0.159220
   2 H :    0.146795
   3 O :   -0.299656
   4 H :    0.174814
   5 H :    0.145129
   6 O :   -0.296492
   7 H :    0.146889
   8 H :    0.169743
   9 O :   -0.315861
  10 H :    0.150009
  11 H :    0.138025
  12 O :   -0.306986
  13 H :    0.165810
  14 H :    0.146201
  15 O :   -0.356473
  16 H :    0.147731
  17 H :    0.141679
  18 O :   -0.272360
  19 H :    0.159265
  20 H :    0.170991

  Mayer bond orders larger than 0.100000
B(  0-O ,  1-H ) :   0.8403 B(  0-O ,  2-H ) :   0.7415 B(  3-O ,  4-H ) :   0.8315
B(  3-O ,  5-H ) :   0.7475 B(  5-H , 12-O ) :   0.1214 B(  6-O ,  7-H ) :   0.7404
B(  6-O ,  8-H ) :   0.8357 B(  6-O , 14-H ) :   0.1025 B(  7-H ,  9-O ) :   0.1246
B(  9-O , 10-H ) :   0.8005 B(  9-O , 11-H ) :   0.7896 B( 12-O , 13-H ) :   0.8410
B( 12-O , 14-H ) :   0.7626 B( 15-O , 16-H ) :   0.8259 B( 15-O , 17-H ) :   0.8205
B( 18-O , 19-H ) :   0.7985 B( 18-O , 20-H ) :   0.8362

MP2 TOTAL ENERGY:     -534.279976491 Eh
FINAL SINGLE POINT ENERGY      -534.279976491340

DIPOLE MOMENT
-------------
                                X             Y             Z
Electronic contribution:     -0.12954       0.14167       0.00102
Nuclear contribution   :     -0.30898       0.67915      -0.73962
                        -----------------------------------------
Total Dipole Moment    :     -0.43852       0.82081      -0.73860
                        -----------------------------------------
Magnitude (a.u.)       :      1.18809
Magnitude (Debye)      :      3.01990

Rotational constants in cm-1:     0.039170     0.036838     0.030129
Rotational constants in MHz :  1174.274160  1104.377214   903.240002

                             ****ORCA TERMINATED NORMALLY****
TOTAL RUN TIME: 0 days 0 hours 2 minutes 16 seconds 544 msec
