                         Program Version 4.2.0 -  RELEASE  -
|  1> # 12mecn.remya.etal.2.mol9,11
|  2> ! MP2 def2-TZVP EnGrad TightSCF
|  3>
|  4> %pal
|  5>     nprocs 6
|  6> end
|  7>
|  8> %maxcore 8000
|  9>
| 10> %scf
| 11>     ConvForced true
| 12> end
| 13>
| 14> *xyz 0 1
| 15> C   0.923766000   4.000693000  -1.575910000
| 16> H   0.011949000   4.478423000  -1.939550000
| 17> H   0.947903000   2.966558000  -1.929960000
| 18> H   1.805950000   4.519548000  -1.956520000
| 19> C   0.942834000   3.994846000  -0.131200000
| 20> N   0.960035000   3.982544000   1.035639000
| 21> C   4.214163000   3.378139000   1.593627000
| 22> H   3.242643000   3.657109000   2.012358000
| 23> H   4.969258000   4.086643000   1.941290000
| 24> H   4.482966000   2.372549000   1.931698000
| 25> C   4.130759000   3.388436000   0.150192000
| 26> N   4.050180000   3.381449000  -1.013420000
| 27> *
| 28>
| 29>                          ****END OF INPUT****

CARTESIAN COORDINATES (ANGSTROEM)
---------------------------------
  C      0.923766    4.000693   -1.575910
  H      0.011949    4.478423   -1.939550
  H      0.947903    2.966558   -1.929960
  H      1.805950    4.519548   -1.956520
  C      0.942834    3.994846   -0.131200
  N      0.960035    3.982544    1.035639
  C      4.214163    3.378139    1.593627
  H      3.242643    3.657109    2.012358
  H      4.969258    4.086643    1.941290
  H      4.482966    2.372549    1.931698
  C      4.130759    3.388436    0.150192
  N      4.050180    3.381449   -1.013420

 Total Charge           Charge          ....    0
 Multiplicity           Mult            ....    1
 Number of Electrons    NEL             ....   44
 Basis Dimension        Dim             ....  222

ORBITAL ENERGIES
----------------

  NO   OCC          E(Eh)            E(eV)
   0   2.0000     -15.571297      -423.7165
   1   2.0000     -15.570593      -423.6974
   2   2.0000     -11.283024      -307.0267
   3   2.0000     -11.282777      -307.0200
   4   2.0000     -11.272241      -306.7333
   5   2.0000     -11.271914      -306.7244
   6   2.0000      -1.218251       -33.1503
   7   2.0000      -1.213570       -33.0229
   8   2.0000      -1.036517       -28.2051
   9   2.0000      -1.033627       -28.1264
  10   2.0000      -0.695237       -18.9184
  11   2.0000      -0.691037       -18.8041
  12   2.0000      -0.631365       -17.1803
  13   2.0000      -0.622734       -16.9455
  14   2.0000      -0.618896       -16.8410
  15   2.0000      -0.615664       -16.7531
  16   2.0000      -0.559164       -15.2156
  17   2.0000      -0.555944       -15.1280
  18   2.0000      -0.462595       -12.5879
  19   2.0000      -0.458785       -12.4842
  20   2.0000      -0.457074       -12.4376
  21   2.0000      -0.453314       -12.3353
  22   0.0000       0.126654         3.4464
  23   0.0000       0.144444         3.9305
  24   0.0000       0.170728         4.6457
  25   0.0000       0.175439         4.7739
  26   0.0000       0.178112         4.8467

MULLIKEN ATOMIC CHARGES
-----------------------
   0 C :   -0.267828
   1 H :    0.170262
   2 H :    0.170324
   3 H :    0.190660
   4 C :   -0.113118
   5 N :   -0.149857
   6 C :   -0.287681
   7 H :    0.205665
   8 H :    0.166690
   9 H :    0.166491
  10 C :   -0.109464
  11 N :   -0.142145
Sum of atomic charges:    0.0000000

LOEWDIN ATOMIC CHARGES
----------------------
   0 C :   -0.283770
   1 H :    0.148864
   2 H :    0.156515
   3 H :    0.156415
   4 C :   -0.209136
   5 N :    0.028607
   6 C :   -0.282452
   7 H :    0.157269
   8 H :    0.150034
   9 H :    0.152802
  10 C :   -0.208734
  11 N :    0.033587

  Mayer bond orders larger than 0.100000
B(  0-C ,  1-H ) :   0.9122 B(  0-C ,  2-H ) :   0.9150 B(  0-C ,  3-H ) :   0.9077
B(  0-C ,  4-C ) :   0.9085 B(  4-C ,  5-N ) :   2.7730 B(  6-C ,  7-H ) :   0.9020
B(  6-C ,  8-H ) :   0.9162 B(  6-C ,  9-H ) :   0.9148 B(  6-C , 10-C ) :   0.9009
B( 10-C , 11-N ) :   2.7857

MP2 TOTAL ENERGY:     -264.975997659 Eh
FINAL SINGLE POINT ENERGY      -264.975997658576

DIPOLE MOMENT
-------------
                                X             Y             Z
Electronic contribution:     -0.14592       0.04140      -0.01056
Nuclear contribution   :      0.21600      -0.03785      -0.00000
                        -----------------------------------------
Total Dipole Moment    :      0.07007       0.00356      -0.01056
                        -----------------------------------------
Magnitude (a.u.)       :      0.07096
Magnitude (Debye)      :      0.18035

Rotational constants in cm-1:     0.167236     0.070462     0.050522
Rotational constants in MHz :  5013.621380  2112.407440  1514.599412

                             ****ORCA TERMINATED NORMALLY****
TOTAL RUN TIME: 0 days 0 hours 1 minutes 14 seconds 572 msec
