                         Program Version 4.2.0 -  RELEASE  -
|  1> # 12h2o.su.etal.mol1,2,5,8,11
|  2> ! MP2 def2-TZVP EnGrad TightSCF
|  3>
|  4> %pal
|  5>     nprocs 6
|  6> end
|  7>
|  8> %maxcore 8000
|  9>
| 10> %scf
| 11>     ConvForced true
| 12> end
| 13>
| 14> *xyz 0 1
| 15> O  -1.794470000  -0.923410000   2.768350000
| 16> H  -2.338250000  -1.359750000   3.430940000
| 17> H  -0.879480000  -1.303000000   2.865760000
| 18> O   0.923410000  -1.794470000  -2.768350000
| 19> H   1.359750000  -2.338250000  -3.430940000
| 20> H   1.303000000  -0.879480000  -2.865760000
| 21> O   0.885520000  -1.737840000   0.052730000
| 22> H   1.284090000  -0.839590000   0.017130000
| 23> H   1.032320000  -2.090180000  -0.841890000
| 24> O   1.752130000   0.741530000  -2.896280000
| 25> H   2.036450000   0.920500000  -1.984040000
| 26> H   0.921210000   1.242140000  -2.984230000
| 27> O  -0.741530000   1.752130000   2.896280000
| 28> H  -0.920500000   2.036450000   1.984040000
| 29> H  -1.242140000   0.921210000   2.984230000
| 30> *
| 31>
| 32>                          ****END OF INPUT****

CARTESIAN COORDINATES (ANGSTROEM)
---------------------------------
  O     -1.794470   -0.923410    2.768350
  H     -2.338250   -1.359750    3.430940
  H     -0.879480   -1.303000    2.865760
  O      0.923410   -1.794470   -2.768350
  H      1.359750   -2.338250   -3.430940
  H      1.303000   -0.879480   -2.865760
  O      0.885520   -1.737840    0.052730
  H      1.284090   -0.839590    0.017130
  H      1.032320   -2.090180   -0.841890
  O      1.752130    0.741530   -2.896280
  H      2.036450    0.920500   -1.984040
  H      0.921210    1.242140   -2.984230
  O     -0.741530    1.752130    2.896280
  H     -0.920500    2.036450    1.984040
  H     -1.242140    0.921210    2.984230

 Total Charge           Charge          ....    0
 Multiplicity           Mult            ....    1
 Number of Electrons    NEL             ....   50
 Basis Dimension        Dim             ....  215

ORBITAL ENERGIES
----------------

  NO   OCC          E(Eh)            E(eV)
   0   2.0000     -20.615940      -560.9883
   1   2.0000     -20.575594      -559.8904
   2   2.0000     -20.548885      -559.1636
   3   2.0000     -20.534884      -558.7826
   4   2.0000     -20.529801      -558.6443
   5   2.0000      -1.401329       -38.1321
   6   2.0000      -1.353391       -36.8276
   7   2.0000      -1.334473       -36.3129
   8   2.0000      -1.312610       -35.7179
   9   2.0000      -1.311980       -35.7008
  10   2.0000      -0.758507       -20.6400
  11   2.0000      -0.720523       -19.6064
  12   2.0000      -0.720304       -19.6005
  13   2.0000      -0.682147       -18.5622
  14   2.0000      -0.680553       -18.5188
  15   2.0000      -0.638273       -17.3683
  16   2.0000      -0.594361       -16.1734
  17   2.0000      -0.586909       -15.9706
  18   2.0000      -0.559449       -15.2234
  19   2.0000      -0.551986       -15.0203
  20   2.0000      -0.536763       -14.6061
  21   2.0000      -0.514150       -13.9907
  22   2.0000      -0.496088       -13.4992
  23   2.0000      -0.480214       -13.0673
  24   2.0000      -0.477475       -12.9928
  25   0.0000       0.083609         2.2751
  26   0.0000       0.123363         3.3569
  27   0.0000       0.152175         4.1409
  28   0.0000       0.156995         4.2720
  29   0.0000       0.172170         4.6850

MULLIKEN ATOMIC CHARGES
-----------------------
   0 O :   -0.695537
   1 H :    0.347879
   2 H :    0.369544
   3 O :   -0.731800
   4 H :    0.337400
   5 H :    0.365773
   6 O :   -0.691690
   7 H :    0.302221
   8 H :    0.371846
   9 O :   -0.673958
  10 H :    0.354357
  11 H :    0.367262
  12 O :   -0.706026
  13 H :    0.323557
  14 H :    0.359172
Sum of atomic charges:    0.0000000

LOEWDIN ATOMIC CHARGES
----------------------
   0 O :   -0.310140
   1 H :    0.161629
   2 H :    0.191340
   3 O :   -0.338228
   4 H :    0.154051
   5 H :    0.142473
   6 O :   -0.347274
   7 H :    0.153689
   8 H :    0.150885
   9 O :   -0.266270
  10 H :    0.171818
  11 H :    0.180649
  12 O :   -0.350192
  13 H :    0.157720
  14 H :    0.147850

  Mayer bond orders larger than 0.100000
B(  0-O ,  1-H ) :   0.8441 B(  0-O ,  2-H ) :   0.8232 B(  3-O ,  4-H ) :   0.8503
B(  3-O ,  5-H ) :   0.7742 B(  6-O ,  7-H ) :   0.8689 B(  6-O ,  8-H ) :   0.8084
B(  9-O , 10-H ) :   0.8384 B(  9-O , 11-H ) :   0.8312 B( 12-O , 13-H ) :   0.8615
B( 12-O , 14-H ) :   0.8141

MP2 TOTAL ENERGY:     -381.588242733 Eh
FINAL SINGLE POINT ENERGY      -381.588242733351

DIPOLE MOMENT
-------------
                                X             Y             Z
Electronic contribution:     -0.08229       0.00256      -0.12709
Nuclear contribution   :      0.42145       0.19491      -0.77428
                        -----------------------------------------
Total Dipole Moment    :      0.33916       0.19748      -0.90137
                        -----------------------------------------
Magnitude (a.u.)       :      0.98310
Magnitude (Debye)      :      2.49884

Rotational constants in cm-1:     0.089334     0.022653     0.018901
Rotational constants in MHz :  2678.168731   679.114289   566.648300

                             ****ORCA TERMINATED NORMALLY****
TOTAL RUN TIME: 0 days 0 hours 0 minutes 28 seconds 576 msec
