                         Program Version 4.2.0 -  RELEASE  -
|  1> # 12h2o.su.etal.mol0,2,3,6,7,8,9
|  2> ! MP2 def2-TZVP EnGrad TightSCF
|  3>
|  4> %pal
|  5>     nprocs 6
|  6> end
|  7>
|  8> %maxcore 8000
|  9>
| 10> %scf
| 11>     ConvForced true
| 12> end
| 13>
| 14> *xyz 0 1
| 15> O   1.794470000   0.923410000   2.768350000
| 16> H   2.338250000   1.359750000   3.430940000
| 17> H   0.879480000   1.303000000   2.865760000
| 18> O   0.923410000  -1.794470000  -2.768350000
| 19> H   1.359750000  -2.338250000  -3.430940000
| 20> H   1.303000000  -0.879480000  -2.865760000
| 21> O  -1.752130000  -0.741530000  -2.896280000
| 22> H  -2.036450000  -0.920500000  -1.984040000
| 23> H  -0.921210000  -1.242140000  -2.984230000
| 24> O   1.737840000   0.885520000  -0.052730000
| 25> H   2.090180000   1.032320000   0.841890000
| 26> H   0.839590000   1.284090000  -0.017130000
| 27> O  -1.737840000  -0.885520000  -0.052730000
| 28> H  -2.090180000  -1.032320000   0.841890000
| 29> H  -0.839590000  -1.284090000  -0.017130000
| 30> O   1.752130000   0.741530000  -2.896280000
| 31> H   2.036450000   0.920500000  -1.984040000
| 32> H   0.921210000   1.242140000  -2.984230000
| 33> O   0.741530000  -1.752130000   2.896280000
| 34> H   0.920500000  -2.036450000   1.984040000
| 35> H   1.242140000  -0.921210000   2.984230000
| 36> *
| 37>
| 38>                          ****END OF INPUT****

CARTESIAN COORDINATES (ANGSTROEM)
---------------------------------
  O      1.794470    0.923410    2.768350
  H      2.338250    1.359750    3.430940
  H      0.879480    1.303000    2.865760
  O      0.923410   -1.794470   -2.768350
  H      1.359750   -2.338250   -3.430940
  H      1.303000   -0.879480   -2.865760
  O     -1.752130   -0.741530   -2.896280
  H     -2.036450   -0.920500   -1.984040
  H     -0.921210   -1.242140   -2.984230
  O      1.737840    0.885520   -0.052730
  H      2.090180    1.032320    0.841890
  H      0.839590    1.284090   -0.017130
  O     -1.737840   -0.885520   -0.052730
  H     -2.090180   -1.032320    0.841890
  H     -0.839590   -1.284090   -0.017130
  O      1.752130    0.741530   -2.896280
  H      2.036450    0.920500   -1.984040
  H      0.921210    1.242140   -2.984230
  O      0.741530   -1.752130    2.896280
  H      0.920500   -2.036450    1.984040
  H      1.242140   -0.921210    2.984230

 Total Charge           Charge          ....    0
 Multiplicity           Mult            ....    1
 Number of Electrons    NEL             ....   70
 Basis Dimension        Dim             ....  301

ORBITAL ENERGIES
----------------

  NO   OCC          E(Eh)            E(eV)
   0   2.0000     -20.635449      -561.5191
   1   2.0000     -20.583255      -560.0988
   2   2.0000     -20.578131      -559.9594
   3   2.0000     -20.565971      -559.6285
   4   2.0000     -20.555880      -559.3539
   5   2.0000     -20.530863      -558.6732
   6   2.0000     -20.494349      -557.6796
   7   2.0000      -1.415641       -38.5216
   8   2.0000      -1.366409       -37.1819
   9   2.0000      -1.356329       -36.9076
  10   2.0000      -1.353094       -36.8196
  11   2.0000      -1.338107       -36.4117
  12   2.0000      -1.314422       -35.7672
  13   2.0000      -1.279252       -34.8102
  14   2.0000      -0.781288       -21.2599
  15   2.0000      -0.736177       -20.0324
  16   2.0000      -0.718240       -19.5443
  17   2.0000      -0.713045       -19.4030
  18   2.0000      -0.709273       -19.3003
  19   2.0000      -0.698266       -19.0008
  20   2.0000      -0.657226       -17.8840
  21   2.0000      -0.654002       -17.7963
  22   2.0000      -0.619267       -16.8511
  23   2.0000      -0.601346       -16.3634
  24   2.0000      -0.592584       -16.1250
  25   2.0000      -0.579865       -15.7789
  26   2.0000      -0.561829       -15.2881
  27   2.0000      -0.555307       -15.1107
  28   2.0000      -0.531141       -14.4531
  29   2.0000      -0.527069       -14.3423
  30   2.0000      -0.513632       -13.9766
  31   2.0000      -0.502719       -13.6797
  32   2.0000      -0.501139       -13.6367
  33   2.0000      -0.477282       -12.9875
  34   2.0000      -0.444589       -12.0979
  35   0.0000       0.070341         1.9141
  36   0.0000       0.113322         3.0837
  37   0.0000       0.138010         3.7554
  38   0.0000       0.147128         4.0036
  39   0.0000       0.170480         4.6390

MULLIKEN ATOMIC CHARGES
-----------------------
   0 O :   -0.716351
   1 H :    0.371346
   2 H :    0.370126
   3 O :   -0.742578
   4 H :    0.335384
   5 H :    0.383659
   6 O :   -0.736623
   7 H :    0.361894
   8 H :    0.347893
   9 O :   -0.714512
  10 H :    0.376366
  11 H :    0.338741
  12 O :   -0.700286
  13 H :    0.347835
  14 H :    0.350850
  15 O :   -0.702561
  16 H :    0.385895
  17 H :    0.353014
  18 O :   -0.700442
  19 H :    0.333693
  20 H :    0.356656
Sum of atomic charges:   -0.0000000

LOEWDIN ATOMIC CHARGES
----------------------
   0 O :   -0.286856
   1 H :    0.171323
   2 H :    0.191948
   3 O :   -0.343120
   4 H :    0.152940
   5 H :    0.145903
   6 O :   -0.360209
   7 H :    0.147777
   8 H :    0.141189
   9 O :   -0.323629
  10 H :    0.153290
  11 H :    0.169369
  12 O :   -0.318541
  13 H :    0.168245
  14 H :    0.173348
  15 O :   -0.277342
  16 H :    0.158385
  17 H :    0.171819
  18 O :   -0.342159
  19 H :    0.160183
  20 H :    0.146135

  Mayer bond orders larger than 0.100000
B(  0-O ,  1-H ) :   0.8278 B(  0-O ,  2-H ) :   0.8211 B(  3-O ,  4-H ) :   0.8516
B(  3-O ,  5-H ) :   0.7567 B(  6-O ,  7-H ) :   0.8309 B(  6-O ,  8-H ) :   0.8167
B(  9-O , 10-H ) :   0.8093 B(  9-O , 11-H ) :   0.8416 B( 12-O , 13-H ) :   0.8417
B( 12-O , 14-H ) :   0.8316 B( 15-O , 16-H ) :   0.8007 B( 15-O , 17-H ) :   0.8362
B( 18-O , 19-H ) :   0.8535 B( 18-O , 20-H ) :   0.8251

MP2 TOTAL ENERGY:     -534.242520799 Eh
FINAL SINGLE POINT ENERGY      -534.242520798899

DIPOLE MOMENT
-------------
                                X             Y             Z
Electronic contribution:      0.25361       0.17444       0.18987
Nuclear contribution   :      0.93582       1.44310       2.23466
                        -----------------------------------------
Total Dipole Moment    :      1.18943       1.61754       2.42454
                        -----------------------------------------
Magnitude (a.u.)       :      3.14794
Magnitude (Debye)      :      8.00144

Rotational constants in cm-1:     0.041602     0.020095     0.016187
Rotational constants in MHz :  1247.210790   602.430216   485.278911

                             ****ORCA TERMINATED NORMALLY****
TOTAL RUN TIME: 0 days 0 hours 1 minutes 38 seconds 15 msec
