                         Program Version 4.2.0 -  RELEASE  -
|  1> # 12meoh.boyd.etal.mol7,8,11
|  2> ! MP2 def2-TZVP EnGrad TightSCF
|  3>
|  4> %pal
|  5>     nprocs 6
|  6> end
|  7>
|  8> %maxcore 8000
|  9>
| 10> %scf
| 11>     ConvForced true
| 12> end
| 13>
| 14> *xyz 0 1
| 15> O   4.310535586  -1.588322800   0.656128299
| 16> H   3.804372199  -1.630404735  -0.196849819
| 17> C   4.312298137  -2.894980854   1.222112691
| 18> H   4.713177833  -2.819907076   2.237066773
| 19> H   4.957796734  -3.574699304   0.648211180
| 20> H   3.302735989  -3.324433205   1.269756773
| 21> O   3.570084754   2.361662577  -0.202416728
| 22> H   3.393280933   1.755669977   0.560634073
| 23> C   4.368082883   1.644741793  -1.143112807
| 24> H   4.552851717   2.311801738  -1.989632421
| 25> H   3.862427494   0.740851663  -1.508095690
| 26> H   5.333949674   1.357289092  -0.706288100
| 27> O   3.252955559   0.588596242   1.858934315
| 28> H   3.621209177  -0.251605199   1.476063364
| 29> C   4.040824528   0.944288422   2.989639460
| 30> H   3.670521436   1.902573549   3.363847391
| 31> H   5.103749934   1.055868619   2.734277559
| 32> H   3.948540682   0.200279590   3.792908518
| 33> *
| 34>
| 35>                          ****END OF INPUT****

CARTESIAN COORDINATES (ANGSTROEM)
---------------------------------
  O      4.310536   -1.588323    0.656128
  H      3.804372   -1.630405   -0.196850
  C      4.312298   -2.894981    1.222113
  H      4.713178   -2.819907    2.237067
  H      4.957797   -3.574699    0.648211
  H      3.302736   -3.324433    1.269757
  O      3.570085    2.361663   -0.202417
  H      3.393281    1.755670    0.560634
  C      4.368083    1.644742   -1.143113
  H      4.552852    2.311802   -1.989632
  H      3.862427    0.740852   -1.508096
  H      5.333950    1.357289   -0.706288
  O      3.252956    0.588596    1.858934
  H      3.621209   -0.251605    1.476063
  C      4.040825    0.944288    2.989639
  H      3.670521    1.902574    3.363847
  H      5.103750    1.055869    2.734278
  H      3.948541    0.200280    3.792909

 Total Charge           Charge          ....    0
 Multiplicity           Mult            ....    1
 Number of Electrons    NEL             ....   54
 Basis Dimension        Dim             ....  258

ORBITAL ENERGIES
----------------

  NO   OCC          E(Eh)            E(eV)
   0   2.0000     -20.601525      -560.5960
   1   2.0000     -20.547261      -559.1194
   2   2.0000     -20.509863      -558.1017
   3   2.0000     -11.300646      -307.5062
   4   2.0000     -11.267879      -306.6146
   5   2.0000     -11.250290      -306.1359
   6   2.0000      -1.395300       -37.9681
   7   2.0000      -1.347374       -36.6639
   8   2.0000      -1.305865       -35.5344
   9   2.0000      -0.953344       -25.9418
  10   2.0000      -0.917714       -24.9723
  11   2.0000      -0.895579       -24.3699
  12   2.0000      -0.726758       -19.7761
  13   2.0000      -0.697590       -18.9824
  14   2.0000      -0.664528       -18.0827
  15   2.0000      -0.647653       -17.6235
  16   2.0000      -0.623684       -16.9713
  17   2.0000      -0.609506       -16.5855
  18   2.0000      -0.590345       -16.0641
  19   2.0000      -0.586505       -15.9596
  20   2.0000      -0.557635       -15.1740
  21   2.0000      -0.541246       -14.7280
  22   2.0000      -0.505790       -13.7632
  23   2.0000      -0.482864       -13.1394
  24   2.0000      -0.471037       -12.8176
  25   2.0000      -0.437914       -11.9163
  26   2.0000      -0.414584       -11.2814
  27   0.0000       0.108160         2.9432
  28   0.0000       0.141889         3.8610
  29   0.0000       0.155863         4.2412
  30   0.0000       0.192932         5.2499
  31   0.0000       0.206502         5.6192

MULLIKEN ATOMIC CHARGES
-----------------------
   0 O :   -0.515167
   1 H :    0.347987
   2 C :   -0.187728
   3 H :    0.141319
   4 H :    0.130041
   5 H :    0.132806
   6 O :   -0.523017
   7 H :    0.358256
   8 C :   -0.174107
   9 H :    0.125732
  10 H :    0.069316
  11 H :    0.104523
  12 O :   -0.547828
  13 H :    0.353103
  14 C :   -0.182923
  15 H :    0.139326
  16 H :    0.118753
  17 H :    0.109607
Sum of atomic charges:    0.0000000

LOEWDIN ATOMIC CHARGES
----------------------
   0 O :   -0.074495
   1 H :    0.200411
   2 C :   -0.369830
   3 H :    0.114680
   4 H :    0.106122
   5 H :    0.103766
   6 O :   -0.119789
   7 H :    0.160325
   8 C :   -0.396204
   9 H :    0.106551
  10 H :    0.082496
  11 H :    0.092128
  12 O :   -0.091654
  13 H :    0.160624
  14 C :   -0.385549
  15 H :    0.112633
  16 H :    0.099442
  17 H :    0.098345

  Mayer bond orders larger than 0.100000
B(  0-O ,  1-H ) :   0.8237 B(  0-O ,  2-C ) :   0.8682 B(  0-O , 13-H ) :   0.1043
B(  2-C ,  3-H ) :   0.9397 B(  2-C ,  4-H ) :   0.9331 B(  2-C ,  5-H ) :   0.9399
B(  6-O ,  7-H ) :   0.7864 B(  6-O ,  8-C ) :   0.9551 B(  8-C ,  9-H ) :   0.9412
B(  8-C , 10-H ) :   0.9407 B(  8-C , 11-H ) :   0.9358 B( 12-O , 13-H ) :   0.7683
B( 12-O , 14-C ) :   0.8893 B( 14-C , 15-H ) :   0.9429 B( 14-C , 16-H ) :   0.9352
B( 14-C , 17-H ) :   0.9380

MP2 TOTAL ENERGY:     -346.541923585 Eh
FINAL SINGLE POINT ENERGY      -346.541923585314

DIPOLE MOMENT
-------------
                                X             Y             Z
Electronic contribution:     -1.95574       1.88288      -0.69922
Nuclear contribution   :      2.45475      -3.97592       0.92519
                        -----------------------------------------
Total Dipole Moment    :      0.49901      -2.09304       0.22597
                        -----------------------------------------
Magnitude (a.u.)       :      2.16354
Magnitude (Debye)      :      5.49927

Rotational constants in cm-1:     0.095977     0.046009     0.033004
Rotational constants in MHz :  2877.330249  1379.319440   989.445253

                             ****ORCA TERMINATED NORMALLY****
TOTAL RUN TIME: 0 days 0 hours 2 minutes 34 seconds 124 msec
