                         Program Version 4.2.0 -  RELEASE  -
|  1> # 12h2o.su.etal.mol0,2,3,4,5,7,10
|  2> ! MP2 def2-TZVP EnGrad TightSCF
|  3>
|  4> %pal
|  5>     nprocs 6
|  6> end
|  7>
|  8> %maxcore 8000
|  9>
| 10> %scf
| 11>     ConvForced true
| 12> end
| 13>
| 14> *xyz 0 1
| 15> O   1.794470000   0.923410000   2.768350000
| 16> H   2.338250000   1.359750000   3.430940000
| 17> H   0.879480000   1.303000000   2.865760000
| 18> O   0.923410000  -1.794470000  -2.768350000
| 19> H   1.359750000  -2.338250000  -3.430940000
| 20> H   1.303000000  -0.879480000  -2.865760000
| 21> O  -1.752130000  -0.741530000  -2.896280000
| 22> H  -2.036450000  -0.920500000  -1.984040000
| 23> H  -0.921210000  -1.242140000  -2.984230000
| 24> O  -0.885520000   1.737840000   0.052730000
| 25> H  -1.032320000   2.090180000  -0.841890000
| 26> H  -1.284090000   0.839590000   0.017130000
| 27> O   0.885520000  -1.737840000   0.052730000
| 28> H   1.284090000  -0.839590000   0.017130000
| 29> H   1.032320000  -2.090180000  -0.841890000
| 30> O  -1.737840000  -0.885520000  -0.052730000
| 31> H  -2.090180000  -1.032320000   0.841890000
| 32> H  -0.839590000  -1.284090000  -0.017130000
| 33> O  -0.923410000   1.794470000  -2.768350000
| 34> H  -1.359750000   2.338250000  -3.430940000
| 35> H  -1.303000000   0.879480000  -2.865760000
| 36> *
| 37>
| 38>                          ****END OF INPUT****

CARTESIAN COORDINATES (ANGSTROEM)
---------------------------------
  O      1.794470    0.923410    2.768350
  H      2.338250    1.359750    3.430940
  H      0.879480    1.303000    2.865760
  O      0.923410   -1.794470   -2.768350
  H      1.359750   -2.338250   -3.430940
  H      1.303000   -0.879480   -2.865760
  O     -1.752130   -0.741530   -2.896280
  H     -2.036450   -0.920500   -1.984040
  H     -0.921210   -1.242140   -2.984230
  O     -0.885520    1.737840    0.052730
  H     -1.032320    2.090180   -0.841890
  H     -1.284090    0.839590    0.017130
  O      0.885520   -1.737840    0.052730
  H      1.284090   -0.839590    0.017130
  H      1.032320   -2.090180   -0.841890
  O     -1.737840   -0.885520   -0.052730
  H     -2.090180   -1.032320    0.841890
  H     -0.839590   -1.284090   -0.017130
  O     -0.923410    1.794470   -2.768350
  H     -1.359750    2.338250   -3.430940
  H     -1.303000    0.879480   -2.865760

 Total Charge           Charge          ....    0
 Multiplicity           Mult            ....    1
 Number of Electrons    NEL             ....   70
 Basis Dimension        Dim             ....  301

ORBITAL ENERGIES
----------------

  NO   OCC          E(Eh)            E(eV)
   0   2.0000     -20.625466      -561.2475
   1   2.0000     -20.572047      -559.7939
   2   2.0000     -20.569264      -559.7181
   3   2.0000     -20.554791      -559.3243
   4   2.0000     -20.549789      -559.1882
   5   2.0000     -20.530819      -558.6720
   6   2.0000     -20.490718      -557.5808
   7   2.0000      -1.406035       -38.2602
   8   2.0000      -1.365195       -37.1488
   9   2.0000      -1.351172       -36.7672
  10   2.0000      -1.344043       -36.5733
  11   2.0000      -1.325153       -36.0592
  12   2.0000      -1.314223       -35.7618
  13   2.0000      -1.274797       -34.6890
  14   2.0000      -0.771346       -20.9894
  15   2.0000      -0.726725       -19.7752
  16   2.0000      -0.719778       -19.5862
  17   2.0000      -0.713003       -19.4018
  18   2.0000      -0.697837       -18.9891
  19   2.0000      -0.693271       -18.8649
  20   2.0000      -0.659164       -17.9368
  21   2.0000      -0.648253       -17.6399
  22   2.0000      -0.616751       -16.7827
  23   2.0000      -0.603788       -16.4299
  24   2.0000      -0.577058       -15.7026
  25   2.0000      -0.565828       -15.3970
  26   2.0000      -0.562183       -15.2978
  27   2.0000      -0.553923       -15.0730
  28   2.0000      -0.532991       -14.5034
  29   2.0000      -0.513268       -13.9667
  30   2.0000      -0.498388       -13.5618
  31   2.0000      -0.495330       -13.4786
  32   2.0000      -0.493027       -13.4159
  33   2.0000      -0.475545       -12.9402
  34   2.0000      -0.441841       -12.0231
  35   0.0000       0.088666         2.4127
  36   0.0000       0.128813         3.5052
  37   0.0000       0.150862         4.1052
  38   0.0000       0.157716         4.2917
  39   0.0000       0.170666         4.6441

MULLIKEN ATOMIC CHARGES
-----------------------
   0 O :   -0.690522
   1 H :    0.334526
   2 H :    0.355585
   3 O :   -0.726021
   4 H :    0.370127
   5 H :    0.380613
   6 O :   -0.714429
   7 H :    0.387228
   8 H :    0.360932
   9 O :   -0.743296
  10 H :    0.362691
  11 H :    0.335781
  12 O :   -0.700056
  13 H :    0.365640
  14 H :    0.373121
  15 O :   -0.737337
  16 H :    0.358029
  17 H :    0.370595
  18 O :   -0.742518
  19 H :    0.331638
  20 H :    0.367672
Sum of atomic charges:   -0.0000000

LOEWDIN ATOMIC CHARGES
----------------------
   0 O :   -0.341894
   1 H :    0.156109
   2 H :    0.185250
   3 O :   -0.288812
   4 H :    0.170793
   5 H :    0.195969
   6 O :   -0.285039
   7 H :    0.157401
   8 H :    0.147027
   9 O :   -0.376158
  10 H :    0.144778
  11 H :    0.131511
  12 O :   -0.293171
  13 H :    0.180631
  14 H :    0.150347
  15 O :   -0.299440
  16 H :    0.171386
  17 H :    0.146605
  18 O :   -0.346166
  19 H :    0.150730
  20 H :    0.142145

  Mayer bond orders larger than 0.100000
B(  0-O ,  1-H ) :   0.8552 B(  0-O ,  2-H ) :   0.8353 B(  3-O ,  4-H ) :   0.8286
B(  3-O ,  5-H ) :   0.8121 B(  6-O ,  7-H ) :   0.8016 B(  6-O ,  8-H ) :   0.8168
B(  6-O , 20-H ) :   0.1072 B(  9-O , 10-H ) :   0.8188 B(  9-O , 11-H ) :   0.8142
B( 12-O , 13-H ) :   0.8239 B( 12-O , 14-H ) :   0.8112 B( 12-O , 17-H ) :   0.1059
B( 15-O , 16-H ) :   0.8360 B( 15-O , 17-H ) :   0.7565 B( 18-O , 19-H ) :   0.8531
B( 18-O , 20-H ) :   0.7548

MP2 TOTAL ENERGY:     -534.252333343 Eh
FINAL SINGLE POINT ENERGY      -534.252333343131

DIPOLE MOMENT
-------------
                                X             Y             Z
Electronic contribution:      0.20184      -0.61078      -0.06175
Nuclear contribution   :      0.60038      -0.34045      -0.72077
                        -----------------------------------------
Total Dipole Moment    :      0.80222      -0.95123      -0.78252
                        -----------------------------------------
Magnitude (a.u.)       :      1.46994
Magnitude (Debye)      :      3.73629

Rotational constants in cm-1:     0.041276     0.024213     0.019552
Rotational constants in MHz :  1237.431097   725.876877   586.158786

                             ****ORCA TERMINATED NORMALLY****
TOTAL RUN TIME: 0 days 0 hours 2 minutes 15 seconds 402 msec
