                         Program Version 3.0.3 - RELEASE   -
|  1> ! B3LYP Def2-TZVP def2-TZVP/J RIJCOSX TightSCF Grid4 D3BJ COSMO
|  2>
|  3> %pal nprocs 12 end
|  4>
|  5> %scf
|  6>         maxiter 400
|  7> end
|  8>
|  9> %cosmo
| 10>         SMD true
| 11>         solvent "WATER"
| 12> end
| 13>
| 14> * xyz  0  1
| 15> O  1.927600	1.373891	0.374945
| 16> H  1.271893	1.195759	1.114203
| 17> H  2.613811	1.935313	0.766793
| 18> O  0.064680	0.764488	2.148987
| 19> H  -0.733253	1.005713	1.621493
| 20> H  0.058879	-0.219898	2.096669
| 21> O  -0.007728	-1.858871	1.441200
| 22> H  0.767379	-1.734703	0.816555
| 23> H  0.180382	-2.669217	1.938629
| 24> O  -1.935190	1.103940	0.346229
| 25> H  -2.064673	0.154390	0.059185
| 26> H  -2.826004	1.475724	0.435182
| 27> O  1.907772	-1.291769	-0.310070
| 28> H  1.313398	-1.158519	-1.087281
| 29> H  2.136866	-0.364999	-0.065510
| 30> O  -0.035806	1.978169	-1.441682
| 31> H  0.744600	1.925066	-0.841080
| 32> H  -0.797987	1.829682	-0.833678
| 33> O  0.000948	-0.604234	-2.152258
| 34> H  -0.007024	0.383321	-1.992021
| 35> H  0.091677	-0.708853	-3.111786
| 36> O  -1.966965	-1.465995	-0.426717
| 37> H  -1.357623	-1.291340	-1.181748
| 38> H  -1.347636	-1.757058	0.283761
| 39> **                         ****END OF INPUT****

CARTESIAN COORDINATES (ANGSTROEM)
---------------------------------
  O      1.927600    1.373891    0.374945
  H      1.271893    1.195759    1.114203
  H      2.613811    1.935313    0.766793
  O      0.064680    0.764488    2.148987
  H     -0.733253    1.005713    1.621493
  H      0.058879   -0.219898    2.096669
  O     -0.007728   -1.858871    1.441200
  H      0.767379   -1.734703    0.816555
  H      0.180382   -2.669217    1.938629
  O     -1.935190    1.103940    0.346229
  H     -2.064673    0.154390    0.059185
  H     -2.826004    1.475724    0.435182
  O      1.907772   -1.291769   -0.310070
  H      1.313398   -1.158519   -1.087281
  H      2.136866   -0.364999   -0.065510
  O     -0.035806    1.978169   -1.441682
  H      0.744600    1.925066   -0.841080
  H     -0.797987    1.829682   -0.833678
  O      0.000948   -0.604234   -2.152258
  H     -0.007024    0.383321   -1.992021
  H      0.091677   -0.708853   -3.111786
  O     -1.966965   -1.465995   -0.426717
  H     -1.357623   -1.291340   -1.181748
  H     -1.347636   -1.757058    0.283761

 Total Charge           Charge          ....    0
 Multiplicity           Mult            ....    1
 Number of Electrons    NEL             ....   80
 Basis Dimension        Dim             ....  344

ORBITAL ENERGIES
----------------

  NO   OCC          E(Eh)            E(eV)
   0   2.0000     -19.130846      -520.5768
   1   2.0000     -19.129981      -520.5533
   2   2.0000     -19.129625      -520.5435
   3   2.0000     -19.127572      -520.4877
   4   2.0000     -19.117978      -520.2266
   5   2.0000     -19.117460      -520.2125
   6   2.0000     -19.117400      -520.2109
   7   2.0000     -19.116495      -520.1863
   8   2.0000      -1.029533       -28.0150
   9   2.0000      -1.015621       -27.6364
  10   2.0000      -1.014439       -27.6043
  11   2.0000      -1.013215       -27.5710
  12   2.0000      -0.996789       -27.1240
  13   2.0000      -0.996319       -27.1112
  14   2.0000      -0.995004       -27.0754
  15   2.0000      -0.981824       -26.7168
  16   2.0000      -0.538201       -14.6452
  17   2.0000      -0.537357       -14.6222
  18   2.0000      -0.535233       -14.5644
  19   2.0000      -0.531294       -14.4572
  20   2.0000      -0.520946       -14.1757
  21   2.0000      -0.519478       -14.1357
  22   2.0000      -0.518451       -14.1078
  23   2.0000      -0.511527       -13.9193
  24   2.0000      -0.453467       -12.3395
  25   2.0000      -0.423810       -11.5325
  26   2.0000      -0.418036       -11.3753
  27   2.0000      -0.416361       -11.3298
  28   2.0000      -0.392054       -10.6683
  29   2.0000      -0.391166       -10.6442
  30   2.0000      -0.388419       -10.5694
  31   2.0000      -0.359748        -9.7892
  32   2.0000      -0.326042        -8.8721
  33   2.0000      -0.324806        -8.8384
  34   2.0000      -0.324495        -8.8300
  35   2.0000      -0.323024        -8.7899
  36   2.0000      -0.316638        -8.6162
  37   2.0000      -0.316456        -8.6112
  38   2.0000      -0.315782        -8.5929
  39   2.0000      -0.314554        -8.5594
  40   0.0000       0.017659         0.4805
  41   0.0000       0.059863         1.6289
  42   0.0000       0.060152         1.6368
  43   0.0000       0.061234         1.6663
  44   0.0000       0.125753         3.4219

MULLIKEN ATOMIC CHARGES
-----------------------
   0 O :   -0.748680
   1 H :    0.373318
   2 H :    0.381298
   3 O :   -0.749514
   4 H :    0.373029
   5 H :    0.367811
   6 O :   -0.744645
   7 H :    0.374221
   8 H :    0.383316
   9 O :   -0.743685
  10 H :    0.367970
  11 H :    0.385430
  12 O :   -0.747177
  13 H :    0.370925
  14 H :    0.366779
  15 O :   -0.749079
  16 H :    0.371108
  17 H :    0.369173
  18 O :   -0.744459
  19 H :    0.365909
  20 H :    0.384433
  21 O :   -0.748490
  22 H :    0.370231
  23 H :    0.370781
Sum of atomic charges:   -0.0000000

LOEWDIN ATOMIC CHARGES
----------------------
   0 O :   -0.294262
   1 H :    0.141148
   2 H :    0.181277
   3 O :   -0.318637
   4 H :    0.140384
   5 H :    0.140303
   6 O :   -0.284731
   7 H :    0.143702
   8 H :    0.182576
   9 O :   -0.280442
  10 H :    0.145735
  11 H :    0.183826
  12 O :   -0.320946
  13 H :    0.142476
  14 H :    0.143417
  15 O :   -0.326579
  16 H :    0.141109
  17 H :    0.141461
  18 O :   -0.284713
  19 H :    0.144045
  20 H :    0.183042
  21 O :   -0.327865
  22 H :    0.143331
  23 H :    0.140344

  Mayer bond orders larger than 0.1
B(  0-O ,  1-H ) :   0.7520 B(  0-O ,  2-H ) :   0.8552 B(  0-O , 14-H ) :   0.1031
B(  0-O , 16-H ) :   0.1064 B(  1-H ,  3-O ) :   0.1520 B(  3-O ,  4-H ) :   0.8068
B(  3-O ,  5-H ) :   0.8062 B(  4-H ,  9-O ) :   0.1035 B(  5-H ,  6-O ) :   0.1100
B(  6-O ,  7-H ) :   0.7552 B(  6-O ,  8-H ) :   0.8535 B(  6-O , 23-H ) :   0.1073
B(  7-H , 12-O ) :   0.1480 B(  9-O , 10-H ) :   0.7598 B(  9-O , 11-H ) :   0.8525
B(  9-O , 17-H ) :   0.1010 B( 10-H , 21-O ) :   0.1522 B( 12-O , 13-H ) :   0.8078
B( 12-O , 14-H ) :   0.8121 B( 13-H , 18-O ) :   0.1056 B( 15-O , 16-H ) :   0.8078
B( 15-O , 17-H ) :   0.8120 B( 15-O , 19-H ) :   0.1548 B( 18-O , 19-H ) :   0.7590
B( 18-O , 20-H ) :   0.8537 B( 21-O , 22-H ) :   0.8152 B( 21-O , 23-H ) :   0.8080

Dispersion correction           -0.025080691
FINAL SINGLE POINT ENERGY      -611.592286209301

DIPOLE MOMENT
-------------
                                X             Y             Z
Electronic contribution:     -0.02847      -0.02250       0.01086
Nuclear contribution   :      0.11159       0.00095       0.04836
                        -----------------------------------------
Total Dipole Moment    :      0.08312      -0.02155       0.05922
                        -----------------------------------------
Magnitude (a.u.)       :      0.10431
Magnitude (Debye)      :      0.26512

                             ****ORCA TERMINATED NORMALLY****
TOTAL RUN TIME: 0 days 0 hours 1 minutes 5 seconds 554 msec
