                         Program Version 4.2.0 -  RELEASE  -
|  1> # 12h2o.su.etal.mol1,2,6,11
|  2> ! MP2 def2-TZVP EnGrad TightSCF
|  3>
|  4> %pal
|  5>     nprocs 6
|  6> end
|  7>
|  8> %maxcore 8000
|  9>
| 10> %scf
| 11>     ConvForced true
| 12> end
| 13>
| 14> *xyz 0 1
| 15> O  -1.794470000  -0.923410000   2.768350000
| 16> H  -2.338250000  -1.359750000   3.430940000
| 17> H  -0.879480000  -1.303000000   2.865760000
| 18> O   0.923410000  -1.794470000  -2.768350000
| 19> H   1.359750000  -2.338250000  -3.430940000
| 20> H   1.303000000  -0.879480000  -2.865760000
| 21> O   1.737840000   0.885520000  -0.052730000
| 22> H   2.090180000   1.032320000   0.841890000
| 23> H   0.839590000   1.284090000  -0.017130000
| 24> O  -0.741530000   1.752130000   2.896280000
| 25> H  -0.920500000   2.036450000   1.984040000
| 26> H  -1.242140000   0.921210000   2.984230000
| 27> *
| 28>
| 29>                          ****END OF INPUT****

CARTESIAN COORDINATES (ANGSTROEM)
---------------------------------
  O     -1.794470   -0.923410    2.768350
  H     -2.338250   -1.359750    3.430940
  H     -0.879480   -1.303000    2.865760
  O      0.923410   -1.794470   -2.768350
  H      1.359750   -2.338250   -3.430940
  H      1.303000   -0.879480   -2.865760
  O      1.737840    0.885520   -0.052730
  H      2.090180    1.032320    0.841890
  H      0.839590    1.284090   -0.017130
  O     -0.741530    1.752130    2.896280
  H     -0.920500    2.036450    1.984040
  H     -1.242140    0.921210    2.984230

 Total Charge           Charge          ....    0
 Multiplicity           Mult            ....    1
 Number of Electrons    NEL             ....   40
 Basis Dimension        Dim             ....  172

ORBITAL ENERGIES
----------------

  NO   OCC          E(Eh)            E(eV)
   0   2.0000     -20.591973      -560.3361
   1   2.0000     -20.561347      -559.5027
   2   2.0000     -20.551082      -559.2234
   3   2.0000     -20.543508      -559.0173
   4   2.0000      -1.369694       -37.2713
   5   2.0000      -1.337226       -36.3878
   6   2.0000      -1.326472       -36.0951
   7   2.0000      -1.325480       -36.0681
   8   2.0000      -0.736948       -20.0534
   9   2.0000      -0.699939       -19.0463
  10   2.0000      -0.694637       -18.9020
  11   2.0000      -0.694032       -18.8856
  12   2.0000      -0.610095       -16.6015
  13   2.0000      -0.577354       -15.7106
  14   2.0000      -0.565928       -15.3997
  15   2.0000      -0.562649       -15.3104
  16   2.0000      -0.529991       -14.4218
  17   2.0000      -0.504329       -13.7235
  18   2.0000      -0.494206       -13.4480
  19   2.0000      -0.490512       -13.3475
  20   0.0000       0.098093         2.6692
  21   0.0000       0.125620         3.4183
  22   0.0000       0.142202         3.8695
  23   0.0000       0.173361         4.7174
  24   0.0000       0.191547         5.2123

MULLIKEN ATOMIC CHARGES
-----------------------
   0 O :   -0.694685
   1 H :    0.354393
   2 H :    0.362536
   3 O :   -0.684435
   4 H :    0.333683
   5 H :    0.349360
   6 O :   -0.677144
   7 H :    0.343624
   8 H :    0.331935
   9 O :   -0.700989
  10 H :    0.321207
  11 H :    0.360513
Sum of atomic charges:   -0.0000000

LOEWDIN ATOMIC CHARGES
----------------------
   0 O :   -0.309916
   1 H :    0.164502
   2 H :    0.189340
   3 O :   -0.339865
   4 H :    0.155527
   5 H :    0.182764
   6 O :   -0.336475
   7 H :    0.167422
   8 H :    0.167974
   9 O :   -0.345045
  10 H :    0.155241
  11 H :    0.148532

  Mayer bond orders larger than 0.100000
B(  0-O ,  1-H ) :   0.8406 B(  0-O ,  2-H ) :   0.8294 B(  3-O ,  4-H ) :   0.8559
B(  3-O ,  5-H ) :   0.8404 B(  6-O ,  7-H ) :   0.8484 B(  6-O ,  8-H ) :   0.8526
B(  9-O , 10-H ) :   0.8611 B(  9-O , 11-H ) :   0.8136

MP2 TOTAL ENERGY:     -305.261105278 Eh
FINAL SINGLE POINT ENERGY      -305.261105278357

DIPOLE MOMENT
-------------
                                X             Y             Z
Electronic contribution:     -0.06909      -0.15228       0.05764
Nuclear contribution   :     -0.03192      -0.37119       0.08817
                        -----------------------------------------
Total Dipole Moment    :     -0.10102      -0.52347       0.14582
                        -----------------------------------------
Magnitude (a.u.)       :      0.55271
Magnitude (Debye)      :      1.40487

Rotational constants in cm-1:     0.108069     0.031557     0.025103
Rotational constants in MHz :  3239.821173   946.060437   752.563566

                             ****ORCA TERMINATED NORMALLY****
TOTAL RUN TIME: 0 days 0 hours 0 minutes 14 seconds 37 msec
