                         Program Version 3.0.3 - RELEASE   -
|  1> ! wB97X-D3 Def2-TZVP def2-TZVP/J RIJCOSX TightSCF Grid4
|  2>
|  3> %pal nprocs 12 end
|  4>
|  5> %scf
|  6>         maxiter 400
|  7> end
|  8>
|  9> * xyz  0  1
| 10> O  1.264084	-0.922640	2.891796
| 11> H  2.048024	-0.639550	2.339353
| 12> H  0.723683	-1.452641	2.243587
| 13> O  -1.524059	0.523355	0.947581
| 14> H  -1.202197	0.913812	1.811475
| 15> H  -1.044811	-0.372633	0.924077
| 16> O  1.827947	2.429301	1.266997
| 17> H  1.273708	2.431015	0.439269
| 18> H  1.158234	2.202099	1.974248
| 19> O  0.134514	1.717916	-0.731728
| 20> H  -0.358883	1.705134	-1.602731
| 21> H  -0.550151	1.328751	-0.088389
| 22> O  -0.141392	-1.720781	0.719260
| 23> H  0.538618	-1.333790	0.069534
| 24> H  -0.748949	-2.237351	0.113409
| 25> O  3.040303	0.182587	1.141602
| 26> H  2.620999	1.142066	1.199833
| 27> H  3.999610	0.299993	1.269419
| 28> O  1.531449	-0.516695	-0.938388
| 29> H  1.055335	0.381627	-0.905351
| 30> H  2.315158	-0.370565	-0.333317
| 31> O  -0.027516	-1.429012	-2.961643
| 32> H  0.750496	-1.207566	-2.380457
| 33> H  -0.457752	-0.537071	-3.097641
| 34> O  -3.064212	-0.079199	-1.192293
| 35> H  -2.740875	0.234307	-0.303603
| 36> H  -2.748616	-1.027502	-1.215841
| 37> O  -1.357532	0.945955	-2.795544
| 38> H  -2.118984	0.563652	-2.183205
| 39> H  -1.806462	1.424982	-3.515987
| 40> O  -1.704758	-2.437330	-1.315464
| 41> H  -2.019248	-3.304906	-1.628530
| 42> H  -1.023567	-2.097056	-2.036442
| 43> O  0.019969	1.308122	2.966349
| 44> H  0.520773	0.388027	3.023824
| 45> H  -0.182937	1.563588	3.884943
| 46> **                         ****END OF INPUT****

CARTESIAN COORDINATES (ANGSTROEM)
---------------------------------
  O      1.264084   -0.922640    2.891796
  H      2.048024   -0.639550    2.339353
  H      0.723683   -1.452641    2.243587
  O     -1.524059    0.523355    0.947581
  H     -1.202197    0.913812    1.811475
  H     -1.044811   -0.372633    0.924077
  O      1.827947    2.429301    1.266997
  H      1.273708    2.431015    0.439269
  H      1.158234    2.202099    1.974248
  O      0.134514    1.717916   -0.731728
  H     -0.358883    1.705134   -1.602731
  H     -0.550151    1.328751   -0.088389
  O     -0.141392   -1.720781    0.719260
  H      0.538618   -1.333790    0.069534
  H     -0.748949   -2.237351    0.113409
  O      3.040303    0.182587    1.141602
  H      2.620999    1.142066    1.199833
  H      3.999610    0.299993    1.269419
  O      1.531449   -0.516695   -0.938388
  H      1.055335    0.381627   -0.905351
  H      2.315158   -0.370565   -0.333317
  O     -0.027516   -1.429012   -2.961643
  H      0.750496   -1.207566   -2.380457
  H     -0.457752   -0.537071   -3.097641
  O     -3.064212   -0.079199   -1.192293
  H     -2.740875    0.234307   -0.303603
  H     -2.748616   -1.027502   -1.215841
  O     -1.357532    0.945955   -2.795544
  H     -2.118984    0.563652   -2.183205
  H     -1.806462    1.424982   -3.515987
  O     -1.704758   -2.437330   -1.315464
  H     -2.019248   -3.304906   -1.628530
  H     -1.023567   -2.097056   -2.036442
  O      0.019969    1.308122    2.966349
  H      0.520773    0.388027    3.023824
  H     -0.182937    1.563588    3.884943

 Total Charge           Charge          ....    0
 Multiplicity           Mult            ....    1
 Number of Electrons    NEL             ....  120
 Basis Dimension        Dim             ....  516

ORBITAL ENERGIES
----------------

  NO   OCC          E(Eh)            E(eV)
   0   2.0000     -19.249233      -523.7983
   1   2.0000     -19.248886      -523.7888
   2   2.0000     -19.248789      -523.7862
   3   2.0000     -19.248521      -523.7789
   4   2.0000     -19.234695      -523.4027
   5   2.0000     -19.234602      -523.4001
   6   2.0000     -19.234531      -523.3982
   7   2.0000     -19.234520      -523.3979
   8   2.0000     -19.234233      -523.3901
   9   2.0000     -19.234118      -523.3870
  10   2.0000     -19.234110      -523.3867
  11   2.0000     -19.233603      -523.3729
  12   2.0000      -1.156962       -31.4825
  13   2.0000      -1.147502       -31.2251
  14   2.0000      -1.138057       -30.9681
  15   2.0000      -1.137833       -30.9620
  16   2.0000      -1.132604       -30.8197
  17   2.0000      -1.124382       -30.5960
  18   2.0000      -1.124329       -30.5945
  19   2.0000      -1.113385       -30.2967
  20   2.0000      -1.110321       -30.2134
  21   2.0000      -1.110260       -30.2117
  22   2.0000      -1.105518       -30.0827
  23   2.0000      -1.090532       -29.6749
  24   2.0000      -0.655934       -17.8489
  25   2.0000      -0.651102       -17.7174
  26   2.0000      -0.650381       -17.6978
  27   2.0000      -0.650089       -17.6898
  28   2.0000      -0.643053       -17.4984
  29   2.0000      -0.636060       -17.3081
  30   2.0000      -0.635967       -17.3055
  31   2.0000      -0.635745       -17.2995
  32   2.0000      -0.629709       -17.1353
  33   2.0000      -0.622279       -16.9331
  34   2.0000      -0.617668       -16.8076
  35   2.0000      -0.617484       -16.8026
  36   2.0000      -0.578577       -15.7439
  37   2.0000      -0.556643       -15.1470
  38   2.0000      -0.538298       -14.6478
  39   2.0000      -0.538247       -14.6464
  40   2.0000      -0.516860       -14.0645
  41   2.0000      -0.516023       -14.0417
  42   2.0000      -0.515838       -14.0367
  43   2.0000      -0.513237       -13.9659
  44   2.0000      -0.486874       -13.2485
  45   2.0000      -0.486712       -13.2441
  46   2.0000      -0.479694       -13.0531
  47   2.0000      -0.451668       -12.2905
  48   2.0000      -0.431962       -11.7543
  49   2.0000      -0.431753       -11.7486
  50   2.0000      -0.430119       -11.7041
  51   2.0000      -0.429333       -11.6828
  52   2.0000      -0.424344       -11.5470
  53   2.0000      -0.423046       -11.5117
  54   2.0000      -0.422956       -11.5092
  55   2.0000      -0.415734       -11.3127
  56   2.0000      -0.414792       -11.2871
  57   2.0000      -0.414641       -11.2830
  58   2.0000      -0.412954       -11.2370
  59   2.0000      -0.411907       -11.2086
  60   0.0000       0.082243         2.2379
  61   0.0000       0.104334         2.8391
  62   0.0000       0.119159         3.2425
  63   0.0000       0.119316         3.2468
  64   0.0000       0.160043         4.3550

MULLIKEN ATOMIC CHARGES
-----------------------
   0 O :   -0.689749
   1 H :    0.365696
   2 H :    0.394317
   3 O :   -0.763144
   4 H :    0.386553
   5 H :    0.352657
   6 O :   -0.689892
   7 H :    0.393614
   8 H :    0.366715
   9 O :   -0.762699
  10 H :    0.387194
  11 H :    0.352605
  12 O :   -0.763515
  13 H :    0.352852
  14 H :    0.386562
  15 O :   -0.772327
  16 H :    0.370846
  17 H :    0.354959
  18 O :   -0.763243
  19 H :    0.353109
  20 H :    0.386781
  21 O :   -0.689749
  22 H :    0.393631
  23 H :    0.365950
  24 O :   -0.689681
  25 H :    0.394227
  26 H :    0.366705
  27 O :   -0.772898
  28 H :    0.370387
  29 H :    0.354850
  30 O :   -0.772003
  31 H :    0.354808
  32 H :    0.370612
  33 O :   -0.772680
  34 H :    0.370915
  35 H :    0.355033
Sum of atomic charges:   -0.0000000

LOEWDIN ATOMIC CHARGES
----------------------
   0 O :   -0.270092
   1 H :    0.148987
   2 H :    0.157338
   3 O :   -0.308874
   4 H :    0.149453
   5 H :    0.137515
   6 O :   -0.270219
   7 H :    0.157731
   8 H :    0.149005
   9 O :   -0.309616
  10 H :    0.150129
  11 H :    0.137586
  12 O :   -0.310091
  13 H :    0.137620
  14 H :    0.149905
  15 O :   -0.322354
  16 H :    0.144179
  17 H :    0.163357
  18 O :   -0.309640
  19 H :    0.137508
  20 H :    0.150185
  21 O :   -0.270179
  22 H :    0.157429
  23 H :    0.148971
  24 O :   -0.269774
  25 H :    0.156775
  26 H :    0.148872
  27 O :   -0.322496
  28 H :    0.144305
  29 H :    0.163176
  30 O :   -0.321282
  31 H :    0.163287
  32 H :    0.144493
  33 O :   -0.320940
  34 H :    0.144316
  35 H :    0.163433

  Mayer bond orders larger than 0.1
B(  0-O ,  1-H ) :   0.8144 B(  0-O ,  2-H ) :   0.8140 B(  0-O , 34-H ) :   0.2199
B(  3-O ,  4-H ) :   0.7936 B(  3-O ,  5-H ) :   0.7570 B(  3-O , 11-H ) :   0.1628
B(  4-H , 33-O ) :   0.1029 B(  5-H , 12-O ) :   0.1630 B(  6-O ,  7-H ) :   0.8153
B(  6-O ,  8-H ) :   0.8141 B(  6-O , 16-H ) :   0.2181 B(  9-O , 10-H ) :   0.7942
B(  9-O , 11-H ) :   0.7574 B(  9-O , 19-H ) :   0.1637 B( 10-H , 27-O ) :   0.1012
B( 12-O , 13-H ) :   0.7565 B( 12-O , 14-H ) :   0.7937 B( 13-H , 18-O ) :   0.1635
B( 14-H , 30-O ) :   0.1025 B( 15-O , 16-H ) :   0.6961 B( 15-O , 17-H ) :   0.8779
B( 15-O , 20-H ) :   0.1012 B( 18-O , 19-H ) :   0.7560 B( 18-O , 20-H ) :   0.7944
B( 21-O , 22-H ) :   0.8147 B( 21-O , 23-H ) :   0.8145 B( 21-O , 32-H ) :   0.2186
B( 24-O , 25-H ) :   0.8141 B( 24-O , 26-H ) :   0.8147 B( 24-O , 28-H ) :   0.2201
B( 27-O , 28-H ) :   0.6950 B( 27-O , 29-H ) :   0.8779 B( 30-O , 31-H ) :   0.8779
B( 30-O , 32-H ) :   0.6962 B( 33-O , 34-H ) :   0.6949 B( 33-O , 35-H ) :   0.8777

Dispersion correction           -0.022823067
FINAL SINGLE POINT ENERGY      -917.466560024843

DIPOLE MOMENT
-------------
                                X             Y             Z
Electronic contribution:     -0.00057       0.00060       0.00436
Nuclear contribution   :      0.00301      -0.00394       0.00368
                        -----------------------------------------
Total Dipole Moment    :      0.00243      -0.00334       0.00805
                        -----------------------------------------
Magnitude (a.u.)       :      0.00905
Magnitude (Debye)      :      0.02300

                             ****ORCA TERMINATED NORMALLY****
TOTAL RUN TIME: 0 days 0 hours 1 minutes 28 seconds 669 msec
