                         Program Version 4.2.0 -  RELEASE  -
|  1> # 12h2o.su.etal.mol0,2,4,7,8
|  2> ! MP2 def2-TZVP EnGrad TightSCF
|  3>
|  4> %pal
|  5>     nprocs 6
|  6> end
|  7>
|  8> %maxcore 8000
|  9>
| 10> %scf
| 11>     ConvForced true
| 12> end
| 13>
| 14> *xyz 0 1
| 15> O   1.794470000   0.923410000   2.768350000
| 16> H   2.338250000   1.359750000   3.430940000
| 17> H   0.879480000   1.303000000   2.865760000
| 18> O   0.923410000  -1.794470000  -2.768350000
| 19> H   1.359750000  -2.338250000  -3.430940000
| 20> H   1.303000000  -0.879480000  -2.865760000
| 21> O  -0.885520000   1.737840000   0.052730000
| 22> H  -1.032320000   2.090180000  -0.841890000
| 23> H  -1.284090000   0.839590000   0.017130000
| 24> O  -1.737840000  -0.885520000  -0.052730000
| 25> H  -2.090180000  -1.032320000   0.841890000
| 26> H  -0.839590000  -1.284090000  -0.017130000
| 27> O   1.752130000   0.741530000  -2.896280000
| 28> H   2.036450000   0.920500000  -1.984040000
| 29> H   0.921210000   1.242140000  -2.984230000
| 30> *
| 31>
| 32>                          ****END OF INPUT****

CARTESIAN COORDINATES (ANGSTROEM)
---------------------------------
  O      1.794470    0.923410    2.768350
  H      2.338250    1.359750    3.430940
  H      0.879480    1.303000    2.865760
  O      0.923410   -1.794470   -2.768350
  H      1.359750   -2.338250   -3.430940
  H      1.303000   -0.879480   -2.865760
  O     -0.885520    1.737840    0.052730
  H     -1.032320    2.090180   -0.841890
  H     -1.284090    0.839590    0.017130
  O     -1.737840   -0.885520   -0.052730
  H     -2.090180   -1.032320    0.841890
  H     -0.839590   -1.284090   -0.017130
  O      1.752130    0.741530   -2.896280
  H      2.036450    0.920500   -1.984040
  H      0.921210    1.242140   -2.984230

 Total Charge           Charge          ....    0
 Multiplicity           Mult            ....    1
 Number of Electrons    NEL             ....   50
 Basis Dimension        Dim             ....  215

ORBITAL ENERGIES
----------------

  NO   OCC          E(Eh)            E(eV)
   0   2.0000     -20.593661      -560.3820
   1   2.0000     -20.586406      -560.1846
   2   2.0000     -20.558355      -559.4213
   3   2.0000     -20.538634      -558.8846
   4   2.0000     -20.519407      -558.3615
   5   2.0000      -1.378965       -37.5235
   6   2.0000      -1.367241       -37.2045
   7   2.0000      -1.333742       -36.2930
   8   2.0000      -1.319130       -35.8954
   9   2.0000      -1.301612       -35.4187
  10   2.0000      -0.736435       -20.0394
  11   2.0000      -0.724190       -19.7062
  12   2.0000      -0.702033       -19.1033
  13   2.0000      -0.693890       -18.8817
  14   2.0000      -0.691657       -18.8209
  15   2.0000      -0.614948       -16.7336
  16   2.0000      -0.608223       -16.5506
  17   2.0000      -0.570323       -15.5193
  18   2.0000      -0.567815       -15.4510
  19   2.0000      -0.557227       -15.1629
  20   2.0000      -0.518272       -14.1029
  21   2.0000      -0.513906       -13.9841
  22   2.0000      -0.501711       -13.6522
  23   2.0000      -0.486358       -13.2345
  24   2.0000      -0.469762       -12.7829
  25   0.0000       0.093942         2.5563
  26   0.0000       0.125601         3.4178
  27   0.0000       0.141177         3.8416
  28   0.0000       0.160958         4.3799
  29   0.0000       0.183277         4.9872

MULLIKEN ATOMIC CHARGES
-----------------------
   0 O :   -0.688544
   1 H :    0.336455
   2 H :    0.350264
   3 O :   -0.733789
   4 H :    0.326533
   5 H :    0.365748
   6 O :   -0.713108
   7 H :    0.319357
   8 H :    0.356552
   9 O :   -0.684705
  10 H :    0.350933
  11 H :    0.373486
  12 O :   -0.680092
  13 H :    0.367586
  14 H :    0.353322
Sum of atomic charges:   -0.0000000

LOEWDIN ATOMIC CHARGES
----------------------
   0 O :   -0.341694
   1 H :    0.156821
   2 H :    0.183000
   3 O :   -0.373011
   4 H :    0.149636
   5 H :    0.141939
   6 O :   -0.361625
   7 H :    0.153711
   8 H :    0.142519
   9 O :   -0.289153
  10 H :    0.170607
  11 H :    0.186152
  12 O :   -0.270272
  13 H :    0.178156
  14 H :    0.173215

  Mayer bond orders larger than 0.100000
B(  0-O ,  1-H ) :   0.8544 B(  0-O ,  2-H ) :   0.8392 B(  3-O ,  4-H ) :   0.8598
B(  3-O ,  5-H ) :   0.7856 B(  6-O ,  7-H ) :   0.8626 B(  6-O ,  8-H ) :   0.7914
B(  9-O , 10-H ) :   0.8411 B(  9-O , 11-H ) :   0.8219 B( 12-O , 13-H ) :   0.8299
B( 12-O , 14-H ) :   0.8385

MP2 TOTAL ENERGY:     -381.585011037 Eh
FINAL SINGLE POINT ENERGY      -381.585011036964

DIPOLE MOMENT
-------------
                                X             Y             Z
Electronic contribution:      0.03064      -0.08107      -0.10311
Nuclear contribution   :     -0.08435       0.64545       0.68611
                        -----------------------------------------
Total Dipole Moment    :     -0.05371       0.56438       0.58299
                        -----------------------------------------
Magnitude (a.u.)       :      0.81320
Magnitude (Debye)      :      2.06698

Rotational constants in cm-1:     0.056643     0.030652     0.026370
Rotational constants in MHz :  1698.103883   918.917810   790.555432

                             ****ORCA TERMINATED NORMALLY****
TOTAL RUN TIME: 0 days 0 hours 0 minutes 26 seconds 268 msec
