                         Program Version 4.2.0 -  RELEASE  -
|  1> # 12h2o.su.etal.mol1,2,4,5,9,10
|  2> ! MP2 def2-TZVP EnGrad TightSCF
|  3>
|  4> %pal
|  5>     nprocs 6
|  6> end
|  7>
|  8> %maxcore 8000
|  9>
| 10> %scf
| 11>     ConvForced true
| 12> end
| 13>
| 14> *xyz 0 1
| 15> O  -1.794470000  -0.923410000   2.768350000
| 16> H  -2.338250000  -1.359750000   3.430940000
| 17> H  -0.879480000  -1.303000000   2.865760000
| 18> O   0.923410000  -1.794470000  -2.768350000
| 19> H   1.359750000  -2.338250000  -3.430940000
| 20> H   1.303000000  -0.879480000  -2.865760000
| 21> O  -0.885520000   1.737840000   0.052730000
| 22> H  -1.032320000   2.090180000  -0.841890000
| 23> H  -1.284090000   0.839590000   0.017130000
| 24> O   0.885520000  -1.737840000   0.052730000
| 25> H   1.284090000  -0.839590000   0.017130000
| 26> H   1.032320000  -2.090180000  -0.841890000
| 27> O   0.741530000  -1.752130000   2.896280000
| 28> H   0.920500000  -2.036450000   1.984040000
| 29> H   1.242140000  -0.921210000   2.984230000
| 30> O  -0.923410000   1.794470000  -2.768350000
| 31> H  -1.359750000   2.338250000  -3.430940000
| 32> H  -1.303000000   0.879480000  -2.865760000
| 33> *
| 34>
| 35>                          ****END OF INPUT****

CARTESIAN COORDINATES (ANGSTROEM)
---------------------------------
  O     -1.794470   -0.923410    2.768350
  H     -2.338250   -1.359750    3.430940
  H     -0.879480   -1.303000    2.865760
  O      0.923410   -1.794470   -2.768350
  H      1.359750   -2.338250   -3.430940
  H      1.303000   -0.879480   -2.865760
  O     -0.885520    1.737840    0.052730
  H     -1.032320    2.090180   -0.841890
  H     -1.284090    0.839590    0.017130
  O      0.885520   -1.737840    0.052730
  H      1.284090   -0.839590    0.017130
  H      1.032320   -2.090180   -0.841890
  O      0.741530   -1.752130    2.896280
  H      0.920500   -2.036450    1.984040
  H      1.242140   -0.921210    2.984230
  O     -0.923410    1.794470   -2.768350
  H     -1.359750    2.338250   -3.430940
  H     -1.303000    0.879480   -2.865760

 Total Charge           Charge          ....    0
 Multiplicity           Mult            ....    1
 Number of Electrons    NEL             ....   60
 Basis Dimension        Dim             ....  258

ORBITAL ENERGIES
----------------

  NO   OCC          E(Eh)            E(eV)
   0   2.0000     -20.605389      -560.7011
   1   2.0000     -20.594797      -560.4129
   2   2.0000     -20.561695      -559.5122
   3   2.0000     -20.553837      -559.2983
   4   2.0000     -20.521182      -558.4098
   5   2.0000     -20.494780      -557.6913
   6   2.0000      -1.383362       -37.6432
   7   2.0000      -1.372619       -37.3509
   8   2.0000      -1.347638       -36.6711
   9   2.0000      -1.337051       -36.3830
  10   2.0000      -1.300233       -35.3811
  11   2.0000      -1.276790       -34.7432
  12   2.0000      -0.750261       -20.4156
  13   2.0000      -0.739293       -20.1172
  14   2.0000      -0.715894       -19.4805
  15   2.0000      -0.698882       -19.0176
  16   2.0000      -0.670962       -18.2578
  17   2.0000      -0.664865       -18.0919
  18   2.0000      -0.623421       -16.9642
  19   2.0000      -0.607600       -16.5336
  20   2.0000      -0.597171       -16.2498
  21   2.0000      -0.571752       -15.5582
  22   2.0000      -0.555765       -15.1231
  23   2.0000      -0.543058       -14.7774
  24   2.0000      -0.525581       -14.3018
  25   2.0000      -0.521989       -14.2040
  26   2.0000      -0.508434       -13.8352
  27   2.0000      -0.482280       -13.1235
  28   2.0000      -0.466783       -12.7018
  29   2.0000      -0.445164       -12.1135
  30   0.0000       0.083407         2.2696
  31   0.0000       0.119208         3.2438
  32   0.0000       0.137279         3.7356
  33   0.0000       0.170327         4.6348
  34   0.0000       0.177056         4.8179

MULLIKEN ATOMIC CHARGES
-----------------------
   0 O :   -0.730570
   1 H :    0.316124
   2 H :    0.369431
   3 O :   -0.700180
   4 H :    0.355389
   5 H :    0.359102
   6 O :   -0.703036
   7 H :    0.357840
   8 H :    0.336930
   9 O :   -0.712142
  10 H :    0.335216
  11 H :    0.375522
  12 O :   -0.696211
  13 H :    0.385122
  14 H :    0.343411
  15 O :   -0.700235
  16 H :    0.352192
  17 H :    0.356095
Sum of atomic charges:    0.0000000

LOEWDIN ATOMIC CHARGES
----------------------
   0 O :   -0.372565
   1 H :    0.144685
   2 H :    0.142995
   3 O :   -0.311572
   4 H :    0.165221
   5 H :    0.186413
   6 O :   -0.348238
   7 H :    0.145448
   8 H :    0.167368
   9 O :   -0.324455
  10 H :    0.167943
  11 H :    0.154014
  12 O :   -0.279460
  13 H :    0.158423
  14 H :    0.168975
  15 O :   -0.313364
  16 H :    0.163374
  17 H :    0.184794

  Mayer bond orders larger than 0.100000
B(  0-O ,  1-H ) :   0.8649 B(  0-O ,  2-H ) :   0.7793 B(  3-O ,  4-H ) :   0.8398
B(  3-O ,  5-H ) :   0.8294 B(  6-O ,  7-H ) :   0.8272 B(  6-O ,  8-H ) :   0.8451
B(  9-O , 10-H ) :   0.8429 B(  9-O , 11-H ) :   0.8079 B( 12-O , 13-H ) :   0.7988
B( 12-O , 14-H ) :   0.8459 B( 15-O , 16-H ) :   0.8413 B( 15-O , 17-H ) :   0.8311

MP2 TOTAL ENERGY:     -457.909169182 Eh
FINAL SINGLE POINT ENERGY      -457.909169182388

DIPOLE MOMENT
-------------
                                X             Y             Z
Electronic contribution:      0.14684      -0.06814      -0.11255
Nuclear contribution   :      0.87464      -0.22418      -2.86726
                        -----------------------------------------
Total Dipole Moment    :      1.02147      -0.29232      -2.97981
                        -----------------------------------------
Magnitude (a.u.)       :      3.16356
Magnitude (Debye)      :      8.04114

Rotational constants in cm-1:     0.048089     0.025204     0.017919
Rotational constants in MHz :  1441.662240   755.584610   537.189376

                             ****ORCA TERMINATED NORMALLY****
TOTAL RUN TIME: 0 days 0 hours 0 minutes 54 seconds 797 msec
