                         Program Version 4.2.0 -  RELEASE  -
|  1> # 12mecn.remya.etal.2.mol2,6,10
|  2> ! MP2 def2-TZVP EnGrad TightSCF
|  3>
|  4> %pal
|  5>     nprocs 6
|  6> end
|  7>
|  8> %maxcore 8000
|  9>
| 10> %scf
| 11>     ConvForced true
| 12> end
| 13>
| 14> *xyz 0 1
| 15> C  -4.219070000  -3.477410000  -1.501740000
| 16> H  -3.251530000  -3.803540000  -1.893830000
| 17> H  -4.452920000  -2.481700000  -1.890840000
| 18> H  -4.992170000  -4.178130000  -1.824640000
| 19> C  -4.154550000  -3.418790000  -0.058340000
| 20> N  -4.091140000  -3.354840000   1.104432000
| 21> C   5.300864000  -2.920090000   1.401103000
| 22> H   5.986071000  -2.139770000   1.737487000
| 23> H   5.636642000  -3.888750000   1.778233000
| 24> H   4.307359000  -2.697240000   1.799307000
| 25> C   5.234791000  -2.933140000  -0.043290000
| 26> N   5.170868000  -2.941760000  -1.207750000
| 27> C   4.602033000   0.321019000  -1.784800000
| 28> H   4.827650000  -0.662160000  -2.207910000
| 29> H   5.320558000   1.057980000  -2.148500000
| 30> H   3.601982000   0.643751000  -2.087520000
| 31> C   4.654967000   0.244048000  -0.343060000
| 32> N   4.691648000   0.166590000   0.820757000
| 33> *
| 34>
| 35>                          ****END OF INPUT****

CARTESIAN COORDINATES (ANGSTROEM)
---------------------------------
  C     -4.219070   -3.477410   -1.501740
  H     -3.251530   -3.803540   -1.893830
  H     -4.452920   -2.481700   -1.890840
  H     -4.992170   -4.178130   -1.824640
  C     -4.154550   -3.418790   -0.058340
  N     -4.091140   -3.354840    1.104432
  C      5.300864   -2.920090    1.401103
  H      5.986071   -2.139770    1.737487
  H      5.636642   -3.888750    1.778233
  H      4.307359   -2.697240    1.799307
  C      5.234791   -2.933140   -0.043290
  N      5.170868   -2.941760   -1.207750
  C      4.602033    0.321019   -1.784800
  H      4.827650   -0.662160   -2.207910
  H      5.320558    1.057980   -2.148500
  H      3.601982    0.643751   -2.087520
  C      4.654967    0.244048   -0.343060
  N      4.691648    0.166590    0.820757

 Total Charge           Charge          ....    0
 Multiplicity           Mult            ....    1
 Number of Electrons    NEL             ....   66
 Basis Dimension        Dim             ....  333

ORBITAL ENERGIES
----------------

  NO   OCC          E(Eh)            E(eV)
   0   2.0000     -15.573193      -423.7681
   1   2.0000     -15.571178      -423.7133
   2   2.0000     -15.570088      -423.6836
   3   2.0000     -11.285317      -307.0891
   4   2.0000     -11.282718      -307.0184
   5   2.0000     -11.282499      -307.0124
   6   2.0000     -11.280164      -306.9489
   7   2.0000     -11.272653      -306.7445
   8   2.0000     -11.271129      -306.7030
   9   2.0000      -1.218091       -33.1459
  10   2.0000      -1.214849       -33.0577
  11   2.0000      -1.213337       -33.0166
  12   2.0000      -1.043820       -28.4038
  13   2.0000      -1.036786       -28.2124
  14   2.0000      -1.032997       -28.1093
  15   2.0000      -0.700656       -19.0658
  16   2.0000      -0.695058       -18.9135
  17   2.0000      -0.690949       -18.8017
  18   2.0000      -0.632002       -17.1976
  19   2.0000      -0.631822       -17.1928
  20   2.0000      -0.631311       -17.1788
  21   2.0000      -0.622074       -16.9275
  22   2.0000      -0.617581       -16.8052
  23   2.0000      -0.616076       -16.7643
  24   2.0000      -0.558929       -15.2092
  25   2.0000      -0.556018       -15.1300
  26   2.0000      -0.555794       -15.1239
  27   2.0000      -0.463055       -12.6004
  28   2.0000      -0.458236       -12.4692
  29   2.0000      -0.457981       -12.4623
  30   2.0000      -0.457823       -12.4580
  31   2.0000      -0.456959       -12.4345
  32   2.0000      -0.452820       -12.3219
  33   0.0000       0.118974         3.2375
  34   0.0000       0.126450         3.4409
  35   0.0000       0.145256         3.9526
  36   0.0000       0.171066         4.6549
  37   0.0000       0.171500         4.6667

MULLIKEN ATOMIC CHARGES
-----------------------
   0 C :   -0.280632
   1 H :    0.172818
   2 H :    0.171962
   3 H :    0.172209
   4 C :   -0.145673
   5 N :   -0.090683
   6 C :   -0.261773
   7 H :    0.183026
   8 H :    0.171403
   9 H :    0.175040
  10 C :   -0.118019
  11 N :   -0.149316
  12 C :   -0.287083
  13 H :    0.205334
  14 H :    0.166612
  15 H :    0.165419
  16 C :   -0.111203
  17 N :   -0.139440
Sum of atomic charges:    0.0000000

LOEWDIN ATOMIC CHARGES
----------------------
   0 C :   -0.284058
   1 H :    0.152888
   2 H :    0.152999
   3 H :    0.151084
   4 C :   -0.219404
   5 N :    0.046490
   6 C :   -0.284482
   7 H :    0.155891
   8 H :    0.148622
   9 H :    0.157398
  10 C :   -0.208847
  11 N :    0.027771
  12 C :   -0.282262
  13 H :    0.157063
  14 H :    0.150446
  15 H :    0.152319
  16 C :   -0.209508
  17 N :    0.035588

  Mayer bond orders larger than 0.100000
B(  0-C ,  1-H ) :   0.9164 B(  0-C ,  2-H ) :   0.9166 B(  0-C ,  3-H ) :   0.9165
B(  0-C ,  4-C ) :   0.9022 B(  4-C ,  5-N ) :   2.8370 B(  6-C ,  7-H ) :   0.9108
B(  6-C ,  8-H ) :   0.9098 B(  6-C ,  9-H ) :   0.9131 B(  6-C , 10-C ) :   0.9130
B( 10-C , 11-N ) :   2.7759 B( 12-C , 13-H ) :   0.9017 B( 12-C , 14-H ) :   0.9167
B( 12-C , 15-H ) :   0.9156 B( 12-C , 16-C ) :   0.8995 B( 16-C , 17-N ) :   2.7884

MP2 TOTAL ENERGY:     -397.459170340 Eh
FINAL SINGLE POINT ENERGY      -397.459170339765

DIPOLE MOMENT
-------------
                                X             Y             Z
Electronic contribution:      0.13085      -0.11076       3.12082
Nuclear contribution   :     -0.18510       0.14653      -4.61891
                        -----------------------------------------
Total Dipole Moment    :     -0.05424       0.03577      -1.49809
                        -----------------------------------------
Magnitude (a.u.)       :      1.49950
Magnitude (Debye)      :      3.81143

Rotational constants in cm-1:     0.043716     0.006656     0.006403
Rotational constants in MHz :  1310.580966   199.547890   191.943615

                             ****ORCA TERMINATED NORMALLY****
TOTAL RUN TIME: 0 days 0 hours 2 minutes 28 seconds 785 msec
