                         Program Version 4.2.0 -  RELEASE  -
|  1> # 12h2o.su.etal.mol0,1,4,6,9,10
|  2> ! MP2 def2-TZVP EnGrad TightSCF
|  3>
|  4> %pal
|  5>     nprocs 6
|  6> end
|  7>
|  8> %maxcore 8000
|  9>
| 10> %scf
| 11>     ConvForced true
| 12> end
| 13>
| 14> *xyz 0 1
| 15> O   1.794470000   0.923410000   2.768350000
| 16> H   2.338250000   1.359750000   3.430940000
| 17> H   0.879480000   1.303000000   2.865760000
| 18> O  -1.794470000  -0.923410000   2.768350000
| 19> H  -2.338250000  -1.359750000   3.430940000
| 20> H  -0.879480000  -1.303000000   2.865760000
| 21> O  -0.885520000   1.737840000   0.052730000
| 22> H  -1.032320000   2.090180000  -0.841890000
| 23> H  -1.284090000   0.839590000   0.017130000
| 24> O   1.737840000   0.885520000  -0.052730000
| 25> H   2.090180000   1.032320000   0.841890000
| 26> H   0.839590000   1.284090000  -0.017130000
| 27> O   0.741530000  -1.752130000   2.896280000
| 28> H   0.920500000  -2.036450000   1.984040000
| 29> H   1.242140000  -0.921210000   2.984230000
| 30> O  -0.923410000   1.794470000  -2.768350000
| 31> H  -1.359750000   2.338250000  -3.430940000
| 32> H  -1.303000000   0.879480000  -2.865760000
| 33> *
| 34>
| 35>                          ****END OF INPUT****

CARTESIAN COORDINATES (ANGSTROEM)
---------------------------------
  O      1.794470    0.923410    2.768350
  H      2.338250    1.359750    3.430940
  H      0.879480    1.303000    2.865760
  O     -1.794470   -0.923410    2.768350
  H     -2.338250   -1.359750    3.430940
  H     -0.879480   -1.303000    2.865760
  O     -0.885520    1.737840    0.052730
  H     -1.032320    2.090180   -0.841890
  H     -1.284090    0.839590    0.017130
  O      1.737840    0.885520   -0.052730
  H      2.090180    1.032320    0.841890
  H      0.839590    1.284090   -0.017130
  O      0.741530   -1.752130    2.896280
  H      0.920500   -2.036450    1.984040
  H      1.242140   -0.921210    2.984230
  O     -0.923410    1.794470   -2.768350
  H     -1.359750    2.338250   -3.430940
  H     -1.303000    0.879480   -2.865760

 Total Charge           Charge          ....    0
 Multiplicity           Mult            ....    1
 Number of Electrons    NEL             ....   60
 Basis Dimension        Dim             ....  258

ORBITAL ENERGIES
----------------

  NO   OCC          E(Eh)            E(eV)
   0   2.0000     -20.601871      -560.6054
   1   2.0000     -20.591388      -560.3202
   2   2.0000     -20.565096      -559.6047
   3   2.0000     -20.554734      -559.3227
   4   2.0000     -20.517822      -558.3183
   5   2.0000     -20.494402      -557.6810
   6   2.0000      -1.382591       -37.6222
   7   2.0000      -1.369583       -37.2682
   8   2.0000      -1.353550       -36.8320
   9   2.0000      -1.337997       -36.4088
  10   2.0000      -1.299528       -35.3620
  11   2.0000      -1.278715       -34.7956
  12   2.0000      -0.748162       -20.3585
  13   2.0000      -0.736143       -20.0315
  14   2.0000      -0.715635       -19.4734
  15   2.0000      -0.701875       -19.0990
  16   2.0000      -0.686669       -18.6852
  17   2.0000      -0.664620       -18.0852
  18   2.0000      -0.622049       -16.9268
  19   2.0000      -0.611156       -16.6304
  20   2.0000      -0.594808       -16.1856
  21   2.0000      -0.577681       -15.7195
  22   2.0000      -0.556221       -15.1355
  23   2.0000      -0.543214       -14.7816
  24   2.0000      -0.530656       -14.4399
  25   2.0000      -0.518192       -14.1007
  26   2.0000      -0.498626       -13.5683
  27   2.0000      -0.485320       -13.2062
  28   2.0000      -0.468621       -12.7518
  29   2.0000      -0.445319       -12.1178
  30   0.0000       0.101131         2.7519
  31   0.0000       0.112738         3.0678
  32   0.0000       0.149669         4.0727
  33   0.0000       0.172921         4.7054
  34   0.0000       0.179855         4.8941

MULLIKEN ATOMIC CHARGES
-----------------------
   0 O :   -0.719891
   1 H :    0.360053
   2 H :    0.382942
   3 O :   -0.738795
   4 H :    0.324819
   5 H :    0.365192
   6 O :   -0.702800
   7 H :    0.375908
   8 H :    0.347613
   9 O :   -0.735789
  10 H :    0.348378
  11 H :    0.347063
  12 O :   -0.703371
  13 H :    0.357741
  14 H :    0.374285
  15 O :   -0.688681
  16 H :    0.351936
  17 H :    0.353397
Sum of atomic charges:   -0.0000000

LOEWDIN ATOMIC CHARGES
----------------------
   0 O :   -0.287640
   1 H :    0.166046
   2 H :    0.196025
   3 O :   -0.376554
   4 H :    0.148573
   5 H :    0.141066
   6 O :   -0.301309
   7 H :    0.152379
   8 H :    0.173386
   9 O :   -0.372050
  10 H :    0.138488
  11 H :    0.136888
  12 O :   -0.283314
  13 H :    0.172852
  14 H :    0.153056
  15 O :   -0.306900
  16 H :    0.163490
  17 H :    0.185517

  Mayer bond orders larger than 0.100000
B(  0-O ,  1-H ) :   0.8340 B(  0-O ,  2-H ) :   0.8104 B(  3-O ,  4-H ) :   0.8604
B(  3-O ,  5-H ) :   0.7738 B(  6-O ,  7-H ) :   0.8056 B(  6-O ,  8-H ) :   0.8373
B(  9-O , 10-H ) :   0.8397 B(  9-O , 11-H ) :   0.8015 B( 12-O , 13-H ) :   0.8362
B( 12-O , 14-H ) :   0.8018 B( 15-O , 16-H ) :   0.8419 B( 15-O , 17-H ) :   0.8353

MP2 TOTAL ENERGY:     -457.918367228 Eh
FINAL SINGLE POINT ENERGY      -457.918367227822

DIPOLE MOMENT
-------------
                                X             Y             Z
Electronic contribution:      0.30796       0.19090      -0.09908
Nuclear contribution   :     -1.02183       0.14554      -0.05351
                        -----------------------------------------
Total Dipole Moment    :     -0.71387       0.33644      -0.15259
                        -----------------------------------------
Magnitude (a.u.)       :      0.80380
Magnitude (Debye)      :      2.04310

Rotational constants in cm-1:     0.062166     0.024978     0.020410
Rotational constants in MHz :  1863.699379   748.827491   611.879469

                             ****ORCA TERMINATED NORMALLY****
TOTAL RUN TIME: 0 days 0 hours 1 minutes 36 seconds 421 msec
