                         Program Version 4.2.0 -  RELEASE  -
|  1> # 12h2o.su.etal.mol2,4,8,11
|  2> ! MP2 def2-TZVP EnGrad TightSCF
|  3>
|  4> %pal
|  5>     nprocs 6
|  6> end
|  7>
|  8> %maxcore 8000
|  9>
| 10> %scf
| 11>     ConvForced true
| 12> end
| 13>
| 14> *xyz 0 1
| 15> O   0.923410000  -1.794470000  -2.768350000
| 16> H   1.359750000  -2.338250000  -3.430940000
| 17> H   1.303000000  -0.879480000  -2.865760000
| 18> O  -0.885520000   1.737840000   0.052730000
| 19> H  -1.032320000   2.090180000  -0.841890000
| 20> H  -1.284090000   0.839590000   0.017130000
| 21> O   1.752130000   0.741530000  -2.896280000
| 22> H   2.036450000   0.920500000  -1.984040000
| 23> H   0.921210000   1.242140000  -2.984230000
| 24> O  -0.741530000   1.752130000   2.896280000
| 25> H  -0.920500000   2.036450000   1.984040000
| 26> H  -1.242140000   0.921210000   2.984230000
| 27> *
| 28>
| 29>                          ****END OF INPUT****

CARTESIAN COORDINATES (ANGSTROEM)
---------------------------------
  O      0.923410   -1.794470   -2.768350
  H      1.359750   -2.338250   -3.430940
  H      1.303000   -0.879480   -2.865760
  O     -0.885520    1.737840    0.052730
  H     -1.032320    2.090180   -0.841890
  H     -1.284090    0.839590    0.017130
  O      1.752130    0.741530   -2.896280
  H      2.036450    0.920500   -1.984040
  H      0.921210    1.242140   -2.984230
  O     -0.741530    1.752130    2.896280
  H     -0.920500    2.036450    1.984040
  H     -1.242140    0.921210    2.984230

 Total Charge           Charge          ....    0
 Multiplicity           Mult            ....    1
 Number of Electrons    NEL             ....   40
 Basis Dimension        Dim             ....  172

ORBITAL ENERGIES
----------------

  NO   OCC          E(Eh)            E(eV)
   0   2.0000     -20.605915      -560.7154
   1   2.0000     -20.602692      -560.6278
   2   2.0000     -20.535990      -558.8127
   3   2.0000     -20.524834      -558.5091
   4   2.0000      -1.391105       -37.8539
   5   2.0000      -1.380863       -37.5752
   6   2.0000      -1.317881       -35.8614
   7   2.0000      -1.307275       -35.5728
   8   2.0000      -0.748672       -20.3724
   9   2.0000      -0.743256       -20.2250
  10   2.0000      -0.698636       -19.0108
  11   2.0000      -0.688456       -18.7338
  12   2.0000      -0.625765       -17.0279
  13   2.0000      -0.619905       -16.8685
  14   2.0000      -0.565879       -15.3984
  15   2.0000      -0.557934       -15.1822
  16   2.0000      -0.541171       -14.7260
  17   2.0000      -0.522144       -14.2083
  18   2.0000      -0.482250       -13.1227
  19   2.0000      -0.475238       -12.9319
  20   0.0000       0.074115         2.0168
  21   0.0000       0.128587         3.4990
  22   0.0000       0.151708         4.1282
  23   0.0000       0.173206         4.7132
  24   0.0000       0.183457         4.9921

MULLIKEN ATOMIC CHARGES
-----------------------
   0 O :   -0.734065
   1 H :    0.328202
   2 H :    0.363209
   3 O :   -0.690233
   4 H :    0.341849
   5 H :    0.354562
   6 O :   -0.672970
   7 H :    0.365730
   8 H :    0.348061
   9 O :   -0.690617
  10 H :    0.367269
  11 H :    0.319003
Sum of atomic charges:   -0.0000000

LOEWDIN ATOMIC CHARGES
----------------------
   0 O :   -0.373251
   1 H :    0.149902
   2 H :    0.140999
   3 O :   -0.316148
   4 H :    0.166055
   5 H :    0.179545
   6 O :   -0.267835
   7 H :    0.177501
   8 H :    0.171004
   9 O :   -0.337889
  10 H :    0.152063
  11 H :    0.158055

  Mayer bond orders larger than 0.100000
B(  0-O ,  1-H ) :   0.8593 B(  0-O ,  2-H ) :   0.7902 B(  3-O ,  4-H ) :   0.8460
B(  3-O ,  5-H ) :   0.8360 B(  6-O ,  7-H ) :   0.8318 B(  6-O ,  8-H ) :   0.8422
B(  9-O , 10-H ) :   0.8249 B(  9-O , 11-H ) :   0.8633

MP2 TOTAL ENERGY:     -305.264263423 Eh
FINAL SINGLE POINT ENERGY      -305.264263423185

DIPOLE MOMENT
-------------
                                X             Y             Z
Electronic contribution:      0.23909       0.32001       0.09510
Nuclear contribution   :     -0.79542      -0.03473      -1.40687
                        -----------------------------------------
Total Dipole Moment    :     -0.55633       0.28528      -1.31178
                        -----------------------------------------
Magnitude (a.u.)       :      1.45315
Magnitude (Debye)      :      3.69361

Rotational constants in cm-1:     0.187511     0.029187     0.027031
Rotational constants in MHz :  5621.447392   875.009739   810.375819

                             ****ORCA TERMINATED NORMALLY****
TOTAL RUN TIME: 0 days 0 hours 0 minutes 25 seconds 36 msec
