                         Program Version 3.0.3 - RELEASE   -
|  1> ! wB97X-D3 MA-Def2-TZVP def2-TZVP/J RIJCOSX TightSCF Grid4
|  2>
|  3> %pal nprocs 1 end
|  4>
|  5> %scf
|  6>         maxiter 400
|  7> end
|  8>
|  9> * xyz  0  1
| 10> O  3.192744	0.887794	-3.244137
| 11> H  3.647666	0.220409	-2.632527
| 12> H  3.888669	1.403565	-3.671310
| 13> O  -2.262092	0.490625	-0.367378
| 14> H  -3.086287	0.800034	0.072300
| 15> H  -1.571718	1.114075	-0.014109
| 16> O  -0.489901	-0.230935	-2.335032
| 17> H  -1.345472	0.053380	-1.949200
| 18> H  0.169718	0.414626	-1.966297
| 19> O  1.394033	-0.947096	-4.261378
| 20> H  0.554878	-0.648595	-3.852360
| 21> H  2.021383	-0.208991	-4.096763
| 22> O  2.214818	-2.742108	-2.550546
| 23> H  2.462305	-3.548398	-3.023471
| 24> H  1.877675	-2.103904	-3.260107
| 25> O  -4.002360	1.328304	1.539694
| 26> H  -4.859312	1.775881	1.517461
| 27> H  -3.348723	2.000262	1.924460
| 28> O  0.425118	-0.011626	2.334563
| 29> H  0.043749	0.301804	3.186340
| 30> H  -0.266164	-0.642969	1.995790
| 31> O  -3.194656	-0.669646	3.278389
| 32> H  -2.712033	-1.243334	2.647111
| 33> H  -3.682588	-0.045435	2.696271
| 34> O  -1.322623	0.874808	4.220036
| 35> H  -2.066813	0.246291	3.940385
| 36> H  -1.344451	0.908652	5.185572
| 37> O  1.413808	1.312894	-1.245691
| 38> H  2.077440	1.432743	-1.962555
| 39> H  1.808448	0.641563	-0.627497
| 40> O  -2.165359	2.893313	2.531807
| 41> H  -1.459329	2.864526	1.851771
| 42> H  -1.810421	2.334267	3.258668
| 43> O  -1.524216	-1.515610	1.254676
| 44> H  -0.999461	-2.119032	0.688156
| 45> H  -1.865462	-0.833779	0.613644
| 46> O  -0.322396	1.986404	0.712870
| 47> H  0.047037	1.292309	1.322332
| 48> H  0.343709	2.079862	-0.002577
| 49> O  4.062726	-0.919824	-1.608319
| 50> H  3.676849	-0.765586	-0.720279
| 51> H  3.559385	-1.703896	-1.925292
| 52> O  2.229662	-0.635953	0.406958
| 53> H  1.890355	-0.386049	1.293696
| 54> H  1.549870	-1.281600	0.075265
| 55> O  0.305338	-2.201911	-0.671463
| 56> H  0.912921	-2.714473	-1.248969
| 57> H  -0.068465	-1.537634	-1.310959
| 58> **                         ****END OF INPUT****

CARTESIAN COORDINATES (ANGSTROEM)
---------------------------------
  O      3.192744    0.887794   -3.244137
  H      3.647666    0.220409   -2.632527
  H      3.888669    1.403565   -3.671310
  O     -2.262092    0.490625   -0.367378
  H     -3.086287    0.800034    0.072300
  H     -1.571718    1.114075   -0.014109
  O     -0.489901   -0.230935   -2.335032
  H     -1.345472    0.053380   -1.949200
  H      0.169718    0.414626   -1.966297
  O      1.394033   -0.947096   -4.261378
  H      0.554878   -0.648595   -3.852360
  H      2.021383   -0.208991   -4.096763
  O      2.214818   -2.742108   -2.550546
  H      2.462305   -3.548398   -3.023471
  H      1.877675   -2.103904   -3.260107
  O     -4.002360    1.328304    1.539694
  H     -4.859312    1.775881    1.517461
  H     -3.348723    2.000262    1.924460
  O      0.425118   -0.011626    2.334563
  H      0.043749    0.301804    3.186340
  H     -0.266164   -0.642969    1.995790
  O     -3.194656   -0.669646    3.278389
  H     -2.712033   -1.243334    2.647111
  H     -3.682588   -0.045435    2.696271
  O     -1.322623    0.874808    4.220036
  H     -2.066813    0.246291    3.940385
  H     -1.344451    0.908652    5.185572
  O      1.413808    1.312894   -1.245691
  H      2.077440    1.432743   -1.962555
  H      1.808448    0.641563   -0.627497
  O     -2.165359    2.893313    2.531807
  H     -1.459329    2.864526    1.851771
  H     -1.810421    2.334267    3.258668
  O     -1.524216   -1.515610    1.254676
  H     -0.999461   -2.119032    0.688156
  H     -1.865462   -0.833779    0.613644
  O     -0.322396    1.986404    0.712870
  H      0.047037    1.292309    1.322332
  H      0.343709    2.079862   -0.002577
  O      4.062726   -0.919824   -1.608319
  H      3.676849   -0.765586   -0.720279
  H      3.559385   -1.703896   -1.925292
  O      2.229662   -0.635953    0.406958
  H      1.890355   -0.386049    1.293696
  H      1.549870   -1.281600    0.075265
  O      0.305338   -2.201911   -0.671463
  H      0.912921   -2.714473   -1.248969
  H     -0.068465   -1.537634   -1.310959

 Total Charge           Charge          ....    0
 Multiplicity           Mult            ....    1
 Number of Electrons    NEL             ....  160
 Basis Dimension        Dim             ....  752

ORBITAL ENERGIES
----------------

  NO   OCC          E(Eh)            E(eV)
   0   2.0000     -19.253515      -523.9148
   1   2.0000     -19.253038      -523.9018
   2   2.0000     -19.252792      -523.8951
   3   2.0000     -19.252678      -523.8920
   4   2.0000     -19.242470      -523.6142
   5   2.0000     -19.241464      -523.5868
   6   2.0000     -19.241174      -523.5790
   7   2.0000     -19.240377      -523.5573
   8   2.0000     -19.240057      -523.5486
   9   2.0000     -19.239379      -523.5301
  10   2.0000     -19.239055      -523.5213
  11   2.0000     -19.238234      -523.4990
  12   2.0000     -19.234951      -523.4096
  13   2.0000     -19.234433      -523.3955
  14   2.0000     -19.233871      -523.3802
  15   2.0000     -19.232498      -523.3429
  16   2.0000      -1.162145       -31.6236
  17   2.0000      -1.156229       -31.4626
  18   2.0000      -1.147480       -31.2245
  19   2.0000      -1.146302       -31.1925
  20   2.0000      -1.145388       -31.1676
  21   2.0000      -1.138805       -30.9885
  22   2.0000      -1.137405       -30.9504
  23   2.0000      -1.137023       -30.9400
  24   2.0000      -1.126380       -30.6504
  25   2.0000      -1.126164       -30.6445
  26   2.0000      -1.123154       -30.5626
  27   2.0000      -1.119141       -30.4534
  28   2.0000      -1.118538       -30.4370
  29   2.0000      -1.117703       -30.4143
  30   2.0000      -1.110250       -30.2114
  31   2.0000      -1.102571       -30.0025
  32   2.0000      -0.667578       -18.1657
  33   2.0000      -0.658873       -17.9288
  34   2.0000      -0.657008       -17.8781
  35   2.0000      -0.655594       -17.8396
  36   2.0000      -0.654008       -17.7965
  37   2.0000      -0.650117       -17.6906
  38   2.0000      -0.648664       -17.6510
  39   2.0000      -0.646319       -17.5872
  40   2.0000      -0.641546       -17.4573
  41   2.0000      -0.639643       -17.4056
  42   2.0000      -0.635317       -17.2878
  43   2.0000      -0.633050       -17.2262
  44   2.0000      -0.632143       -17.2015
  45   2.0000      -0.631024       -17.1710
  46   2.0000      -0.626604       -17.0508
  47   2.0000      -0.625079       -17.0093
  48   2.0000      -0.576787       -15.6952
  49   2.0000      -0.565514       -15.3884
  50   2.0000      -0.543780       -14.7970
  51   2.0000      -0.542307       -14.7569
  52   2.0000      -0.539095       -14.6695
  53   2.0000      -0.528711       -14.3870
  54   2.0000      -0.528059       -14.3692
  55   2.0000      -0.520563       -14.1652
  56   2.0000      -0.511448       -13.9172
  57   2.0000      -0.507794       -13.8178
  58   2.0000      -0.507408       -13.8073
  59   2.0000      -0.500271       -13.6131
  60   2.0000      -0.486531       -13.2392
  61   2.0000      -0.485756       -13.2181
  62   2.0000      -0.472385       -12.8543
  63   2.0000      -0.454819       -12.3762
  64   2.0000      -0.439338       -11.9550
  65   2.0000      -0.438274       -11.9260
  66   2.0000      -0.437542       -11.9061
  67   2.0000      -0.437359       -11.9011
  68   2.0000      -0.434895       -11.8341
  69   2.0000      -0.430699       -11.7199
  70   2.0000      -0.429357       -11.6834
  71   2.0000      -0.427415       -11.6306
  72   2.0000      -0.426480       -11.6051
  73   2.0000      -0.425843       -11.5878
  74   2.0000      -0.421732       -11.4759
  75   2.0000      -0.420692       -11.4476
  76   2.0000      -0.418843       -11.3973
  77   2.0000      -0.418647       -11.3920
  78   2.0000      -0.417623       -11.3641
  79   2.0000      -0.417046       -11.3484
  80   0.0000       0.051829         1.4103
  81   0.0000       0.060172         1.6374
  82   0.0000       0.074675         2.0320
  83   0.0000       0.075615         2.0576
  84   0.0000       0.090325         2.4579

MULLIKEN ATOMIC CHARGES
-----------------------
   0 O :   -0.811396
   1 H :    0.424801
   2 H :    0.360009
   3 O :   -0.800001
   4 H :    0.414048
   5 H :    0.400022
   6 O :   -0.812363
   7 H :    0.423663
   8 H :    0.409160
   9 O :   -0.748295
  10 H :    0.405715
  11 H :    0.413502
  12 O :   -0.820635
  13 H :    0.358159
  14 H :    0.409680
  15 O :   -0.821045
  16 H :    0.358078
  17 H :    0.415160
  18 O :   -0.807222
  19 H :    0.419407
  20 H :    0.410689
  21 O :   -0.752742
  22 H :    0.411785
  23 H :    0.405726
  24 O :   -0.829003
  25 H :    0.418548
  26 H :    0.359093
  27 O :   -0.854443
  28 H :    0.418972
  29 H :    0.386485
  30 O :   -0.747598
  31 H :    0.414433
  32 H :    0.403854
  33 O :   -0.872540
  34 H :    0.424072
  35 H :    0.420406
  36 O :   -0.892420
  37 H :    0.407258
  38 H :    0.428976
  39 O :   -0.771333
  40 H :    0.409855
  41 H :    0.400738
  42 O :   -0.804149
  43 H :    0.430251
  44 H :    0.411259
  45 O :   -0.855405
  46 H :    0.409904
  47 H :    0.416886
Sum of atomic charges:   -0.0000000

LOEWDIN ATOMIC CHARGES
----------------------
   0 O :   -0.396422
   1 H :    0.187877
   2 H :    0.190407
   3 O :   -0.400228
   4 H :    0.196355
   5 H :    0.187050
   6 O :   -0.396562
   7 H :    0.202789
   8 H :    0.187409
   9 O :   -0.355623
  10 H :    0.200141
  11 H :    0.193874
  12 O :   -0.396285
  13 H :    0.191455
  14 H :    0.189601
  15 O :   -0.398238
  16 H :    0.191213
  17 H :    0.189501
  18 O :   -0.398265
  19 H :    0.197754
  20 H :    0.190781
  21 O :   -0.356018
  22 H :    0.198874
  23 H :    0.193667
  24 O :   -0.397359
  25 H :    0.189162
  26 H :    0.190977
  27 O :   -0.397768
  28 H :    0.195510
  29 H :    0.187140
  30 O :   -0.359454
  31 H :    0.197186
  32 H :    0.192186
  33 O :   -0.395265
  34 H :    0.203345
  35 H :    0.190407
  36 O :   -0.394566
  37 H :    0.187874
  38 H :    0.199949
  39 O :   -0.360077
  40 H :    0.198587
  41 H :    0.193246
  42 O :   -0.393864
  43 H :    0.202664
  44 H :    0.192611
  45 O :   -0.402593
  46 H :    0.197149
  47 H :    0.191846

  Mayer bond orders larger than 0.1
B(  0-O ,  1-H ) :   0.7535 B(  0-O ,  2-H ) :   0.8743 B(  3-O ,  4-H ) :   0.8283
B(  3-O ,  5-H ) :   0.8162 B(  6-O ,  7-H ) :   0.8308 B(  6-O ,  8-H ) :   0.8189
B(  9-O , 10-H ) :   0.8479 B(  9-O , 11-H ) :   0.8499 B(  9-O , 14-H ) :   0.1252
B( 12-O , 13-H ) :   0.8771 B( 12-O , 14-H ) :   0.7548 B( 15-O , 16-H ) :   0.8754
B( 15-O , 17-H ) :   0.7549 B( 17-H , 30-O ) :   0.1108 B( 18-O , 19-H ) :   0.8248
B( 18-O , 20-H ) :   0.8098 B( 21-O , 22-H ) :   0.8417 B( 21-O , 23-H ) :   0.8508
B( 21-O , 25-H ) :   0.1110 B( 24-O , 25-H ) :   0.7526 B( 24-O , 26-H ) :   0.8747
B( 27-O , 28-H ) :   0.8145 B( 27-O , 29-H ) :   0.8136 B( 30-O , 31-H ) :   0.8400
B( 30-O , 32-H ) :   0.8506 B( 33-O , 34-H ) :   0.8324 B( 33-O , 35-H ) :   0.8073
B( 36-O , 37-H ) :   0.8091 B( 36-O , 38-H ) :   0.8213 B( 39-O , 40-H ) :   0.8433
B( 39-O , 41-H ) :   0.8477 B( 42-O , 43-H ) :   0.8245 B( 42-O , 44-H ) :   0.8086
B( 45-O , 46-H ) :   0.8389 B( 45-O , 47-H ) :   0.8125

Dispersion correction           -0.031924747
FINAL SINGLE POINT ENERGY     -1223.327986054479

DIPOLE MOMENT
-------------
                                X             Y             Z
Electronic contribution:      0.01299      -0.07226      -0.01083
Nuclear contribution   :      0.11326       0.25113       0.01236
                        -----------------------------------------
Total Dipole Moment    :      0.12625       0.17887       0.00154
                        -----------------------------------------
Magnitude (a.u.)       :      0.21894
Magnitude (Debye)      :      0.55651

                             ****ORCA TERMINATED NORMALLY****
TOTAL RUN TIME: 0 days 0 hours 27 minutes 47 seconds 953 msec
