                         Program Version 3.0.3 - RELEASE   -
|  1> ! wB97X-D3 MA-Def2-TZVP def2-TZVP/J RIJCOSX TightSCF Grid4
|  2>
|  3> %pal nprocs 1 end
|  4>
|  5> %scf
|  6>         maxiter 400
|  7> end
|  8>
|  9> * xyz  0  1
| 10> O  3.084683	0.756382	-3.061294
| 11> H  3.536733	0.020464	-2.468944
| 12> H  3.812349	1.214655	-3.519933
| 13> O  -2.194196	0.548609	-0.356430
| 14> H  -3.039331	0.794436	0.122366
| 15> H  -1.524631	1.221951	0.006602
| 16> O  -0.459872	-0.147735	-2.253042
| 17> H  -1.323486	0.107610	-1.824772
| 18> H  0.199598	0.531687	-1.883310
| 19> O  1.294272	-0.992706	-4.139846
| 20> H  0.469356	-0.679440	-3.678412
| 21> H  1.954097	-0.270853	-3.931851
| 22> O  2.172081	-2.837351	-2.596128
| 23> H  2.340385	-3.655971	-3.097731
| 24> H  1.804314	-2.143380	-3.288590
| 25> O  -3.956491	1.205522	1.520677
| 26> H  -4.847837	1.599230	1.494335
| 27> H  -3.328932	1.935773	1.934072
| 28> O  0.445317	0.147025	2.271694
| 29> H  0.035033	0.402637	3.148176
| 30> H  -0.221479	-0.526295	1.901440
| 31> O  -3.025701	-0.756180	3.165271
| 32> H  -2.498555	-1.280333	2.502281
| 33> H  -3.553056	-0.133130	2.588069
| 34> O  -1.311744	0.878548	4.136134
| 35> H  -2.023013	0.179241	3.815324
| 36> H  -1.317861	0.841127	5.110307
| 37> O  1.357466	1.448834	-1.164662
| 38> H  2.036383	1.490874	-1.899876
| 39> H  1.739398	0.733100	-0.550173
| 40> O  -2.276098	2.850520	2.525043
| 41> H  -1.546783	2.879513	1.847357
| 42> H  -1.885508	2.283280	3.250067
| 43> O  -1.344848	-1.455489	1.157808
| 44> H  -0.805409	-2.033646	0.550532
| 45> H  -1.722817	-0.743950	0.538235
| 46> O  -0.377068	2.144687	0.730053
| 47> H  0.010081	1.435768	1.347024
| 48> H  0.306692	2.235494	0.009251
| 49> O  4.003823	-1.102063	-1.562254
| 50> H  3.573165	-0.920406	-0.683174
| 51> H  3.483032	-1.881310	-1.909191
| 52> O  2.186953	-0.538761	0.370240
| 53> H  1.829638	-0.305024	1.271061
| 54> H  1.519008	-1.217367	0.012569
| 55> O  0.395829	-2.146199	-0.740483
| 56> H  0.979111	-2.682437	-1.353135
| 57> H  0.015919	-1.436939	-1.362756
| 58> **                         ****END OF INPUT****

CARTESIAN COORDINATES (ANGSTROEM)
---------------------------------
  O      3.084683    0.756382   -3.061294
  H      3.536733    0.020464   -2.468944
  H      3.812349    1.214655   -3.519933
  O     -2.194196    0.548609   -0.356430
  H     -3.039331    0.794436    0.122366
  H     -1.524631    1.221951    0.006602
  O     -0.459872   -0.147735   -2.253042
  H     -1.323486    0.107610   -1.824772
  H      0.199598    0.531687   -1.883310
  O      1.294272   -0.992706   -4.139846
  H      0.469356   -0.679440   -3.678412
  H      1.954097   -0.270853   -3.931851
  O      2.172081   -2.837351   -2.596128
  H      2.340385   -3.655971   -3.097731
  H      1.804314   -2.143380   -3.288590
  O     -3.956491    1.205522    1.520677
  H     -4.847837    1.599230    1.494335
  H     -3.328932    1.935773    1.934072
  O      0.445317    0.147025    2.271694
  H      0.035033    0.402637    3.148176
  H     -0.221479   -0.526295    1.901440
  O     -3.025701   -0.756180    3.165271
  H     -2.498555   -1.280333    2.502281
  H     -3.553056   -0.133130    2.588069
  O     -1.311744    0.878548    4.136134
  H     -2.023013    0.179241    3.815324
  H     -1.317861    0.841127    5.110307
  O      1.357466    1.448834   -1.164662
  H      2.036383    1.490874   -1.899876
  H      1.739398    0.733100   -0.550173
  O     -2.276098    2.850520    2.525043
  H     -1.546783    2.879513    1.847357
  H     -1.885508    2.283280    3.250067
  O     -1.344848   -1.455489    1.157808
  H     -0.805409   -2.033646    0.550532
  H     -1.722817   -0.743950    0.538235
  O     -0.377068    2.144687    0.730053
  H      0.010081    1.435768    1.347024
  H      0.306692    2.235494    0.009251
  O      4.003823   -1.102063   -1.562254
  H      3.573165   -0.920406   -0.683174
  H      3.483032   -1.881310   -1.909191
  O      2.186953   -0.538761    0.370240
  H      1.829638   -0.305024    1.271061
  H      1.519008   -1.217367    0.012569
  O      0.395829   -2.146199   -0.740483
  H      0.979111   -2.682437   -1.353135
  H      0.015919   -1.436939   -1.362756

 Total Charge           Charge          ....    0
 Multiplicity           Mult            ....    1
 Number of Electrons    NEL             ....  160
 Basis Dimension        Dim             ....  752

ORBITAL ENERGIES
----------------

  NO   OCC          E(Eh)            E(eV)
   0   2.0000     -19.253526      -523.9151
   1   2.0000     -19.253411      -523.9120
   2   2.0000     -19.253306      -523.9091
   3   2.0000     -19.253172      -523.9054
   4   2.0000     -19.241965      -523.6005
   5   2.0000     -19.241577      -523.5899
   6   2.0000     -19.241463      -523.5868
   7   2.0000     -19.241153      -523.5784
   8   2.0000     -19.240443      -523.5591
   9   2.0000     -19.240394      -523.5577
  10   2.0000     -19.240251      -523.5538
  11   2.0000     -19.240225      -523.5531
  12   2.0000     -19.238213      -523.4984
  13   2.0000     -19.238025      -523.4933
  14   2.0000     -19.237887      -523.4895
  15   2.0000     -19.237791      -523.4869
  16   2.0000      -1.162052       -31.6210
  17   2.0000      -1.155214       -31.4350
  18   2.0000      -1.144798       -31.1515
  19   2.0000      -1.142669       -31.0936
  20   2.0000      -1.142398       -31.0862
  21   2.0000      -1.134191       -30.8629
  22   2.0000      -1.133833       -30.8532
  23   2.0000      -1.133786       -30.8519
  24   2.0000      -1.122019       -30.5317
  25   2.0000      -1.121928       -30.5292
  26   2.0000      -1.118645       -30.4399
  27   2.0000      -1.112835       -30.2818
  28   2.0000      -1.112646       -30.2766
  29   2.0000      -1.112509       -30.2729
  30   2.0000      -1.103199       -30.0196
  31   2.0000      -1.092792       -29.7364
  32   2.0000      -0.660559       -17.9747
  33   2.0000      -0.656932       -17.8760
  34   2.0000      -0.656801       -17.8725
  35   2.0000      -0.656275       -17.8581
  36   2.0000      -0.654167       -17.8008
  37   2.0000      -0.647144       -17.6097
  38   2.0000      -0.646788       -17.6000
  39   2.0000      -0.646521       -17.5927
  40   2.0000      -0.636788       -17.3279
  41   2.0000      -0.636496       -17.3199
  42   2.0000      -0.631537       -17.1850
  43   2.0000      -0.629706       -17.1352
  44   2.0000      -0.629571       -17.1315
  45   2.0000      -0.629194       -17.1212
  46   2.0000      -0.622309       -16.9339
  47   2.0000      -0.622177       -16.9303
  48   2.0000      -0.582759       -15.8577
  49   2.0000      -0.573224       -15.5982
  50   2.0000      -0.545379       -14.8405
  51   2.0000      -0.544940       -14.8286
  52   2.0000      -0.542166       -14.7531
  53   2.0000      -0.530548       -14.4369
  54   2.0000      -0.530429       -14.4337
  55   2.0000      -0.525178       -14.2908
  56   2.0000      -0.508721       -13.8430
  57   2.0000      -0.508589       -13.8394
  58   2.0000      -0.508336       -13.8325
  59   2.0000      -0.503787       -13.7087
  60   2.0000      -0.484841       -13.1932
  61   2.0000      -0.484600       -13.1866
  62   2.0000      -0.471849       -12.8397
  63   2.0000      -0.451174       -12.2771
  64   2.0000      -0.437069       -11.8932
  65   2.0000      -0.436850       -11.8873
  66   2.0000      -0.434968       -11.8361
  67   2.0000      -0.434684       -11.8283
  68   2.0000      -0.430974       -11.7274
  69   2.0000      -0.428554       -11.6615
  70   2.0000      -0.428477       -11.6595
  71   2.0000      -0.425178       -11.5697
  72   2.0000      -0.425141       -11.5687
  73   2.0000      -0.424634       -11.5549
  74   2.0000      -0.420803       -11.4506
  75   2.0000      -0.419557       -11.4167
  76   2.0000      -0.418542       -11.3891
  77   2.0000      -0.418310       -11.3828
  78   2.0000      -0.416470       -11.3327
  79   2.0000      -0.415818       -11.3150
  80   0.0000       0.052152         1.4191
  81   0.0000       0.059896         1.6299
  82   0.0000       0.074867         2.0372
  83   0.0000       0.075035         2.0418
  84   0.0000       0.091482         2.4894

MULLIKEN ATOMIC CHARGES
-----------------------
   0 O :   -0.844341
   1 H :    0.422233
   2 H :    0.361057
   3 O :   -0.866484
   4 H :    0.433168
   5 H :    0.418794
   6 O :   -0.895335
   7 H :    0.447324
   8 H :    0.428901
   9 O :   -0.756758
  10 H :    0.429431
  11 H :    0.417077
  12 O :   -0.843736
  13 H :    0.361199
  14 H :    0.422677
  15 O :   -0.841608
  16 H :    0.361257
  17 H :    0.422410
  18 O :   -0.861852
  19 H :    0.431560
  20 H :    0.418298
  21 O :   -0.758935
  22 H :    0.430203
  23 H :    0.418501
  24 O :   -0.844044
  25 H :    0.423162
  26 H :    0.361262
  27 O :   -0.857506
  28 H :    0.432361
  29 H :    0.416586
  30 O :   -0.759384
  31 H :    0.431164
  32 H :    0.418488
  33 O :   -0.891068
  34 H :    0.447404
  35 H :    0.426233
  36 O :   -0.897837
  37 H :    0.431861
  38 H :    0.447869
  39 O :   -0.755878
  40 H :    0.429075
  41 H :    0.417348
  42 O :   -0.898489
  43 H :    0.447423
  44 H :    0.431523
  45 O :   -0.864653
  46 H :    0.432450
  47 H :    0.419607
Sum of atomic charges:   -0.0000000

LOEWDIN ATOMIC CHARGES
----------------------
   0 O :   -0.417220
   1 H :    0.194486
   2 H :    0.195256
   3 O :   -0.415540
   4 H :    0.202334
   5 H :    0.195502
   6 O :   -0.410608
   7 H :    0.209100
   8 H :    0.196227
   9 O :   -0.358163
  10 H :    0.206469
  11 H :    0.200880
  12 O :   -0.417716
  13 H :    0.195326
  14 H :    0.195078
  15 O :   -0.417144
  16 H :    0.195415
  17 H :    0.194474
  18 O :   -0.416343
  19 H :    0.203159
  20 H :    0.195538
  21 O :   -0.357746
  22 H :    0.206483
  23 H :    0.201251
  24 O :   -0.418791
  25 H :    0.195052
  26 H :    0.195351
  27 O :   -0.416188
  28 H :    0.203000
  29 H :    0.194995
  30 O :   -0.357350
  31 H :    0.206288
  32 H :    0.201349
  33 O :   -0.409978
  34 H :    0.209373
  35 H :    0.195881
  36 O :   -0.410832
  37 H :    0.196570
  38 H :    0.209181
  39 O :   -0.356919
  40 H :    0.206396
  41 H :    0.201197
  42 O :   -0.409607
  43 H :    0.209257
  44 H :    0.196650
  45 O :   -0.415855
  46 H :    0.202890
  47 H :    0.195591

  Mayer bond orders larger than 0.1
B(  0-O ,  1-H ) :   0.7113 B(  0-O ,  2-H ) :   0.8703 B(  1-H , 39-O ) :   0.1603
B(  3-O ,  4-H ) :   0.8014 B(  3-O ,  5-H ) :   0.7860 B(  6-O ,  7-H ) :   0.8038
B(  6-O ,  8-H ) :   0.7845 B(  9-O , 10-H ) :   0.8212 B(  9-O , 11-H ) :   0.8351
B(  9-O , 14-H ) :   0.1594 B( 12-O , 13-H ) :   0.8704 B( 12-O , 14-H ) :   0.7118
B( 15-O , 16-H ) :   0.8703 B( 15-O , 17-H ) :   0.7096 B( 17-H , 30-O ) :   0.1620
B( 18-O , 19-H ) :   0.8038 B( 18-O , 20-H ) :   0.7864 B( 21-O , 22-H ) :   0.8208
B( 21-O , 23-H ) :   0.8341 B( 21-O , 25-H ) :   0.1582 B( 24-O , 25-H ) :   0.7115
B( 24-O , 26-H ) :   0.8705 B( 27-O , 28-H ) :   0.8020 B( 27-O , 29-H ) :   0.7861
B( 30-O , 31-H ) :   0.8208 B( 30-O , 32-H ) :   0.8341 B( 33-O , 34-H ) :   0.8038
B( 33-O , 35-H ) :   0.7826 B( 36-O , 37-H ) :   0.7855 B( 36-O , 38-H ) :   0.8029
B( 39-O , 40-H ) :   0.8223 B( 39-O , 41-H ) :   0.8353 B( 42-O , 43-H ) :   0.8039
B( 42-O , 44-H ) :   0.7836 B( 45-O , 46-H ) :   0.8029 B( 45-O , 47-H ) :   0.7855

Dispersion correction           -0.033062382
FINAL SINGLE POINT ENERGY     -1223.306432048862

DIPOLE MOMENT
-------------
                                X             Y             Z
Electronic contribution:     -0.00031       0.00034       0.00172
Nuclear contribution   :      0.01397      -0.00910      -0.00694
                        -----------------------------------------
Total Dipole Moment    :      0.01366      -0.00875      -0.00522
                        -----------------------------------------
Magnitude (a.u.)       :      0.01704
Magnitude (Debye)      :      0.04331

                             ****ORCA TERMINATED NORMALLY****
TOTAL RUN TIME: 0 days 0 hours 29 minutes 23 seconds 70 msec
