                         Program Version 3.0.3 - RELEASE   -
|  1> ! wB97X-D3 Def2-TZVP def2-TZVP/J RIJCOSX TightSCF Grid4 COSMO
|  2>
|  3> %pal nprocs 12 end
|  4>
|  5> %scf
|  6>         maxiter 400
|  7> end
|  8>
|  9> %cosmo
| 10>         SMD true
| 11>         solvent "WATER"
| 12> end
| 13>
| 14> * xyz  0  1
| 15> O  3.109552	0.953240	-3.328626
| 16> H  3.634486	0.328336	-2.750980
| 17> H  3.751446	1.535890	-3.761837
| 18> O  -2.258295	0.474717	-0.313835
| 19> H  -3.060448	0.814192	0.153407
| 20> H  -1.539671	1.068411	0.033189
| 21> O  -0.467200	-0.282340	-2.239765
| 22> H  -1.315662	0.014623	-1.847065
| 23> H  0.202733	0.365720	-1.890461
| 24> O  1.345679	-0.902546	-4.269569
| 25> H  0.547453	-0.637984	-3.765820
| 26> H  1.988443	-0.174837	-4.096976
| 27> O  2.279723	-2.693707	-2.531180
| 28> H  2.575706	-3.498239	-2.984683
| 29> H  1.914594	-2.102082	-3.250831
| 30> O  -3.965022	1.388032	1.539464
| 31> H  -4.836638	1.808939	1.477051
| 32> H  -3.350296	2.090504	1.899599
| 33> O  0.405221	-0.097556	2.392621
| 34> H  -0.039892	0.272910	3.193408
| 35> H  -0.280041	-0.719774	2.031693
| 36> O  -3.359231	-0.661592	3.239378
| 37> H  -2.828794	-1.210980	2.627090
| 38> H  -3.739973	0.034670	2.652002
| 39> O  -1.391969	0.919787	4.155589
| 40> H  -2.143179	0.298405	3.938451
| 41> H  -1.369843	0.978405	5.123127
| 42> O  1.453640	1.281792	-1.227669
| 43> H  2.082056	1.399161	-1.980266
| 44> H  1.862488	0.599789	-0.633572
| 45> O  -2.086736	3.024938	2.512412
| 46> H  -1.397121	2.874662	1.829950
| 47> H  -1.819790	2.399263	3.227293
| 48> O  -1.561364	-1.576477	1.268620
| 49> H  -1.033953	-2.176473	0.703236
| 50> H  -1.883371	-0.875518	0.637465
| 51> O  -0.273312	1.917940	0.767398
| 52> H  0.080375	1.212141	1.373990
| 53> H  0.387773	1.989706	0.044367
| 54> O  4.115400	-0.863727	-1.678057
| 55> H  3.714388	-0.698714	-0.800633
| 56> H  3.578513	-1.626623	-2.005876
| 57> O  2.247535	-0.714891	0.395689
| 58> H  1.887545	-0.430621	1.261941
| 59> H  1.573375	-1.369786	0.070679
| 60> O  0.333097	-2.329296	-0.663235
| 61> H  0.978546	-2.768013	-1.265217
| 62> H  -0.047965	-1.634392	-1.262957
| 63> **                         ****END OF INPUT****

CARTESIAN COORDINATES (ANGSTROEM)
---------------------------------
  O      3.109552    0.953240   -3.328626
  H      3.634486    0.328336   -2.750980
  H      3.751446    1.535890   -3.761837
  O     -2.258295    0.474717   -0.313835
  H     -3.060448    0.814192    0.153407
  H     -1.539671    1.068411    0.033189
  O     -0.467200   -0.282340   -2.239765
  H     -1.315662    0.014623   -1.847065
  H      0.202733    0.365720   -1.890461
  O      1.345679   -0.902546   -4.269569
  H      0.547453   -0.637984   -3.765820
  H      1.988443   -0.174837   -4.096976
  O      2.279723   -2.693707   -2.531180
  H      2.575706   -3.498239   -2.984683
  H      1.914594   -2.102082   -3.250831
  O     -3.965022    1.388032    1.539464
  H     -4.836638    1.808939    1.477051
  H     -3.350296    2.090504    1.899599
  O      0.405221   -0.097556    2.392621
  H     -0.039892    0.272910    3.193408
  H     -0.280041   -0.719774    2.031693
  O     -3.359231   -0.661592    3.239378
  H     -2.828794   -1.210980    2.627090
  H     -3.739973    0.034670    2.652002
  O     -1.391969    0.919787    4.155589
  H     -2.143179    0.298405    3.938451
  H     -1.369843    0.978405    5.123127
  O      1.453640    1.281792   -1.227669
  H      2.082056    1.399161   -1.980266
  H      1.862488    0.599789   -0.633572
  O     -2.086736    3.024938    2.512412
  H     -1.397121    2.874662    1.829950
  H     -1.819790    2.399263    3.227293
  O     -1.561364   -1.576477    1.268620
  H     -1.033953   -2.176473    0.703236
  H     -1.883371   -0.875518    0.637465
  O     -0.273312    1.917940    0.767398
  H      0.080375    1.212141    1.373990
  H      0.387773    1.989706    0.044367
  O      4.115400   -0.863727   -1.678057
  H      3.714388   -0.698714   -0.800633
  H      3.578513   -1.626623   -2.005876
  O      2.247535   -0.714891    0.395689
  H      1.887545   -0.430621    1.261941
  H      1.573375   -1.369786    0.070679
  O      0.333097   -2.329296   -0.663235
  H      0.978546   -2.768013   -1.265217
  H     -0.047965   -1.634392   -1.262957

 Total Charge           Charge          ....    0
 Multiplicity           Mult            ....    1
 Number of Electrons    NEL             ....  160
 Basis Dimension        Dim             ....  688

ORBITAL ENERGIES
----------------

  NO   OCC          E(Eh)            E(eV)
   0   2.0000     -19.240541      -523.5617
   1   2.0000     -19.240255      -523.5540
   2   2.0000     -19.240190      -523.5522
   3   2.0000     -19.239136      -523.5235
   4   2.0000     -19.238919      -523.5176
   5   2.0000     -19.237604      -523.4818
   6   2.0000     -19.236637      -523.4555
   7   2.0000     -19.236114      -523.4413
   8   2.0000     -19.235644      -523.4285
   9   2.0000     -19.233863      -523.3800
  10   2.0000     -19.232324      -523.3381
  11   2.0000     -19.231800      -523.3239
  12   2.0000     -19.231010      -523.3024
  13   2.0000     -19.230754      -523.2954
  14   2.0000     -19.230708      -523.2942
  15   2.0000     -19.229196      -523.2530
  16   2.0000      -1.155669       -31.4473
  17   2.0000      -1.147930       -31.2368
  18   2.0000      -1.138590       -30.9826
  19   2.0000      -1.137173       -30.9440
  20   2.0000      -1.136896       -30.9365
  21   2.0000      -1.132657       -30.8212
  22   2.0000      -1.130483       -30.7620
  23   2.0000      -1.130417       -30.7602
  24   2.0000      -1.120237       -30.4832
  25   2.0000      -1.119909       -30.4743
  26   2.0000      -1.117770       -30.4161
  27   2.0000      -1.114573       -30.3291
  28   2.0000      -1.114356       -30.3232
  29   2.0000      -1.112144       -30.2630
  30   2.0000      -1.104176       -30.0462
  31   2.0000      -1.097479       -29.8639
  32   2.0000      -0.657848       -17.9009
  33   2.0000      -0.650069       -17.6893
  34   2.0000      -0.646853       -17.6018
  35   2.0000      -0.644205       -17.5297
  36   2.0000      -0.643720       -17.5165
  37   2.0000      -0.639999       -17.4153
  38   2.0000      -0.637991       -17.3606
  39   2.0000      -0.636072       -17.3084
  40   2.0000      -0.635053       -17.2807
  41   2.0000      -0.631642       -17.1879
  42   2.0000      -0.627768       -17.0824
  43   2.0000      -0.626618       -17.0512
  44   2.0000      -0.625666       -17.0252
  45   2.0000      -0.624323       -16.9887
  46   2.0000      -0.621680       -16.9168
  47   2.0000      -0.620862       -16.8945
  48   2.0000      -0.570272       -15.5179
  49   2.0000      -0.557504       -15.1705
  50   2.0000      -0.539113       -14.6700
  51   2.0000      -0.536608       -14.6019
  52   2.0000      -0.530473       -14.4349
  53   2.0000      -0.525993       -14.3130
  54   2.0000      -0.523097       -14.2342
  55   2.0000      -0.516673       -14.0594
  56   2.0000      -0.505026       -13.7424
  57   2.0000      -0.501622       -13.6498
  58   2.0000      -0.500526       -13.6200
  59   2.0000      -0.497832       -13.5467
  60   2.0000      -0.482770       -13.1368
  61   2.0000      -0.482218       -13.1218
  62   2.0000      -0.470768       -12.8102
  63   2.0000      -0.455396       -12.3920
  64   2.0000      -0.433864       -11.8060
  65   2.0000      -0.430283       -11.7086
  66   2.0000      -0.429820       -11.6960
  67   2.0000      -0.428131       -11.6500
  68   2.0000      -0.425973       -11.5913
  69   2.0000      -0.425475       -11.5778
  70   2.0000      -0.424183       -11.5426
  71   2.0000      -0.423572       -11.5260
  72   2.0000      -0.422747       -11.5035
  73   2.0000      -0.421327       -11.4649
  74   2.0000      -0.420028       -11.4295
  75   2.0000      -0.418803       -11.3962
  76   2.0000      -0.418232       -11.3807
  77   2.0000      -0.417765       -11.3680
  78   2.0000      -0.415906       -11.3174
  79   2.0000      -0.414982       -11.2922
  80   0.0000       0.089430         2.4335
  81   0.0000       0.113260         3.0820
  82   0.0000       0.143474         3.9041
  83   0.0000       0.144334         3.9275
  84   0.0000       0.149417         4.0658

MULLIKEN ATOMIC CHARGES
-----------------------
   0 O :   -0.774052
   1 H :    0.389001
   2 H :    0.405727
   3 O :   -0.774562
   4 H :    0.393957
   5 H :    0.356890
   6 O :   -0.767956
   7 H :    0.401552
   8 H :    0.360783
   9 O :   -0.753302
  10 H :    0.386949
  11 H :    0.381016
  12 O :   -0.770395
  13 H :    0.405538
  14 H :    0.372741
  15 O :   -0.770521
  16 H :    0.406710
  17 H :    0.375406
  18 O :   -0.776106
  19 H :    0.394263
  20 H :    0.365011
  21 O :   -0.754538
  22 H :    0.389417
  23 H :    0.377459
  24 O :   -0.771335
  25 H :    0.374049
  26 H :    0.406907
  27 O :   -0.775477
  28 H :    0.394045
  29 H :    0.358196
  30 O :   -0.754721
  31 H :    0.393310
  32 H :    0.373489
  33 O :   -0.770992
  34 H :    0.400821
  35 H :    0.366564
  36 O :   -0.774571
  37 H :    0.361296
  38 H :    0.409231
  39 O :   -0.755518
  40 H :    0.389778
  41 H :    0.371371
  42 O :   -0.769020
  43 H :    0.404615
  44 H :    0.364477
  45 O :   -0.771151
  46 H :    0.390592
  47 H :    0.363055
Sum of atomic charges:    0.0000000

LOEWDIN ATOMIC CHARGES
----------------------
   0 O :   -0.285377
   1 H :    0.146738
   2 H :    0.187141
   3 O :   -0.307963
   4 H :    0.147141
   5 H :    0.133275
   6 O :   -0.299711
   7 H :    0.155753
   8 H :    0.134393
   9 O :   -0.312008
  10 H :    0.150584
  11 H :    0.143892
  12 O :   -0.285748
  13 H :    0.186284
  14 H :    0.143422
  15 O :   -0.280273
  16 H :    0.187716
  17 H :    0.146679
  18 O :   -0.308978
  19 H :    0.149604
  20 H :    0.136771
  21 O :   -0.317519
  22 H :    0.151795
  23 H :    0.143434
  24 O :   -0.285055
  25 H :    0.146635
  26 H :    0.187348
  27 O :   -0.294504
  28 H :    0.146127
  29 H :    0.134591
  30 O :   -0.320081
  31 H :    0.148230
  32 H :    0.144605
  33 O :   -0.300883
  34 H :    0.159443
  35 H :    0.137260
  36 O :   -0.289826
  37 H :    0.135393
  38 H :    0.152534
  39 O :   -0.314333
  40 H :    0.152291
  41 H :    0.143088
  42 O :   -0.297765
  43 H :    0.157903
  44 H :    0.140277
  45 O :   -0.317478
  46 H :    0.150561
  47 H :    0.136595

  Mayer bond orders larger than 0.1
B(  0-O ,  1-H ) :   0.7675 B(  0-O ,  2-H ) :   0.8395 B(  0-O , 28-H ) :   0.1098
B(  1-H , 39-O ) :   0.1177 B(  3-O ,  4-H ) :   0.7923 B(  3-O ,  5-H ) :   0.7772
B(  3-O , 35-H ) :   0.1373 B(  5-H , 36-O ) :   0.1346 B(  6-O ,  7-H ) :   0.8114
B(  6-O ,  8-H ) :   0.7749 B(  6-O , 47-H ) :   0.1270 B(  8-H , 27-O ) :   0.1336
B(  9-O , 10-H ) :   0.8241 B(  9-O , 11-H ) :   0.8036 B(  9-O , 14-H ) :   0.1409
B( 12-O , 13-H ) :   0.8415 B( 12-O , 14-H ) :   0.7649 B( 12-O , 41-H ) :   0.1104
B( 15-O , 16-H ) :   0.8396 B( 15-O , 17-H ) :   0.7651 B( 17-H , 30-O ) :   0.1380
B( 18-O , 19-H ) :   0.7966 B( 18-O , 20-H ) :   0.7815 B( 18-O , 37-H ) :   0.1394
B( 20-H , 33-O ) :   0.1289 B( 21-O , 22-H ) :   0.8289 B( 21-O , 23-H ) :   0.8046
B( 21-O , 25-H ) :   0.1335 B( 24-O , 25-H ) :   0.7695 B( 24-O , 26-H ) :   0.8399
B( 27-O , 28-H ) :   0.7840 B( 27-O , 29-H ) :   0.7819 B( 29-H , 42-O ) :   0.1253
B( 30-O , 31-H ) :   0.8195 B( 30-O , 32-H ) :   0.8114 B( 33-O , 34-H ) :   0.8206
B( 33-O , 35-H ) :   0.7715 B( 36-O , 37-H ) :   0.7719 B( 36-O , 38-H ) :   0.8004
B( 39-O , 40-H ) :   0.8309 B( 39-O , 41-H ) :   0.8018 B( 42-O , 43-H ) :   0.8165
B( 42-O , 44-H ) :   0.7792 B( 44-H , 45-O ) :   0.1367 B( 45-O , 46-H ) :   0.8078
B( 45-O , 47-H ) :   0.7835

Dispersion correction           -0.031831513
FINAL SINGLE POINT ENERGY     -1223.359868687338

DIPOLE MOMENT
-------------
                                X             Y             Z
Electronic contribution:      0.03839       0.09372      -0.02257
Nuclear contribution   :      0.18299       0.40375      -0.04803
                        -----------------------------------------
Total Dipole Moment    :      0.22138       0.49747      -0.07061
                        -----------------------------------------
Magnitude (a.u.)       :      0.54906
Magnitude (Debye)      :      1.39560

                             ****ORCA TERMINATED NORMALLY****
TOTAL RUN TIME: 0 days 0 hours 2 minutes 16 seconds 276 msec
