                         Program Version 3.0.3 - RELEASE   -
|  1> ! B3LYP Def2-TZVP def2-TZVP/J RIJCOSX TightSCF Grid4 D3BJ
|  2>
|  3> %pal nprocs 12 end
|  4>
|  5> %scf
|  6>         maxiter 400
|  7> end
|  8>
|  9> * xyz  0  1
| 10> O  3.192744	0.887794	-3.244137
| 11> H  3.647666	0.220409	-2.632527
| 12> H  3.888669	1.403565	-3.671310
| 13> O  -2.262092	0.490625	-0.367378
| 14> H  -3.086287	0.800034	0.072300
| 15> H  -1.571718	1.114075	-0.014109
| 16> O  -0.489901	-0.230935	-2.335032
| 17> H  -1.345472	0.053380	-1.949200
| 18> H  0.169718	0.414626	-1.966297
| 19> O  1.394033	-0.947096	-4.261378
| 20> H  0.554878	-0.648595	-3.852360
| 21> H  2.021383	-0.208991	-4.096763
| 22> O  2.214818	-2.742108	-2.550546
| 23> H  2.462305	-3.548398	-3.023471
| 24> H  1.877675	-2.103904	-3.260107
| 25> O  -4.002360	1.328304	1.539694
| 26> H  -4.859312	1.775881	1.517461
| 27> H  -3.348723	2.000262	1.924460
| 28> O  0.425118	-0.011626	2.334563
| 29> H  0.043749	0.301804	3.186340
| 30> H  -0.266164	-0.642969	1.995790
| 31> O  -3.194656	-0.669646	3.278389
| 32> H  -2.712033	-1.243334	2.647111
| 33> H  -3.682588	-0.045435	2.696271
| 34> O  -1.322623	0.874808	4.220036
| 35> H  -2.066813	0.246291	3.940385
| 36> H  -1.344451	0.908652	5.185572
| 37> O  1.413808	1.312894	-1.245691
| 38> H  2.077440	1.432743	-1.962555
| 39> H  1.808448	0.641563	-0.627497
| 40> O  -2.165359	2.893313	2.531807
| 41> H  -1.459329	2.864526	1.851771
| 42> H  -1.810421	2.334267	3.258668
| 43> O  -1.524216	-1.515610	1.254676
| 44> H  -0.999461	-2.119032	0.688156
| 45> H  -1.865462	-0.833779	0.613644
| 46> O  -0.322396	1.986404	0.712870
| 47> H  0.047037	1.292309	1.322332
| 48> H  0.343709	2.079862	-0.002577
| 49> O  4.062726	-0.919824	-1.608319
| 50> H  3.676849	-0.765586	-0.720279
| 51> H  3.559385	-1.703896	-1.925292
| 52> O  2.229662	-0.635953	0.406958
| 53> H  1.890355	-0.386049	1.293696
| 54> H  1.549870	-1.281600	0.075265
| 55> O  0.305338	-2.201911	-0.671463
| 56> H  0.912921	-2.714473	-1.248969
| 57> H  -0.068465	-1.537634	-1.310959
| 58> **                         ****END OF INPUT****

CARTESIAN COORDINATES (ANGSTROEM)
---------------------------------
  O      3.192744    0.887794   -3.244137
  H      3.647666    0.220409   -2.632527
  H      3.888669    1.403565   -3.671310
  O     -2.262092    0.490625   -0.367378
  H     -3.086287    0.800034    0.072300
  H     -1.571718    1.114075   -0.014109
  O     -0.489901   -0.230935   -2.335032
  H     -1.345472    0.053380   -1.949200
  H      0.169718    0.414626   -1.966297
  O      1.394033   -0.947096   -4.261378
  H      0.554878   -0.648595   -3.852360
  H      2.021383   -0.208991   -4.096763
  O      2.214818   -2.742108   -2.550546
  H      2.462305   -3.548398   -3.023471
  H      1.877675   -2.103904   -3.260107
  O     -4.002360    1.328304    1.539694
  H     -4.859312    1.775881    1.517461
  H     -3.348723    2.000262    1.924460
  O      0.425118   -0.011626    2.334563
  H      0.043749    0.301804    3.186340
  H     -0.266164   -0.642969    1.995790
  O     -3.194656   -0.669646    3.278389
  H     -2.712033   -1.243334    2.647111
  H     -3.682588   -0.045435    2.696271
  O     -1.322623    0.874808    4.220036
  H     -2.066813    0.246291    3.940385
  H     -1.344451    0.908652    5.185572
  O      1.413808    1.312894   -1.245691
  H      2.077440    1.432743   -1.962555
  H      1.808448    0.641563   -0.627497
  O     -2.165359    2.893313    2.531807
  H     -1.459329    2.864526    1.851771
  H     -1.810421    2.334267    3.258668
  O     -1.524216   -1.515610    1.254676
  H     -0.999461   -2.119032    0.688156
  H     -1.865462   -0.833779    0.613644
  O     -0.322396    1.986404    0.712870
  H      0.047037    1.292309    1.322332
  H      0.343709    2.079862   -0.002577
  O      4.062726   -0.919824   -1.608319
  H      3.676849   -0.765586   -0.720279
  H      3.559385   -1.703896   -1.925292
  O      2.229662   -0.635953    0.406958
  H      1.890355   -0.386049    1.293696
  H      1.549870   -1.281600    0.075265
  O      0.305338   -2.201911   -0.671463
  H      0.912921   -2.714473   -1.248969
  H     -0.068465   -1.537634   -1.310959

 Total Charge           Charge          ....    0
 Multiplicity           Mult            ....    1
 Number of Electrons    NEL             ....  160
 Basis Dimension        Dim             ....  688

ORBITAL ENERGIES
----------------

  NO   OCC          E(Eh)            E(eV)
   0   2.0000     -19.143123      -520.9109
   1   2.0000     -19.142463      -520.8929
   2   2.0000     -19.142294      -520.8883
   3   2.0000     -19.142144      -520.8842
   4   2.0000     -19.131380      -520.5913
   5   2.0000     -19.130716      -520.5732
   6   2.0000     -19.130173      -520.5585
   7   2.0000     -19.129707      -520.5458
   8   2.0000     -19.129305      -520.5348
   9   2.0000     -19.128740      -520.5195
  10   2.0000     -19.128236      -520.5058
  11   2.0000     -19.127433      -520.4839
  12   2.0000     -19.124460      -520.4030
  13   2.0000     -19.123557      -520.3784
  14   2.0000     -19.123261      -520.3704
  15   2.0000     -19.121755      -520.3294
  16   2.0000      -1.043299       -28.3896
  17   2.0000      -1.037836       -28.2410
  18   2.0000      -1.029426       -28.0121
  19   2.0000      -1.028329       -27.9823
  20   2.0000      -1.027423       -27.9576
  21   2.0000      -1.020979       -27.7823
  22   2.0000      -1.019384       -27.7388
  23   2.0000      -1.019062       -27.7301
  24   2.0000      -1.008686       -27.4477
  25   2.0000      -1.008490       -27.4424
  26   2.0000      -1.005420       -27.3589
  27   2.0000      -1.001748       -27.2590
  28   2.0000      -1.001085       -27.2409
  29   2.0000      -1.000226       -27.2175
  30   2.0000      -0.993010       -27.0212
  31   2.0000      -0.985483       -26.8164
  32   2.0000      -0.561274       -15.2730
  33   2.0000      -0.553212       -15.0537
  34   2.0000      -0.551374       -15.0037
  35   2.0000      -0.550024       -14.9669
  36   2.0000      -0.547391       -14.8953
  37   2.0000      -0.543966       -14.8021
  38   2.0000      -0.542718       -14.7681
  39   2.0000      -0.540247       -14.7009
  40   2.0000      -0.535193       -14.5633
  41   2.0000      -0.533158       -14.5080
  42   2.0000      -0.529732       -14.4147
  43   2.0000      -0.527300       -14.3486
  44   2.0000      -0.526548       -14.3281
  45   2.0000      -0.525423       -14.2975
  46   2.0000      -0.521651       -14.1949
  47   2.0000      -0.520073       -14.1519
  48   2.0000      -0.468985       -12.7617
  49   2.0000      -0.458403       -12.4738
  50   2.0000      -0.438051       -11.9200
  51   2.0000      -0.436643       -11.8817
  52   2.0000      -0.434754       -11.8303
  53   2.0000      -0.424122       -11.5409
  54   2.0000      -0.423479       -11.5234
  55   2.0000      -0.415238       -11.2992
  56   2.0000      -0.409244       -11.1361
  57   2.0000      -0.404518       -11.0075
  58   2.0000      -0.404214       -10.9992
  59   2.0000      -0.396086       -10.7780
  60   2.0000      -0.384783       -10.4705
  61   2.0000      -0.384025       -10.4498
  62   2.0000      -0.370515       -10.0822
  63   2.0000      -0.354781        -9.6541
  64   2.0000      -0.338369        -9.2075
  65   2.0000      -0.337270        -9.1776
  66   2.0000      -0.336592        -9.1591
  67   2.0000      -0.335623        -9.1328
  68   2.0000      -0.334344        -9.0980
  69   2.0000      -0.329803        -8.9744
  70   2.0000      -0.328592        -8.9414
  71   2.0000      -0.326541        -8.8856
  72   2.0000      -0.325617        -8.8605
  73   2.0000      -0.325026        -8.8444
  74   2.0000      -0.321315        -8.7434
  75   2.0000      -0.319788        -8.7019
  76   2.0000      -0.318194        -8.6585
  77   2.0000      -0.317750        -8.6464
  78   2.0000      -0.316979        -8.6254
  79   2.0000      -0.316289        -8.6067
  80   0.0000      -0.001036        -0.0282
  81   0.0000       0.010882         0.2961
  82   0.0000       0.029591         0.8052
  83   0.0000       0.030164         0.8208
  84   0.0000       0.046769         1.2727

MULLIKEN ATOMIC CHARGES
-----------------------
   0 O :   -0.725908
   1 H :    0.375319
   2 H :    0.331380
   3 O :   -0.729225
   4 H :    0.362835
   5 H :    0.350031
   6 O :   -0.725685
   7 H :    0.372262
   8 H :    0.351910
   9 O :   -0.678352
  10 H :    0.367791
  11 H :    0.356710
  12 O :   -0.726499
  13 H :    0.333315
  14 H :    0.366953
  15 O :   -0.725777
  16 H :    0.332139
  17 H :    0.366176
  18 O :   -0.733463
  19 H :    0.366839
  20 H :    0.355113
  21 O :   -0.678817
  22 H :    0.371905
  23 H :    0.352890
  24 O :   -0.727710
  25 H :    0.367835
  26 H :    0.333087
  27 O :   -0.737981
  28 H :    0.365980
  29 H :    0.347188
  30 O :   -0.681133
  31 H :    0.372606
  32 H :    0.351280
  33 O :   -0.729576
  34 H :    0.372968
  35 H :    0.354614
  36 O :   -0.736868
  37 H :    0.349538
  38 H :    0.379452
  39 O :   -0.683408
  40 H :    0.372367
  41 H :    0.349848
  42 O :   -0.730997
  43 H :    0.379134
  44 H :    0.355560
  45 O :   -0.727560
  46 H :    0.359956
  47 H :    0.353981
Sum of atomic charges:    0.0000000

LOEWDIN ATOMIC CHARGES
----------------------
   0 O :   -0.298525
   1 H :    0.137757
   2 H :    0.157289
   3 O :   -0.293309
   4 H :    0.143241
   5 H :    0.130633
   6 O :   -0.289176
   7 H :    0.151586
   8 H :    0.131234
   9 O :   -0.268665
  10 H :    0.151133
  11 H :    0.142103
  12 O :   -0.298099
  13 H :    0.157795
  14 H :    0.138545
  15 O :   -0.299768
  16 H :    0.157740
  17 H :    0.138600
  18 O :   -0.290598
  19 H :    0.144546
  20 H :    0.134427
  21 O :   -0.268874
  22 H :    0.149687
  23 H :    0.141867
  24 O :   -0.298713
  25 H :    0.138484
  26 H :    0.157530
  27 O :   -0.287361
  28 H :    0.141631
  29 H :    0.130769
  30 O :   -0.272488
  31 H :    0.147435
  32 H :    0.140133
  33 O :   -0.286205
  34 H :    0.152492
  35 H :    0.134246
  36 O :   -0.283718
  37 H :    0.131565
  38 H :    0.147933
  39 O :   -0.271388
  40 H :    0.149220
  41 H :    0.140898
  42 O :   -0.285398
  43 H :    0.151357
  44 H :    0.136294
  45 O :   -0.295704
  46 H :    0.144616
  47 H :    0.135204

  Mayer bond orders larger than 0.1
B(  0-O ,  1-H ) :   0.7332 B(  0-O ,  2-H ) :   0.8901 B(  0-O , 28-H ) :   0.1036
B(  1-H , 39-O ) :   0.1700 B(  3-O ,  4-H ) :   0.8219 B(  3-O ,  5-H ) :   0.7764
B(  3-O , 35-H ) :   0.1476 B(  5-H , 36-O ) :   0.1419 B(  6-O ,  7-H ) :   0.8299
B(  6-O ,  8-H ) :   0.7807 B(  6-O , 47-H ) :   0.1425 B(  8-H , 27-O ) :   0.1349
B(  9-O , 10-H ) :   0.8372 B(  9-O , 11-H ) :   0.8291 B(  9-O , 14-H ) :   0.1851
B( 12-O , 13-H ) :   0.8908 B( 12-O , 14-H ) :   0.7305 B( 12-O , 41-H ) :   0.1004
B( 15-O , 16-H ) :   0.8907 B( 15-O , 17-H ) :   0.7308 B( 17-H , 30-O ) :   0.1837
B( 18-O , 19-H ) :   0.8197 B( 18-O , 20-H ) :   0.7763 B( 18-O , 37-H ) :   0.1477
B( 20-H , 33-O ) :   0.1444 B( 21-O , 22-H ) :   0.8338 B( 21-O , 23-H ) :   0.8305
B( 21-O , 25-H ) :   0.1842 B( 24-O , 25-H ) :   0.7297 B( 24-O , 26-H ) :   0.8899
B( 27-O , 28-H ) :   0.8105 B( 27-O , 29-H ) :   0.7750 B( 29-H , 42-O ) :   0.1433
B( 30-O , 31-H ) :   0.8316 B( 30-O , 32-H ) :   0.8296 B( 33-O , 34-H ) :   0.8310
B( 33-O , 35-H ) :   0.7739 B( 36-O , 37-H ) :   0.7739 B( 36-O , 38-H ) :   0.8169
B( 39-O , 40-H ) :   0.8334 B( 39-O , 41-H ) :   0.8279 B( 42-O , 43-H ) :   0.8233
B( 42-O , 44-H ) :   0.7801 B( 44-H , 45-O ) :   0.1448 B( 45-O , 46-H ) :   0.8303
B( 45-O , 47-H ) :   0.7788

Dispersion correction           -0.060813154
FINAL SINGLE POINT ENERGY     -1223.136429195459

DIPOLE MOMENT
-------------
                                X             Y             Z
Electronic contribution:      0.01206      -0.07099      -0.01214
Nuclear contribution   :      0.11326       0.25113       0.01236
                        -----------------------------------------
Total Dipole Moment    :      0.12532       0.18014       0.00022
                        -----------------------------------------
Magnitude (a.u.)       :      0.21945
Magnitude (Debye)      :      0.55778

                             ****ORCA TERMINATED NORMALLY****
TOTAL RUN TIME: 0 days 0 hours 1 minutes 54 seconds 336 msec
