                         Program Version 4.2.0 -  RELEASE  -
|  1> # 12mecn.remya.etal.2.mol7,9,11
|  2> ! MP2 def2-TZVP EnGrad TightSCF
|  3>
|  4> %pal
|  5>     nprocs 6
|  6> end
|  7>
|  8> %maxcore 8000
|  9>
| 10> %scf
| 11>     ConvForced true
| 12> end
| 13>
| 14> *xyz 0 1
| 15> C   1.502241000   0.651296000   1.710523000
| 16> H   1.309219000   1.637164000   2.143202000
| 17> H   2.493408000   0.297996000   2.009069000
| 18> H   0.746597000  -0.059850000   2.055508000
| 19> C   1.447974000   0.738517000   0.269805000
| 20> N   1.405612000   0.808047000  -0.894380000
| 21> C   0.923766000   4.000693000  -1.575910000
| 22> H   0.011949000   4.478423000  -1.939550000
| 23> H   0.947903000   2.966558000  -1.929960000
| 24> H   1.805950000   4.519548000  -1.956520000
| 25> C   0.942834000   3.994846000  -0.131200000
| 26> N   0.960035000   3.982544000   1.035639000
| 27> C   4.214163000   3.378139000   1.593627000
| 28> H   3.242643000   3.657109000   2.012358000
| 29> H   4.969258000   4.086643000   1.941290000
| 30> H   4.482966000   2.372549000   1.931698000
| 31> C   4.130759000   3.388436000   0.150192000
| 32> N   4.050180000   3.381449000  -1.013420000
| 33> *
| 34>
| 35>                          ****END OF INPUT****

CARTESIAN COORDINATES (ANGSTROEM)
---------------------------------
  C      1.502241    0.651296    1.710523
  H      1.309219    1.637164    2.143202
  H      2.493408    0.297996    2.009069
  H      0.746597   -0.059850    2.055508
  C      1.447974    0.738517    0.269805
  N      1.405612    0.808047   -0.894380
  C      0.923766    4.000693   -1.575910
  H      0.011949    4.478423   -1.939550
  H      0.947903    2.966558   -1.929960
  H      1.805950    4.519548   -1.956520
  C      0.942834    3.994846   -0.131200
  N      0.960035    3.982544    1.035639
  C      4.214163    3.378139    1.593627
  H      3.242643    3.657109    2.012358
  H      4.969258    4.086643    1.941290
  H      4.482966    2.372549    1.931698
  C      4.130759    3.388436    0.150192
  N      4.050180    3.381449   -1.013420

 Total Charge           Charge          ....    0
 Multiplicity           Mult            ....    1
 Number of Electrons    NEL             ....   66
 Basis Dimension        Dim             ....  333

ORBITAL ENERGIES
----------------

  NO   OCC          E(Eh)            E(eV)
   0   2.0000     -15.570770      -423.7022
   1   2.0000     -15.569759      -423.6747
   2   2.0000     -15.567116      -423.6028
   3   2.0000     -11.283429      -307.0377
   4   2.0000     -11.280964      -306.9706
   5   2.0000     -11.279475      -306.9301
   6   2.0000     -11.278918      -306.9150
   7   2.0000     -11.276941      -306.8612
   8   2.0000     -11.258025      -306.3464
   9   2.0000      -1.218046       -33.1447
  10   2.0000      -1.213551       -33.0224
  11   2.0000      -1.211682       -32.9715
  12   2.0000      -1.041522       -28.3413
  13   2.0000      -1.037712       -28.2376
  14   2.0000      -1.025118       -27.8949
  15   2.0000      -0.698148       -18.9976
  16   2.0000      -0.694682       -18.9033
  17   2.0000      -0.684087       -18.6150
  18   2.0000      -0.636947       -17.3322
  19   2.0000      -0.632601       -17.2139
  20   2.0000      -0.627326       -17.0704
  21   2.0000      -0.621039       -16.8993
  22   2.0000      -0.611242       -16.6327
  23   2.0000      -0.607978       -16.5439
  24   2.0000      -0.558768       -15.2048
  25   2.0000      -0.554207       -15.0808
  26   2.0000      -0.553677       -15.0663
  27   2.0000      -0.465923       -12.6784
  28   2.0000      -0.459614       -12.5067
  29   2.0000      -0.457434       -12.4474
  30   2.0000      -0.453609       -12.3433
  31   2.0000      -0.452348       -12.3090
  32   2.0000      -0.448744       -12.2109
  33   0.0000       0.112195         3.0530
  34   0.0000       0.150769         4.1026
  35   0.0000       0.154906         4.2152
  36   0.0000       0.158490         4.3127
  37   0.0000       0.165999         4.5171

MULLIKEN ATOMIC CHARGES
-----------------------
   0 C :   -0.290453
   1 H :    0.198389
   2 H :    0.160375
   3 H :    0.177931
   4 C :   -0.109156
   5 N :   -0.134431
   6 C :   -0.274159
   7 H :    0.164393
   8 H :    0.203986
   9 H :    0.183921
  10 C :   -0.087368
  11 N :   -0.193485
  12 C :   -0.292868
  13 H :    0.200102
  14 H :    0.177422
  15 H :    0.157576
  16 C :   -0.121737
  17 N :   -0.120439
Sum of atomic charges:   -0.0000000

LOEWDIN ATOMIC CHARGES
----------------------
   0 C :   -0.285425
   1 H :    0.154496
   2 H :    0.149412
   3 H :    0.153369
   4 C :   -0.212048
   5 N :    0.044534
   6 C :   -0.283198
   7 H :    0.147638
   8 H :    0.159894
   9 H :    0.155852
  10 C :   -0.201501
  11 N :    0.014518
  12 C :   -0.286876
  13 H :    0.154719
  14 H :    0.151070
  15 H :    0.148790
  16 C :   -0.213692
  17 N :    0.048447

  Mayer bond orders larger than 0.100000
B(  0-C ,  1-H ) :   0.9073 B(  0-C ,  2-H ) :   0.9221 B(  0-C ,  3-H ) :   0.9097
B(  0-C ,  4-C ) :   0.8962 B(  4-C ,  5-N ) :   2.7576 B(  6-C ,  7-H ) :   0.9108
B(  6-C ,  8-H ) :   0.9000 B(  6-C ,  9-H ) :   0.9067 B(  6-C , 10-C ) :   0.9072
B( 10-C , 11-N ) :   2.7279 B( 12-C , 13-H ) :   0.9077 B( 12-C , 14-H ) :   0.9100
B( 12-C , 15-H ) :   0.9202 B( 12-C , 16-C ) :   0.8983 B( 16-C , 17-N ) :   2.7788

MP2 TOTAL ENERGY:     -397.466615457 Eh
FINAL SINGLE POINT ENERGY      -397.466615456724

DIPOLE MOMENT
-------------
                                X             Y             Z
Electronic contribution:     -0.27782       0.22244      -3.26164
Nuclear contribution   :      0.39015      -0.32805       4.61587
                        -----------------------------------------
Total Dipole Moment    :      0.11233      -0.10560       1.35423
                        -----------------------------------------
Magnitude (a.u.)       :      1.36298
Magnitude (Debye)      :      3.46442

Rotational constants in cm-1:     0.045397     0.039444     0.031201
Rotational constants in MHz :  1360.977635  1182.489483   935.396150

                             ****ORCA TERMINATED NORMALLY****
TOTAL RUN TIME: 0 days 0 hours 5 minutes 0 seconds 550 msec
