                         Program Version 4.2.0 -  RELEASE  -
|  1> # 12mecn.remya.etal.2.mol0,6
|  2> ! MP2 def2-TZVP EnGrad TightSCF
|  3>
|  4> %pal
|  5>     nprocs 6
|  6> end
|  7>
|  8> %maxcore 8000
|  9>
| 10> %scf
| 11>     ConvForced true
| 12> end
| 13>
| 14> *xyz 0 1
| 15> C  -0.869520000  -3.929380000   1.700199000
| 16> H  -0.057420000  -3.268850000   2.015352000
| 17> H  -0.697530000  -4.930670000   2.101524000
| 18> H  -1.821490000  -3.546590000   2.077146000
| 19> C  -0.916080000  -3.969960000   0.256749000
| 20> N  -0.955390000  -3.995980000  -0.909290000
| 21> C   5.300864000  -2.920090000   1.401103000
| 22> H   5.986071000  -2.139770000   1.737487000
| 23> H   5.636642000  -3.888750000   1.778233000
| 24> H   4.307359000  -2.697240000   1.799307000
| 25> C   5.234791000  -2.933140000  -0.043290000
| 26> N   5.170868000  -2.941760000  -1.207750000
| 27> *
| 28>
| 29>                          ****END OF INPUT****

CARTESIAN COORDINATES (ANGSTROEM)
---------------------------------
  C     -0.869520   -3.929380    1.700199
  H     -0.057420   -3.268850    2.015352
  H     -0.697530   -4.930670    2.101524
  H     -1.821490   -3.546590    2.077146
  C     -0.916080   -3.969960    0.256749
  N     -0.955390   -3.995980   -0.909290
  C      5.300864   -2.920090    1.401103
  H      5.986071   -2.139770    1.737487
  H      5.636642   -3.888750    1.778233
  H      4.307359   -2.697240    1.799307
  C      5.234791   -2.933140   -0.043290
  N      5.170868   -2.941760   -1.207750

 Total Charge           Charge          ....    0
 Multiplicity           Mult            ....    1
 Number of Electrons    NEL             ....   44
 Basis Dimension        Dim             ....  222

ORBITAL ENERGIES
----------------

  NO   OCC          E(Eh)            E(eV)
   0   2.0000     -15.573609      -423.7794
   1   2.0000     -15.573552      -423.7779
   2   2.0000     -11.287336      -307.1440
   3   2.0000     -11.287138      -307.1386
   4   2.0000     -11.279966      -306.9435
   5   2.0000     -11.279941      -306.9428
   6   2.0000      -1.214813       -33.0567
   7   2.0000      -1.214465       -33.0473
   8   2.0000      -1.046117       -28.4663
   9   2.0000      -1.045631       -28.4531
  10   2.0000      -0.702848       -19.1255
  11   2.0000      -0.701851       -19.0983
  12   2.0000      -0.634966       -17.2783
  13   2.0000      -0.634839       -17.2749
  14   2.0000      -0.633962       -17.2510
  15   2.0000      -0.632298       -17.2057
  16   2.0000      -0.555751       -15.1228
  17   2.0000      -0.555587       -15.1183
  18   2.0000      -0.458264       -12.4700
  19   2.0000      -0.457754       -12.4561
  20   2.0000      -0.457687       -12.4543
  21   2.0000      -0.457495       -12.4491
  22   0.0000       0.099758         2.7146
  23   0.0000       0.125909         3.4261
  24   0.0000       0.158216         4.3053
  25   0.0000       0.169235         4.6051
  26   0.0000       0.170533         4.6404

MULLIKEN ATOMIC CHARGES
-----------------------
   0 C :   -0.279072
   1 H :    0.166229
   2 H :    0.172203
   3 H :    0.173029
   4 C :   -0.145682
   5 N :   -0.086709
   6 C :   -0.280179
   7 H :    0.172970
   8 H :    0.172696
   9 H :    0.165519
  10 C :   -0.145619
  11 N :   -0.085386
Sum of atomic charges:   -0.0000000

LOEWDIN ATOMIC CHARGES
----------------------
   0 C :   -0.284687
   1 H :    0.150814
   2 H :    0.151252
   3 H :    0.153018
   4 C :   -0.220630
   5 N :    0.050233
   6 C :   -0.284812
   7 H :    0.151587
   8 H :    0.151140
   9 H :    0.150936
  10 C :   -0.219662
  11 N :    0.050811

  Mayer bond orders larger than 0.100000
B(  0-C ,  1-H ) :   0.9182 B(  0-C ,  2-H ) :   0.9171 B(  0-C ,  3-H ) :   0.9166
B(  0-C ,  4-C ) :   0.9012 B(  4-C ,  5-N ) :   2.8332 B(  6-C ,  7-H ) :   0.9170
B(  6-C ,  8-H ) :   0.9165 B(  6-C ,  9-H ) :   0.9186 B(  6-C , 10-C ) :   0.9027
B( 10-C , 11-N ) :   2.8335

MP2 TOTAL ENERGY:     -264.965123661 Eh
FINAL SINGLE POINT ENERGY      -264.965123660871

DIPOLE MOMENT
-------------
                                X             Y             Z
Electronic contribution:     -0.22949      -0.14267      -6.28763
Nuclear contribution   :      0.35123       0.19520       9.29102
                        -----------------------------------------
Total Dipole Moment    :      0.12174       0.05253       3.00339
                        -----------------------------------------
Magnitude (a.u.)       :      3.00632
Magnitude (Debye)      :      7.64145

Rotational constants in cm-1:     0.154178     0.020906     0.018540
Rotational constants in MHz :  4622.139389   626.733416   555.810855

                             ****ORCA TERMINATED NORMALLY****
TOTAL RUN TIME: 0 days 0 hours 0 minutes 43 seconds 14 msec
