                         Program Version 4.2.0 -  RELEASE  -
|  1> # 12mecn.remya.etal.2.mol5,6,7
|  2> ! MP2 def2-TZVP EnGrad TightSCF
|  3>
|  4> %pal
|  5>     nprocs 6
|  6> end
|  7>
|  8> %maxcore 8000
|  9>
| 10> %scf
| 11>     ConvForced true
| 12> end
| 13>
| 14> *xyz 0 1
| 15> C  -1.955700000   2.515080000   1.698463000
| 16> H  -2.923830000   2.883163000   2.049269000
| 17> H  -1.154850000   3.171830000   2.050990000
| 18> H  -1.790380000   1.506115000   2.087896000
| 19> C  -1.948230000   2.482156000   0.253672000
| 20> N  -1.937550000   2.462523000  -0.913150000
| 21> C   5.300864000  -2.920090000   1.401103000
| 22> H   5.986071000  -2.139770000   1.737487000
| 23> H   5.636642000  -3.888750000   1.778233000
| 24> H   4.307359000  -2.697240000   1.799307000
| 25> C   5.234791000  -2.933140000  -0.043290000
| 26> N   5.170868000  -2.941760000  -1.207750000
| 27> C   1.502241000   0.651296000   1.710523000
| 28> H   1.309219000   1.637164000   2.143202000
| 29> H   2.493408000   0.297996000   2.009069000
| 30> H   0.746597000  -0.059850000   2.055508000
| 31> C   1.447974000   0.738517000   0.269805000
| 32> N   1.405612000   0.808047000  -0.894380000
| 33> *
| 34>
| 35>                          ****END OF INPUT****

CARTESIAN COORDINATES (ANGSTROEM)
---------------------------------
  C     -1.955700    2.515080    1.698463
  H     -2.923830    2.883163    2.049269
  H     -1.154850    3.171830    2.050990
  H     -1.790380    1.506115    2.087896
  C     -1.948230    2.482156    0.253672
  N     -1.937550    2.462523   -0.913150
  C      5.300864   -2.920090    1.401103
  H      5.986071   -2.139770    1.737487
  H      5.636642   -3.888750    1.778233
  H      4.307359   -2.697240    1.799307
  C      5.234791   -2.933140   -0.043290
  N      5.170868   -2.941760   -1.207750
  C      1.502241    0.651296    1.710523
  H      1.309219    1.637164    2.143202
  H      2.493408    0.297996    2.009069
  H      0.746597   -0.059850    2.055508
  C      1.447974    0.738517    0.269805
  N      1.405612    0.808047   -0.894380

 Total Charge           Charge          ....    0
 Multiplicity           Mult            ....    1
 Number of Electrons    NEL             ....   66
 Basis Dimension        Dim             ....  333

ORBITAL ENERGIES
----------------

  NO   OCC          E(Eh)            E(eV)
   0   2.0000     -15.573800      -423.7846
   1   2.0000     -15.572876      -423.7595
   2   2.0000     -15.571506      -423.7222
   3   2.0000     -11.293838      -307.3210
   4   2.0000     -11.290555      -307.2316
   5   2.0000     -11.289000      -307.1893
   6   2.0000     -11.279710      -306.9365
   7   2.0000     -11.276715      -306.8550
   8   2.0000     -11.276266      -306.8428
   9   2.0000      -1.214754       -33.0551
  10   2.0000      -1.212785       -33.0016
  11   2.0000      -1.211171       -32.9576
  12   2.0000      -1.051116       -28.6023
  13   2.0000      -1.047084       -28.4926
  14   2.0000      -1.047030       -28.4911
  15   2.0000      -0.705136       -19.1877
  16   2.0000      -0.704127       -19.1603
  17   2.0000      -0.702006       -19.1026
  18   2.0000      -0.645724       -17.5710
  19   2.0000      -0.641513       -17.4565
  20   2.0000      -0.636645       -17.3240
  21   2.0000      -0.635642       -17.2967
  22   2.0000      -0.634090       -17.2545
  23   2.0000      -0.632571       -17.2131
  24   2.0000      -0.555496       -15.1158
  25   2.0000      -0.553627       -15.0650
  26   2.0000      -0.551053       -14.9949
  27   2.0000      -0.462740       -12.5918
  28   2.0000      -0.458177       -12.4676
  29   2.0000      -0.457743       -12.4558
  30   2.0000      -0.456975       -12.4349
  31   2.0000      -0.454048       -12.3553
  32   2.0000      -0.447437       -12.1754
  33   0.0000       0.084692         2.3046
  34   0.0000       0.108559         2.9540
  35   0.0000       0.140859         3.8330
  36   0.0000       0.148601         4.0436
  37   0.0000       0.155213         4.2236

MULLIKEN ATOMIC CHARGES
-----------------------
   0 C :   -0.290143
   1 H :    0.182100
   2 H :    0.167796
   3 H :    0.163081
   4 C :   -0.151315
   5 N :   -0.071663
   6 C :   -0.285178
   7 H :    0.172526
   8 H :    0.175608
   9 H :    0.162349
  10 C :   -0.143733
  11 N :   -0.081632
  12 C :   -0.290171
  13 H :    0.165635
  14 H :    0.172010
  15 H :    0.170237
  16 C :   -0.150985
  17 N :   -0.066522
Sum of atomic charges:    0.0000000

LOEWDIN ATOMIC CHARGES
----------------------
   0 C :   -0.288735
   1 H :    0.153433
   2 H :    0.149817
   3 H :    0.148194
   4 C :   -0.224795
   5 N :    0.062015
   6 C :   -0.285920
   7 H :    0.150883
   8 H :    0.151744
   9 H :    0.149237
  10 C :   -0.220208
  11 N :    0.054267
  12 C :   -0.289760
  13 H :    0.148670
  14 H :    0.150505
  15 H :    0.150368
  16 C :   -0.227019
  17 N :    0.067305

  Mayer bond orders larger than 0.100000
B(  0-C ,  1-H ) :   0.9118 B(  0-C ,  2-H ) :   0.9227 B(  0-C ,  3-H ) :   0.9204
B(  0-C ,  4-C ) :   0.8965 B(  4-C ,  5-N ) :   2.8257 B(  6-C ,  7-H ) :   0.9181
B(  6-C ,  8-H ) :   0.9158 B(  6-C ,  9-H ) :   0.9199 B(  6-C , 10-C ) :   0.9017
B( 10-C , 11-N ) :   2.8298 B( 12-C , 13-H ) :   0.9203 B( 12-C , 14-H ) :   0.9155
B( 12-C , 15-H ) :   0.9236 B( 12-C , 16-C ) :   0.8927 B( 16-C , 17-N ) :   2.8178

MP2 TOTAL ENERGY:     -397.445260921 Eh
FINAL SINGLE POINT ENERGY      -397.445260921221

DIPOLE MOMENT
-------------
                                X             Y             Z
Electronic contribution:     -0.23577       0.09290      -9.60341
Nuclear contribution   :      0.35167      -0.13748      13.90946
                        -----------------------------------------
Total Dipole Moment    :      0.11590      -0.04459       4.30605
                        -----------------------------------------
Magnitude (a.u.)       :      4.30784
Magnitude (Debye)      :     10.94966

Rotational constants in cm-1:     0.096067     0.009917     0.009146
Rotational constants in MHz :  2880.018584   297.302408   274.178112

                             ****ORCA TERMINATED NORMALLY****
TOTAL RUN TIME: 0 days 0 hours 2 minutes 46 seconds 225 msec
