                         Program Version 4.2.0 -  RELEASE  -
|  1> # 12meoh.boyd.etal.mol6,9,11
|  2> ! MP2 def2-TZVP EnGrad TightSCF
|  3>
|  4> %pal
|  5>     nprocs 6
|  6> end
|  7>
|  8> %maxcore 8000
|  9>
| 10> %scf
| 11>     ConvForced true
| 12> end
| 13>
| 14> *xyz 0 1
| 15> O   2.622209273  -1.703002590  -1.445859723
| 16> H   1.828551432  -1.986513781  -0.909754968
| 17> C   2.781117675  -2.615822239  -2.525472890
| 18> H   3.691063626  -2.339003544  -3.065143454
| 19> H   1.934727323  -2.559520367  -3.223226661
| 20> H   2.879948338  -3.653846211  -2.177750170
| 21> O   1.390610024   3.194080770  -1.536658882
| 22> H   2.162932299   2.881562730  -0.993525056
| 23> C   1.202977189   4.580367182  -1.302880219
| 24> H   0.374773115   4.915764831  -1.934164643
| 25> H   2.098649340   5.157710875  -1.570472348
| 26> H   0.950320401   4.800436015  -0.254328827
| 27> O   3.252955559   0.588596242   1.858934315
| 28> H   3.621209177  -0.251605199   1.476063364
| 29> C   4.040824528   0.944288422   2.989639460
| 30> H   3.670521436   1.902573549   3.363847391
| 31> H   5.103749934   1.055868619   2.734277559
| 32> H   3.948540682   0.200279590   3.792908518
| 33> *
| 34>
| 35>                          ****END OF INPUT****

CARTESIAN COORDINATES (ANGSTROEM)
---------------------------------
  O      2.622209   -1.703003   -1.445860
  H      1.828551   -1.986514   -0.909755
  C      2.781118   -2.615822   -2.525473
  H      3.691064   -2.339004   -3.065143
  H      1.934727   -2.559520   -3.223227
  H      2.879948   -3.653846   -2.177750
  O      1.390610    3.194081   -1.536659
  H      2.162932    2.881563   -0.993525
  C      1.202977    4.580367   -1.302880
  H      0.374773    4.915765   -1.934165
  H      2.098649    5.157711   -1.570472
  H      0.950320    4.800436   -0.254329
  O      3.252956    0.588596    1.858934
  H      3.621209   -0.251605    1.476063
  C      4.040825    0.944288    2.989639
  H      3.670521    1.902574    3.363847
  H      5.103750    1.055869    2.734278
  H      3.948541    0.200280    3.792909

 Total Charge           Charge          ....    0
 Multiplicity           Mult            ....    1
 Number of Electrons    NEL             ....   54
 Basis Dimension        Dim             ....  258

ORBITAL ENERGIES
----------------

  NO   OCC          E(Eh)            E(eV)
   0   2.0000     -20.558335      -559.4207
   1   2.0000     -20.555020      -559.3305
   2   2.0000     -20.543472      -559.0163
   3   2.0000     -11.271361      -306.7093
   4   2.0000     -11.270707      -306.6915
   5   2.0000     -11.261043      -306.4286
   6   2.0000      -1.346241       -36.6331
   7   2.0000      -1.344384       -36.5825
   8   2.0000      -1.334472       -36.3128
   9   2.0000      -0.919231       -25.0135
  10   2.0000      -0.918429       -24.9917
  11   2.0000      -0.908331       -24.7170
  12   2.0000      -0.681047       -18.5322
  13   2.0000      -0.679719       -18.4961
  14   2.0000      -0.669967       -18.2307
  15   2.0000      -0.616835       -16.7849
  16   2.0000      -0.615761       -16.7557
  17   2.0000      -0.605477       -16.4759
  18   2.0000      -0.591684       -16.1005
  19   2.0000      -0.588970       -16.0267
  20   2.0000      -0.580105       -15.7855
  21   2.0000      -0.500059       -13.6073
  22   2.0000      -0.498677       -13.5697
  23   2.0000      -0.487322       -13.2607
  24   2.0000      -0.449086       -12.2203
  25   2.0000      -0.447395       -12.1742
  26   2.0000      -0.435879       -11.8609
  27   0.0000       0.121889         3.3168
  28   0.0000       0.144509         3.9323
  29   0.0000       0.155578         4.2335
  30   0.0000       0.168649         4.5892
  31   0.0000       0.187109         5.0915

MULLIKEN ATOMIC CHARGES
-----------------------
   0 O :   -0.500207
   1 H :    0.325836
   2 C :   -0.173087
   3 H :    0.128992
   4 H :    0.113975
   5 H :    0.107743
   6 O :   -0.499319
   7 H :    0.330575
   8 C :   -0.169733
   9 H :    0.124408
  10 H :    0.104929
  11 H :    0.107047
  12 O :   -0.501784
  13 H :    0.328973
  14 C :   -0.174838
  15 H :    0.126779
  16 H :    0.110775
  17 H :    0.108936
Sum of atomic charges:   -0.0000000

LOEWDIN ATOMIC CHARGES
----------------------
   0 O :   -0.112401
   1 H :    0.194131
   2 C :   -0.381467
   3 H :    0.110255
   4 H :    0.097100
   5 H :    0.094781
   6 O :   -0.105024
   7 H :    0.194355
   8 C :   -0.387757
   9 H :    0.108632
  10 H :    0.093769
  11 H :    0.094645
  12 O :   -0.110312
  13 H :    0.192324
  14 C :   -0.382938
  15 H :    0.109164
  16 H :    0.095507
  17 H :    0.095236

  Mayer bond orders larger than 0.100000
B(  0-O ,  1-H ) :   0.8379 B(  0-O ,  2-C ) :   0.9228 B(  2-C ,  3-H ) :   0.9380
B(  2-C ,  4-H ) :   0.9385 B(  2-C ,  5-H ) :   0.9384 B(  6-O ,  7-H ) :   0.8349
B(  6-O ,  8-C ) :   0.9357 B(  8-C ,  9-H ) :   0.9382 B(  8-C , 10-H ) :   0.9403
B(  8-C , 11-H ) :   0.9373 B( 12-O , 13-H ) :   0.8345 B( 12-O , 14-C ) :   0.9286
B( 14-C , 15-H ) :   0.9381 B( 14-C , 16-H ) :   0.9388 B( 14-C , 17-H ) :   0.9385

MP2 TOTAL ENERGY:     -346.522725635 Eh
FINAL SINGLE POINT ENERGY      -346.522725634716

DIPOLE MOMENT
-------------
                                X             Y             Z
Electronic contribution:     -1.02220      -0.92319      -0.49891
Nuclear contribution   :      1.55234       0.30851       1.01821
                        -----------------------------------------
Total Dipole Moment    :      0.53014      -0.61468       0.51930
                        -----------------------------------------
Magnitude (a.u.)       :      0.96362
Magnitude (Debye)      :      2.44932

Rotational constants in cm-1:     0.037263     0.025609     0.015407
Rotational constants in MHz :  1117.131221   767.752390   461.895714

                             ****ORCA TERMINATED NORMALLY****
TOTAL RUN TIME: 0 days 0 hours 0 minutes 52 seconds 86 msec
