                         Program Version 4.2.0 -  RELEASE  -
|  1> # 12h2o.su.etal.mol1,5,6,8,9,11
|  2> ! MP2 def2-TZVP EnGrad TightSCF
|  3>
|  4> %pal
|  5>     nprocs 6
|  6> end
|  7>
|  8> %maxcore 8000
|  9>
| 10> %scf
| 11>     ConvForced true
| 12> end
| 13>
| 14> *xyz 0 1
| 15> O  -1.794470000  -0.923410000   2.768350000
| 16> H  -2.338250000  -1.359750000   3.430940000
| 17> H  -0.879480000  -1.303000000   2.865760000
| 18> O   0.885520000  -1.737840000   0.052730000
| 19> H   1.284090000  -0.839590000   0.017130000
| 20> H   1.032320000  -2.090180000  -0.841890000
| 21> O   1.737840000   0.885520000  -0.052730000
| 22> H   2.090180000   1.032320000   0.841890000
| 23> H   0.839590000   1.284090000  -0.017130000
| 24> O   1.752130000   0.741530000  -2.896280000
| 25> H   2.036450000   0.920500000  -1.984040000
| 26> H   0.921210000   1.242140000  -2.984230000
| 27> O   0.741530000  -1.752130000   2.896280000
| 28> H   0.920500000  -2.036450000   1.984040000
| 29> H   1.242140000  -0.921210000   2.984230000
| 30> O  -0.741530000   1.752130000   2.896280000
| 31> H  -0.920500000   2.036450000   1.984040000
| 32> H  -1.242140000   0.921210000   2.984230000
| 33> *
| 34>
| 35>                          ****END OF INPUT****

CARTESIAN COORDINATES (ANGSTROEM)
---------------------------------
  O     -1.794470   -0.923410    2.768350
  H     -2.338250   -1.359750    3.430940
  H     -0.879480   -1.303000    2.865760
  O      0.885520   -1.737840    0.052730
  H      1.284090   -0.839590    0.017130
  H      1.032320   -2.090180   -0.841890
  O      1.737840    0.885520   -0.052730
  H      2.090180    1.032320    0.841890
  H      0.839590    1.284090   -0.017130
  O      1.752130    0.741530   -2.896280
  H      2.036450    0.920500   -1.984040
  H      0.921210    1.242140   -2.984230
  O      0.741530   -1.752130    2.896280
  H      0.920500   -2.036450    1.984040
  H      1.242140   -0.921210    2.984230
  O     -0.741530    1.752130    2.896280
  H     -0.920500    2.036450    1.984040
  H     -1.242140    0.921210    2.984230

 Total Charge           Charge          ....    0
 Multiplicity           Mult            ....    1
 Number of Electrons    NEL             ....   60
 Basis Dimension        Dim             ....  258

ORBITAL ENERGIES
----------------

  NO   OCC          E(Eh)            E(eV)
   0   2.0000     -20.634582      -561.4955
   1   2.0000     -20.576330      -559.9104
   2   2.0000     -20.565398      -559.6129
   3   2.0000     -20.556159      -559.3615
   4   2.0000     -20.548362      -559.1493
   5   2.0000     -20.540862      -558.9453
   6   2.0000      -1.417469       -38.5713
   7   2.0000      -1.367270       -37.2053
   8   2.0000      -1.346887       -36.6507
   9   2.0000      -1.338012       -36.4092
  10   2.0000      -1.333567       -36.2882
  11   2.0000      -1.320612       -35.9357
  12   2.0000      -0.775780       -21.1101
  13   2.0000      -0.730569       -19.8798
  14   2.0000      -0.720831       -19.6148
  15   2.0000      -0.710460       -19.3326
  16   2.0000      -0.709675       -19.3112
  17   2.0000      -0.695552       -18.9269
  18   2.0000      -0.654033       -17.7971
  19   2.0000      -0.620089       -16.8735
  20   2.0000      -0.599807       -16.3216
  21   2.0000      -0.580928       -15.8079
  22   2.0000      -0.571809       -15.5597
  23   2.0000      -0.560429       -15.2500
  24   2.0000      -0.553407       -15.0590
  25   2.0000      -0.516866       -14.0647
  26   2.0000      -0.510459       -13.8903
  27   2.0000      -0.502101       -13.6629
  28   2.0000      -0.497077       -13.5262
  29   2.0000      -0.489044       -13.3076
  30   0.0000       0.070130         1.9083
  31   0.0000       0.123316         3.3556
  32   0.0000       0.138552         3.7702
  33   0.0000       0.151323         4.1177
  34   0.0000       0.167617         4.5611

MULLIKEN ATOMIC CHARGES
-----------------------
   0 O :   -0.741327
   1 H :    0.338271
   2 H :    0.385043
   3 O :   -0.727529
   4 H :    0.352241
   5 H :    0.354353
   6 O :   -0.705960
   7 H :    0.372367
   8 H :    0.361447
   9 O :   -0.688707
  10 H :    0.367115
  11 H :    0.324834
  12 O :   -0.696403
  13 H :    0.392783
  14 H :    0.337639
  15 O :   -0.709115
  16 H :    0.313995
  17 H :    0.368952
Sum of atomic charges:   -0.0000000

LOEWDIN ATOMIC CHARGES
----------------------
   0 O :   -0.340265
   1 H :    0.154469
   2 H :    0.146221
   3 O :   -0.338416
   4 H :    0.141272
   5 H :    0.170962
   6 O :   -0.273213
   7 H :    0.177635
   8 H :    0.180609
   9 O :   -0.334405
  10 H :    0.150148
  11 H :    0.160853
  12 O :   -0.274582
  13 H :    0.161528
  14 H :    0.164254
  15 O :   -0.348383
  16 H :    0.151078
  17 H :    0.150235

  Mayer bond orders larger than 0.100000
B(  0-O ,  1-H ) :   0.8499 B(  0-O ,  2-H ) :   0.7557 B(  3-O ,  4-H ) :   0.7940
B(  3-O ,  5-H ) :   0.8400 B(  6-O ,  7-H ) :   0.8249 B(  6-O ,  8-H ) :   0.8245
B(  9-O , 10-H ) :   0.8272 B(  9-O , 11-H ) :   0.8597 B( 12-O , 13-H ) :   0.7917
B( 12-O , 14-H ) :   0.8462 B( 15-O , 16-H ) :   0.8650 B( 15-O , 17-H ) :   0.7933

MP2 TOTAL ENERGY:     -457.922076057 Eh
FINAL SINGLE POINT ENERGY      -457.922076056758

DIPOLE MOMENT
-------------
                                X             Y             Z
Electronic contribution:      0.32347      -0.26879      -0.05062
Nuclear contribution   :     -0.14644       0.79485      -0.05351
                        -----------------------------------------
Total Dipole Moment    :      0.17703       0.52606      -0.10413
                        -----------------------------------------
Magnitude (a.u.)       :      0.56473
Magnitude (Debye)      :      1.43542

Rotational constants in cm-1:     0.065481     0.024734     0.020770
Rotational constants in MHz :  1963.075690   741.519901   622.683889

                             ****ORCA TERMINATED NORMALLY****
TOTAL RUN TIME: 0 days 0 hours 1 minutes 2 seconds 370 msec
