                         Program Version 4.2.0 -  RELEASE  -
|  1> # 12h2o.su.etal.mol1,2,3,4,5,9,10
|  2> ! MP2 def2-TZVP EnGrad TightSCF
|  3>
|  4> %pal
|  5>     nprocs 6
|  6> end
|  7>
|  8> %maxcore 8000
|  9>
| 10> %scf
| 11>     ConvForced true
| 12> end
| 13>
| 14> *xyz 0 1
| 15> O  -1.794470000  -0.923410000   2.768350000
| 16> H  -2.338250000  -1.359750000   3.430940000
| 17> H  -0.879480000  -1.303000000   2.865760000
| 18> O   0.923410000  -1.794470000  -2.768350000
| 19> H   1.359750000  -2.338250000  -3.430940000
| 20> H   1.303000000  -0.879480000  -2.865760000
| 21> O  -1.752130000  -0.741530000  -2.896280000
| 22> H  -2.036450000  -0.920500000  -1.984040000
| 23> H  -0.921210000  -1.242140000  -2.984230000
| 24> O  -0.885520000   1.737840000   0.052730000
| 25> H  -1.032320000   2.090180000  -0.841890000
| 26> H  -1.284090000   0.839590000   0.017130000
| 27> O   0.885520000  -1.737840000   0.052730000
| 28> H   1.284090000  -0.839590000   0.017130000
| 29> H   1.032320000  -2.090180000  -0.841890000
| 30> O   0.741530000  -1.752130000   2.896280000
| 31> H   0.920500000  -2.036450000   1.984040000
| 32> H   1.242140000  -0.921210000   2.984230000
| 33> O  -0.923410000   1.794470000  -2.768350000
| 34> H  -1.359750000   2.338250000  -3.430940000
| 35> H  -1.303000000   0.879480000  -2.865760000
| 36> *
| 37>
| 38>                          ****END OF INPUT****

CARTESIAN COORDINATES (ANGSTROEM)
---------------------------------
  O     -1.794470   -0.923410    2.768350
  H     -2.338250   -1.359750    3.430940
  H     -0.879480   -1.303000    2.865760
  O      0.923410   -1.794470   -2.768350
  H      1.359750   -2.338250   -3.430940
  H      1.303000   -0.879480   -2.865760
  O     -1.752130   -0.741530   -2.896280
  H     -2.036450   -0.920500   -1.984040
  H     -0.921210   -1.242140   -2.984230
  O     -0.885520    1.737840    0.052730
  H     -1.032320    2.090180   -0.841890
  H     -1.284090    0.839590    0.017130
  O      0.885520   -1.737840    0.052730
  H      1.284090   -0.839590    0.017130
  H      1.032320   -2.090180   -0.841890
  O      0.741530   -1.752130    2.896280
  H      0.920500   -2.036450    1.984040
  H      1.242140   -0.921210    2.984230
  O     -0.923410    1.794470   -2.768350
  H     -1.359750    2.338250   -3.430940
  H     -1.303000    0.879480   -2.865760

 Total Charge           Charge          ....    0
 Multiplicity           Mult            ....    1
 Number of Electrons    NEL             ....   70
 Basis Dimension        Dim             ....  301

ORBITAL ENERGIES
----------------

  NO   OCC          E(Eh)            E(eV)
   0   2.0000     -20.635709      -561.5262
   1   2.0000     -20.587127      -560.2042
   2   2.0000     -20.576487      -559.9147
   3   2.0000     -20.560277      -559.4736
   4   2.0000     -20.546887      -559.1092
   5   2.0000     -20.518531      -558.3376
   6   2.0000     -20.500691      -557.8522
   7   2.0000      -1.416157       -38.5356
   8   2.0000      -1.376201       -37.4483
   9   2.0000      -1.359804       -37.0022
  10   2.0000      -1.346414       -36.6378
  11   2.0000      -1.331234       -36.2247
  12   2.0000      -1.296976       -35.2925
  13   2.0000      -1.282694       -34.9039
  14   2.0000      -0.781687       -21.2708
  15   2.0000      -0.738407       -20.0931
  16   2.0000      -0.730243       -19.8709
  17   2.0000      -0.715421       -19.4676
  18   2.0000      -0.707534       -19.2530
  19   2.0000      -0.671070       -18.2608
  20   2.0000      -0.666012       -18.1231
  21   2.0000      -0.656383       -17.8611
  22   2.0000      -0.623027       -16.9534
  23   2.0000      -0.607819       -16.5396
  24   2.0000      -0.586895       -15.9702
  25   2.0000      -0.574478       -15.6324
  26   2.0000      -0.563896       -15.3444
  27   2.0000      -0.542954       -14.7745
  28   2.0000      -0.532248       -14.4832
  29   2.0000      -0.523145       -14.2355
  30   2.0000      -0.521218       -14.1831
  31   2.0000      -0.492698       -13.4070
  32   2.0000      -0.488514       -13.2931
  33   2.0000      -0.464123       -12.6294
  34   2.0000      -0.451125       -12.2757
  35   0.0000       0.076319         2.0768
  36   0.0000       0.123591         3.3631
  37   0.0000       0.138474         3.7681
  38   0.0000       0.151903         4.1335
  39   0.0000       0.167825         4.5668

MULLIKEN ATOMIC CHARGES
-----------------------
   0 O :   -0.731603
   1 H :    0.317910
   2 H :    0.368837
   3 O :   -0.724230
   4 H :    0.371683
   5 H :    0.379306
   6 O :   -0.698448
   7 H :    0.360775
   8 H :    0.375062
   9 O :   -0.701088
  10 H :    0.363755
  11 H :    0.322259
  12 O :   -0.713817
  13 H :    0.341639
  14 H :    0.372832
  15 O :   -0.694834
  16 H :    0.383899
  17 H :    0.345323
  18 O :   -0.742515
  19 H :    0.337842
  20 H :    0.365413
Sum of atomic charges:   -0.0000000

LOEWDIN ATOMIC CHARGES
----------------------
   0 O :   -0.372963
   1 H :    0.145518
   2 H :    0.142765
   3 O :   -0.287736
   4 H :    0.171716
   5 H :    0.195445
   6 O :   -0.277579
   7 H :    0.172848
   8 H :    0.153100
   9 O :   -0.348777
  10 H :    0.147146
  11 H :    0.159547
  12 O :   -0.323531
  13 H :    0.170900
  14 H :    0.151874
  15 O :   -0.278510
  16 H :    0.157995
  17 H :    0.169942
  18 O :   -0.344826
  19 H :    0.153799
  20 H :    0.141329

  Mayer bond orders larger than 0.100000
B(  0-O ,  1-H ) :   0.8639 B(  0-O ,  2-H ) :   0.7796 B(  3-O ,  4-H ) :   0.8277
B(  3-O ,  5-H ) :   0.8133 B(  6-O ,  7-H ) :   0.8341 B(  6-O ,  8-H ) :   0.8050
B(  9-O , 10-H ) :   0.8156 B(  9-O , 11-H ) :   0.8535 B( 12-O , 13-H ) :   0.8387
B( 12-O , 14-H ) :   0.8129 B( 15-O , 16-H ) :   0.8017 B( 15-O , 17-H ) :   0.8448
B( 18-O , 19-H ) :   0.8499 B( 18-O , 20-H ) :   0.7618

MP2 TOTAL ENERGY:     -534.241593469 Eh
FINAL SINGLE POINT ENERGY      -534.241593468988

DIPOLE MOMENT
-------------
                                X             Y             Z
Electronic contribution:      0.17796      -0.34653      -0.20619
Nuclear contribution   :      1.32960      -0.78984      -2.18115
                        -----------------------------------------
Total Dipole Moment    :      1.50757      -1.13636      -2.38734
                        -----------------------------------------
Magnitude (a.u.)       :      3.04360
Magnitude (Debye)      :      7.73621

Rotational constants in cm-1:     0.041429     0.020199     0.016016
Rotational constants in MHz :  1242.003693   605.550255   480.134812

                             ****ORCA TERMINATED NORMALLY****
TOTAL RUN TIME: 0 days 0 hours 1 minutes 47 seconds 436 msec
