                         Program Version 4.2.0 -  RELEASE  -
|  1> # 12meoh.boyd.etal.mol3,4,9
|  2> ! MP2 def2-TZVP EnGrad TightSCF
|  3>
|  4> %pal
|  5>     nprocs 6
|  6> end
|  7>
|  8> %maxcore 8000
|  9>
| 10> %scf
| 11>     ConvForced true
| 12> end
| 13>
| 14> *xyz 0 1
| 15> O  -3.821405976  -2.118091637   0.596795346
| 16> H  -4.342989117  -1.344303030   0.251966383
| 17> C  -3.443883586  -1.809641231   1.934889393
| 18> H  -2.831494349  -2.637429600   2.305201764
| 19> H  -4.325601146  -1.719364371   2.585074667
| 20> H  -2.858527126  -0.882644791   1.996110694
| 21> O  -1.358578914   1.232360421   1.189721000
| 22> H  -1.058250183   1.216459361   0.238591307
| 23> C  -0.389763452   1.957872567   1.943072362
| 24> H  -0.747220771   2.012806578   2.975200343
| 25> H  -0.260410585   2.982763209   1.565366540
| 26> H   0.585220638   1.453754179   1.934070793
| 27> O   1.390610024   3.194080770  -1.536658882
| 28> H   2.162932299   2.881562730  -0.993525056
| 29> C   1.202977189   4.580367182  -1.302880219
| 30> H   0.374773115   4.915764831  -1.934164643
| 31> H   2.098649340   5.157710875  -1.570472348
| 32> H   0.950320401   4.800436015  -0.254328827
| 33> *
| 34>
| 35>                          ****END OF INPUT****

CARTESIAN COORDINATES (ANGSTROEM)
---------------------------------
  O     -3.821406   -2.118092    0.596795
  H     -4.342989   -1.344303    0.251966
  C     -3.443884   -1.809641    1.934889
  H     -2.831494   -2.637430    2.305202
  H     -4.325601   -1.719364    2.585075
  H     -2.858527   -0.882645    1.996111
  O     -1.358579    1.232360    1.189721
  H     -1.058250    1.216459    0.238591
  C     -0.389763    1.957873    1.943072
  H     -0.747221    2.012807    2.975200
  H     -0.260411    2.982763    1.565367
  H      0.585221    1.453754    1.934071
  O      1.390610    3.194081   -1.536659
  H      2.162932    2.881563   -0.993525
  C      1.202977    4.580367   -1.302880
  H      0.374773    4.915765   -1.934165
  H      2.098649    5.157711   -1.570472
  H      0.950320    4.800436   -0.254329

 Total Charge           Charge          ....    0
 Multiplicity           Mult            ....    1
 Number of Electrons    NEL             ....   54
 Basis Dimension        Dim             ....  258

ORBITAL ENERGIES
----------------

  NO   OCC          E(Eh)            E(eV)
   0   2.0000     -20.569179      -559.7158
   1   2.0000     -20.559268      -559.4461
   2   2.0000     -20.543857      -559.0268
   3   2.0000     -11.280528      -306.9588
   4   2.0000     -11.274660      -306.7991
   5   2.0000     -11.253846      -306.2327
   6   2.0000      -1.359453       -36.9926
   7   2.0000      -1.346984       -36.6533
   8   2.0000      -1.332678       -36.2640
   9   2.0000      -0.928991       -25.2791
  10   2.0000      -0.921967       -25.0880
  11   2.0000      -0.902939       -24.5702
  12   2.0000      -0.693447       -18.8697
  13   2.0000      -0.682692       -18.5770
  14   2.0000      -0.666262       -18.1299
  15   2.0000      -0.627542       -17.0763
  16   2.0000      -0.618836       -16.8394
  17   2.0000      -0.602761       -16.4020
  18   2.0000      -0.602543       -16.3960
  19   2.0000      -0.591003       -16.0820
  20   2.0000      -0.575561       -15.6618
  21   2.0000      -0.509426       -13.8622
  22   2.0000      -0.503782       -13.7086
  23   2.0000      -0.485007       -13.1977
  24   2.0000      -0.459322       -12.4988
  25   2.0000      -0.451682       -12.2909
  26   2.0000      -0.433647       -11.8001
  27   0.0000       0.110393         3.0039
  28   0.0000       0.142827         3.8865
  29   0.0000       0.161606         4.3975
  30   0.0000       0.166669         4.5353
  31   0.0000       0.176017         4.7897

MULLIKEN ATOMIC CHARGES
-----------------------
   0 O :   -0.503778
   1 H :    0.320336
   2 C :   -0.186473
   3 H :    0.119651
   4 H :    0.102066
   5 H :    0.138442
   6 O :   -0.501798
   7 H :    0.332056
   8 C :   -0.167068
   9 H :    0.129985
  10 H :    0.106093
  11 H :    0.106451
  12 O :   -0.501958
  13 H :    0.324830
  14 C :   -0.173849
  15 H :    0.133100
  16 H :    0.117238
  17 H :    0.104676
Sum of atomic charges:    0.0000000

LOEWDIN ATOMIC CHARGES
----------------------
   0 O :   -0.113379
   1 H :    0.190057
   2 C :   -0.385587
   3 H :    0.107375
   4 H :    0.092547
   5 H :    0.100099
   6 O :   -0.109277
   7 H :    0.196275
   8 C :   -0.380994
   9 H :    0.109619
  10 H :    0.095655
  11 H :    0.094867
  12 O :   -0.106076
  13 H :    0.191472
  14 C :   -0.385113
  15 H :    0.111915
  16 H :    0.097520
  17 H :    0.093025

  Mayer bond orders larger than 0.100000
B(  0-O ,  1-H ) :   0.8437 B(  0-O ,  2-C ) :   0.9173 B(  2-C ,  3-H ) :   0.9381
B(  2-C ,  4-H ) :   0.9405 B(  2-C ,  5-H ) :   0.9308 B(  6-O ,  7-H ) :   0.8329
B(  6-O ,  8-C ) :   0.9219 B(  8-C ,  9-H ) :   0.9388 B(  8-C , 10-H ) :   0.9356
B(  8-C , 11-H ) :   0.9401 B( 12-O , 13-H ) :   0.8394 B( 12-O , 14-C ) :   0.9197
B( 14-C , 15-H ) :   0.9376 B( 14-C , 16-H ) :   0.9416 B( 14-C , 17-H ) :   0.9351

MP2 TOTAL ENERGY:     -346.524557658 Eh
FINAL SINGLE POINT ENERGY      -346.524557658079

DIPOLE MOMENT
-------------
                                X             Y             Z
Electronic contribution:     -1.48411      -3.08309      -2.93837
Nuclear contribution   :      2.38395       4.45407       3.35513
                        -----------------------------------------
Total Dipole Moment    :      0.89984       1.37098       0.41676
                        -----------------------------------------
Magnitude (a.u.)       :      1.69204
Magnitude (Debye)      :      4.30082

Rotational constants in cm-1:     0.143192     0.015554     0.014435
Rotational constants in MHz :  4292.788335   466.294862   432.747215

                             ****ORCA TERMINATED NORMALLY****
TOTAL RUN TIME: 0 days 0 hours 1 minutes 6 seconds 439 msec
