                         Program Version 4.2.0 -  RELEASE  -
|  1> ! MP2 def2-TZVP EnGrad TightSCF FrozenCore
|  2>
|  3> %pal
|  4>     nprocs 12
|  5> end
|  6>
|  7> %maxcore 8000
|  8>
|  9> %scf
| 10>     ConvForced true
| 11> end
| 12>
| 13> *xyz 0 1
| 14> C     3.962962    -1.605241     0.140160
| 15> H     3.107551    -1.967542    -0.437586
| 16> H     3.860794    -1.955380     1.170151
| 17> H     4.891466    -1.985991    -0.292689
| 18> C     3.960519    -0.145392     0.116193
| 19> N     3.947198     1.016911     0.094823
| 20> C    -5.001523     1.227177     0.124510
| 21> H    -5.482437     1.541333     1.054348
| 22> H    -5.606880     1.564389    -0.720721
| 23> H    -4.006510     1.677004     0.060694
| 24> C    -4.868992    -0.227363     0.096415
| 25> N    -4.753112    -1.382924     0.073114
| 26> C     1.074222     1.645779     1.885414
| 27> H     0.169292     1.969217     1.362412
| 28> H     1.959323     2.064672     1.396350
| 29> H     1.037131     1.992975     2.921276
| 30> C     1.153856     0.188162     1.849923
| 31> N     1.223409    -0.971611     1.819985
| 32> C     1.213773     1.777755    -1.841240
| 33> H     1.202754     2.181863    -2.856866
| 34> H     2.088630     2.162303    -1.308248
| 35> H     0.297534     2.078300    -1.323673
| 36> C     1.281257     0.319761    -1.884903
| 37> N     1.332369    -0.840855    -1.918398
| 38> C    -1.365483    -1.864848    -0.280701
| 39> H    -1.077810    -2.133572    -1.300156
| 40> H    -2.319163    -2.333701    -0.023252
| 41> H    -0.576938    -2.192818     0.402785
| 42> C    -1.500418    -0.415377    -0.183571
| 43> N    -1.607833     0.740546    -0.103526
| 44> *
| 45>
| 46>                          ****END OF INPUT****

CARTESIAN COORDINATES (ANGSTROEM)
---------------------------------
  C      3.962962   -1.605241    0.140160
  H      3.107551   -1.967542   -0.437586
  H      3.860794   -1.955380    1.170151
  H      4.891466   -1.985991   -0.292689
  C      3.960519   -0.145392    0.116193
  N      3.947198    1.016911    0.094823
  C     -5.001523    1.227177    0.124510
  H     -5.482437    1.541333    1.054348
  H     -5.606880    1.564389   -0.720721
  H     -4.006510    1.677004    0.060694
  C     -4.868992   -0.227363    0.096415
  N     -4.753112   -1.382924    0.073114
  C      1.074222    1.645779    1.885414
  H      0.169292    1.969217    1.362412
  H      1.959323    2.064672    1.396350
  H      1.037131    1.992975    2.921276
  C      1.153856    0.188162    1.849923
  N      1.223409   -0.971611    1.819985
  C      1.213773    1.777755   -1.841240
  H      1.202754    2.181863   -2.856866
  H      2.088630    2.162303   -1.308248
  H      0.297534    2.078300   -1.323673
  C      1.281257    0.319761   -1.884903
  N      1.332369   -0.840855   -1.918398
  C     -1.365483   -1.864848   -0.280701
  H     -1.077810   -2.133572   -1.300156
  H     -2.319163   -2.333701   -0.023252
  H     -0.576938   -2.192818    0.402785
  C     -1.500418   -0.415377   -0.183571
  N     -1.607833    0.740546   -0.103526

 Total Charge           Charge          ....    0
 Multiplicity           Mult            ....    1
 Number of Electrons    NEL             ....  110
 Basis Dimension        Dim             ....  555

ORBITAL ENERGIES
----------------

  NO   OCC          E(Eh)            E(eV)
   0   2.0000     -15.568508      -423.6406
   1   2.0000     -15.567410      -423.6108
   2   2.0000     -15.567290      -423.6075
   3   2.0000     -15.566633      -423.5896
   4   2.0000     -15.565209      -423.5509
   5   2.0000     -11.284554      -307.0683
   6   2.0000     -11.282148      -307.0029
   7   2.0000     -11.280913      -306.9693
   8   2.0000     -11.280894      -306.9687
   9   2.0000     -11.279619      -306.9340
  10   2.0000     -11.275374      -306.8185
  11   2.0000     -11.270099      -306.6750
  12   2.0000     -11.270017      -306.6727
  13   2.0000     -11.264315      -306.5176
  14   2.0000     -11.253749      -306.2301
  15   2.0000      -1.220644       -33.2154
  16   2.0000      -1.217570       -33.1318
  17   2.0000      -1.215634       -33.0791
  18   2.0000      -1.214982       -33.0613
  19   2.0000      -1.212961       -33.0063
  20   2.0000      -1.032162       -28.0865
  21   2.0000      -1.031452       -28.0672
  22   2.0000      -1.027273       -27.9535
  23   2.0000      -1.023754       -27.8578
  24   2.0000      -1.017084       -27.6763
  25   2.0000      -0.691536       -18.8177
  26   2.0000      -0.690947       -18.8016
  27   2.0000      -0.686103       -18.6698
  28   2.0000      -0.683179       -18.5903
  29   2.0000      -0.676749       -18.4153
  30   2.0000      -0.630546       -17.1580
  31   2.0000      -0.629649       -17.1336
  32   2.0000      -0.623932       -16.9781
  33   2.0000      -0.621667       -16.9164
  34   2.0000      -0.620347       -16.8805
  35   2.0000      -0.613452       -16.6929
  36   2.0000      -0.611378       -16.6364
  37   2.0000      -0.606775       -16.5112
  38   2.0000      -0.603358       -16.4182
  39   2.0000      -0.600818       -16.3491
  40   2.0000      -0.561022       -15.2662
  41   2.0000      -0.556263       -15.1367
  42   2.0000      -0.554960       -15.1012
  43   2.0000      -0.554411       -15.0863
  44   2.0000      -0.552995       -15.0478
  45   2.0000      -0.468368       -12.7449
  46   2.0000      -0.462732       -12.5916
  47   2.0000      -0.460706       -12.5364
  48   2.0000      -0.460035       -12.5182
  49   2.0000      -0.459778       -12.5112
  50   2.0000      -0.457366       -12.4456
  51   2.0000      -0.455782       -12.4025
  52   2.0000      -0.453922       -12.3518
  53   2.0000      -0.452930       -12.3249
  54   2.0000      -0.450978       -12.2717
  55   0.0000       0.127128         3.4593
  56   0.0000       0.136411         3.7119
  57   0.0000       0.151301         4.1171
  58   0.0000       0.159001         4.3266
  59   0.0000       0.160579         4.3696

MULLIKEN ATOMIC CHARGES
-----------------------
   0 C :   -0.272354
   1 H :    0.199315
   2 H :    0.176140
   3 H :    0.167761
   4 C :   -0.094132
   5 N :   -0.176667
   6 C :   -0.289672
   7 H :    0.166524
   8 H :    0.166561
   9 H :    0.196045
  10 C :   -0.110596
  11 N :   -0.130041
  12 C :   -0.298893
  13 H :    0.186328
  14 H :    0.191628
  15 H :    0.173762
  16 C :   -0.090931
  17 N :   -0.162415
  18 C :   -0.299892
  19 H :    0.173758
  20 H :    0.193931
  21 H :    0.185062
  22 C :   -0.087912
  23 N :   -0.165094
  24 C :   -0.284813
  25 H :    0.175944
  26 H :    0.201243
  27 H :    0.192258
  28 C :   -0.025675
  29 N :   -0.257176
Sum of atomic charges:   -0.0000000

LOEWDIN ATOMIC CHARGES
----------------------
   0 C :   -0.282458
   1 H :    0.157218
   2 H :    0.153449
   3 H :    0.147551
   4 C :   -0.200007
   5 N :    0.019810
   6 C :   -0.282715
   7 H :    0.149354
   8 H :    0.149315
   9 H :    0.153184
  10 C :   -0.206874
  11 N :    0.036536
  12 C :   -0.284042
  13 H :    0.150831
  14 H :    0.152573
  15 H :    0.149702
  16 C :   -0.202450
  17 N :    0.037445
  18 C :   -0.283997
  19 H :    0.149755
  20 H :    0.152608
  21 H :    0.150896
  22 C :   -0.202098
  23 N :    0.036553
  24 C :   -0.279578
  25 H :    0.154266
  26 H :    0.153263
  27 H :    0.155546
  28 C :   -0.190545
  29 N :    0.004907

  Mayer bond orders larger than 0.100000
B(  0-C ,  1-H ) :   0.9040 B(  0-C ,  2-H ) :   0.9126 B(  0-C ,  3-H ) :   0.9100
B(  0-C ,  4-C ) :   0.9069 B(  4-C ,  5-N ) :   2.7397 B(  6-C ,  7-H ) :   0.9172
B(  6-C ,  8-H ) :   0.9173 B(  6-C ,  9-H ) :   0.9055 B(  6-C , 10-C ) :   0.9006
B( 10-C , 11-N ) :   2.7858 B( 12-C , 13-H ) :   0.9113 B( 12-C , 14-H ) :   0.9095
B( 12-C , 15-H ) :   0.9088 B( 12-C , 16-C ) :   0.8939 B( 16-C , 17-N ) :   2.7319
B( 18-C , 19-H ) :   0.9088 B( 18-C , 20-H ) :   0.9095 B( 18-C , 21-H ) :   0.9114
B( 18-C , 22-C ) :   0.8939 B( 22-C , 23-N ) :   2.7283 B( 24-C , 25-H ) :   0.9077
B( 24-C , 26-H ) :   0.8989 B( 24-C , 27-H ) :   0.9057 B( 24-C , 28-C ) :   0.9009
B( 28-C , 29-N ) :   2.6440

MP2 TOTAL ENERGY:     -662.458829402 Eh
FINAL SINGLE POINT ENERGY      -662.458829402387

DIPOLE MOMENT
-------------
                                X             Y             Z
Electronic contribution:      0.32504      -3.34754      -0.07651
Nuclear contribution   :     -0.45736       4.68461       0.10530
                        -----------------------------------------
Total Dipole Moment    :     -0.13232       1.33708       0.02879
                        -----------------------------------------
Magnitude (a.u.)       :      1.34392
Magnitude (Debye)      :      3.41596

Rotational constants in cm-1:     0.028342     0.007889     0.007879
Rotational constants in MHz :   849.658115   236.494320   236.191882

                             ****ORCA TERMINATED NORMALLY****
TOTAL RUN TIME: 0 days 0 hours 16 minutes 1 seconds 954 msec
