                         Program Version 4.2.0 -  RELEASE  -
|  1> # 12h2o.su.etal.mol0,1,5,6
|  2> ! MP2 def2-TZVP EnGrad TightSCF
|  3>
|  4> %pal
|  5>     nprocs 6
|  6> end
|  7>
|  8> %maxcore 8000
|  9>
| 10> %scf
| 11>     ConvForced true
| 12> end
| 13>
| 14> *xyz 0 1
| 15> O   1.794470000   0.923410000   2.768350000
| 16> H   2.338250000   1.359750000   3.430940000
| 17> H   0.879480000   1.303000000   2.865760000
| 18> O  -1.794470000  -0.923410000   2.768350000
| 19> H  -2.338250000  -1.359750000   3.430940000
| 20> H  -0.879480000  -1.303000000   2.865760000
| 21> O   0.885520000  -1.737840000   0.052730000
| 22> H   1.284090000  -0.839590000   0.017130000
| 23> H   1.032320000  -2.090180000  -0.841890000
| 24> O   1.737840000   0.885520000  -0.052730000
| 25> H   2.090180000   1.032320000   0.841890000
| 26> H   0.839590000   1.284090000  -0.017130000
| 27> *
| 28>
| 29>                          ****END OF INPUT****

CARTESIAN COORDINATES (ANGSTROEM)
---------------------------------
  O      1.794470    0.923410    2.768350
  H      2.338250    1.359750    3.430940
  H      0.879480    1.303000    2.865760
  O     -1.794470   -0.923410    2.768350
  H     -2.338250   -1.359750    3.430940
  H     -0.879480   -1.303000    2.865760
  O      0.885520   -1.737840    0.052730
  H      1.284090   -0.839590    0.017130
  H      1.032320   -2.090180   -0.841890
  O      1.737840    0.885520   -0.052730
  H      2.090180    1.032320    0.841890
  H      0.839590    1.284090   -0.017130

 Total Charge           Charge          ....    0
 Multiplicity           Mult            ....    1
 Number of Electrons    NEL             ....   40
 Basis Dimension        Dim             ....  172

ORBITAL ENERGIES
----------------

  NO   OCC          E(Eh)            E(eV)
   0   2.0000     -20.596822      -560.4680
   1   2.0000     -20.562780      -559.5417
   2   2.0000     -20.554775      -559.3239
   3   2.0000     -20.513301      -558.1953
   4   2.0000      -1.375172       -37.4203
   5   2.0000      -1.345981       -36.6260
   6   2.0000      -1.330136       -36.1948
   7   2.0000      -1.294208       -35.2172
   8   2.0000      -0.741545       -20.1785
   9   2.0000      -0.709861       -19.3163
  10   2.0000      -0.698145       -18.9975
  11   2.0000      -0.669220       -18.2104
  12   2.0000      -0.617409       -16.8006
  13   2.0000      -0.585597       -15.9349
  14   2.0000      -0.566920       -15.4267
  15   2.0000      -0.547297       -14.8927
  16   2.0000      -0.534008       -14.5311
  17   2.0000      -0.498353       -13.5609
  18   2.0000      -0.496077       -13.4989
  19   2.0000      -0.461659       -12.5624
  20   0.0000       0.096611         2.6289
  21   0.0000       0.141944         3.8625
  22   0.0000       0.155999         4.2449
  23   0.0000       0.178603         4.8600
  24   0.0000       0.201058         5.4711

MULLIKEN ATOMIC CHARGES
-----------------------
   0 O :   -0.697941
   1 H :    0.353643
   2 H :    0.359372
   3 O :   -0.693210
   4 H :    0.335200
   5 H :    0.357146
   6 O :   -0.719497
   7 H :    0.358782
   8 H :    0.323223
   9 O :   -0.695529
  10 H :    0.377719
  11 H :    0.341091
Sum of atomic charges:    0.0000000

LOEWDIN ATOMIC CHARGES
----------------------
   0 O :   -0.309554
   1 H :    0.164324
   2 H :    0.186828
   3 O :   -0.342668
   4 H :    0.156553
   5 H :    0.184851
   6 O :   -0.365490
   7 H :    0.142190
   8 H :    0.156562
   9 O :   -0.298577
  10 H :    0.152977
  11 H :    0.172004

  Mayer bond orders larger than 0.100000
B(  0-O ,  1-H ) :   0.8408 B(  0-O ,  2-H ) :   0.8287 B(  3-O ,  4-H ) :   0.8547
B(  3-O ,  5-H ) :   0.8330 B(  6-O ,  7-H ) :   0.7944 B(  6-O ,  8-H ) :   0.8608
B(  9-O , 10-H ) :   0.8041 B(  9-O , 11-H ) :   0.8450

MP2 TOTAL ENERGY:     -305.268953432 Eh
FINAL SINGLE POINT ENERGY      -305.268953431822

DIPOLE MOMENT
-------------
                                X             Y             Z
Electronic contribution:      0.11590       0.09178       0.00417
Nuclear contribution   :     -0.00045       0.90834       1.26519
                        -----------------------------------------
Total Dipole Moment    :      0.11545       1.00012       1.26936
                        -----------------------------------------
Magnitude (a.u.)       :      1.62014
Magnitude (Debye)      :      4.11807

Rotational constants in cm-1:     0.099841     0.066492     0.045032
Rotational constants in MHz :  2993.171249  1993.365989  1350.013723

                             ****ORCA TERMINATED NORMALLY****
TOTAL RUN TIME: 0 days 0 hours 0 minutes 17 seconds 129 msec
