                         Program Version 4.2.0 -  RELEASE  -
|  1> # 12h2o.su.etal.mol2,6,7,8,10,11
|  2> ! MP2 def2-TZVP EnGrad TightSCF
|  3>
|  4> %pal
|  5>     nprocs 6
|  6> end
|  7>
|  8> %maxcore 8000
|  9>
| 10> %scf
| 11>     ConvForced true
| 12> end
| 13>
| 14> *xyz 0 1
| 15> O   0.923410000  -1.794470000  -2.768350000
| 16> H   1.359750000  -2.338250000  -3.430940000
| 17> H   1.303000000  -0.879480000  -2.865760000
| 18> O   1.737840000   0.885520000  -0.052730000
| 19> H   2.090180000   1.032320000   0.841890000
| 20> H   0.839590000   1.284090000  -0.017130000
| 21> O  -1.737840000  -0.885520000  -0.052730000
| 22> H  -2.090180000  -1.032320000   0.841890000
| 23> H  -0.839590000  -1.284090000  -0.017130000
| 24> O   1.752130000   0.741530000  -2.896280000
| 25> H   2.036450000   0.920500000  -1.984040000
| 26> H   0.921210000   1.242140000  -2.984230000
| 27> O  -0.923410000   1.794470000  -2.768350000
| 28> H  -1.359750000   2.338250000  -3.430940000
| 29> H  -1.303000000   0.879480000  -2.865760000
| 30> O  -0.741530000   1.752130000   2.896280000
| 31> H  -0.920500000   2.036450000   1.984040000
| 32> H  -1.242140000   0.921210000   2.984230000
| 33> *
| 34>
| 35>                          ****END OF INPUT****

CARTESIAN COORDINATES (ANGSTROEM)
---------------------------------
  O      0.923410   -1.794470   -2.768350
  H      1.359750   -2.338250   -3.430940
  H      1.303000   -0.879480   -2.865760
  O      1.737840    0.885520   -0.052730
  H      2.090180    1.032320    0.841890
  H      0.839590    1.284090   -0.017130
  O     -1.737840   -0.885520   -0.052730
  H     -2.090180   -1.032320    0.841890
  H     -0.839590   -1.284090   -0.017130
  O      1.752130    0.741530   -2.896280
  H      2.036450    0.920500   -1.984040
  H      0.921210    1.242140   -2.984230
  O     -0.923410    1.794470   -2.768350
  H     -1.359750    2.338250   -3.430940
  H     -1.303000    0.879480   -2.865760
  O     -0.741530    1.752130    2.896280
  H     -0.920500    2.036450    1.984040
  H     -1.242140    0.921210    2.984230

 Total Charge           Charge          ....    0
 Multiplicity           Mult            ....    1
 Number of Electrons    NEL             ....   60
 Basis Dimension        Dim             ....  258

ORBITAL ENERGIES
----------------

  NO   OCC          E(Eh)            E(eV)
   0   2.0000     -20.588000      -560.2280
   1   2.0000     -20.584472      -560.1320
   2   2.0000     -20.579504      -559.9968
   3   2.0000     -20.570589      -559.7542
   4   2.0000     -20.538887      -558.8915
   5   2.0000     -20.505654      -557.9872
   6   2.0000      -1.366321       -37.1795
   7   2.0000      -1.362829       -37.0845
   8   2.0000      -1.358405       -36.9641
   9   2.0000      -1.346355       -36.6362
  10   2.0000      -1.330336       -36.2003
  11   2.0000      -1.286924       -35.0190
  12   2.0000      -0.732990       -19.9457
  13   2.0000      -0.726063       -19.7572
  14   2.0000      -0.721227       -19.6256
  15   2.0000      -0.707628       -19.2555
  16   2.0000      -0.696582       -18.9550
  17   2.0000      -0.673088       -18.3157
  18   2.0000      -0.616954       -16.7882
  19   2.0000      -0.599220       -16.3056
  20   2.0000      -0.595723       -16.2104
  21   2.0000      -0.586336       -15.9550
  22   2.0000      -0.568671       -15.4743
  23   2.0000      -0.536097       -14.5879
  24   2.0000      -0.529194       -14.4001
  25   2.0000      -0.523344       -14.2409
  26   2.0000      -0.521060       -14.1788
  27   2.0000      -0.512738       -13.9523
  28   2.0000      -0.478037       -13.0081
  29   2.0000      -0.456550       -12.4234
  30   0.0000       0.079616         2.1665
  31   0.0000       0.119020         3.2387
  32   0.0000       0.133608         3.6357
  33   0.0000       0.156711         4.2643
  34   0.0000       0.175773         4.7830

MULLIKEN ATOMIC CHARGES
-----------------------
   0 O :   -0.742343
   1 H :    0.320911
   2 H :    0.369557
   3 O :   -0.697825
   4 H :    0.354946
   5 H :    0.347684
   6 O :   -0.686208
   7 H :    0.324550
   8 H :    0.362158
   9 O :   -0.717027
  10 H :    0.381263
  11 H :    0.359534
  12 O :   -0.710406
  13 H :    0.353441
  14 H :    0.378668
  15 O :   -0.669968
  16 H :    0.336423
  17 H :    0.334642
Sum of atomic charges:   -0.0000000

LOEWDIN ATOMIC CHARGES
----------------------
   0 O :   -0.378363
   1 H :    0.146593
   2 H :    0.141822
   3 O :   -0.315490
   4 H :    0.172336
   5 H :    0.172071
   6 O :   -0.337221
   7 H :    0.158628
   8 H :    0.179771
   9 O :   -0.288596
  10 H :    0.156339
  11 H :    0.147344
  12 O :   -0.314413
  13 H :    0.164144
  14 H :    0.194520
  15 O :   -0.326958
  16 H :    0.162557
  17 H :    0.164917

  Mayer bond orders larger than 0.100000
B(  0-O ,  1-H ) :   0.8625 B(  0-O ,  2-H ) :   0.7674 B(  2-H ,  9-O ) :   0.1043
B(  3-O ,  4-H ) :   0.8388 B(  3-O ,  5-H ) :   0.8349 B(  6-O ,  7-H ) :   0.8580
B(  6-O ,  8-H ) :   0.8298 B(  9-O , 10-H ) :   0.8094 B(  9-O , 11-H ) :   0.8100
B( 12-O , 13-H ) :   0.8412 B( 12-O , 14-H ) :   0.8156 B( 15-O , 16-H ) :   0.8516
B( 15-O , 17-H ) :   0.8531

MP2 TOTAL ENERGY:     -457.911535790 Eh
FINAL SINGLE POINT ENERGY      -457.911535790159

DIPOLE MOMENT
-------------
                                X             Y             Z
Electronic contribution:      0.09179       0.34524       0.10173
Nuclear contribution   :     -1.02062       0.11069       0.28337
                        -----------------------------------------
Total Dipole Moment    :     -0.92883       0.45593       0.38510
                        -----------------------------------------
Magnitude (a.u.)       :      1.10404
Magnitude (Debye)      :      2.80625

Rotational constants in cm-1:     0.050314     0.024133     0.023007
Rotational constants in MHz :  1508.367624   723.480275   689.739385

                             ****ORCA TERMINATED NORMALLY****
TOTAL RUN TIME: 0 days 0 hours 0 minutes 55 seconds 985 msec
