                         Program Version 4.2.0 -  RELEASE  -
|  1> # 12h2o.su.etal.mol3,5,10
|  2> ! MP2 def2-TZVP EnGrad TightSCF
|  3>
|  4> %pal
|  5>     nprocs 6
|  6> end
|  7>
|  8> %maxcore 8000
|  9>
| 10> %scf
| 11>     ConvForced true
| 12> end
| 13>
| 14> *xyz 0 1
| 15> O  -1.752130000  -0.741530000  -2.896280000
| 16> H  -2.036450000  -0.920500000  -1.984040000
| 17> H  -0.921210000  -1.242140000  -2.984230000
| 18> O   0.885520000  -1.737840000   0.052730000
| 19> H   1.284090000  -0.839590000   0.017130000
| 20> H   1.032320000  -2.090180000  -0.841890000
| 21> O  -0.923410000   1.794470000  -2.768350000
| 22> H  -1.359750000   2.338250000  -3.430940000
| 23> H  -1.303000000   0.879480000  -2.865760000
| 24> *
| 25>
| 26>                          ****END OF INPUT****

CARTESIAN COORDINATES (ANGSTROEM)
---------------------------------
  O     -1.752130   -0.741530   -2.896280
  H     -2.036450   -0.920500   -1.984040
  H     -0.921210   -1.242140   -2.984230
  O      0.885520   -1.737840    0.052730
  H      1.284090   -0.839590    0.017130
  H      1.032320   -2.090180   -0.841890
  O     -0.923410    1.794470   -2.768350
  H     -1.359750    2.338250   -3.430940
  H     -1.303000    0.879480   -2.865760

 Total Charge           Charge          ....    0
 Multiplicity           Mult            ....    1
 Number of Electrons    NEL             ....   30
 Basis Dimension        Dim             ....  129

ORBITAL ENERGIES
----------------

  NO   OCC          E(Eh)            E(eV)
   0   2.0000     -20.601481      -560.5948
   1   2.0000     -20.575984      -559.9010
   2   2.0000     -20.521138      -558.4085
   3   2.0000      -1.386686       -37.7337
   4   2.0000      -1.351786       -36.7840
   5   2.0000      -1.303566       -35.4718
   6   2.0000      -0.744279       -20.2528
   7   2.0000      -0.713806       -19.4237
   8   2.0000      -0.694771       -18.9057
   9   2.0000      -0.621459       -16.9108
  10   2.0000      -0.590711       -16.0741
  11   2.0000      -0.561763       -15.2863
  12   2.0000      -0.518686       -14.1142
  13   2.0000      -0.517907       -14.0930
  14   2.0000      -0.471524       -12.8308
  15   0.0000       0.085503         2.3267
  16   0.0000       0.148853         4.0505
  17   0.0000       0.165433         4.5017
  18   0.0000       0.177293         4.8244
  19   0.0000       0.218159         5.9364

MULLIKEN ATOMIC CHARGES
-----------------------
   0 O :   -0.674637
   1 H :    0.364868
   2 H :    0.349895
   3 O :   -0.674218
   4 H :    0.349701
   5 H :    0.327304
   6 O :   -0.732809
   7 H :    0.326701
   8 H :    0.363194
Sum of atomic charges:   -0.0000000

LOEWDIN ATOMIC CHARGES
----------------------
   0 O :   -0.268737
   1 H :    0.177116
   2 H :    0.171792
   3 O :   -0.335089
   4 H :    0.177704
   5 H :    0.159723
   6 O :   -0.372821
   7 H :    0.149204
   8 H :    0.141108

  Mayer bond orders larger than 0.100000
B(  0-O ,  1-H ) :   0.8322 B(  0-O ,  2-H ) :   0.8408 B(  3-O ,  4-H ) :   0.8436
B(  3-O ,  5-H ) :   0.8576 B(  6-O ,  7-H ) :   0.8600 B(  6-O ,  8-H ) :   0.7900

MP2 TOTAL ENERGY:     -228.946647144 Eh
FINAL SINGLE POINT ENERGY      -228.946647144081

DIPOLE MOMENT
-------------
                                X             Y             Z
Electronic contribution:     -0.11659      -0.22319       0.15870
Nuclear contribution   :      0.22976      -0.42024      -0.72077
                        -----------------------------------------
Total Dipole Moment    :      0.11318      -0.64344      -0.56206
                        -----------------------------------------
Magnitude (a.u.)       :      0.86182
Magnitude (Debye)      :      2.19057

Rotational constants in cm-1:     0.291777     0.073481     0.059438
Rotational constants in MHz :  8747.244683  2202.892955  1781.904797

                             ****ORCA TERMINATED NORMALLY****
TOTAL RUN TIME: 0 days 0 hours 0 minutes 44 seconds 777 msec
