                         Program Version 4.2.0 -  RELEASE  -
|  1> # 12h2o.su.etal.mol4,8,11
|  2> ! MP2 def2-TZVP EnGrad TightSCF
|  3>
|  4> %pal
|  5>     nprocs 6
|  6> end
|  7>
|  8> %maxcore 8000
|  9>
| 10> %scf
| 11>     ConvForced true
| 12> end
| 13>
| 14> *xyz 0 1
| 15> O  -0.885520000   1.737840000   0.052730000
| 16> H  -1.032320000   2.090180000  -0.841890000
| 17> H  -1.284090000   0.839590000   0.017130000
| 18> O   1.752130000   0.741530000  -2.896280000
| 19> H   2.036450000   0.920500000  -1.984040000
| 20> H   0.921210000   1.242140000  -2.984230000
| 21> O  -0.741530000   1.752130000   2.896280000
| 22> H  -0.920500000   2.036450000   1.984040000
| 23> H  -1.242140000   0.921210000   2.984230000
| 24> *
| 25>
| 26>                          ****END OF INPUT****

CARTESIAN COORDINATES (ANGSTROEM)
---------------------------------
  O     -0.885520    1.737840    0.052730
  H     -1.032320    2.090180   -0.841890
  H     -1.284090    0.839590    0.017130
  O      1.752130    0.741530   -2.896280
  H      2.036450    0.920500   -1.984040
  H      0.921210    1.242140   -2.984230
  O     -0.741530    1.752130    2.896280
  H     -0.920500    2.036450    1.984040
  H     -1.242140    0.921210    2.984230

 Total Charge           Charge          ....    0
 Multiplicity           Mult            ....    1
 Number of Electrons    NEL             ....   30
 Basis Dimension        Dim             ....  129

ORBITAL ENERGIES
----------------

  NO   OCC          E(Eh)            E(eV)
   0   2.0000     -20.603831      -560.6588
   1   2.0000     -20.569571      -559.7265
   2   2.0000     -20.537795      -558.8618
   3   2.0000      -1.381993       -37.6059
   4   2.0000      -1.348694       -36.6998
   5   2.0000      -1.319672       -35.9101
   6   2.0000      -0.744460       -20.2578
   7   2.0000      -0.711497       -19.3608
   8   2.0000      -0.690130       -18.7794
   9   2.0000      -0.621221       -16.9043
  10   2.0000      -0.586056       -15.9474
  11   2.0000      -0.559363       -15.2210
  12   2.0000      -0.542406       -14.7596
  13   2.0000      -0.513442       -13.9715
  14   2.0000      -0.484011       -13.1706
  15   0.0000       0.079106         2.1526
  16   0.0000       0.131377         3.5749
  17   0.0000       0.165195         4.4952
  18   0.0000       0.183163         4.9841
  19   0.0000       0.211596         5.7578

MULLIKEN ATOMIC CHARGES
-----------------------
   0 O :   -0.686971
   1 H :    0.344384
   2 H :    0.347878
   3 O :   -0.669252
   4 H :    0.343774
   5 H :    0.324567
   6 O :   -0.689660
   7 H :    0.367990
   8 H :    0.317289
Sum of atomic charges:    0.0000000

LOEWDIN ATOMIC CHARGES
----------------------
   0 O :   -0.315017
   1 H :    0.167281
   2 H :    0.176592
   3 O :   -0.328811
   4 H :    0.167578
   5 H :    0.160230
   6 O :   -0.337448
   7 H :    0.152306
   8 H :    0.157288

  Mayer bond orders larger than 0.100000
B(  0-O ,  1-H ) :   0.8443 B(  0-O ,  2-H ) :   0.8402 B(  3-O ,  4-H ) :   0.8488
B(  3-O ,  5-H ) :   0.8597 B(  6-O ,  7-H ) :   0.8243 B(  6-O ,  8-H ) :   0.8642

MP2 TOTAL ENERGY:     -228.943565016 Eh
FINAL SINGLE POINT ENERGY      -228.943565016135

DIPOLE MOMENT
-------------
                                X             Y             Z
Electronic contribution:      0.26919       0.08031      -0.01203
Nuclear contribution   :     -1.47457      -0.34371      -0.77428
                        -----------------------------------------
Total Dipole Moment    :     -1.20538      -0.26340      -0.78631
                        -----------------------------------------
Magnitude (a.u.)       :      1.46308
Magnitude (Debye)      :      3.71884

Rotational constants in cm-1:     0.682855     0.046122     0.043663
Rotational constants in MHz : 20471.482401  1382.689815  1308.988315

                             ****ORCA TERMINATED NORMALLY****
TOTAL RUN TIME: 0 days 0 hours 0 minutes 9 seconds 293 msec
