                         Program Version 4.2.0 -  RELEASE  -
|  1> # 12h2o.su.etal.mol3,5,6,7,8
|  2> ! MP2 def2-TZVP EnGrad TightSCF
|  3>
|  4> %pal
|  5>     nprocs 6
|  6> end
|  7>
|  8> %maxcore 8000
|  9>
| 10> %scf
| 11>     ConvForced true
| 12> end
| 13>
| 14> *xyz 0 1
| 15> O  -1.752130000  -0.741530000  -2.896280000
| 16> H  -2.036450000  -0.920500000  -1.984040000
| 17> H  -0.921210000  -1.242140000  -2.984230000
| 18> O   0.885520000  -1.737840000   0.052730000
| 19> H   1.284090000  -0.839590000   0.017130000
| 20> H   1.032320000  -2.090180000  -0.841890000
| 21> O   1.737840000   0.885520000  -0.052730000
| 22> H   2.090180000   1.032320000   0.841890000
| 23> H   0.839590000   1.284090000  -0.017130000
| 24> O  -1.737840000  -0.885520000  -0.052730000
| 25> H  -2.090180000  -1.032320000   0.841890000
| 26> H  -0.839590000  -1.284090000  -0.017130000
| 27> O   1.752130000   0.741530000  -2.896280000
| 28> H   2.036450000   0.920500000  -1.984040000
| 29> H   0.921210000   1.242140000  -2.984230000
| 30> *
| 31>
| 32>                          ****END OF INPUT****

CARTESIAN COORDINATES (ANGSTROEM)
---------------------------------
  O     -1.752130   -0.741530   -2.896280
  H     -2.036450   -0.920500   -1.984040
  H     -0.921210   -1.242140   -2.984230
  O      0.885520   -1.737840    0.052730
  H      1.284090   -0.839590    0.017130
  H      1.032320   -2.090180   -0.841890
  O      1.737840    0.885520   -0.052730
  H      2.090180    1.032320    0.841890
  H      0.839590    1.284090   -0.017130
  O     -1.737840   -0.885520   -0.052730
  H     -2.090180   -1.032320    0.841890
  H     -0.839590   -1.284090   -0.017130
  O      1.752130    0.741530   -2.896280
  H      2.036450    0.920500   -1.984040
  H      0.921210    1.242140   -2.984230

 Total Charge           Charge          ....    0
 Multiplicity           Mult            ....    1
 Number of Electrons    NEL             ....   50
 Basis Dimension        Dim             ....  215

ORBITAL ENERGIES
----------------

  NO   OCC          E(Eh)            E(eV)
   0   2.0000     -20.631914      -561.4229
   1   2.0000     -20.577780      -559.9498
   2   2.0000     -20.556875      -559.3810
   3   2.0000     -20.547881      -559.1363
   4   2.0000     -20.529093      -558.6250
   5   2.0000      -1.415143       -38.5080
   6   2.0000      -1.364650       -37.1340
   7   2.0000      -1.339123       -36.4394
   8   2.0000      -1.329754       -36.1844
   9   2.0000      -1.310330       -35.6559
  10   2.0000      -0.772567       -21.0226
  11   2.0000      -0.733893       -19.9703
  12   2.0000      -0.713246       -19.4084
  13   2.0000      -0.703492       -19.1430
  14   2.0000      -0.679228       -18.4827
  15   2.0000      -0.650690       -17.7062
  16   2.0000      -0.617224       -16.7955
  17   2.0000      -0.591062       -16.0836
  18   2.0000      -0.568444       -15.4681
  19   2.0000      -0.557480       -15.1698
  20   2.0000      -0.546119       -14.8607
  21   2.0000      -0.519414       -14.1340
  22   2.0000      -0.505069       -13.7436
  23   2.0000      -0.494566       -13.4578
  24   2.0000      -0.474946       -12.9239
  25   0.0000       0.082856         2.2546
  26   0.0000       0.127835         3.4786
  27   0.0000       0.151379         4.1192
  28   0.0000       0.157385         4.2827
  29   0.0000       0.195771         5.3272

MULLIKEN ATOMIC CHARGES
-----------------------
   0 O :   -0.699699
   1 H :    0.373143
   2 H :    0.318268
   3 O :   -0.708518
   4 H :    0.369438
   5 H :    0.353979
   6 O :   -0.715188
   7 H :    0.372376
   8 H :    0.373583
   9 O :   -0.731196
  10 H :    0.339145
  11 H :    0.352469
  12 O :   -0.698659
  13 H :    0.363619
  14 H :    0.337241
Sum of atomic charges:   -0.0000000

LOEWDIN ATOMIC CHARGES
----------------------
   0 O :   -0.340724
   1 H :    0.153384
   2 H :    0.154532
   3 O :   -0.305973
   4 H :    0.144705
   5 H :    0.168282
   6 O :   -0.275418
   7 H :    0.179491
   8 H :    0.185660
   9 O :   -0.344852
  10 H :    0.163411
  11 H :    0.141055
  12 O :   -0.336344
  13 H :    0.148645
  14 H :    0.164146

  Mayer bond orders larger than 0.100000
B(  0-O ,  1-H ) :   0.8151 B(  0-O ,  2-H ) :   0.8603 B(  3-O ,  4-H ) :   0.7873
B(  3-O ,  5-H ) :   0.8388 B(  3-O , 11-H ) :   0.1006 B(  6-O ,  7-H ) :   0.8261
B(  6-O ,  8-H ) :   0.8176 B(  9-O , 10-H ) :   0.8488 B(  9-O , 11-H ) :   0.7730
B( 12-O , 13-H ) :   0.8296 B( 12-O , 14-H ) :   0.8487

MP2 TOTAL ENERGY:     -381.599609121 Eh
FINAL SINGLE POINT ENERGY      -381.599609120724

DIPOLE MOMENT
-------------
                                X             Y             Z
Electronic contribution:      0.25985       0.10793      -0.04107
Nuclear contribution   :      0.45394       0.45439       2.14649
                        -----------------------------------------
Total Dipole Moment    :      0.71379       0.56232       2.10542
                        -----------------------------------------
Magnitude (a.u.)       :      2.29314
Magnitude (Debye)      :      5.82870

Rotational constants in cm-1:     0.071241     0.054072     0.036869
Rotational constants in MHz :  2135.748213  1621.041914  1105.291963

                             ****ORCA TERMINATED NORMALLY****
TOTAL RUN TIME: 0 days 0 hours 0 minutes 43 seconds 255 msec
