                         Program Version 4.2.0 -  RELEASE  -
|  1> # 12h2o.su.etal.mol0,2,3,5,6,7,8,9,10,11
|  2> ! MP2 def2-TZVP EnGrad TightSCF
|  3>
|  4> %pal
|  5>     nprocs 6
|  6> end
|  7>
|  8> %maxcore 8000
|  9>
| 10> %scf
| 11>     ConvForced true
| 12> end
| 13>
| 14> *xyz 0 1
| 15> O   1.794470000   0.923410000   2.768350000
| 16> H   2.338250000   1.359750000   3.430940000
| 17> H   0.879480000   1.303000000   2.865760000
| 18> O   0.923410000  -1.794470000  -2.768350000
| 19> H   1.359750000  -2.338250000  -3.430940000
| 20> H   1.303000000  -0.879480000  -2.865760000
| 21> O  -1.752130000  -0.741530000  -2.896280000
| 22> H  -2.036450000  -0.920500000  -1.984040000
| 23> H  -0.921210000  -1.242140000  -2.984230000
| 24> O   0.885520000  -1.737840000   0.052730000
| 25> H   1.284090000  -0.839590000   0.017130000
| 26> H   1.032320000  -2.090180000  -0.841890000
| 27> O   1.737840000   0.885520000  -0.052730000
| 28> H   2.090180000   1.032320000   0.841890000
| 29> H   0.839590000   1.284090000  -0.017130000
| 30> O  -1.737840000  -0.885520000  -0.052730000
| 31> H  -2.090180000  -1.032320000   0.841890000
| 32> H  -0.839590000  -1.284090000  -0.017130000
| 33> O   1.752130000   0.741530000  -2.896280000
| 34> H   2.036450000   0.920500000  -1.984040000
| 35> H   0.921210000   1.242140000  -2.984230000
| 36> O   0.741530000  -1.752130000   2.896280000
| 37> H   0.920500000  -2.036450000   1.984040000
| 38> H   1.242140000  -0.921210000   2.984230000
| 39> O  -0.923410000   1.794470000  -2.768350000
| 40> H  -1.359750000   2.338250000  -3.430940000
| 41> H  -1.303000000   0.879480000  -2.865760000
| 42> O  -0.741530000   1.752130000   2.896280000
| 43> H  -0.920500000   2.036450000   1.984040000
| 44> H  -1.242140000   0.921210000   2.984230000
| 45> *
| 46>
| 47>                          ****END OF INPUT****

CARTESIAN COORDINATES (ANGSTROEM)
---------------------------------
  O      1.794470    0.923410    2.768350
  H      2.338250    1.359750    3.430940
  H      0.879480    1.303000    2.865760
  O      0.923410   -1.794470   -2.768350
  H      1.359750   -2.338250   -3.430940
  H      1.303000   -0.879480   -2.865760
  O     -1.752130   -0.741530   -2.896280
  H     -2.036450   -0.920500   -1.984040
  H     -0.921210   -1.242140   -2.984230
  O      0.885520   -1.737840    0.052730
  H      1.284090   -0.839590    0.017130
  H      1.032320   -2.090180   -0.841890
  O      1.737840    0.885520   -0.052730
  H      2.090180    1.032320    0.841890
  H      0.839590    1.284090   -0.017130
  O     -1.737840   -0.885520   -0.052730
  H     -2.090180   -1.032320    0.841890
  H     -0.839590   -1.284090   -0.017130
  O      1.752130    0.741530   -2.896280
  H      2.036450    0.920500   -1.984040
  H      0.921210    1.242140   -2.984230
  O      0.741530   -1.752130    2.896280
  H      0.920500   -2.036450    1.984040
  H      1.242140   -0.921210    2.984230
  O     -0.923410    1.794470   -2.768350
  H     -1.359750    2.338250   -3.430940
  H     -1.303000    0.879480   -2.865760
  O     -0.741530    1.752130    2.896280
  H     -0.920500    2.036450    1.984040
  H     -1.242140    0.921210    2.984230

 Total Charge           Charge          ....    0
 Multiplicity           Mult            ....    1
 Number of Electrons    NEL             ....  100
 Basis Dimension        Dim             ....  430

ORBITAL ENERGIES
----------------

  NO   OCC          E(Eh)            E(eV)
   0   2.0000     -20.620616      -561.1155
   1   2.0000     -20.599769      -560.5482
   2   2.0000     -20.585224      -560.1524
   3   2.0000     -20.565903      -559.6267
   4   2.0000     -20.557416      -559.3957
   5   2.0000     -20.556431      -559.3689
   6   2.0000     -20.554607      -559.3193
   7   2.0000     -20.544473      -559.0435
   8   2.0000     -20.543504      -559.0172
   9   2.0000     -20.517106      -558.2988
  10   2.0000      -1.407336       -38.2956
  11   2.0000      -1.389034       -37.7975
  12   2.0000      -1.368650       -37.2429
  13   2.0000      -1.362454       -37.0743
  14   2.0000      -1.351880       -36.7865
  15   2.0000      -1.343194       -36.5502
  16   2.0000      -1.338349       -36.4183
  17   2.0000      -1.333644       -36.2903
  18   2.0000      -1.319401       -35.9027
  19   2.0000      -1.302074       -35.4312
  20   2.0000      -0.762732       -20.7550
  21   2.0000      -0.754136       -20.5211
  22   2.0000      -0.747914       -20.3518
  23   2.0000      -0.731281       -19.8992
  24   2.0000      -0.720933       -19.6176
  25   2.0000      -0.716509       -19.4972
  26   2.0000      -0.713782       -19.4230
  27   2.0000      -0.704950       -19.1827
  28   2.0000      -0.698201       -18.9990
  29   2.0000      -0.681000       -18.5310
  30   2.0000      -0.656095       -17.8533
  31   2.0000      -0.638048       -17.3622
  32   2.0000      -0.620131       -16.8746
  33   2.0000      -0.610401       -16.6099
  34   2.0000      -0.601621       -16.3709
  35   2.0000      -0.597141       -16.2490
  36   2.0000      -0.581655       -15.8276
  37   2.0000      -0.572992       -15.5919
  38   2.0000      -0.558581       -15.1997
  39   2.0000      -0.551276       -15.0010
  40   2.0000      -0.541318       -14.7300
  41   2.0000      -0.535193       -14.5633
  42   2.0000      -0.523620       -14.2484
  43   2.0000      -0.512411       -13.9434
  44   2.0000      -0.509552       -13.8656
  45   2.0000      -0.502927       -13.6853
  46   2.0000      -0.500183       -13.6107
  47   2.0000      -0.494295       -13.4505
  48   2.0000      -0.488785       -13.3005
  49   2.0000      -0.467077       -12.7098
  50   0.0000       0.076899         2.0925
  51   0.0000       0.130492         3.5509
  52   0.0000       0.132536         3.6065
  53   0.0000       0.139830         3.8050
  54   0.0000       0.157241         4.2787

MULLIKEN ATOMIC CHARGES
-----------------------
   0 O :   -0.753966
   1 H :    0.357092
   2 H :    0.383566
   3 O :   -0.760840
   4 H :    0.351616
   5 H :    0.385275
   6 O :   -0.725273
   7 H :    0.386970
   8 H :    0.366048
   9 O :   -0.751451
  10 H :    0.363314
  11 H :    0.383697
  12 O :   -0.731170
  13 H :    0.393212
  14 H :    0.354165
  15 O :   -0.740853
  16 H :    0.336445
  17 H :    0.367077
  18 O :   -0.724974
  19 H :    0.383436
  20 H :    0.371191
  21 O :   -0.734454
  22 H :    0.371706
  23 H :    0.346463
  24 O :   -0.753187
  25 H :    0.340080
  26 H :    0.385001
  27 O :   -0.683168
  28 H :    0.360546
  29 H :    0.372434
Sum of atomic charges:   -0.0000000

LOEWDIN ATOMIC CHARGES
----------------------
   0 O :   -0.312781
   1 H :    0.162606
   2 H :    0.146107
   3 O :   -0.316895
   4 H :    0.159642
   5 H :    0.146483
   6 O :   -0.288647
   7 H :    0.157857
   8 H :    0.148293
   9 O :   -0.299838
  10 H :    0.141752
  11 H :    0.152167
  12 O :   -0.282070
  13 H :    0.157876
  14 H :    0.173784
  15 O :   -0.343831
  16 H :    0.160153
  17 H :    0.144165
  18 O :   -0.287284
  19 H :    0.154128
  20 H :    0.150811
  21 O :   -0.357052
  22 H :    0.148815
  23 H :    0.139580
  24 O :   -0.346644
  25 H :    0.155058
  26 H :    0.145866
  27 O :   -0.264401
  28 H :    0.173611
  29 H :    0.180688

  Mayer bond orders larger than 0.100000
B(  0-O ,  1-H ) :   0.8369 B(  0-O ,  2-H ) :   0.7477 B(  3-O ,  4-H ) :   0.8400
B(  3-O ,  5-H ) :   0.7246 B(  5-H , 18-O ) :   0.1253 B(  6-O ,  7-H ) :   0.8008
B(  6-O ,  8-H ) :   0.8020 B(  6-O , 26-H ) :   0.1201 B(  9-O , 10-H ) :   0.7736
B(  9-O , 11-H ) :   0.7937 B(  9-O , 17-H ) :   0.1027 B( 12-O , 13-H ) :   0.7830
B( 12-O , 14-H ) :   0.8271 B( 15-O , 16-H ) :   0.8491 B( 15-O , 17-H ) :   0.7612
B( 18-O , 19-H ) :   0.8094 B( 18-O , 20-H ) :   0.7866 B( 21-O , 22-H ) :   0.8187
B( 21-O , 23-H ) :   0.8278 B( 24-O , 25-H ) :   0.8489 B( 24-O , 26-H ) :   0.7368
B( 27-O , 28-H ) :   0.8344 B( 27-O , 29-H ) :   0.8225

MP2 TOTAL ENERGY:     -763.259853325 Eh
FINAL SINGLE POINT ENERGY      -763.259853324966

DIPOLE MOMENT
-------------
                                X             Y             Z
Electronic contribution:      0.05962       0.17217       0.17943
Nuclear contribution   :      0.14496       1.13354       0.14168
                        -----------------------------------------
Total Dipole Moment    :      0.20459       1.30571       0.32112
                        -----------------------------------------
Magnitude (a.u.)       :      1.36010
Magnitude (Debye)      :      3.45709

Rotational constants in cm-1:     0.025542     0.012593     0.012319
Rotational constants in MHz :   765.739244   377.522377   369.308604

                             ****ORCA TERMINATED NORMALLY****
TOTAL RUN TIME: 0 days 0 hours 7 minutes 28 seconds 360 msec
