                         Program Version 4.2.0 -  RELEASE  -
|  1> # 12h2o.su.etal.mol1,6,7,10
|  2> ! MP2 def2-TZVP EnGrad TightSCF
|  3>
|  4> %pal
|  5>     nprocs 6
|  6> end
|  7>
|  8> %maxcore 8000
|  9>
| 10> %scf
| 11>     ConvForced true
| 12> end
| 13>
| 14> *xyz 0 1
| 15> O  -1.794470000  -0.923410000   2.768350000
| 16> H  -2.338250000  -1.359750000   3.430940000
| 17> H  -0.879480000  -1.303000000   2.865760000
| 18> O   1.737840000   0.885520000  -0.052730000
| 19> H   2.090180000   1.032320000   0.841890000
| 20> H   0.839590000   1.284090000  -0.017130000
| 21> O  -1.737840000  -0.885520000  -0.052730000
| 22> H  -2.090180000  -1.032320000   0.841890000
| 23> H  -0.839590000  -1.284090000  -0.017130000
| 24> O  -0.923410000   1.794470000  -2.768350000
| 25> H  -1.359750000   2.338250000  -3.430940000
| 26> H  -1.303000000   0.879480000  -2.865760000
| 27> *
| 28>
| 29>                          ****END OF INPUT****

CARTESIAN COORDINATES (ANGSTROEM)
---------------------------------
  O     -1.794470   -0.923410    2.768350
  H     -2.338250   -1.359750    3.430940
  H     -0.879480   -1.303000    2.865760
  O      1.737840    0.885520   -0.052730
  H      2.090180    1.032320    0.841890
  H      0.839590    1.284090   -0.017130
  O     -1.737840   -0.885520   -0.052730
  H     -2.090180   -1.032320    0.841890
  H     -0.839590   -1.284090   -0.017130
  O     -0.923410    1.794470   -2.768350
  H     -1.359750    2.338250   -3.430940
  H     -1.303000    0.879480   -2.865760

 Total Charge           Charge          ....    0
 Multiplicity           Mult            ....    1
 Number of Electrons    NEL             ....   40
 Basis Dimension        Dim             ....  172

ORBITAL ENERGIES
----------------

  NO   OCC          E(Eh)            E(eV)
   0   2.0000     -20.594633      -560.4085
   1   2.0000     -20.549679      -559.1852
   2   2.0000     -20.545754      -559.0784
   3   2.0000     -20.534395      -558.7693
   4   2.0000      -1.372446       -37.3462
   5   2.0000      -1.325646       -36.0727
   6   2.0000      -1.321090       -35.9487
   7   2.0000      -1.313278       -35.7361
   8   2.0000      -0.739371       -20.1193
   9   2.0000      -0.689815       -18.7708
  10   2.0000      -0.686913       -18.6919
  11   2.0000      -0.682626       -18.5752
  12   2.0000      -0.609136       -16.5754
  13   2.0000      -0.565124       -15.3778
  14   2.0000      -0.562464       -15.3054
  15   2.0000      -0.557623       -15.1737
  16   2.0000      -0.527667       -14.3585
  17   2.0000      -0.493132       -13.4188
  18   2.0000      -0.488956       -13.3052
  19   2.0000      -0.479380       -13.0446
  20   0.0000       0.096087         2.6147
  21   0.0000       0.133979         3.6457
  22   0.0000       0.149525         4.0688
  23   0.0000       0.176839         4.8120
  24   0.0000       0.191138         5.2011

MULLIKEN ATOMIC CHARGES
-----------------------
   0 O :   -0.691305
   1 H :    0.351788
   2 H :    0.349997
   3 O :   -0.684589
   4 H :    0.326125
   5 H :    0.356688
   6 O :   -0.698600
   7 H :    0.365207
   8 H :    0.324401
   9 O :   -0.685439
  10 H :    0.332908
  11 H :    0.352819
Sum of atomic charges:   -0.0000000

LOEWDIN ATOMIC CHARGES
----------------------
   0 O :   -0.309790
   1 H :    0.163137
   2 H :    0.183624
   3 O :   -0.339030
   4 H :    0.160002
   5 H :    0.177324
   6 O :   -0.346822
   7 H :    0.148755
   8 H :    0.162767
   9 O :   -0.339551
  10 H :    0.155369
  11 H :    0.184217

  Mayer bond orders larger than 0.100000
B(  0-O ,  1-H ) :   0.8419 B(  0-O ,  2-H ) :   0.8370 B(  3-O ,  4-H ) :   0.8584
B(  3-O ,  5-H ) :   0.8339 B(  6-O ,  7-H ) :   0.8207 B(  6-O ,  8-H ) :   0.8547
B(  9-O , 10-H ) :   0.8560 B(  9-O , 11-H ) :   0.8377

MP2 TOTAL ENERGY:     -305.259851232 Eh
FINAL SINGLE POINT ENERGY      -305.259851231695

DIPOLE MOMENT
-------------
                                X             Y             Z
Electronic contribution:     -0.02043       0.17783      -0.08051
Nuclear contribution   :     -0.37017      -0.98813       1.54856
                        -----------------------------------------
Total Dipole Moment    :     -0.39059      -0.81030       1.46805
                        -----------------------------------------
Magnitude (a.u.)       :      1.72172
Magnitude (Debye)      :      4.37626

Rotational constants in cm-1:     0.107985     0.042477     0.032266
Rotational constants in MHz :  3237.296891  1273.417529   967.317727

                             ****ORCA TERMINATED NORMALLY****
TOTAL RUN TIME: 0 days 0 hours 0 minutes 15 seconds 528 msec
