                         Program Version 4.2.0 -  RELEASE  -
|  1> # 12meoh.boyd.etal.mol5,9,10
|  2> ! MP2 def2-TZVP EnGrad TightSCF
|  3>
|  4> %pal
|  5>     nprocs 6
|  6> end
|  7>
|  8> %maxcore 8000
|  9>
| 10> %scf
| 11>     ConvForced true
| 12> end
| 13>
| 14> *xyz 0 1
| 15> O  -0.662721750   1.449094618  -1.383082065
| 16> H   0.064188300   2.119867608  -1.465650660
| 17> C  -0.353319239   0.341218776  -2.229326771
| 18> H  -1.072358530  -0.454743281  -2.019906495
| 19> H   0.657636746  -0.044472139  -2.042736771
| 20> H  -0.434616607   0.624733901  -3.287793021
| 21> O   1.390610024   3.194080770  -1.536658882
| 22> H   2.162932299   2.881562730  -0.993525056
| 23> C   1.202977189   4.580367182  -1.302880219
| 24> H   0.374773115   4.915764831  -1.934164643
| 25> H   2.098649340   5.157710875  -1.570472348
| 26> H   0.950320401   4.800436015  -0.254328827
| 27> O  -5.201143618   0.064582726  -0.172223772
| 28> H  -4.686891530   0.869258890   0.107806143
| 29> C  -6.513192168   0.171391798   0.359883449
| 30> H  -7.049381312  -0.749234190   0.111361174
| 31> H  -7.057741163   1.017801101  -0.081819420
| 32> H  -6.514770575   0.292264928   1.453058834
| 33> *
| 34>
| 35>                          ****END OF INPUT****

CARTESIAN COORDINATES (ANGSTROEM)
---------------------------------
  O     -0.662722    1.449095   -1.383082
  H      0.064188    2.119868   -1.465651
  C     -0.353319    0.341219   -2.229327
  H     -1.072359   -0.454743   -2.019906
  H      0.657637   -0.044472   -2.042737
  H     -0.434617    0.624734   -3.287793
  O      1.390610    3.194081   -1.536659
  H      2.162932    2.881563   -0.993525
  C      1.202977    4.580367   -1.302880
  H      0.374773    4.915765   -1.934165
  H      2.098649    5.157711   -1.570472
  H      0.950320    4.800436   -0.254329
  O     -5.201144    0.064583   -0.172224
  H     -4.686892    0.869259    0.107806
  C     -6.513192    0.171392    0.359883
  H     -7.049381   -0.749234    0.111361
  H     -7.057741    1.017801   -0.081819
  H     -6.514771    0.292265    1.453059

 Total Charge           Charge          ....    0
 Multiplicity           Mult            ....    1
 Number of Electrons    NEL             ....   54
 Basis Dimension        Dim             ....  258

ORBITAL ENERGIES
----------------

  NO   OCC          E(Eh)            E(eV)
   0   2.0000     -20.590164      -560.2868
   1   2.0000     -20.546759      -559.1057
   2   2.0000     -20.511677      -558.1511
   3   2.0000     -11.290640      -307.2339
   4   2.0000     -11.263282      -306.4895
   5   2.0000     -11.246271      -306.0266
   6   2.0000      -1.384409       -37.6717
   7   2.0000      -1.337040       -36.3827
   8   2.0000      -1.307225       -35.5714
   9   2.0000      -0.942545       -25.6479
  10   2.0000      -0.910563       -24.7777
  11   2.0000      -0.893141       -24.3036
  12   2.0000      -0.716660       -19.5013
  13   2.0000      -0.672361       -18.2959
  14   2.0000      -0.670536       -18.2462
  15   2.0000      -0.636596       -17.3227
  16   2.0000      -0.609972       -16.5982
  17   2.0000      -0.607913       -16.5422
  18   2.0000      -0.587749       -15.9935
  19   2.0000      -0.581905       -15.8344
  20   2.0000      -0.558746       -15.2042
  21   2.0000      -0.527865       -14.3639
  22   2.0000      -0.490528       -13.3479
  23   2.0000      -0.484063       -13.1720
  24   2.0000      -0.457027       -12.4363
  25   2.0000      -0.438739       -11.9387
  26   2.0000      -0.414859       -11.2889
  27   0.0000       0.117394         3.1945
  28   0.0000       0.145077         3.9477
  29   0.0000       0.158010         4.2997
  30   0.0000       0.177361         4.8262
  31   0.0000       0.186909         5.0860

MULLIKEN ATOMIC CHARGES
-----------------------
   0 O :   -0.542066
   1 H :    0.347046
   2 C :   -0.159520
   3 H :    0.128630
   4 H :    0.089451
   5 H :    0.099717
   6 O :   -0.522124
   7 H :    0.342372
   8 C :   -0.176640
   9 H :    0.144195
  10 H :    0.123893
  11 H :    0.125359
  12 O :   -0.494879
  13 H :    0.328037
  14 C :   -0.172621
  15 H :    0.126110
  16 H :    0.106524
  17 H :    0.106518
Sum of atomic charges:    0.0000000

LOEWDIN ATOMIC CHARGES
----------------------
   0 O :   -0.131369
   1 H :    0.157592
   2 C :   -0.388571
   3 H :    0.107168
   4 H :    0.089442
   5 H :    0.092703
   6 O :   -0.074151
   7 H :    0.199876
   8 C :   -0.374857
   9 H :    0.116603
  10 H :    0.103508
  11 H :    0.102230
  12 O :   -0.105256
  13 H :    0.194167
  14 C :   -0.386860
  15 H :    0.109212
  16 H :    0.094222
  17 H :    0.094340

  Mayer bond orders larger than 0.100000
B(  0-O ,  1-H ) :   0.7938 B(  0-O ,  2-C ) :   0.9360 B(  2-C ,  3-H ) :   0.9401
B(  2-C ,  4-H ) :   0.9395 B(  2-C ,  5-H ) :   0.9405 B(  6-O ,  7-H ) :   0.8269
B(  6-O ,  8-C ) :   0.8713 B(  8-C ,  9-H ) :   0.9390 B(  8-C , 10-H ) :   0.9346
B(  8-C , 11-H ) :   0.9380 B( 12-O , 13-H ) :   0.8375 B( 12-O , 14-C ) :   0.9345
B( 14-C , 15-H ) :   0.9381 B( 14-C , 16-H ) :   0.9388 B( 14-C , 17-H ) :   0.9384

MP2 TOTAL ENERGY:     -346.529477309 Eh
FINAL SINGLE POINT ENERGY      -346.529477308859

DIPOLE MOMENT
-------------
                                X             Y             Z
Electronic contribution:      1.47273      -0.36100       0.02556
Nuclear contribution   :     -0.46180       1.58701       0.43290
                        -----------------------------------------
Total Dipole Moment    :      1.01093       1.22601       0.45845
                        -----------------------------------------
Magnitude (a.u.)       :      1.65386
Magnitude (Debye)      :      4.20378

Rotational constants in cm-1:     0.128235     0.014735     0.013368
Rotational constants in MHz :  3844.396895   441.756919   400.774579

                             ****ORCA TERMINATED NORMALLY****
TOTAL RUN TIME: 0 days 0 hours 1 minutes 10 seconds 254 msec
