                         Program Version 4.2.0 -  RELEASE  -
|  1> # 12h2o.su.etal.mol0,3,4,5,6,8,9,11
|  2> ! MP2 def2-TZVP EnGrad TightSCF
|  3>
|  4> %pal
|  5>     nprocs 6
|  6> end
|  7>
|  8> %maxcore 8000
|  9>
| 10> %scf
| 11>     ConvForced true
| 12> end
| 13>
| 14> *xyz 0 1
| 15> O   1.794470000   0.923410000   2.768350000
| 16> H   2.338250000   1.359750000   3.430940000
| 17> H   0.879480000   1.303000000   2.865760000
| 18> O  -1.752130000  -0.741530000  -2.896280000
| 19> H  -2.036450000  -0.920500000  -1.984040000
| 20> H  -0.921210000  -1.242140000  -2.984230000
| 21> O  -0.885520000   1.737840000   0.052730000
| 22> H  -1.032320000   2.090180000  -0.841890000
| 23> H  -1.284090000   0.839590000   0.017130000
| 24> O   0.885520000  -1.737840000   0.052730000
| 25> H   1.284090000  -0.839590000   0.017130000
| 26> H   1.032320000  -2.090180000  -0.841890000
| 27> O   1.737840000   0.885520000  -0.052730000
| 28> H   2.090180000   1.032320000   0.841890000
| 29> H   0.839590000   1.284090000  -0.017130000
| 30> O   1.752130000   0.741530000  -2.896280000
| 31> H   2.036450000   0.920500000  -1.984040000
| 32> H   0.921210000   1.242140000  -2.984230000
| 33> O   0.741530000  -1.752130000   2.896280000
| 34> H   0.920500000  -2.036450000   1.984040000
| 35> H   1.242140000  -0.921210000   2.984230000
| 36> O  -0.741530000   1.752130000   2.896280000
| 37> H  -0.920500000   2.036450000   1.984040000
| 38> H  -1.242140000   0.921210000   2.984230000
| 39> *
| 40>
| 41>                          ****END OF INPUT****

CARTESIAN COORDINATES (ANGSTROEM)
---------------------------------
  O      1.794470    0.923410    2.768350
  H      2.338250    1.359750    3.430940
  H      0.879480    1.303000    2.865760
  O     -1.752130   -0.741530   -2.896280
  H     -2.036450   -0.920500   -1.984040
  H     -0.921210   -1.242140   -2.984230
  O     -0.885520    1.737840    0.052730
  H     -1.032320    2.090180   -0.841890
  H     -1.284090    0.839590    0.017130
  O      0.885520   -1.737840    0.052730
  H      1.284090   -0.839590    0.017130
  H      1.032320   -2.090180   -0.841890
  O      1.737840    0.885520   -0.052730
  H      2.090180    1.032320    0.841890
  H      0.839590    1.284090   -0.017130
  O      1.752130    0.741530   -2.896280
  H      2.036450    0.920500   -1.984040
  H      0.921210    1.242140   -2.984230
  O      0.741530   -1.752130    2.896280
  H      0.920500   -2.036450    1.984040
  H      1.242140   -0.921210    2.984230
  O     -0.741530    1.752130    2.896280
  H     -0.920500    2.036450    1.984040
  H     -1.242140    0.921210    2.984230

 Total Charge           Charge          ....    0
 Multiplicity           Mult            ....    1
 Number of Electrons    NEL             ....   80
 Basis Dimension        Dim             ....  344

ORBITAL ENERGIES
----------------

  NO   OCC          E(Eh)            E(eV)
   0   2.0000     -20.646471      -561.8190
   1   2.0000     -20.597678      -560.4913
   2   2.0000     -20.584979      -560.1458
   3   2.0000     -20.573577      -559.8355
   4   2.0000     -20.572716      -559.8121
   5   2.0000     -20.556344      -559.3665
   6   2.0000     -20.550301      -559.2021
   7   2.0000     -20.507178      -558.0287
   8   2.0000      -1.429862       -38.9085
   9   2.0000      -1.387565       -37.7576
  10   2.0000      -1.369314       -37.2609
  11   2.0000      -1.363806       -37.1110
  12   2.0000      -1.354648       -36.8618
  13   2.0000      -1.338517       -36.4229
  14   2.0000      -1.331449       -36.2306
  15   2.0000      -1.292159       -35.1614
  16   2.0000      -0.788266       -21.4498
  17   2.0000      -0.748706       -20.3733
  18   2.0000      -0.741785       -20.1850
  19   2.0000      -0.738158       -20.0863
  20   2.0000      -0.726572       -19.7710
  21   2.0000      -0.712228       -19.3807
  22   2.0000      -0.701392       -19.0858
  23   2.0000      -0.674179       -18.3453
  24   2.0000      -0.669967       -18.2307
  25   2.0000      -0.633526       -17.2391
  26   2.0000      -0.624272       -16.9873
  27   2.0000      -0.601606       -16.3705
  28   2.0000      -0.594113       -16.1667
  29   2.0000      -0.589245       -16.0342
  30   2.0000      -0.578797       -15.7499
  31   2.0000      -0.562656       -15.3107
  32   2.0000      -0.540175       -14.6989
  33   2.0000      -0.531870       -14.4729
  34   2.0000      -0.529108       -14.3978
  35   2.0000      -0.518904       -14.1201
  36   2.0000      -0.513137       -13.9632
  37   2.0000      -0.502491       -13.6735
  38   2.0000      -0.496014       -13.4972
  39   2.0000      -0.457238       -12.4421
  40   0.0000       0.060792         1.6542
  41   0.0000       0.116732         3.1764
  42   0.0000       0.120864         3.2889
  43   0.0000       0.132645         3.6095
  44   0.0000       0.158546         4.3143

MULLIKEN ATOMIC CHARGES
-----------------------
   0 O :   -0.753303
   1 H :    0.352505
   2 H :    0.384599
   3 O :   -0.677908
   4 H :    0.328982
   5 H :    0.350565
   6 O :   -0.716923
   7 H :    0.378829
   8 H :    0.368389
   9 O :   -0.736050
  10 H :    0.363904
  11 H :    0.335925
  12 O :   -0.747235
  13 H :    0.389722
  14 H :    0.350222
  15 O :   -0.695255
  16 H :    0.375984
  17 H :    0.315906
  18 O :   -0.734616
  19 H :    0.369469
  20 H :    0.345575
  21 O :   -0.697139
  22 H :    0.385276
  23 H :    0.362578
Sum of atomic charges:   -0.0000000

LOEWDIN ATOMIC CHARGES
----------------------
   0 O :   -0.313443
   1 H :    0.160411
   2 H :    0.146621
   3 O :   -0.327959
   4 H :    0.158972
   5 H :    0.169933
   6 O :   -0.274433
   7 H :    0.180945
   8 H :    0.182253
   9 O :   -0.342590
  10 H :    0.142769
  11 H :    0.159712
  12 O :   -0.298909
  13 H :    0.154781
  14 H :    0.138374
  15 O :   -0.337508
  16 H :    0.151716
  17 H :    0.153682
  18 O :   -0.358464
  19 H :    0.150414
  20 H :    0.139269
  21 O :   -0.270665
  22 H :    0.157577
  23 H :    0.176546

  Mayer bond orders larger than 0.100000
B(  0-O ,  1-H ) :   0.8394 B(  0-O ,  2-H ) :   0.7437 B(  3-O ,  4-H ) :   0.8556
B(  3-O ,  5-H ) :   0.8401 B(  6-O ,  7-H ) :   0.8214 B(  6-O ,  8-H ) :   0.8182
B(  9-O , 10-H ) :   0.7712 B(  9-O , 11-H ) :   0.8486 B( 12-O , 13-H ) :   0.7881
B( 12-O , 14-H ) :   0.7888 B( 15-O , 16-H ) :   0.8134 B( 15-O , 17-H ) :   0.8616
B( 18-O , 19-H ) :   0.8216 B( 18-O , 20-H ) :   0.8277 B( 21-O , 22-H ) :   0.8092
B( 21-O , 23-H ) :   0.8297

MP2 TOTAL ENERGY:     -610.575490197 Eh
FINAL SINGLE POINT ENERGY      -610.575490197126

DIPOLE MOMENT
-------------
                                X             Y             Z
Electronic contribution:     -0.20254       0.35030       0.09555
Nuclear contribution   :     -0.76337       1.13309      -0.14168
                        -----------------------------------------
Total Dipole Moment    :     -0.96591       1.48339      -0.04613
                        -----------------------------------------
Magnitude (a.u.)       :      1.77075
Magnitude (Debye)      :      4.50090

Rotational constants in cm-1:     0.034064     0.017652     0.016918
Rotational constants in MHz :  1021.215023   529.184223   507.198510

                             ****ORCA TERMINATED NORMALLY****
TOTAL RUN TIME: 0 days 0 hours 3 minutes 9 seconds 247 msec
