                         Program Version 4.2.0 -  RELEASE  -
|  1> # 12meoh.boyd.etal.mol4,8,11
|  2> ! MP2 def2-TZVP EnGrad TightSCF
|  3>
|  4> %pal
|  5>     nprocs 6
|  6> end
|  7>
|  8> %maxcore 8000
|  9>
| 10> %scf
| 11>     ConvForced true
| 12> end
| 13>
| 14> *xyz 0 1
| 15> O  -1.358578914   1.232360421   1.189721000
| 16> H  -1.058250183   1.216459361   0.238591307
| 17> C  -0.389763452   1.957872567   1.943072362
| 18> H  -0.747220771   2.012806578   2.975200343
| 19> H  -0.260410585   2.982763209   1.565366540
| 20> H   0.585220638   1.453754179   1.934070793
| 21> O   3.570084754   2.361662577  -0.202416728
| 22> H   3.393280933   1.755669977   0.560634073
| 23> C   4.368082883   1.644741793  -1.143112807
| 24> H   4.552851717   2.311801738  -1.989632421
| 25> H   3.862427494   0.740851663  -1.508095690
| 26> H   5.333949674   1.357289092  -0.706288100
| 27> O   3.252955559   0.588596242   1.858934315
| 28> H   3.621209177  -0.251605199   1.476063364
| 29> C   4.040824528   0.944288422   2.989639460
| 30> H   3.670521436   1.902573549   3.363847391
| 31> H   5.103749934   1.055868619   2.734277559
| 32> H   3.948540682   0.200279590   3.792908518
| 33> *
| 34>
| 35>                          ****END OF INPUT****

CARTESIAN COORDINATES (ANGSTROEM)
---------------------------------
  O     -1.358579    1.232360    1.189721
  H     -1.058250    1.216459    0.238591
  C     -0.389763    1.957873    1.943072
  H     -0.747221    2.012807    2.975200
  H     -0.260411    2.982763    1.565367
  H      0.585221    1.453754    1.934071
  O      3.570085    2.361663   -0.202417
  H      3.393281    1.755670    0.560634
  C      4.368083    1.644742   -1.143113
  H      4.552852    2.311802   -1.989632
  H      3.862427    0.740852   -1.508096
  H      5.333950    1.357289   -0.706288
  O      3.252956    0.588596    1.858934
  H      3.621209   -0.251605    1.476063
  C      4.040825    0.944288    2.989639
  H      3.670521    1.902574    3.363847
  H      5.103750    1.055869    2.734278
  H      3.948541    0.200280    3.792909

 Total Charge           Charge          ....    0
 Multiplicity           Mult            ....    1
 Number of Electrons    NEL             ....   54
 Basis Dimension        Dim             ....  258

ORBITAL ENERGIES
----------------

  NO   OCC          E(Eh)            E(eV)
   0   2.0000     -20.595826      -560.4409
   1   2.0000     -20.546513      -559.0990
   2   2.0000     -20.526409      -558.5520
   3   2.0000     -11.294627      -307.3424
   4   2.0000     -11.262018      -306.4551
   5   2.0000     -11.257912      -306.3434
   6   2.0000      -1.388621       -37.7863
   7   2.0000      -1.333981       -36.2995
   8   2.0000      -1.322642       -35.9909
   9   2.0000      -0.946767       -25.7628
  10   2.0000      -0.908451       -24.7202
  11   2.0000      -0.906500       -24.6671
  12   2.0000      -0.718426       -19.5494
  13   2.0000      -0.684316       -18.6212
  14   2.0000      -0.668468       -18.1899
  15   2.0000      -0.638421       -17.3723
  16   2.0000      -0.619210       -16.8496
  17   2.0000      -0.603569       -16.4239
  18   2.0000      -0.603085       -16.4108
  19   2.0000      -0.578645       -15.7457
  20   2.0000      -0.572054       -15.5664
  21   2.0000      -0.532864       -14.5000
  22   2.0000      -0.497740       -13.5442
  23   2.0000      -0.487994       -13.2790
  24   2.0000      -0.466774       -12.7016
  25   2.0000      -0.436975       -11.8907
  26   2.0000      -0.429501       -11.6873
  27   0.0000       0.106375         2.8946
  28   0.0000       0.146950         3.9987
  29   0.0000       0.152212         4.1419
  30   0.0000       0.170626         4.6430
  31   0.0000       0.185039         5.0352

MULLIKEN ATOMIC CHARGES
-----------------------
   0 O :   -0.505906
   1 H :    0.322208
   2 C :   -0.178688
   3 H :    0.119753
   4 H :    0.113086
   5 H :    0.125122
   6 O :   -0.522447
   7 H :    0.361007
   8 C :   -0.195385
   9 H :    0.129759
  10 H :    0.101660
  11 H :    0.096989
  12 O :   -0.521556
  13 H :    0.341307
  14 C :   -0.192728
  15 H :    0.148127
  16 H :    0.128888
  17 H :    0.128805
Sum of atomic charges:   -0.0000000

LOEWDIN ATOMIC CHARGES
----------------------
   0 O :   -0.115527
   1 H :    0.191940
   2 C :   -0.383087
   3 H :    0.107221
   4 H :    0.097392
   5 H :    0.097215
   6 O :   -0.120149
   7 H :    0.158720
   8 C :   -0.395204
   9 H :    0.108886
  10 H :    0.090684
  11 H :    0.089678
  12 O :   -0.075910
  13 H :    0.197877
  14 C :   -0.374568
  15 H :    0.117141
  16 H :    0.103035
  17 H :    0.104655

  Mayer bond orders larger than 0.100000
B(  0-O ,  1-H ) :   0.8419 B(  0-O ,  2-C ) :   0.9160 B(  2-C ,  3-H ) :   0.9347
B(  2-C ,  4-H ) :   0.9395 B(  2-C ,  5-H ) :   0.9392 B(  6-O ,  7-H ) :   0.7952
B(  6-O ,  8-C ) :   0.9425 B(  8-C ,  9-H ) :   0.9423 B(  8-C , 10-H ) :   0.9393
B(  8-C , 11-H ) :   0.9356 B( 12-O , 13-H ) :   0.8277 B( 12-O , 14-C ) :   0.8710
B( 14-C , 15-H ) :   0.9398 B( 14-C , 16-H ) :   0.9335 B( 14-C , 17-H ) :   0.9349

MP2 TOTAL ENERGY:     -346.531279183 Eh
FINAL SINGLE POINT ENERGY      -346.531279183290

DIPOLE MOMENT
-------------
                                X             Y             Z
Electronic contribution:     -3.33268      -0.35268      -0.80082
Nuclear contribution   :      4.71003      -0.50787       1.16932
                        -----------------------------------------
Total Dipole Moment    :      1.37735      -0.86056       0.36849
                        -----------------------------------------
Magnitude (a.u.)       :      1.66536
Magnitude (Debye)      :      4.23302

Rotational constants in cm-1:     0.078975     0.031471     0.024260
Rotational constants in MHz :  2367.607252   943.487068   727.306367

                             ****ORCA TERMINATED NORMALLY****
TOTAL RUN TIME: 0 days 0 hours 1 minutes 19 seconds 440 msec
