                         Program Version 4.2.0 -  RELEASE  -
|  1> # 12h2o.su.etal.mol1,4,5,6
|  2> ! MP2 def2-TZVP EnGrad TightSCF
|  3>
|  4> %pal
|  5>     nprocs 6
|  6> end
|  7>
|  8> %maxcore 8000
|  9>
| 10> %scf
| 11>     ConvForced true
| 12> end
| 13>
| 14> *xyz 0 1
| 15> O  -1.794470000  -0.923410000   2.768350000
| 16> H  -2.338250000  -1.359750000   3.430940000
| 17> H  -0.879480000  -1.303000000   2.865760000
| 18> O  -0.885520000   1.737840000   0.052730000
| 19> H  -1.032320000   2.090180000  -0.841890000
| 20> H  -1.284090000   0.839590000   0.017130000
| 21> O   0.885520000  -1.737840000   0.052730000
| 22> H   1.284090000  -0.839590000   0.017130000
| 23> H   1.032320000  -2.090180000  -0.841890000
| 24> O   1.737840000   0.885520000  -0.052730000
| 25> H   2.090180000   1.032320000   0.841890000
| 26> H   0.839590000   1.284090000  -0.017130000
| 27> *
| 28>
| 29>                          ****END OF INPUT****

CARTESIAN COORDINATES (ANGSTROEM)
---------------------------------
  O     -1.794470   -0.923410    2.768350
  H     -2.338250   -1.359750    3.430940
  H     -0.879480   -1.303000    2.865760
  O     -0.885520    1.737840    0.052730
  H     -1.032320    2.090180   -0.841890
  H     -1.284090    0.839590    0.017130
  O      0.885520   -1.737840    0.052730
  H      1.284090   -0.839590    0.017130
  H      1.032320   -2.090180   -0.841890
  O      1.737840    0.885520   -0.052730
  H      2.090180    1.032320    0.841890
  H      0.839590    1.284090   -0.017130

 Total Charge           Charge          ....    0
 Multiplicity           Mult            ....    1
 Number of Electrons    NEL             ....   40
 Basis Dimension        Dim             ....  172

ORBITAL ENERGIES
----------------

  NO   OCC          E(Eh)            E(eV)
   0   2.0000     -20.591164      -560.3141
   1   2.0000     -20.558028      -559.4124
   2   2.0000     -20.556387      -559.3677
   3   2.0000     -20.526093      -558.5434
   4   2.0000      -1.372866       -37.3576
   5   2.0000      -1.343123       -36.5482
   6   2.0000      -1.331735       -36.2384
   7   2.0000      -1.306488       -35.5514
   8   2.0000      -0.728750       -19.8303
   9   2.0000      -0.712289       -19.3824
  10   2.0000      -0.699943       -19.0464
  11   2.0000      -0.680925       -18.5289
  12   2.0000      -0.616207       -16.7678
  13   2.0000      -0.587786       -15.9945
  14   2.0000      -0.568824       -15.4785
  15   2.0000      -0.555660       -15.1203
  16   2.0000      -0.525456       -14.2984
  17   2.0000      -0.499873       -13.6022
  18   2.0000      -0.497433       -13.5359
  19   2.0000      -0.474521       -12.9124
  20   0.0000       0.108109         2.9418
  21   0.0000       0.139500         3.7960
  22   0.0000       0.156945         4.2707
  23   0.0000       0.175402         4.7729
  24   0.0000       0.212080         5.7710

MULLIKEN ATOMIC CHARGES
-----------------------
   0 O :   -0.690803
   1 H :    0.337055
   2 H :    0.353788
   3 O :   -0.688507
   4 H :    0.352832
   5 H :    0.375877
   6 O :   -0.722700
   7 H :    0.353001
   8 H :    0.326804
   9 O :   -0.712763
  10 H :    0.347982
  11 H :    0.367433
Sum of atomic charges:    0.0000000

LOEWDIN ATOMIC CHARGES
----------------------
   0 O :   -0.341840
   1 H :    0.157289
   2 H :    0.184591
   3 O :   -0.287955
   4 H :    0.171461
   5 H :    0.186006
   6 O :   -0.367034
   7 H :    0.139866
   8 H :    0.157803
   9 O :   -0.311952
  10 H :    0.166579
  11 H :    0.145186

  Mayer bond orders larger than 0.100000
B(  0-O ,  1-H ) :   0.8539 B(  0-O ,  2-H ) :   0.8367 B(  3-O ,  4-H ) :   0.8399
B(  3-O ,  5-H ) :   0.8184 B(  6-O ,  7-H ) :   0.7886 B(  6-O ,  8-H ) :   0.8591
B(  9-O , 10-H ) :   0.8439 B(  9-O , 11-H ) :   0.7781

MP2 TOTAL ENERGY:     -305.274324052 Eh
FINAL SINGLE POINT ENERGY      -305.274324052188

DIPOLE MOMENT
-------------
                                X             Y             Z
Electronic contribution:     -0.17652       0.35632       0.04090
Nuclear contribution   :     -0.14541      -0.22520      -0.14168
                        -----------------------------------------
Total Dipole Moment    :     -0.32193       0.13111      -0.10079
                        -----------------------------------------
Magnitude (a.u.)       :      0.36192
Magnitude (Debye)      :      0.91993

Rotational constants in cm-1:     0.104592     0.066589     0.045958
Rotational constants in MHz :  3135.604170  1996.275491  1377.786317

                             ****ORCA TERMINATED NORMALLY****
TOTAL RUN TIME: 0 days 0 hours 0 minutes 17 seconds 862 msec
