                         Program Version 4.2.0 -  RELEASE  -
|  1> # 12mecn.remya.etal.2.mol1,6,7
|  2> ! MP2 def2-TZVP EnGrad TightSCF
|  3>
|  4> %pal
|  5>     nprocs 6
|  6> end
|  7>
|  8> %maxcore 8000
|  9>
| 10> %scf
| 11>     ConvForced true
| 12> end
| 13>
| 14> *xyz 0 1
| 15> C  -4.697980000  -0.249690000   1.746215000
| 16> H  -4.927570000   0.755530000   2.111799000
| 17> H  -3.709180000  -0.561560000   2.093253000
| 18> H  -5.432280000  -0.961520000   2.128066000
| 19> C  -4.714100000  -0.247110000   0.301670000
| 20> N  -4.729750000  -0.234960000  -0.865260000
| 21> C   5.300864000  -2.920090000   1.401103000
| 22> H   5.986071000  -2.139770000   1.737487000
| 23> H   5.636642000  -3.888750000   1.778233000
| 24> H   4.307359000  -2.697240000   1.799307000
| 25> C   5.234791000  -2.933140000  -0.043290000
| 26> N   5.170868000  -2.941760000  -1.207750000
| 27> C   1.502241000   0.651296000   1.710523000
| 28> H   1.309219000   1.637164000   2.143202000
| 29> H   2.493408000   0.297996000   2.009069000
| 30> H   0.746597000  -0.059850000   2.055508000
| 31> C   1.447974000   0.738517000   0.269805000
| 32> N   1.405612000   0.808047000  -0.894380000
| 33> *
| 34>
| 35>                          ****END OF INPUT****

CARTESIAN COORDINATES (ANGSTROEM)
---------------------------------
  C     -4.697980   -0.249690    1.746215
  H     -4.927570    0.755530    2.111799
  H     -3.709180   -0.561560    2.093253
  H     -5.432280   -0.961520    2.128066
  C     -4.714100   -0.247110    0.301670
  N     -4.729750   -0.234960   -0.865260
  C      5.300864   -2.920090    1.401103
  H      5.986071   -2.139770    1.737487
  H      5.636642   -3.888750    1.778233
  H      4.307359   -2.697240    1.799307
  C      5.234791   -2.933140   -0.043290
  N      5.170868   -2.941760   -1.207750
  C      1.502241    0.651296    1.710523
  H      1.309219    1.637164    2.143202
  H      2.493408    0.297996    2.009069
  H      0.746597   -0.059850    2.055508
  C      1.447974    0.738517    0.269805
  N      1.405612    0.808047   -0.894380

 Total Charge           Charge          ....    0
 Multiplicity           Mult            ....    1
 Number of Electrons    NEL             ....   66
 Basis Dimension        Dim             ....  333

ORBITAL ENERGIES
----------------

  NO   OCC          E(Eh)            E(eV)
   0   2.0000     -15.574085      -423.7924
   1   2.0000     -15.573944      -423.7886
   2   2.0000     -15.573455      -423.7753
   3   2.0000     -11.291157      -307.2480
   4   2.0000     -11.289034      -307.1902
   5   2.0000     -11.287588      -307.1509
   6   2.0000     -11.279894      -306.9415
   7   2.0000     -11.279712      -306.9366
   8   2.0000     -11.279529      -306.9316
   9   2.0000      -1.214923       -33.0597
  10   2.0000      -1.214487       -33.0479
  11   2.0000      -1.214170       -33.0392
  12   2.0000      -1.048923       -28.5426
  13   2.0000      -1.047117       -28.4935
  14   2.0000      -1.046229       -28.4693
  15   2.0000      -0.704223       -19.1629
  16   2.0000      -0.703134       -19.1333
  17   2.0000      -0.701972       -19.1016
  18   2.0000      -0.639112       -17.3911
  19   2.0000      -0.637698       -17.3526
  20   2.0000      -0.636567       -17.3219
  21   2.0000      -0.636321       -17.3152
  22   2.0000      -0.634008       -17.2522
  23   2.0000      -0.632569       -17.2131
  24   2.0000      -0.555681       -15.1208
  25   2.0000      -0.555287       -15.1101
  26   2.0000      -0.555067       -15.1041
  27   2.0000      -0.458661       -12.4808
  28   2.0000      -0.458077       -12.4649
  29   2.0000      -0.457692       -12.4544
  30   2.0000      -0.457625       -12.4526
  31   2.0000      -0.457234       -12.4420
  32   2.0000      -0.457051       -12.4370
  33   0.0000       0.087616         2.3842
  34   0.0000       0.109471         2.9788
  35   0.0000       0.132846         3.6149
  36   0.0000       0.156299         4.2531
  37   0.0000       0.164957         4.4887

MULLIKEN ATOMIC CHARGES
-----------------------
   0 C :   -0.278744
   1 H :    0.172561
   2 H :    0.164704
   3 H :    0.172924
   4 C :   -0.145559
   5 N :   -0.085883
   6 C :   -0.285019
   7 H :    0.172660
   8 H :    0.175487
   9 H :    0.162561
  10 C :   -0.143799
  11 N :   -0.081922
  12 C :   -0.280652
  13 H :    0.174640
  14 H :    0.163269
  15 H :    0.167661
  16 C :   -0.145048
  17 N :   -0.079839
Sum of atomic charges:   -0.0000000

LOEWDIN ATOMIC CHARGES
----------------------
   0 C :   -0.284971
   1 H :    0.152671
   2 H :    0.150456
   3 H :    0.151589
   4 C :   -0.220737
   5 N :    0.050993
   6 C :   -0.285855
   7 H :    0.150955
   8 H :    0.151727
   9 H :    0.149316
  10 C :   -0.220167
  11 N :    0.054014
  12 C :   -0.286171
  13 H :    0.152565
  14 H :    0.149551
  15 H :    0.150720
  16 C :   -0.222837
  17 N :    0.056178

  Mayer bond orders larger than 0.100000
B(  0-C ,  1-H ) :   0.9165 B(  0-C ,  2-H ) :   0.9186 B(  0-C ,  3-H ) :   0.9172
B(  0-C ,  4-C ) :   0.9016 B(  4-C ,  5-N ) :   2.8324 B(  6-C ,  7-H ) :   0.9180
B(  6-C ,  8-H ) :   0.9158 B(  6-C ,  9-H ) :   0.9199 B(  6-C , 10-C ) :   0.9017
B( 10-C , 11-N ) :   2.8300 B( 12-C , 13-H ) :   0.9168 B( 12-C , 14-H ) :   0.9195
B( 12-C , 15-H ) :   0.9192 B( 12-C , 16-C ) :   0.8991 B( 16-C , 17-N ) :   2.8272

MP2 TOTAL ENERGY:     -397.446331287 Eh
FINAL SINGLE POINT ENERGY      -397.446331286546

DIPOLE MOMENT
-------------
                                X             Y             Z
Electronic contribution:     -0.29784       0.17813      -9.47904
Nuclear contribution   :      0.44224      -0.26099      13.91061
                        -----------------------------------------
Total Dipole Moment    :      0.14440      -0.08286       4.43157
                        -----------------------------------------
Magnitude (a.u.)       :      4.43470
Magnitude (Debye)      :     11.27211

Rotational constants in cm-1:     0.049391     0.007165     0.007078
Rotational constants in MHz :  1480.695575   214.802665   212.185066

                             ****ORCA TERMINATED NORMALLY****
TOTAL RUN TIME: 0 days 0 hours 2 minutes 4 seconds 744 msec
