                         Program Version 4.2.0 -  RELEASE  -
|  1> # 12h2o.su.etal.mol0,1,6,7,8,10,11
|  2> ! MP2 def2-TZVP EnGrad TightSCF
|  3>
|  4> %pal
|  5>     nprocs 6
|  6> end
|  7>
|  8> %maxcore 8000
|  9>
| 10> %scf
| 11>     ConvForced true
| 12> end
| 13>
| 14> *xyz 0 1
| 15> O   1.794470000   0.923410000   2.768350000
| 16> H   2.338250000   1.359750000   3.430940000
| 17> H   0.879480000   1.303000000   2.865760000
| 18> O  -1.794470000  -0.923410000   2.768350000
| 19> H  -2.338250000  -1.359750000   3.430940000
| 20> H  -0.879480000  -1.303000000   2.865760000
| 21> O   1.737840000   0.885520000  -0.052730000
| 22> H   2.090180000   1.032320000   0.841890000
| 23> H   0.839590000   1.284090000  -0.017130000
| 24> O  -1.737840000  -0.885520000  -0.052730000
| 25> H  -2.090180000  -1.032320000   0.841890000
| 26> H  -0.839590000  -1.284090000  -0.017130000
| 27> O   1.752130000   0.741530000  -2.896280000
| 28> H   2.036450000   0.920500000  -1.984040000
| 29> H   0.921210000   1.242140000  -2.984230000
| 30> O  -0.923410000   1.794470000  -2.768350000
| 31> H  -1.359750000   2.338250000  -3.430940000
| 32> H  -1.303000000   0.879480000  -2.865760000
| 33> O  -0.741530000   1.752130000   2.896280000
| 34> H  -0.920500000   2.036450000   1.984040000
| 35> H  -1.242140000   0.921210000   2.984230000
| 36> *
| 37>
| 38>                          ****END OF INPUT****

CARTESIAN COORDINATES (ANGSTROEM)
---------------------------------
  O      1.794470    0.923410    2.768350
  H      2.338250    1.359750    3.430940
  H      0.879480    1.303000    2.865760
  O     -1.794470   -0.923410    2.768350
  H     -2.338250   -1.359750    3.430940
  H     -0.879480   -1.303000    2.865760
  O      1.737840    0.885520   -0.052730
  H      2.090180    1.032320    0.841890
  H      0.839590    1.284090   -0.017130
  O     -1.737840   -0.885520   -0.052730
  H     -2.090180   -1.032320    0.841890
  H     -0.839590   -1.284090   -0.017130
  O      1.752130    0.741530   -2.896280
  H      2.036450    0.920500   -1.984040
  H      0.921210    1.242140   -2.984230
  O     -0.923410    1.794470   -2.768350
  H     -1.359750    2.338250   -3.430940
  H     -1.303000    0.879480   -2.865760
  O     -0.741530    1.752130    2.896280
  H     -0.920500    2.036450    1.984040
  H     -1.242140    0.921210    2.984230

 Total Charge           Charge          ....    0
 Multiplicity           Mult            ....    1
 Number of Electrons    NEL             ....   70
 Basis Dimension        Dim             ....  301

ORBITAL ENERGIES
----------------

  NO   OCC          E(Eh)            E(eV)
   0   2.0000     -20.630116      -561.3740
   1   2.0000     -20.589879      -560.2791
   2   2.0000     -20.573294      -559.8278
   3   2.0000     -20.552056      -559.2499
   4   2.0000     -20.550939      -559.2195
   5   2.0000     -20.541156      -558.9533
   6   2.0000     -20.486455      -557.4648
   7   2.0000      -1.410688       -38.3868
   8   2.0000      -1.378848       -37.5204
   9   2.0000      -1.350979       -36.7620
  10   2.0000      -1.337365       -36.3916
  11   2.0000      -1.330023       -36.1918
  12   2.0000      -1.320866       -35.9426
  13   2.0000      -1.271812       -34.6078
  14   2.0000      -0.776332       -21.1251
  15   2.0000      -0.740497       -20.1500
  16   2.0000      -0.720280       -19.5998
  17   2.0000      -0.717853       -19.5338
  18   2.0000      -0.702061       -19.1041
  19   2.0000      -0.690628       -18.7929
  20   2.0000      -0.650006       -17.6875
  21   2.0000      -0.648411       -17.6442
  22   2.0000      -0.621454       -16.9106
  23   2.0000      -0.592968       -16.1355
  24   2.0000      -0.589403       -16.0385
  25   2.0000      -0.578041       -15.7293
  26   2.0000      -0.562785       -15.3142
  27   2.0000      -0.553676       -15.0663
  28   2.0000      -0.527102       -14.3432
  29   2.0000      -0.524022       -14.2594
  30   2.0000      -0.502738       -13.6802
  31   2.0000      -0.497744       -13.5443
  32   2.0000      -0.496420       -13.5083
  33   2.0000      -0.483863       -13.1666
  34   2.0000      -0.436687       -11.8829
  35   0.0000       0.080032         2.1778
  36   0.0000       0.117643         3.2012
  37   0.0000       0.134787         3.6678
  38   0.0000       0.152004         4.1362
  39   0.0000       0.160432         4.3656

MULLIKEN ATOMIC CHARGES
-----------------------
   0 O :   -0.742377
   1 H :    0.339678
   2 H :    0.367450
   3 O :   -0.722888
   4 H :    0.369530
   5 H :    0.377422
   6 O :   -0.711240
   7 H :    0.373733
   8 H :    0.324913
   9 O :   -0.702505
  10 H :    0.360823
  11 H :    0.338060
  12 O :   -0.731299
  13 H :    0.366662
  14 H :    0.338347
  15 O :   -0.699063
  16 H :    0.347436
  17 H :    0.369037
  18 O :   -0.698255
  19 H :    0.357247
  20 H :    0.377290
Sum of atomic charges:   -0.0000000

LOEWDIN ATOMIC CHARGES
----------------------
   0 O :   -0.343831
   1 H :    0.154929
   2 H :    0.141713
   3 O :   -0.287836
   4 H :    0.170580
   5 H :    0.194622
   6 O :   -0.326420
   7 H :    0.151857
   8 H :    0.161012
   9 O :   -0.346058
  10 H :    0.146012
  11 H :    0.169042
  12 O :   -0.359990
  13 H :    0.149092
  14 H :    0.139033
  15 O :   -0.313166
  16 H :    0.160957
  17 H :    0.190778
  18 O :   -0.277651
  19 H :    0.171201
  20 H :    0.154122

  Mayer bond orders larger than 0.100000
B(  0-O ,  1-H ) :   0.8491 B(  0-O ,  2-H ) :   0.7604 B(  3-O ,  4-H ) :   0.8286
B(  3-O ,  5-H ) :   0.8143 B(  6-O ,  7-H ) :   0.8020 B(  6-O ,  8-H ) :   0.8481
B(  9-O , 10-H ) :   0.8269 B(  9-O , 11-H ) :   0.8459 B( 12-O , 13-H ) :   0.8233
B( 12-O , 14-H ) :   0.8341 B( 15-O , 16-H ) :   0.8445 B( 15-O , 17-H ) :   0.8234
B( 18-O , 19-H ) :   0.8366 B( 18-O , 20-H ) :   0.8011

MP2 TOTAL ENERGY:     -534.240706347 Eh
FINAL SINGLE POINT ENERGY      -534.240706346543

DIPOLE MOMENT
-------------
                                X             Y             Z
Electronic contribution:     -0.28100      -0.05627       0.20326
Nuclear contribution   :     -1.69977      -0.19829       2.18115
                        -----------------------------------------
Total Dipole Moment    :     -1.98078      -0.25456       2.38442
                        -----------------------------------------
Magnitude (a.u.)       :      3.11026
Magnitude (Debye)      :      7.90565

Rotational constants in cm-1:     0.040328     0.020230     0.016076
Rotational constants in MHz :  1209.017667   606.490322   481.933389

                             ****ORCA TERMINATED NORMALLY****
TOTAL RUN TIME: 0 days 0 hours 1 minutes 44 seconds 139 msec
