                         Program Version 4.2.0 -  RELEASE  -
|  1> # 12h2o.su.etal.mol0,1,5,6,11
|  2> ! MP2 def2-TZVP EnGrad TightSCF
|  3>
|  4> %pal
|  5>     nprocs 6
|  6> end
|  7>
|  8> %maxcore 8000
|  9>
| 10> %scf
| 11>     ConvForced true
| 12> end
| 13>
| 14> *xyz 0 1
| 15> O   1.794470000   0.923410000   2.768350000
| 16> H   2.338250000   1.359750000   3.430940000
| 17> H   0.879480000   1.303000000   2.865760000
| 18> O  -1.794470000  -0.923410000   2.768350000
| 19> H  -2.338250000  -1.359750000   3.430940000
| 20> H  -0.879480000  -1.303000000   2.865760000
| 21> O   0.885520000  -1.737840000   0.052730000
| 22> H   1.284090000  -0.839590000   0.017130000
| 23> H   1.032320000  -2.090180000  -0.841890000
| 24> O   1.737840000   0.885520000  -0.052730000
| 25> H   2.090180000   1.032320000   0.841890000
| 26> H   0.839590000   1.284090000  -0.017130000
| 27> O  -0.741530000   1.752130000   2.896280000
| 28> H  -0.920500000   2.036450000   1.984040000
| 29> H  -1.242140000   0.921210000   2.984230000
| 30> *
| 31>
| 32>                          ****END OF INPUT****

CARTESIAN COORDINATES (ANGSTROEM)
---------------------------------
  O      1.794470    0.923410    2.768350
  H      2.338250    1.359750    3.430940
  H      0.879480    1.303000    2.865760
  O     -1.794470   -0.923410    2.768350
  H     -2.338250   -1.359750    3.430940
  H     -0.879480   -1.303000    2.865760
  O      0.885520   -1.737840    0.052730
  H      1.284090   -0.839590    0.017130
  H      1.032320   -2.090180   -0.841890
  O      1.737840    0.885520   -0.052730
  H      2.090180    1.032320    0.841890
  H      0.839590    1.284090   -0.017130
  O     -0.741530    1.752130    2.896280
  H     -0.920500    2.036450    1.984040
  H     -1.242140    0.921210    2.984230

 Total Charge           Charge          ....    0
 Multiplicity           Mult            ....    1
 Number of Electrons    NEL             ....   50
 Basis Dimension        Dim             ....  215

ORBITAL ENERGIES
----------------

  NO   OCC          E(Eh)            E(eV)
   0   2.0000     -20.588977      -560.2546
   1   2.0000     -20.583711      -560.1113
   2   2.0000     -20.559878      -559.4627
   3   2.0000     -20.549010      -559.1670
   4   2.0000     -20.516059      -558.2703
   5   2.0000      -1.376426       -37.4545
   6   2.0000      -1.363280       -37.0967
   7   2.0000      -1.346369       -36.6366
   8   2.0000      -1.329694       -36.1828
   9   2.0000      -1.296769       -35.2869
  10   2.0000      -0.740340       -20.1457
  11   2.0000      -0.726315       -19.7640
  12   2.0000      -0.716816       -19.5056
  13   2.0000      -0.705824       -19.2065
  14   2.0000      -0.671304       -18.2671
  15   2.0000      -0.626962       -17.0605
  16   2.0000      -0.601758       -16.3747
  17   2.0000      -0.589354       -16.0372
  18   2.0000      -0.569198       -15.4887
  19   2.0000      -0.546134       -14.8611
  20   2.0000      -0.530911       -14.4468
  21   2.0000      -0.520349       -14.1594
  22   2.0000      -0.498450       -13.5635
  23   2.0000      -0.494875       -13.4662
  24   2.0000      -0.464536       -12.6407
  25   0.0000       0.096928         2.6375
  26   0.0000       0.130051         3.5389
  27   0.0000       0.156070         4.2469
  28   0.0000       0.169548         4.6136
  29   0.0000       0.206685         5.6242

MULLIKEN ATOMIC CHARGES
-----------------------
   0 O :   -0.738880
   1 H :    0.338964
   2 H :    0.367353
   3 O :   -0.704337
   4 H :    0.352626
   5 H :    0.379055
   6 O :   -0.724196
   7 H :    0.361746
   8 H :    0.323727
   9 O :   -0.692491
  10 H :    0.382258
  11 H :    0.325165
  12 O :   -0.697250
  13 H :    0.345253
  14 H :    0.381007
Sum of atomic charges:   -0.0000000

LOEWDIN ATOMIC CHARGES
----------------------
   0 O :   -0.340831
   1 H :    0.154745
   2 H :    0.142304
   3 O :   -0.310360
   4 H :    0.164313
   5 H :    0.195181
   6 O :   -0.367544
   7 H :    0.142897
   8 H :    0.156696
   9 O :   -0.298563
  10 H :    0.154130
  11 H :    0.163740
  12 O :   -0.279456
  13 H :    0.166339
  14 H :    0.156410

  Mayer bond orders larger than 0.100000
B(  0-O ,  1-H ) :   0.8496 B(  0-O ,  2-H ) :   0.7584 B(  2-H , 12-O ) :   0.1006
B(  3-O ,  4-H ) :   0.8412 B(  3-O ,  5-H ) :   0.8152 B(  6-O ,  7-H ) :   0.7903
B(  6-O ,  8-H ) :   0.8605 B(  9-O , 10-H ) :   0.7920 B(  9-O , 11-H ) :   0.8531
B( 12-O , 13-H ) :   0.8449 B( 12-O , 14-H ) :   0.7869

MP2 TOTAL ENERGY:     -381.604242165 Eh
FINAL SINGLE POINT ENERGY      -381.604242165284

DIPOLE MOMENT
-------------
                                X             Y             Z
Electronic contribution:     -0.19050       0.01987       0.17870
Nuclear contribution   :     -0.56611       0.45337       0.57908
                        -----------------------------------------
Total Dipole Moment    :     -0.75661       0.47324       0.75778
                        -----------------------------------------
Magnitude (a.u.)       :      1.17074
Magnitude (Debye)      :      2.97579

Rotational constants in cm-1:     0.072007     0.052186     0.035946
Rotational constants in MHz :  2158.702851  1564.492850  1077.629159

                             ****ORCA TERMINATED NORMALLY****
TOTAL RUN TIME: 0 days 0 hours 0 minutes 47 seconds 976 msec
