                         Program Version 4.2.0 -  RELEASE  -
|  1> # 12mecn.remya.etal.2.mol1,4,8
|  2> ! MP2 def2-TZVP EnGrad TightSCF
|  3>
|  4> %pal
|  5>     nprocs 6
|  6> end
|  7>
|  8> %maxcore 8000
|  9>
| 10> %scf
| 11>     ConvForced true
| 12> end
| 13>
| 14> *xyz 0 1
| 15> C  -4.697980000  -0.249690000   1.746215000
| 16> H  -4.927570000   0.755530000   2.111799000
| 17> H  -3.709180000  -0.561560000   2.093253000
| 18> H  -5.432280000  -0.961520000   2.128066000
| 19> C  -4.714100000  -0.247110000   0.301670000
| 20> N  -4.729750000  -0.234960000  -0.865260000
| 21> C  -1.509690000  -0.693960000  -1.610140000
| 22> H  -1.327010000  -1.692700000  -2.017370000
| 23> H  -0.742170000  -0.000650000  -1.964400000
| 24> H  -2.491920000  -0.334310000  -1.929350000
| 25> C  -1.473570000  -0.748120000  -0.167200000
| 26> N  -1.447490000  -0.793720000   0.998938000
| 27> C   1.912641000  -2.468050000  -1.750510000
| 28> H   2.876947000  -2.793500000  -2.151200000
| 29> H   1.688016000  -1.463720000  -2.122170000
| 30> H   1.123460000  -3.154780000  -2.069590000
| 31> C   1.977850000  -2.444240000  -0.306900000
| 32> N   2.036566000  -2.426130000   0.858249000
| 33> *
| 34>
| 35>                          ****END OF INPUT****

CARTESIAN COORDINATES (ANGSTROEM)
---------------------------------
  C     -4.697980   -0.249690    1.746215
  H     -4.927570    0.755530    2.111799
  H     -3.709180   -0.561560    2.093253
  H     -5.432280   -0.961520    2.128066
  C     -4.714100   -0.247110    0.301670
  N     -4.729750   -0.234960   -0.865260
  C     -1.509690   -0.693960   -1.610140
  H     -1.327010   -1.692700   -2.017370
  H     -0.742170   -0.000650   -1.964400
  H     -2.491920   -0.334310   -1.929350
  C     -1.473570   -0.748120   -0.167200
  N     -1.447490   -0.793720    0.998938
  C      1.912641   -2.468050   -1.750510
  H      2.876947   -2.793500   -2.151200
  H      1.688016   -1.463720   -2.122170
  H      1.123460   -3.154780   -2.069590
  C      1.977850   -2.444240   -0.306900
  N      2.036566   -2.426130    0.858249

 Total Charge           Charge          ....    0
 Multiplicity           Mult            ....    1
 Number of Electrons    NEL             ....   66
 Basis Dimension        Dim             ....  333

ORBITAL ENERGIES
----------------

  NO   OCC          E(Eh)            E(eV)
   0   2.0000     -15.571913      -423.7333
   1   2.0000     -15.571834      -423.7311
   2   2.0000     -15.570545      -423.6961
   3   2.0000     -11.288807      -307.1841
   4   2.0000     -11.284134      -307.0569
   5   2.0000     -11.280441      -306.9564
   6   2.0000     -11.277169      -306.8674
   7   2.0000     -11.276996      -306.8627
   8   2.0000     -11.271446      -306.7116
   9   2.0000      -1.217862       -33.1397
  10   2.0000      -1.213108       -33.0103
  11   2.0000      -1.212041       -32.9813
  12   2.0000      -1.046634       -28.4804
  13   2.0000      -1.039466       -28.2853
  14   2.0000      -1.034967       -28.1629
  15   2.0000      -0.701967       -19.1015
  16   2.0000      -0.696147       -18.9431
  17   2.0000      -0.691576       -18.8187
  18   2.0000      -0.640243       -17.4219
  19   2.0000      -0.636352       -17.3160
  20   2.0000      -0.629217       -17.1219
  21   2.0000      -0.627476       -17.0745
  22   2.0000      -0.623760       -16.9734
  23   2.0000      -0.614498       -16.7213
  24   2.0000      -0.559317       -15.2198
  25   2.0000      -0.555002       -15.1024
  26   2.0000      -0.552689       -15.0394
  27   2.0000      -0.462390       -12.5823
  28   2.0000      -0.460349       -12.5267
  29   2.0000      -0.458226       -12.4690
  30   2.0000      -0.456803       -12.4303
  31   2.0000      -0.454663       -12.3720
  32   2.0000      -0.448540       -12.2054
  33   0.0000       0.101896         2.7727
  34   0.0000       0.134753         3.6668
  35   0.0000       0.147004         4.0002
  36   0.0000       0.154561         4.2058
  37   0.0000       0.165042         4.4910

MULLIKEN ATOMIC CHARGES
-----------------------
   0 C :   -0.285494
   1 H :    0.166747
   2 H :    0.207984
   3 H :    0.166877
   4 C :   -0.100047
   5 N :   -0.155048
   6 C :   -0.297268
   7 H :    0.157835
   8 H :    0.163277
   9 H :    0.216448
  10 C :   -0.105934
  11 N :   -0.135416
  12 C :   -0.286271
  13 H :    0.182021
  14 H :    0.164792
  15 H :    0.169518
  16 C :   -0.152726
  17 N :   -0.077295
Sum of atomic charges:    0.0000000

LOEWDIN ATOMIC CHARGES
----------------------
   0 C :   -0.281073
   1 H :    0.153124
   2 H :    0.158185
   3 H :    0.150854
   4 C :   -0.206893
   5 N :    0.027586
   6 C :   -0.286400
   7 H :    0.148661
   8 H :    0.148556
   9 H :    0.158248
  10 C :   -0.213282
  11 N :    0.042944
  12 C :   -0.287621
  13 H :    0.153549
  14 H :    0.149006
  15 H :    0.150530
  16 C :   -0.223649
  17 N :    0.057676

  Mayer bond orders larger than 0.100000
B(  0-C ,  1-H ) :   0.9138 B(  0-C ,  2-H ) :   0.9012 B(  0-C ,  3-H ) :   0.9163
B(  0-C ,  4-C ) :   0.9008 B(  4-C ,  5-N ) :   2.7694 B(  6-C ,  7-H ) :   0.9182
B(  6-C ,  8-H ) :   0.9239 B(  6-C ,  9-H ) :   0.8940 B(  6-C , 10-C ) :   0.8937
B( 10-C , 11-N ) :   2.7596 B( 12-C , 13-H ) :   0.9112 B( 12-C , 14-H ) :   0.9192
B( 12-C , 15-H ) :   0.9221 B( 12-C , 16-C ) :   0.8971 B( 16-C , 17-N ) :   2.8296

MP2 TOTAL ENERGY:     -397.458003410 Eh
FINAL SINGLE POINT ENERGY      -397.458003410149

DIPOLE MOMENT
-------------
                                X             Y             Z
Electronic contribution:      0.17039      -0.06327       3.26503
Nuclear contribution   :     -0.26717       0.08839      -4.61959
                        -----------------------------------------
Total Dipole Moment    :     -0.09678       0.02512      -1.35456
                        -----------------------------------------
Magnitude (a.u.)       :      1.35825
Magnitude (Debye)      :      3.45239

Rotational constants in cm-1:     0.097154     0.015970     0.014004
Rotational constants in MHz :  2912.606349   478.769682   419.830750

                             ****ORCA TERMINATED NORMALLY****
TOTAL RUN TIME: 0 days 0 hours 3 minutes 41 seconds 44 msec
