                         Program Version 4.2.0 -  RELEASE  -
|  1> # 12meoh.boyd.etal.mol2,9
|  2> ! MP2 def2-TZVP EnGrad TightSCF
|  3>
|  4> %pal
|  5>     nprocs 6
|  6> end
|  7>
|  8> %maxcore 8000
|  9>
| 10> %scf
| 11>     ConvForced true
| 12> end
| 13>
| 14> *xyz 0 1
| 15> O  -3.839777402   2.233595098   0.660436763
| 16> H  -2.958345897   1.907036203   0.973588449
| 17> C  -3.600368059   3.168790682  -0.390480452
| 18> H  -4.551709193   3.344148967  -0.901254863
| 19> H  -2.868237594   2.789240199  -1.113617525
| 20> H  -3.243594915   4.128998607   0.009549480
| 21> O   1.390610024   3.194080770  -1.536658882
| 22> H   2.162932299   2.881562730  -0.993525056
| 23> C   1.202977189   4.580367182  -1.302880219
| 24> H   0.374773115   4.915764831  -1.934164643
| 25> H   2.098649340   5.157710875  -1.570472348
| 26> H   0.950320401   4.800436015  -0.254328827
| 27> *
| 28>
| 29>                          ****END OF INPUT****

CARTESIAN COORDINATES (ANGSTROEM)
---------------------------------
  O     -3.839777    2.233595    0.660437
  H     -2.958346    1.907036    0.973588
  C     -3.600368    3.168791   -0.390480
  H     -4.551709    3.344149   -0.901255
  H     -2.868238    2.789240   -1.113618
  H     -3.243595    4.128999    0.009549
  O      1.390610    3.194081   -1.536659
  H      2.162932    2.881563   -0.993525
  C      1.202977    4.580367   -1.302880
  H      0.374773    4.915765   -1.934165
  H      2.098649    5.157711   -1.570472
  H      0.950320    4.800436   -0.254329

 Total Charge           Charge          ....    0
 Multiplicity           Mult            ....    1
 Number of Electrons    NEL             ....   36
 Basis Dimension        Dim             ....  172

ORBITAL ENERGIES
----------------

  NO   OCC          E(Eh)            E(eV)
   0   2.0000     -20.563362      -559.5575
   1   2.0000     -20.553305      -559.2839
   2   2.0000     -11.276901      -306.8601
   3   2.0000     -11.267900      -306.6151
   4   2.0000      -1.354020       -36.8447
   5   2.0000      -1.342741       -36.5378
   6   2.0000      -0.924977       -25.1699
   7   2.0000      -0.915857       -24.9217
   8   2.0000      -0.688502       -18.7351
   9   2.0000      -0.677814       -18.4443
  10   2.0000      -0.622671       -16.9437
  11   2.0000      -0.612978       -16.6800
  12   2.0000      -0.597988       -16.2721
  13   2.0000      -0.586318       -15.9545
  14   2.0000      -0.504920       -13.7396
  15   2.0000      -0.497796       -13.5457
  16   2.0000      -0.454298       -12.3621
  17   2.0000      -0.445562       -12.1243
  18   0.0000       0.119807         3.2601
  19   0.0000       0.144235         3.9248
  20   0.0000       0.161208         4.3867
  21   0.0000       0.185747         5.0544
  22   0.0000       0.209197         5.6925

MULLIKEN ATOMIC CHARGES
-----------------------
   0 O :   -0.498007
   1 H :    0.321820
   2 C :   -0.177462
   3 H :    0.127449
   4 H :    0.120803
   5 H :    0.105098
   6 O :   -0.499382
   7 H :    0.323128
   8 C :   -0.173531
   9 H :    0.129561
  10 H :    0.112556
  11 H :    0.107966
Sum of atomic charges:   -0.0000000

LOEWDIN ATOMIC CHARGES
----------------------
   0 O :   -0.111587
   1 H :    0.188362
   2 C :   -0.378908
   3 H :    0.109127
   4 H :    0.098413
   5 H :    0.094519
   6 O :   -0.106450
   7 H :    0.191156
   8 C :   -0.386363
   9 H :    0.110392
  10 H :    0.096354
  11 H :    0.094984

  Mayer bond orders larger than 0.100000
B(  0-O ,  1-H ) :   0.8437 B(  0-O ,  2-C ) :   0.9264 B(  2-C ,  3-H ) :   0.9375
B(  2-C ,  4-H ) :   0.9408 B(  2-C ,  5-H ) :   0.9377 B(  6-O ,  7-H ) :   0.8410
B(  6-O ,  8-C ) :   0.9238 B(  8-C ,  9-H ) :   0.9375 B(  8-C , 10-H ) :   0.9403
B(  8-C , 11-H ) :   0.9373

MP2 TOTAL ENERGY:     -231.013894439 Eh
FINAL SINGLE POINT ENERGY      -231.013894438670

DIPOLE MOMENT
-------------
                                X             Y             Z
Electronic contribution:     -0.30062      -2.91659       0.88237
Nuclear contribution   :      1.37067       3.45430      -0.71427
                        -----------------------------------------
Total Dipole Moment    :      1.07005       0.53770       0.16810
                        -----------------------------------------
Magnitude (a.u.)       :      1.20929
Magnitude (Debye)      :      3.07377

Rotational constants in cm-1:     0.445044     0.034960     0.033691
Rotational constants in MHz : 13342.088091  1048.077230  1010.021643

                             ****ORCA TERMINATED NORMALLY****
TOTAL RUN TIME: 0 days 0 hours 0 minutes 19 seconds 138 msec
