                         Program Version 4.2.0 -  RELEASE  -
|  1> # 12meoh.boyd.etal.mol6,10,11
|  2> ! MP2 def2-TZVP EnGrad TightSCF
|  3>
|  4> %pal
|  5>     nprocs 6
|  6> end
|  7>
|  8> %maxcore 8000
|  9>
| 10> %scf
| 11>     ConvForced true
| 12> end
| 13>
| 14> *xyz 0 1
| 15> O   2.622209273  -1.703002590  -1.445859723
| 16> H   1.828551432  -1.986513781  -0.909754968
| 17> C   2.781117675  -2.615822239  -2.525472890
| 18> H   3.691063626  -2.339003544  -3.065143454
| 19> H   1.934727323  -2.559520367  -3.223226661
| 20> H   2.879948338  -3.653846211  -2.177750170
| 21> O  -5.201143618   0.064582726  -0.172223772
| 22> H  -4.686891530   0.869258890   0.107806143
| 23> C  -6.513192168   0.171391798   0.359883449
| 24> H  -7.049381312  -0.749234190   0.111361174
| 25> H  -7.057741163   1.017801101  -0.081819420
| 26> H  -6.514770575   0.292264928   1.453058834
| 27> O   3.252955559   0.588596242   1.858934315
| 28> H   3.621209177  -0.251605199   1.476063364
| 29> C   4.040824528   0.944288422   2.989639460
| 30> H   3.670521436   1.902573549   3.363847391
| 31> H   5.103749934   1.055868619   2.734277559
| 32> H   3.948540682   0.200279590   3.792908518
| 33> *
| 34>
| 35>                          ****END OF INPUT****

CARTESIAN COORDINATES (ANGSTROEM)
---------------------------------
  O      2.622209   -1.703003   -1.445860
  H      1.828551   -1.986514   -0.909755
  C      2.781118   -2.615822   -2.525473
  H      3.691064   -2.339004   -3.065143
  H      1.934727   -2.559520   -3.223227
  H      2.879948   -3.653846   -2.177750
  O     -5.201144    0.064583   -0.172224
  H     -4.686892    0.869259    0.107806
  C     -6.513192    0.171392    0.359883
  H     -7.049381   -0.749234    0.111361
  H     -7.057741    1.017801   -0.081819
  H     -6.514771    0.292265    1.453059
  O      3.252956    0.588596    1.858934
  H      3.621209   -0.251605    1.476063
  C      4.040825    0.944288    2.989639
  H      3.670521    1.902574    3.363847
  H      5.103750    1.055869    2.734278
  H      3.948541    0.200280    3.792909

 Total Charge           Charge          ....    0
 Multiplicity           Mult            ....    1
 Number of Electrons    NEL             ....   54
 Basis Dimension        Dim             ....  258

ORBITAL ENERGIES
----------------

  NO   OCC          E(Eh)            E(eV)
   0   2.0000     -20.558372      -559.4217
   1   2.0000     -20.556826      -559.3797
   2   2.0000     -20.549262      -559.1738
   3   2.0000     -11.271535      -306.7140
   4   2.0000     -11.270779      -306.6935
   5   2.0000     -11.266031      -306.5643
   6   2.0000      -1.346928       -36.6518
   7   2.0000      -1.346323       -36.6353
   8   2.0000      -1.338785       -36.4302
   9   2.0000      -0.919340       -25.0165
  10   2.0000      -0.918566       -24.9955
  11   2.0000      -0.913631       -24.8612
  12   2.0000      -0.681575       -18.5466
  13   2.0000      -0.681104       -18.5338
  14   2.0000      -0.674388       -18.3510
  15   2.0000      -0.617079       -16.7916
  16   2.0000      -0.616151       -16.7663
  17   2.0000      -0.610737       -16.6190
  18   2.0000      -0.591511       -16.0958
  19   2.0000      -0.590864       -16.0782
  20   2.0000      -0.583947       -15.8900
  21   2.0000      -0.500039       -13.6067
  22   2.0000      -0.499226       -13.5846
  23   2.0000      -0.493450       -13.4275
  24   2.0000      -0.449249       -12.2247
  25   2.0000      -0.447886       -12.1876
  26   2.0000      -0.442032       -12.0283
  27   0.0000       0.127859         3.4792
  28   0.0000       0.136353         3.7104
  29   0.0000       0.150859         4.1051
  30   0.0000       0.171061         4.6548
  31   0.0000       0.176673         4.8075

MULLIKEN ATOMIC CHARGES
-----------------------
   0 O :   -0.499692
   1 H :    0.325856
   2 C :   -0.173725
   3 H :    0.129272
   4 H :    0.112583
   5 H :    0.108698
   6 O :   -0.497103
   7 H :    0.323002
   8 C :   -0.172340
   9 H :    0.128434
  10 H :    0.108855
  11 H :    0.109151
  12 O :   -0.498951
  13 H :    0.326873
  14 C :   -0.173463
  15 H :    0.126496
  16 H :    0.109915
  17 H :    0.106138
Sum of atomic charges:    0.0000000

LOEWDIN ATOMIC CHARGES
----------------------
   0 O :   -0.112076
   1 H :    0.194119
   2 C :   -0.381814
   3 H :    0.110241
   4 H :    0.096572
   5 H :    0.095176
   6 O :   -0.107177
   7 H :    0.191608
   8 C :   -0.385107
   9 H :    0.110153
  10 H :    0.095163
  11 H :    0.095361
  12 O :   -0.108731
  13 H :    0.191380
  14 C :   -0.383352
  15 H :    0.109140
  16 H :    0.095337
  17 H :    0.094008

  Mayer bond orders larger than 0.100000
B(  0-O ,  1-H ) :   0.8379 B(  0-O ,  2-C ) :   0.9233 B(  2-C ,  3-H ) :   0.9379
B(  2-C ,  4-H ) :   0.9383 B(  2-C ,  5-H ) :   0.9386 B(  6-O ,  7-H ) :   0.8413
B(  6-O ,  8-C ) :   0.9278 B(  8-C ,  9-H ) :   0.9377 B(  8-C , 10-H ) :   0.9390
B(  8-C , 11-H ) :   0.9385 B( 12-O , 13-H ) :   0.8360 B( 12-O , 14-C ) :   0.9331
B( 14-C , 15-H ) :   0.9379 B( 14-C , 16-H ) :   0.9392 B( 14-C , 17-H ) :   0.9389

MP2 TOTAL ENERGY:     -346.521253113 Eh
FINAL SINGLE POINT ENERGY      -346.521253113027

DIPOLE MOMENT
-------------
                                X             Y             Z
Electronic contribution:      0.47034       0.61448      -0.87063
Nuclear contribution   :     -0.57147      -1.00530       1.32242
                        -----------------------------------------
Total Dipole Moment    :     -0.10112      -0.39082       0.45179
                        -----------------------------------------
Magnitude (a.u.)       :      0.60587
Magnitude (Debye)      :      1.54000

Rotational constants in cm-1:     0.034620     0.009412     0.007447
Rotational constants in MHz :  1037.881671   282.157311   223.266722

                             ****ORCA TERMINATED NORMALLY****
TOTAL RUN TIME: 0 days 0 hours 0 minutes 41 seconds 375 msec
