                         Program Version 4.2.0 -  RELEASE  -
|  1> # 12h2o.su.etal.mol0,1,3,5,6,7,11
|  2> ! MP2 def2-TZVP EnGrad TightSCF
|  3>
|  4> %pal
|  5>     nprocs 6
|  6> end
|  7>
|  8> %maxcore 8000
|  9>
| 10> %scf
| 11>     ConvForced true
| 12> end
| 13>
| 14> *xyz 0 1
| 15> O   1.794470000   0.923410000   2.768350000
| 16> H   2.338250000   1.359750000   3.430940000
| 17> H   0.879480000   1.303000000   2.865760000
| 18> O  -1.794470000  -0.923410000   2.768350000
| 19> H  -2.338250000  -1.359750000   3.430940000
| 20> H  -0.879480000  -1.303000000   2.865760000
| 21> O  -1.752130000  -0.741530000  -2.896280000
| 22> H  -2.036450000  -0.920500000  -1.984040000
| 23> H  -0.921210000  -1.242140000  -2.984230000
| 24> O   0.885520000  -1.737840000   0.052730000
| 25> H   1.284090000  -0.839590000   0.017130000
| 26> H   1.032320000  -2.090180000  -0.841890000
| 27> O   1.737840000   0.885520000  -0.052730000
| 28> H   2.090180000   1.032320000   0.841890000
| 29> H   0.839590000   1.284090000  -0.017130000
| 30> O  -1.737840000  -0.885520000  -0.052730000
| 31> H  -2.090180000  -1.032320000   0.841890000
| 32> H  -0.839590000  -1.284090000  -0.017130000
| 33> O  -0.741530000   1.752130000   2.896280000
| 34> H  -0.920500000   2.036450000   1.984040000
| 35> H  -1.242140000   0.921210000   2.984230000
| 36> *
| 37>
| 38>                          ****END OF INPUT****

CARTESIAN COORDINATES (ANGSTROEM)
---------------------------------
  O      1.794470    0.923410    2.768350
  H      2.338250    1.359750    3.430940
  H      0.879480    1.303000    2.865760
  O     -1.794470   -0.923410    2.768350
  H     -2.338250   -1.359750    3.430940
  H     -0.879480   -1.303000    2.865760
  O     -1.752130   -0.741530   -2.896280
  H     -2.036450   -0.920500   -1.984040
  H     -0.921210   -1.242140   -2.984230
  O      0.885520   -1.737840    0.052730
  H      1.284090   -0.839590    0.017130
  H      1.032320   -2.090180   -0.841890
  O      1.737840    0.885520   -0.052730
  H      2.090180    1.032320    0.841890
  H      0.839590    1.284090   -0.017130
  O     -1.737840   -0.885520   -0.052730
  H     -2.090180   -1.032320    0.841890
  H     -0.839590   -1.284090   -0.017130
  O     -0.741530    1.752130    2.896280
  H     -0.920500    2.036450    1.984040
  H     -1.242140    0.921210    2.984230

 Total Charge           Charge          ....    0
 Multiplicity           Mult            ....    1
 Number of Electrons    NEL             ....   70
 Basis Dimension        Dim             ....  301

ORBITAL ENERGIES
----------------

  NO   OCC          E(Eh)            E(eV)
   0   2.0000     -20.622115      -561.1563
   1   2.0000     -20.591588      -560.3256
   2   2.0000     -20.569392      -559.7216
   3   2.0000     -20.562108      -559.5234
   4   2.0000     -20.558635      -559.4289
   5   2.0000     -20.532870      -558.7278
   6   2.0000     -20.521334      -558.4139
   7   2.0000      -1.403081       -38.1798
   8   2.0000      -1.380484       -37.5649
   9   2.0000      -1.360014       -37.0079
  10   2.0000      -1.345531       -36.6138
  11   2.0000      -1.338008       -36.4091
  12   2.0000      -1.319428       -35.9035
  13   2.0000      -1.302019       -35.4297
  14   2.0000      -0.768751       -20.9188
  15   2.0000      -0.741264       -20.1708
  16   2.0000      -0.726383       -19.7659
  17   2.0000      -0.715979       -19.4828
  18   2.0000      -0.713400       -19.4126
  19   2.0000      -0.701407       -19.0863
  20   2.0000      -0.670762       -18.2524
  21   2.0000      -0.646784       -17.5999
  22   2.0000      -0.623924       -16.9778
  23   2.0000      -0.612737       -16.6734
  24   2.0000      -0.589822       -16.0499
  25   2.0000      -0.584445       -15.9036
  26   2.0000      -0.568628       -15.4732
  27   2.0000      -0.556764       -15.1503
  28   2.0000      -0.533327       -14.5126
  29   2.0000      -0.528904       -14.3922
  30   2.0000      -0.510516       -13.8918
  31   2.0000      -0.508152       -13.8275
  32   2.0000      -0.502678       -13.6786
  33   2.0000      -0.484403       -13.1813
  34   2.0000      -0.467609       -12.7243
  35   0.0000       0.085522         2.3272
  36   0.0000       0.116899         3.1810
  37   0.0000       0.128443         3.4951
  38   0.0000       0.148982         4.0540
  39   0.0000       0.180331         4.9071

MULLIKEN ATOMIC CHARGES
-----------------------
   0 O :   -0.743951
   1 H :    0.342601
   2 H :    0.368259
   3 O :   -0.724634
   4 H :    0.367137
   5 H :    0.384633
   6 O :   -0.695111
   7 H :    0.374362
   8 H :    0.308541
   9 O :   -0.716440
  10 H :    0.381225
  11 H :    0.342042
  12 O :   -0.700632
  13 H :    0.383790
  14 H :    0.337969
  15 O :   -0.745990
  16 H :    0.361294
  17 H :    0.339164
  18 O :   -0.698470
  19 H :    0.353907
  20 H :    0.380305
Sum of atomic charges:   -0.0000000

LOEWDIN ATOMIC CHARGES
----------------------
   0 O :   -0.342952
   1 H :    0.156436
   2 H :    0.142223
   3 O :   -0.288021
   4 H :    0.169633
   5 H :    0.196890
   6 O :   -0.342640
   7 H :    0.152982
   8 H :    0.152269
   9 O :   -0.312380
  10 H :    0.148110
  11 H :    0.163214
  12 O :   -0.296510
  13 H :    0.154637
  14 H :    0.168104
  15 O :   -0.350182
  16 H :    0.144439
  17 H :    0.136090
  18 O :   -0.277471
  19 H :    0.169838
  20 H :    0.155289

  Mayer bond orders larger than 0.100000
B(  0-O ,  1-H ) :   0.8476 B(  0-O ,  2-H ) :   0.7570 B(  2-H , 18-O ) :   0.1022
B(  3-O ,  4-H ) :   0.8302 B(  3-O ,  5-H ) :   0.8096 B(  6-O ,  7-H ) :   0.8124
B(  6-O ,  8-H ) :   0.8684 B(  9-O , 10-H ) :   0.7630 B(  9-O , 11-H ) :   0.8464
B(  9-O , 17-H ) :   0.1048 B( 12-O , 13-H ) :   0.7906 B( 12-O , 14-H ) :   0.8431
B( 15-O , 16-H ) :   0.8261 B( 15-O , 17-H ) :   0.7763 B( 18-O , 19-H ) :   0.8384
B( 18-O , 20-H ) :   0.7966

MP2 TOTAL ENERGY:     -534.255829301 Eh
FINAL SINGLE POINT ENERGY      -534.255829301135

DIPOLE MOMENT
-------------
                                X             Y             Z
Electronic contribution:     -0.09732       0.21148       0.29719
Nuclear contribution   :      0.34326      -0.56623       2.03947
                        -----------------------------------------
Total Dipole Moment    :      0.24594      -0.35475       2.33666
                        -----------------------------------------
Magnitude (a.u.)       :      2.37619
Magnitude (Debye)      :      6.03980

Rotational constants in cm-1:     0.042847     0.024181     0.019402
Rotational constants in MHz :  1284.511112   724.937272   581.657239

                             ****ORCA TERMINATED NORMALLY****
TOTAL RUN TIME: 0 days 0 hours 1 minutes 55 seconds 566 msec
