                         Program Version 4.2.0 -  RELEASE  -
|  1> ! MP2 def2-TZVP EnGrad TightSCF FrozenCore
|  2>
|  3> %pal
|  4>     nprocs 12
|  5> end
|  6>
|  7> %maxcore 8000
|  8>
|  9> %scf
| 10>     ConvForced true
| 11> end
| 12>
| 13> *xyz 0 1
| 14> C    -3.202182    -2.352606    -0.568392
| 15> H    -4.119685    -2.946720    -0.570605
| 16> H    -2.330504    -3.008818    -0.623962
| 17> H    -3.194641    -1.683191    -1.433903
| 18> C    -3.133490    -1.547334     0.647517
| 19> N    -3.095767    -0.902478     1.613742
| 20> C     3.202178    -2.352610    -0.568388
| 21> H     4.119681    -2.946724    -0.570601
| 22> H     3.194637    -1.683192    -1.433897
| 23> H     2.330498    -3.008820    -0.623959
| 24> C     3.133485    -1.547337     0.647520
| 25> N     3.095760    -0.902474     1.613740
| 26> C    -0.000002    -0.447548     2.436633
| 27> H     0.901110    -0.433036     3.053836
| 28> H    -0.000003    -1.358113     1.829959
| 29> H    -0.901112    -0.433034     3.053839
| 30> C    -0.000000     0.705428     1.541816
| 31> N     0.000004     1.630611     0.836594
| 32> C     3.201814     2.352855     0.568658
| 33> H     3.194336     1.683373     1.434118
| 34> H     2.330108     3.009023     0.624320
| 35> H     4.119310     2.946973     0.570827
| 36> C     3.132994     1.547595    -0.647251
| 37> N     3.095088     0.902675    -1.613425
| 38> C    -3.201811     2.352855     0.568658
| 39> H    -2.330105     3.009024     0.624318
| 40> H    -3.194332     1.683375     1.434120
| 41> H    -4.119307     2.946973     0.570829
| 42> C    -3.132993     1.547596    -0.647251
| 43> N    -3.095089     0.902680    -1.613428
| 44> C     0.000002     0.446936    -2.437391
| 45> H    -0.901107     0.432290    -3.054595
| 46> H     0.901111     0.432294    -3.054595
| 47> H    -0.000000     1.357631    -1.830912
| 48> C     0.000004    -0.705855    -1.542334
| 49> N     0.000006    -1.630894    -0.836923
| 50> *
| 51>
| 52>                          ****END OF INPUT****

CARTESIAN COORDINATES (ANGSTROEM)
---------------------------------
  C     -3.202182   -2.352606   -0.568392
  H     -4.119685   -2.946720   -0.570605
  H     -2.330504   -3.008818   -0.623962
  H     -3.194641   -1.683191   -1.433903
  C     -3.133490   -1.547334    0.647517
  N     -3.095767   -0.902478    1.613742
  C      3.202178   -2.352610   -0.568388
  H      4.119681   -2.946724   -0.570601
  H      3.194637   -1.683192   -1.433897
  H      2.330498   -3.008820   -0.623959
  C      3.133485   -1.547337    0.647520
  N      3.095760   -0.902474    1.613740
  C     -0.000002   -0.447548    2.436633
  H      0.901110   -0.433036    3.053836
  H     -0.000003   -1.358113    1.829959
  H     -0.901112   -0.433034    3.053839
  C     -0.000000    0.705428    1.541816
  N      0.000004    1.630611    0.836594
  C      3.201814    2.352855    0.568658
  H      3.194336    1.683373    1.434118
  H      2.330108    3.009023    0.624320
  H      4.119310    2.946973    0.570827
  C      3.132994    1.547595   -0.647251
  N      3.095088    0.902675   -1.613425
  C     -3.201811    2.352855    0.568658
  H     -2.330105    3.009024    0.624318
  H     -3.194332    1.683375    1.434120
  H     -4.119307    2.946973    0.570829
  C     -3.132993    1.547596   -0.647251
  N     -3.095089    0.902680   -1.613428
  C      0.000002    0.446936   -2.437391
  H     -0.901107    0.432290   -3.054595
  H      0.901111    0.432294   -3.054595
  H     -0.000000    1.357631   -1.830912
  C      0.000004   -0.705855   -1.542334
  N      0.000006   -1.630894   -0.836923

 Total Charge           Charge          ....    0
 Multiplicity           Mult            ....    1
 Number of Electrons    NEL             ....  132
 Basis Dimension        Dim             ....  666

ORBITAL ENERGIES
----------------

  NO   OCC          E(Eh)            E(eV)
   0   2.0000     -15.563288      -423.4986
   1   2.0000     -15.563287      -423.4986
   2   2.0000     -15.563280      -423.4984
   3   2.0000     -15.563280      -423.4984
   4   2.0000     -15.559957      -423.4080
   5   2.0000     -15.559955      -423.4079
   6   2.0000     -11.278314      -306.8985
   7   2.0000     -11.278314      -306.8985
   8   2.0000     -11.278308      -306.8984
   9   2.0000     -11.278308      -306.8984
  10   2.0000     -11.277415      -306.8741
  11   2.0000     -11.277412      -306.8740
  12   2.0000     -11.263321      -306.4906
  13   2.0000     -11.263321      -306.4905
  14   2.0000     -11.263316      -306.4904
  15   2.0000     -11.263316      -306.4904
  16   2.0000     -11.252137      -306.1862
  17   2.0000     -11.252135      -306.1862
  18   2.0000      -1.216032       -33.0899
  19   2.0000      -1.214815       -33.0568
  20   2.0000      -1.211494       -32.9664
  21   2.0000      -1.210877       -32.9496
  22   2.0000      -1.210842       -32.9487
  23   2.0000      -1.208967       -32.8977
  24   2.0000      -1.023957       -27.8633
  25   2.0000      -1.023848       -27.8603
  26   2.0000      -1.021882       -27.8068
  27   2.0000      -1.021635       -27.8001
  28   2.0000      -1.015449       -27.6318
  29   2.0000      -1.013126       -27.5686
  30   2.0000      -0.684231       -18.6189
  31   2.0000      -0.684111       -18.6156
  32   2.0000      -0.680805       -18.5256
  33   2.0000      -0.680661       -18.5217
  34   2.0000      -0.675822       -18.3901
  35   2.0000      -0.673236       -18.3197
  36   2.0000      -0.623934       -16.9781
  37   2.0000      -0.618872       -16.8404
  38   2.0000      -0.615916       -16.7599
  39   2.0000      -0.615914       -16.7599
  40   2.0000      -0.615121       -16.7383
  41   2.0000      -0.613951       -16.7065
  42   2.0000      -0.611265       -16.6334
  43   2.0000      -0.606457       -16.5025
  44   2.0000      -0.604594       -16.4518
  45   2.0000      -0.601641       -16.3715
  46   2.0000      -0.600555       -16.3419
  47   2.0000      -0.593706       -16.1556
  48   2.0000      -0.555521       -15.1165
  49   2.0000      -0.553995       -15.0750
  50   2.0000      -0.550993       -14.9933
  51   2.0000      -0.550603       -14.9827
  52   2.0000      -0.548817       -14.9341
  53   2.0000      -0.548799       -14.9336
  54   2.0000      -0.463650       -12.6166
  55   2.0000      -0.462337       -12.5808
  56   2.0000      -0.457870       -12.4593
  57   2.0000      -0.456795       -12.4300
  58   2.0000      -0.456789       -12.4299
  59   2.0000      -0.454651       -12.3717
  60   2.0000      -0.452114       -12.3026
  61   2.0000      -0.451921       -12.2974
  62   2.0000      -0.450931       -12.2705
  63   2.0000      -0.450005       -12.2452
  64   2.0000      -0.446770       -12.1572
  65   2.0000      -0.443801       -12.0764
  66   0.0000       0.130356         3.5472
  67   0.0000       0.148492         4.0407
  68   0.0000       0.149922         4.0796
  69   0.0000       0.157853         4.2954
  70   0.0000       0.164846         4.4857

MULLIKEN ATOMIC CHARGES
-----------------------
   0 C :   -0.293044
   1 H :    0.169377
   2 H :    0.182077
   3 H :    0.194033
   4 C :   -0.073368
   5 N :   -0.179500
   6 C :   -0.293044
   7 H :    0.169377
   8 H :    0.194033
   9 H :    0.182077
  10 C :   -0.073368
  11 N :   -0.179501
  12 C :   -0.282153
  13 H :    0.188667
  14 H :    0.181231
  15 H :    0.188667
  16 C :   -0.038199
  17 N :   -0.237364
  18 C :   -0.293040
  19 H :    0.194036
  20 H :    0.182076
  21 H :    0.169370
  22 C :   -0.073355
  23 N :   -0.179515
  24 C :   -0.293041
  25 H :    0.182076
  26 H :    0.194036
  27 H :    0.169371
  28 C :   -0.073355
  29 N :   -0.179515
  30 C :   -0.282045
  31 H :    0.188645
  32 H :    0.188645
  33 H :    0.181221
  34 C :   -0.038244
  35 N :   -0.237361
Sum of atomic charges:   -0.0000000

LOEWDIN ATOMIC CHARGES
----------------------
   0 C :   -0.284054
   1 H :    0.147152
   2 H :    0.152419
   3 H :    0.155093
   4 C :   -0.197477
   5 N :    0.028103
   6 C :   -0.284054
   7 H :    0.147151
   8 H :    0.155093
   9 H :    0.152419
  10 C :   -0.197477
  11 N :    0.028103
  12 C :   -0.287086
  13 H :    0.150557
  14 H :    0.154749
  15 H :    0.150557
  16 C :   -0.193210
  17 N :    0.021974
  18 C :   -0.284056
  19 H :    0.155096
  20 H :    0.152420
  21 H :    0.147147
  22 C :   -0.197480
  23 N :    0.028108
  24 C :   -0.284056
  25 H :    0.152420
  26 H :    0.155096
  27 H :    0.147147
  28 C :   -0.197480
  29 N :    0.028109
  30 C :   -0.287088
  31 H :    0.150555
  32 H :    0.150555
  33 H :    0.154754
  34 C :   -0.193210
  35 N :    0.021951

  Mayer bond orders larger than 0.100000
B(  0-C ,  1-H ) :   0.9100 B(  0-C ,  2-H ) :   0.9139 B(  0-C ,  3-H ) :   0.9092
B(  0-C ,  4-C ) :   0.8950 B(  4-C ,  5-N ) :   2.7348 B(  6-C ,  7-H ) :   0.9100
B(  6-C ,  8-H ) :   0.9092 B(  6-C ,  9-H ) :   0.9139 B(  6-C , 10-C ) :   0.8950
B( 10-C , 11-N ) :   2.7348 B( 12-C , 13-H ) :   0.9045 B( 12-C , 14-H ) :   0.9186
B( 12-C , 15-H ) :   0.9045 B( 12-C , 16-C ) :   0.8885 B( 16-C , 17-N ) :   2.6506
B( 18-C , 19-H ) :   0.9092 B( 18-C , 20-H ) :   0.9139 B( 18-C , 21-H ) :   0.9100
B( 18-C , 22-C ) :   0.8950 B( 22-C , 23-N ) :   2.7348 B( 24-C , 25-H ) :   0.9139
B( 24-C , 26-H ) :   0.9092 B( 24-C , 27-H ) :   0.9100 B( 24-C , 28-C ) :   0.8950
B( 28-C , 29-N ) :   2.7348 B( 30-C , 31-H ) :   0.9045 B( 30-C , 32-H ) :   0.9045
B( 30-C , 33-H ) :   0.9187 B( 30-C , 34-C ) :   0.8885 B( 34-C , 35-N ) :   2.6507

MP2 TOTAL ENERGY:     -794.958994768 Eh
FINAL SINGLE POINT ENERGY      -794.958994768112

DIPOLE MOMENT
-------------
                                X             Y             Z
Electronic contribution:      0.00000       0.00058       0.00049
Nuclear contribution   :     -0.00001      -0.00070      -0.00087
                        -----------------------------------------
Total Dipole Moment    :     -0.00000      -0.00011      -0.00038
                        -----------------------------------------
Magnitude (a.u.)       :      0.00039
Magnitude (Debye)      :      0.00100

Rotational constants in cm-1:     0.015876     0.008062     0.007518
Rotational constants in MHz :   475.964803   241.682333   225.378992

                             ****ORCA TERMINATED NORMALLY****
TOTAL RUN TIME: 0 days 0 hours 44 minutes 41 seconds 369 msec
