                         Program Version 4.2.0 -  RELEASE  -
|  1> # 12h2o.su.etal.mol0,1,3,7,8,11
|  2> ! MP2 def2-TZVP EnGrad TightSCF
|  3>
|  4> %pal
|  5>     nprocs 6
|  6> end
|  7>
|  8> %maxcore 8000
|  9>
| 10> %scf
| 11>     ConvForced true
| 12> end
| 13>
| 14> *xyz 0 1
| 15> O   1.794470000   0.923410000   2.768350000
| 16> H   2.338250000   1.359750000   3.430940000
| 17> H   0.879480000   1.303000000   2.865760000
| 18> O  -1.794470000  -0.923410000   2.768350000
| 19> H  -2.338250000  -1.359750000   3.430940000
| 20> H  -0.879480000  -1.303000000   2.865760000
| 21> O  -1.752130000  -0.741530000  -2.896280000
| 22> H  -2.036450000  -0.920500000  -1.984040000
| 23> H  -0.921210000  -1.242140000  -2.984230000
| 24> O  -1.737840000  -0.885520000  -0.052730000
| 25> H  -2.090180000  -1.032320000   0.841890000
| 26> H  -0.839590000  -1.284090000  -0.017130000
| 27> O   1.752130000   0.741530000  -2.896280000
| 28> H   2.036450000   0.920500000  -1.984040000
| 29> H   0.921210000   1.242140000  -2.984230000
| 30> O  -0.741530000   1.752130000   2.896280000
| 31> H  -0.920500000   2.036450000   1.984040000
| 32> H  -1.242140000   0.921210000   2.984230000
| 33> *
| 34>
| 35>                          ****END OF INPUT****

CARTESIAN COORDINATES (ANGSTROEM)
---------------------------------
  O      1.794470    0.923410    2.768350
  H      2.338250    1.359750    3.430940
  H      0.879480    1.303000    2.865760
  O     -1.794470   -0.923410    2.768350
  H     -2.338250   -1.359750    3.430940
  H     -0.879480   -1.303000    2.865760
  O     -1.752130   -0.741530   -2.896280
  H     -2.036450   -0.920500   -1.984040
  H     -0.921210   -1.242140   -2.984230
  O     -1.737840   -0.885520   -0.052730
  H     -2.090180   -1.032320    0.841890
  H     -0.839590   -1.284090   -0.017130
  O      1.752130    0.741530   -2.896280
  H      2.036450    0.920500   -1.984040
  H      0.921210    1.242140   -2.984230
  O     -0.741530    1.752130    2.896280
  H     -0.920500    2.036450    1.984040
  H     -1.242140    0.921210    2.984230

 Total Charge           Charge          ....    0
 Multiplicity           Mult            ....    1
 Number of Electrons    NEL             ....   60
 Basis Dimension        Dim             ....  258

ORBITAL ENERGIES
----------------

  NO   OCC          E(Eh)            E(eV)
   0   2.0000     -20.634157      -561.4840
   1   2.0000     -20.581949      -560.0633
   2   2.0000     -20.575283      -559.8819
   3   2.0000     -20.553496      -559.2891
   4   2.0000     -20.528797      -558.6170
   5   2.0000     -20.527693      -558.5869
   6   2.0000      -1.414581       -38.4927
   7   2.0000      -1.370635       -37.2969
   8   2.0000      -1.356660       -36.9166
   9   2.0000      -1.332716       -36.2650
  10   2.0000      -1.310747       -35.6672
  11   2.0000      -1.309448       -35.6319
  12   2.0000      -0.780115       -21.2280
  13   2.0000      -0.733732       -19.9659
  14   2.0000      -0.727008       -19.7829
  15   2.0000      -0.698680       -19.0121
  16   2.0000      -0.695307       -18.9203
  17   2.0000      -0.678216       -18.4552
  18   2.0000      -0.653999       -17.7962
  19   2.0000      -0.616923       -16.7873
  20   2.0000      -0.598664       -16.2905
  21   2.0000      -0.572136       -15.5686
  22   2.0000      -0.570765       -15.5313
  23   2.0000      -0.556921       -15.1546
  24   2.0000      -0.544631       -14.8202
  25   2.0000      -0.519638       -14.1401
  26   2.0000      -0.513164       -13.9639
  27   2.0000      -0.498240       -13.5578
  28   2.0000      -0.479628       -13.0513
  29   2.0000      -0.473838       -12.8938
  30   0.0000       0.076231         2.0743
  31   0.0000       0.116487         3.1698
  32   0.0000       0.144973         3.9449
  33   0.0000       0.151455         4.1213
  34   0.0000       0.165537         4.5045

MULLIKEN ATOMIC CHARGES
-----------------------
   0 O :   -0.742745
   1 H :    0.329551
   2 H :    0.364196
   3 O :   -0.723684
   4 H :    0.371448
   5 H :    0.378080
   6 O :   -0.702040
   7 H :    0.369581
   8 H :    0.326022
   9 O :   -0.707999
  10 H :    0.372506
  11 H :    0.333878
  12 O :   -0.685895
  13 H :    0.337938
  14 H :    0.346924
  15 O :   -0.698289
  16 H :    0.358860
  17 H :    0.371668
Sum of atomic charges:   -0.0000000

LOEWDIN ATOMIC CHARGES
----------------------
   0 O :   -0.378065
   1 H :    0.150310
   2 H :    0.140288
   3 O :   -0.287859
   4 H :    0.171533
   5 H :    0.194850
   6 O :   -0.341657
   7 H :    0.151681
   8 H :    0.158473
   9 O :   -0.324503
  10 H :    0.151386
  11 H :    0.169188
  12 O :   -0.334479
  13 H :    0.165257
  14 H :    0.168677
  15 O :   -0.280446
  16 H :    0.173539
  17 H :    0.151828

  Mayer bond orders larger than 0.100000
B(  0-O ,  1-H ) :   0.8584 B(  0-O ,  2-H ) :   0.7775 B(  3-O ,  4-H ) :   0.8279
B(  3-O ,  5-H ) :   0.8139 B(  6-O ,  7-H ) :   0.8199 B(  6-O ,  8-H ) :   0.8564
B(  9-O , 10-H ) :   0.8129 B(  9-O , 11-H ) :   0.8473 B( 12-O , 13-H ) :   0.8523
B( 12-O , 14-H ) :   0.8433 B( 15-O , 16-H ) :   0.8362 B( 15-O , 17-H ) :   0.8079

MP2 TOTAL ENERGY:     -457.912086336 Eh
FINAL SINGLE POINT ENERGY      -457.912086336403

DIPOLE MOMENT
-------------
                                X             Y             Z
Electronic contribution:     -0.42759       0.08970      -0.07489
Nuclear contribution   :     -0.11126      -0.90891       2.72557
                        -----------------------------------------
Total Dipole Moment    :     -0.53885      -0.81921       2.65068
                        -----------------------------------------
Magnitude (a.u.)       :      2.82623
Magnitude (Debye)      :      7.18371

Rotational constants in cm-1:     0.043997     0.022087     0.016030
Rotational constants in MHz :  1319.010450   662.152934   480.575328

                             ****ORCA TERMINATED NORMALLY****
TOTAL RUN TIME: 0 days 0 hours 0 minutes 52 seconds 130 msec
