                         Program Version 4.2.0 -  RELEASE  -
|  1> # 12h2o.su.etal.mol4,5,7,8,9
|  2> ! MP2 def2-TZVP EnGrad TightSCF
|  3>
|  4> %pal
|  5>     nprocs 6
|  6> end
|  7>
|  8> %maxcore 8000
|  9>
| 10> %scf
| 11>     ConvForced true
| 12> end
| 13>
| 14> *xyz 0 1
| 15> O  -0.885520000   1.737840000   0.052730000
| 16> H  -1.032320000   2.090180000  -0.841890000
| 17> H  -1.284090000   0.839590000   0.017130000
| 18> O   0.885520000  -1.737840000   0.052730000
| 19> H   1.284090000  -0.839590000   0.017130000
| 20> H   1.032320000  -2.090180000  -0.841890000
| 21> O  -1.737840000  -0.885520000  -0.052730000
| 22> H  -2.090180000  -1.032320000   0.841890000
| 23> H  -0.839590000  -1.284090000  -0.017130000
| 24> O   1.752130000   0.741530000  -2.896280000
| 25> H   2.036450000   0.920500000  -1.984040000
| 26> H   0.921210000   1.242140000  -2.984230000
| 27> O   0.741530000  -1.752130000   2.896280000
| 28> H   0.920500000  -2.036450000   1.984040000
| 29> H   1.242140000  -0.921210000   2.984230000
| 30> *
| 31>
| 32>                          ****END OF INPUT****

CARTESIAN COORDINATES (ANGSTROEM)
---------------------------------
  O     -0.885520    1.737840    0.052730
  H     -1.032320    2.090180   -0.841890
  H     -1.284090    0.839590    0.017130
  O      0.885520   -1.737840    0.052730
  H      1.284090   -0.839590    0.017130
  H      1.032320   -2.090180   -0.841890
  O     -1.737840   -0.885520   -0.052730
  H     -2.090180   -1.032320    0.841890
  H     -0.839590   -1.284090   -0.017130
  O      1.752130    0.741530   -2.896280
  H      2.036450    0.920500   -1.984040
  H      0.921210    1.242140   -2.984230
  O      0.741530   -1.752130    2.896280
  H      0.920500   -2.036450    1.984040
  H      1.242140   -0.921210    2.984230

 Total Charge           Charge          ....    0
 Multiplicity           Mult            ....    1
 Number of Electrons    NEL             ....   50
 Basis Dimension        Dim             ....  215

ORBITAL ENERGIES
----------------

  NO   OCC          E(Eh)            E(eV)
   0   2.0000     -20.628132      -561.3200
   1   2.0000     -20.584386      -560.1296
   2   2.0000     -20.568046      -559.6850
   3   2.0000     -20.550431      -559.2056
   4   2.0000     -20.542353      -558.9858
   5   2.0000      -1.411204       -38.4008
   6   2.0000      -1.363263       -37.0963
   7   2.0000      -1.354469       -36.8570
   8   2.0000      -1.332306       -36.2539
   9   2.0000      -1.322126       -35.9769
  10   2.0000      -0.769081       -20.9278
  11   2.0000      -0.726413       -19.7667
  12   2.0000      -0.724851       -19.7242
  13   2.0000      -0.704963       -19.1830
  14   2.0000      -0.696049       -18.9405
  15   2.0000      -0.647754       -17.6263
  16   2.0000      -0.608318       -16.5532
  17   2.0000      -0.600614       -16.3435
  18   2.0000      -0.575671       -15.6648
  19   2.0000      -0.565459       -15.3869
  20   2.0000      -0.552667       -15.0388
  21   2.0000      -0.528076       -14.3697
  22   2.0000      -0.508741       -13.8435
  23   2.0000      -0.496477       -13.5098
  24   2.0000      -0.490187       -13.3387
  25   0.0000       0.072072         1.9612
  26   0.0000       0.120502         3.2790
  27   0.0000       0.142734         3.8840
  28   0.0000       0.149040         4.0556
  29   0.0000       0.173826         4.7301

MULLIKEN ATOMIC CHARGES
-----------------------
   0 O :   -0.718834
   1 H :    0.318979
   2 H :    0.357588
   3 O :   -0.712079
   4 H :    0.359048
   5 H :    0.378547
   6 O :   -0.713311
   7 H :    0.358800
   8 H :    0.366959
   9 O :   -0.671306
  10 H :    0.331185
  11 H :    0.341645
  12 O :   -0.690784
  13 H :    0.366323
  14 H :    0.327241
Sum of atomic charges:    0.0000000

LOEWDIN ATOMIC CHARGES
----------------------
   0 O :   -0.363489
   1 H :    0.152822
   2 H :    0.141292
   3 O :   -0.273838
   4 H :    0.178264
   5 H :    0.181395
   6 O :   -0.308543
   7 H :    0.171314
   8 H :    0.143791
   9 O :   -0.327388
  10 H :    0.160127
  11 H :    0.167968
  12 O :   -0.335418
  13 H :    0.149821
  14 H :    0.161882

  Mayer bond orders larger than 0.100000
B(  0-O ,  1-H ) :   0.8622 B(  0-O ,  2-H ) :   0.7841 B(  3-O ,  4-H ) :   0.8240
B(  3-O ,  5-H ) :   0.8217 B(  6-O ,  7-H ) :   0.8363 B(  6-O ,  8-H ) :   0.7911
B(  9-O , 10-H ) :   0.8545 B(  9-O , 11-H ) :   0.8488 B( 12-O , 13-H ) :   0.8274
B( 12-O , 14-H ) :   0.8583

MP2 TOTAL ENERGY:     -381.591533557 Eh
FINAL SINGLE POINT ENERGY      -381.591533556878

DIPOLE MOMENT
-------------
                                X             Y             Z
Electronic contribution:      0.02942      -0.45480       0.00175
Nuclear contribution   :      0.56508       0.56668      -0.77428
                        -----------------------------------------
Total Dipole Moment    :      0.59450       0.11188      -0.77253
                        -----------------------------------------
Magnitude (a.u.)       :      0.98120
Magnitude (Debye)      :      2.49401

Rotational constants in cm-1:     0.070981     0.037547     0.030594
Rotational constants in MHz :  2127.968734  1125.644601   917.199794

                             ****ORCA TERMINATED NORMALLY****
TOTAL RUN TIME: 0 days 0 hours 0 minutes 35 seconds 525 msec
