                         Program Version 4.2.0 -  RELEASE  -
|  1> # 12h2o.su.etal.mol1,3,4,7,9,11
|  2> ! MP2 def2-TZVP EnGrad TightSCF
|  3>
|  4> %pal
|  5>     nprocs 6
|  6> end
|  7>
|  8> %maxcore 8000
|  9>
| 10> %scf
| 11>     ConvForced true
| 12> end
| 13>
| 14> *xyz 0 1
| 15> O  -1.794470000  -0.923410000   2.768350000
| 16> H  -2.338250000  -1.359750000   3.430940000
| 17> H  -0.879480000  -1.303000000   2.865760000
| 18> O  -1.752130000  -0.741530000  -2.896280000
| 19> H  -2.036450000  -0.920500000  -1.984040000
| 20> H  -0.921210000  -1.242140000  -2.984230000
| 21> O  -0.885520000   1.737840000   0.052730000
| 22> H  -1.032320000   2.090180000  -0.841890000
| 23> H  -1.284090000   0.839590000   0.017130000
| 24> O  -1.737840000  -0.885520000  -0.052730000
| 25> H  -2.090180000  -1.032320000   0.841890000
| 26> H  -0.839590000  -1.284090000  -0.017130000
| 27> O   0.741530000  -1.752130000   2.896280000
| 28> H   0.920500000  -2.036450000   1.984040000
| 29> H   1.242140000  -0.921210000   2.984230000
| 30> O  -0.741530000   1.752130000   2.896280000
| 31> H  -0.920500000   2.036450000   1.984040000
| 32> H  -1.242140000   0.921210000   2.984230000
| 33> *
| 34>
| 35>                          ****END OF INPUT****

CARTESIAN COORDINATES (ANGSTROEM)
---------------------------------
  O     -1.794470   -0.923410    2.768350
  H     -2.338250   -1.359750    3.430940
  H     -0.879480   -1.303000    2.865760
  O     -1.752130   -0.741530   -2.896280
  H     -2.036450   -0.920500   -1.984040
  H     -0.921210   -1.242140   -2.984230
  O     -0.885520    1.737840    0.052730
  H     -1.032320    2.090180   -0.841890
  H     -1.284090    0.839590    0.017130
  O     -1.737840   -0.885520   -0.052730
  H     -2.090180   -1.032320    0.841890
  H     -0.839590   -1.284090   -0.017130
  O      0.741530   -1.752130    2.896280
  H      0.920500   -2.036450    1.984040
  H      1.242140   -0.921210    2.984230
  O     -0.741530    1.752130    2.896280
  H     -0.920500    2.036450    1.984040
  H     -1.242140    0.921210    2.984230

 Total Charge           Charge          ....    0
 Multiplicity           Mult            ....    1
 Number of Electrons    NEL             ....   60
 Basis Dimension        Dim             ....  258

ORBITAL ENERGIES
----------------

  NO   OCC          E(Eh)            E(eV)
   0   2.0000     -20.624112      -561.2106
   1   2.0000     -20.603318      -560.6448
   2   2.0000     -20.584459      -560.1316
   3   2.0000     -20.547416      -559.1236
   4   2.0000     -20.544332      -559.0397
   5   2.0000     -20.506144      -558.0005
   6   2.0000      -1.410506       -38.3818
   7   2.0000      -1.391240       -37.8576
   8   2.0000      -1.368043       -37.2263
   9   2.0000      -1.329432       -36.1757
  10   2.0000      -1.327938       -36.1350
  11   2.0000      -1.291011       -35.1302
  12   2.0000      -0.766185       -20.8489
  13   2.0000      -0.754970       -20.5438
  14   2.0000      -0.749879       -20.4052
  15   2.0000      -0.704251       -19.1636
  16   2.0000      -0.698545       -19.0084
  17   2.0000      -0.671479       -18.2719
  18   2.0000      -0.654407       -17.8073
  19   2.0000      -0.632274       -17.2051
  20   2.0000      -0.606835       -16.5128
  21   2.0000      -0.588291       -16.0082
  22   2.0000      -0.565828       -15.3970
  23   2.0000      -0.559241       -15.2177
  24   2.0000      -0.541181       -14.7263
  25   2.0000      -0.531863       -14.4727
  26   2.0000      -0.516679       -14.0596
  27   2.0000      -0.494217       -13.4483
  28   2.0000      -0.491918       -13.3858
  29   2.0000      -0.456044       -12.4096
  30   0.0000       0.067944         1.8488
  31   0.0000       0.127382         3.4662
  32   0.0000       0.135195         3.6789
  33   0.0000       0.160825         4.3763
  34   0.0000       0.174661         4.7528

MULLIKEN ATOMIC CHARGES
-----------------------
   0 O :   -0.751515
   1 H :    0.356526
   2 H :    0.381604
   3 O :   -0.690886
   4 H :    0.370618
   5 H :    0.319176
   6 O :   -0.729728
   7 H :    0.343828
   8 H :    0.356768
   9 O :   -0.713159
  10 H :    0.394304
  11 H :    0.330237
  12 O :   -0.681019
  13 H :    0.349446
  14 H :    0.382664
  15 O :   -0.733139
  16 H :    0.372360
  17 H :    0.341916
Sum of atomic charges:   -0.0000000

LOEWDIN ATOMIC CHARGES
----------------------
   0 O :   -0.312016
   1 H :    0.162326
   2 H :    0.145713
   3 O :   -0.336919
   4 H :    0.150387
   5 H :    0.158049
   6 O :   -0.341604
   7 H :    0.165200
   8 H :    0.142209
   9 O :   -0.280433
  10 H :    0.158151
  11 H :    0.166112
  12 O :   -0.264769
  13 H :    0.169537
  14 H :    0.186141
  15 O :   -0.357728
  16 H :    0.151935
  17 H :    0.137709

  Mayer bond orders larger than 0.100000
B(  0-O ,  1-H ) :   0.8373 B(  0-O ,  2-H ) :   0.7504 B(  3-O ,  4-H ) :   0.8213
B(  3-O ,  5-H ) :   0.8627 B(  6-O ,  7-H ) :   0.8451 B(  6-O ,  8-H ) :   0.7895
B(  9-O , 10-H ) :   0.7815 B(  9-O , 11-H ) :   0.8449 B( 12-O , 13-H ) :   0.8423
B( 12-O , 14-H ) :   0.8162 B( 15-O , 16-H ) :   0.8173 B( 15-O , 17-H ) :   0.8329

MP2 TOTAL ENERGY:     -457.925363019 Eh
FINAL SINGLE POINT ENERGY      -457.925363019359

DIPOLE MOMENT
-------------
                                X             Y             Z
Electronic contribution:      0.01010      -0.05183       0.26742
Nuclear contribution   :      0.76440      -2.15314      -0.05351
                        -----------------------------------------
Total Dipole Moment    :      0.77450      -2.20498       0.21391
                        -----------------------------------------
Magnitude (a.u.)       :      2.34681
Magnitude (Debye)      :      5.96512

Rotational constants in cm-1:     0.062697     0.029103     0.023490
Rotational constants in MHz :  1879.611137   872.499184   704.205969

                             ****ORCA TERMINATED NORMALLY****
TOTAL RUN TIME: 0 days 0 hours 1 minutes 4 seconds 595 msec
