                         Program Version 4.2.0 -  RELEASE  -
|  1> # 12h2o.su.etal.mol0,3,4,5,6,8
|  2> ! MP2 def2-TZVP EnGrad TightSCF
|  3>
|  4> %pal
|  5>     nprocs 6
|  6> end
|  7>
|  8> %maxcore 8000
|  9>
| 10> %scf
| 11>     ConvForced true
| 12> end
| 13>
| 14> *xyz 0 1
| 15> O   1.794470000   0.923410000   2.768350000
| 16> H   2.338250000   1.359750000   3.430940000
| 17> H   0.879480000   1.303000000   2.865760000
| 18> O  -1.752130000  -0.741530000  -2.896280000
| 19> H  -2.036450000  -0.920500000  -1.984040000
| 20> H  -0.921210000  -1.242140000  -2.984230000
| 21> O  -0.885520000   1.737840000   0.052730000
| 22> H  -1.032320000   2.090180000  -0.841890000
| 23> H  -1.284090000   0.839590000   0.017130000
| 24> O   0.885520000  -1.737840000   0.052730000
| 25> H   1.284090000  -0.839590000   0.017130000
| 26> H   1.032320000  -2.090180000  -0.841890000
| 27> O   1.737840000   0.885520000  -0.052730000
| 28> H   2.090180000   1.032320000   0.841890000
| 29> H   0.839590000   1.284090000  -0.017130000
| 30> O   1.752130000   0.741530000  -2.896280000
| 31> H   2.036450000   0.920500000  -1.984040000
| 32> H   0.921210000   1.242140000  -2.984230000
| 33> *
| 34>
| 35>                          ****END OF INPUT****

CARTESIAN COORDINATES (ANGSTROEM)
---------------------------------
  O      1.794470    0.923410    2.768350
  H      2.338250    1.359750    3.430940
  H      0.879480    1.303000    2.865760
  O     -1.752130   -0.741530   -2.896280
  H     -2.036450   -0.920500   -1.984040
  H     -0.921210   -1.242140   -2.984230
  O     -0.885520    1.737840    0.052730
  H     -1.032320    2.090180   -0.841890
  H     -1.284090    0.839590    0.017130
  O      0.885520   -1.737840    0.052730
  H      1.284090   -0.839590    0.017130
  H      1.032320   -2.090180   -0.841890
  O      1.737840    0.885520   -0.052730
  H      2.090180    1.032320    0.841890
  H      0.839590    1.284090   -0.017130
  O      1.752130    0.741530   -2.896280
  H      2.036450    0.920500   -1.984040
  H      0.921210    1.242140   -2.984230

 Total Charge           Charge          ....    0
 Multiplicity           Mult            ....    1
 Number of Electrons    NEL             ....   60
 Basis Dimension        Dim             ....  258

ORBITAL ENERGIES
----------------

  NO   OCC          E(Eh)            E(eV)
   0   2.0000     -20.614007      -560.9356
   1   2.0000     -20.594575      -560.4069
   2   2.0000     -20.573770      -559.8407
   3   2.0000     -20.559205      -559.4444
   4   2.0000     -20.539753      -558.9151
   5   2.0000     -20.528354      -558.6049
   6   2.0000      -1.395101       -37.9626
   7   2.0000      -1.373037       -37.3622
   8   2.0000      -1.352664       -36.8078
   9   2.0000      -1.350102       -36.7381
  10   2.0000      -1.321112       -35.9493
  11   2.0000      -1.308516       -35.6065
  12   2.0000      -0.752352       -20.4725
  13   2.0000      -0.739730       -20.1291
  14   2.0000      -0.724639       -19.7184
  15   2.0000      -0.715483       -19.4693
  16   2.0000      -0.690806       -18.7978
  17   2.0000      -0.682359       -18.5679
  18   2.0000      -0.639744       -17.4083
  19   2.0000      -0.617119       -16.7927
  20   2.0000      -0.594259       -16.1706
  21   2.0000      -0.590603       -16.0711
  22   2.0000      -0.564668       -15.3654
  23   2.0000      -0.557678       -15.1752
  24   2.0000      -0.543862       -14.7992
  25   2.0000      -0.530450       -14.4343
  26   2.0000      -0.518027       -14.0962
  27   2.0000      -0.501891       -13.6571
  28   2.0000      -0.485789       -13.2190
  29   2.0000      -0.476309       -12.9610
  30   0.0000       0.078127         2.1259
  31   0.0000       0.111379         3.0308
  32   0.0000       0.134414         3.6576
  33   0.0000       0.148412         4.0385
  34   0.0000       0.178714         4.8630

MULLIKEN ATOMIC CHARGES
-----------------------
   0 O :   -0.693636
   1 H :    0.352910
   2 H :    0.359222
   3 O :   -0.680503
   4 H :    0.330013
   5 H :    0.350149
   6 O :   -0.687123
   7 H :    0.362417
   8 H :    0.362285
   9 O :   -0.723572
  10 H :    0.365985
  11 H :    0.322928
  12 O :   -0.747940
  13 H :    0.384413
  14 H :    0.348511
  15 O :   -0.697758
  16 H :    0.374813
  17 H :    0.316885
Sum of atomic charges:   -0.0000000

LOEWDIN ATOMIC CHARGES
----------------------
   0 O :   -0.308278
   1 H :    0.164170
   2 H :    0.187255
   3 O :   -0.329404
   4 H :    0.159564
   5 H :    0.169603
   6 O :   -0.287881
   7 H :    0.174167
   8 H :    0.179606
   9 O :   -0.362590
  10 H :    0.141591
  11 H :    0.153957
  12 O :   -0.301332
  13 H :    0.154013
  14 H :    0.138886
  15 O :   -0.338986
  16 H :    0.151649
  17 H :    0.154010

  Mayer bond orders larger than 0.100000
B(  0-O ,  1-H ) :   0.8416 B(  0-O ,  2-H ) :   0.8315 B(  3-O ,  4-H ) :   0.8546
B(  3-O ,  5-H ) :   0.8403 B(  6-O ,  7-H ) :   0.8336 B(  6-O ,  8-H ) :   0.8273
B(  9-O , 10-H ) :   0.7886 B(  9-O , 11-H ) :   0.8592 B( 12-O , 13-H ) :   0.7981
B( 12-O , 14-H ) :   0.7805 B( 15-O , 16-H ) :   0.8131 B( 15-O , 17-H ) :   0.8611

MP2 TOTAL ENERGY:     -457.916320990 Eh
FINAL SINGLE POINT ENERGY      -457.916320989521

DIPOLE MOMENT
-------------
                                X             Y             Z
Electronic contribution:      0.05166       0.11840       0.20149
Nuclear contribution   :     -0.76337       1.13309       1.23053
                        -----------------------------------------
Total Dipole Moment    :     -0.71171       1.25150       1.43202
                        -----------------------------------------
Magnitude (a.u.)       :      2.03063
Magnitude (Debye)      :      5.16145

Rotational constants in cm-1:     0.057631     0.027105     0.026186
Rotational constants in MHz :  1727.745265   812.573955   785.022421

                             ****ORCA TERMINATED NORMALLY****
TOTAL RUN TIME: 0 days 0 hours 1 minutes 5 seconds 302 msec
