                         Program Version 4.2.0 -  RELEASE  -
|  1> # 12mecn.remya.etal.2.mol0,8,11
|  2> ! MP2 def2-TZVP EnGrad TightSCF
|  3>
|  4> %pal
|  5>     nprocs 6
|  6> end
|  7>
|  8> %maxcore 8000
|  9>
| 10> %scf
| 11>     ConvForced true
| 12> end
| 13>
| 14> *xyz 0 1
| 15> C  -0.869520000  -3.929380000   1.700199000
| 16> H  -0.057420000  -3.268850000   2.015352000
| 17> H  -0.697530000  -4.930670000   2.101524000
| 18> H  -1.821490000  -3.546590000   2.077146000
| 19> C  -0.916080000  -3.969960000   0.256749000
| 20> N  -0.955390000  -3.995980000  -0.909290000
| 21> C   1.912641000  -2.468050000  -1.750510000
| 22> H   2.876947000  -2.793500000  -2.151200000
| 23> H   1.688016000  -1.463720000  -2.122170000
| 24> H   1.123460000  -3.154780000  -2.069590000
| 25> C   1.977850000  -2.444240000  -0.306900000
| 26> N   2.036566000  -2.426130000   0.858249000
| 27> C   4.214163000   3.378139000   1.593627000
| 28> H   3.242643000   3.657109000   2.012358000
| 29> H   4.969258000   4.086643000   1.941290000
| 30> H   4.482966000   2.372549000   1.931698000
| 31> C   4.130759000   3.388436000   0.150192000
| 32> N   4.050180000   3.381449000  -1.013420000
| 33> *
| 34>
| 35>                          ****END OF INPUT****

CARTESIAN COORDINATES (ANGSTROEM)
---------------------------------
  C     -0.869520   -3.929380    1.700199
  H     -0.057420   -3.268850    2.015352
  H     -0.697530   -4.930670    2.101524
  H     -1.821490   -3.546590    2.077146
  C     -0.916080   -3.969960    0.256749
  N     -0.955390   -3.995980   -0.909290
  C      1.912641   -2.468050   -1.750510
  H      2.876947   -2.793500   -2.151200
  H      1.688016   -1.463720   -2.122170
  H      1.123460   -3.154780   -2.069590
  C      1.977850   -2.444240   -0.306900
  N      2.036566   -2.426130    0.858249
  C      4.214163    3.378139    1.593627
  H      3.242643    3.657109    2.012358
  H      4.969258    4.086643    1.941290
  H      4.482966    2.372549    1.931698
  C      4.130759    3.388436    0.150192
  N      4.050180    3.381449   -1.013420

 Total Charge           Charge          ....    0
 Multiplicity           Mult            ....    1
 Number of Electrons    NEL             ....   66
 Basis Dimension        Dim             ....  333

ORBITAL ENERGIES
----------------

  NO   OCC          E(Eh)            E(eV)
   0   2.0000     -15.572684      -423.7543
   1   2.0000     -15.571360      -423.7182
   2   2.0000     -15.570461      -423.6938
   3   2.0000     -11.283658      -307.0439
   4   2.0000     -11.283008      -307.0262
   5   2.0000     -11.282826      -307.0213
   6   2.0000     -11.280064      -306.9461
   7   2.0000     -11.272666      -306.7448
   8   2.0000     -11.269770      -306.6660
   9   2.0000      -1.217738       -33.1363
  10   2.0000      -1.214439       -33.0466
  11   2.0000      -1.213746       -33.0277
  12   2.0000      -1.042425       -28.3658
  13   2.0000      -1.036598       -28.2073
  14   2.0000      -1.032659       -28.1001
  15   2.0000      -0.699449       -19.0330
  16   2.0000      -0.694570       -18.9002
  17   2.0000      -0.689452       -18.7609
  18   2.0000      -0.630406       -17.1542
  19   2.0000      -0.630282       -17.1508
  20   2.0000      -0.629565       -17.1313
  21   2.0000      -0.623445       -16.9648
  22   2.0000      -0.619252       -16.8507
  23   2.0000      -0.614354       -16.7174
  24   2.0000      -0.559071       -15.2131
  25   2.0000      -0.555980       -15.1290
  26   2.0000      -0.555924       -15.1275
  27   2.0000      -0.459558       -12.5052
  28   2.0000      -0.459437       -12.5019
  29   2.0000      -0.457547       -12.4505
  30   2.0000      -0.457388       -12.4462
  31   2.0000      -0.456494       -12.4218
  32   2.0000      -0.455406       -12.3922
  33   0.0000       0.118423         3.2225
  34   0.0000       0.129544         3.5251
  35   0.0000       0.144012         3.9188
  36   0.0000       0.170498         4.6395
  37   0.0000       0.171974         4.6797

MULLIKEN ATOMIC CHARGES
-----------------------
   0 C :   -0.284234
   1 H :    0.202848
   2 H :    0.167124
   3 H :    0.166545
   4 C :   -0.104121
   5 N :   -0.148327
   6 C :   -0.283500
   7 H :    0.167093
   8 H :    0.172489
   9 H :    0.203353
  10 C :   -0.104780
  11 N :   -0.154489
  12 C :   -0.280140
  13 H :    0.171816
  14 H :    0.171279
  15 H :    0.176568
  16 C :   -0.144799
  17 N :   -0.094725
Sum of atomic charges:   -0.0000000

LOEWDIN ATOMIC CHARGES
----------------------
   0 C :   -0.282161
   1 H :    0.156705
   2 H :    0.151956
   3 H :    0.151291
   4 C :   -0.208315
   5 N :    0.030885
   6 C :   -0.281246
   7 H :    0.151598
   8 H :    0.155057
   9 H :    0.156713
  10 C :   -0.207743
  11 N :    0.025261
  12 C :   -0.283475
  13 H :    0.153096
  14 H :    0.150842
  15 H :    0.154469
  16 C :   -0.218624
  17 N :    0.043690

  Mayer bond orders larger than 0.100000
B(  0-C ,  1-H ) :   0.9024 B(  0-C ,  2-H ) :   0.9148 B(  0-C ,  3-H ) :   0.9166
B(  0-C ,  4-C ) :   0.9017 B(  4-C ,  5-N ) :   2.7735 B(  6-C ,  7-H ) :   0.9156
B(  6-C ,  8-H ) :   0.9127 B(  6-C ,  9-H ) :   0.9020 B(  6-C , 10-C ) :   0.9024
B( 10-C , 11-N ) :   2.7786 B( 12-C , 13-H ) :   0.9160 B( 12-C , 14-H ) :   0.9166
B( 12-C , 15-H ) :   0.9150 B( 12-C , 16-C ) :   0.9030 B( 16-C , 17-N ) :   2.8387

MP2 TOTAL ENERGY:     -397.460297146 Eh
FINAL SINGLE POINT ENERGY      -397.460297146330

DIPOLE MOMENT
-------------
                                X             Y             Z
Electronic contribution:     -0.13238      -0.02684      -3.13689
Nuclear contribution   :      0.20431       0.03974       4.64702
                        -----------------------------------------
Total Dipole Moment    :      0.07193       0.01290       1.51013
                        -----------------------------------------
Magnitude (a.u.)       :      1.51190
Magnitude (Debye)      :      3.84294

Rotational constants in cm-1:     0.069415     0.009554     0.008919
Rotational constants in MHz :  2081.008437   286.417542   267.398987

                             ****ORCA TERMINATED NORMALLY****
TOTAL RUN TIME: 0 days 0 hours 2 minutes 49 seconds 109 msec
