                         Program Version 4.2.0 -  RELEASE  -
|  1> # 12h2o.su.etal.mol0,3,5,6
|  2> ! MP2 def2-TZVP EnGrad TightSCF
|  3>
|  4> %pal
|  5>     nprocs 6
|  6> end
|  7>
|  8> %maxcore 8000
|  9>
| 10> %scf
| 11>     ConvForced true
| 12> end
| 13>
| 14> *xyz 0 1
| 15> O   1.794470000   0.923410000   2.768350000
| 16> H   2.338250000   1.359750000   3.430940000
| 17> H   0.879480000   1.303000000   2.865760000
| 18> O  -1.752130000  -0.741530000  -2.896280000
| 19> H  -2.036450000  -0.920500000  -1.984040000
| 20> H  -0.921210000  -1.242140000  -2.984230000
| 21> O   0.885520000  -1.737840000   0.052730000
| 22> H   1.284090000  -0.839590000   0.017130000
| 23> H   1.032320000  -2.090180000  -0.841890000
| 24> O   1.737840000   0.885520000  -0.052730000
| 25> H   2.090180000   1.032320000   0.841890000
| 26> H   0.839590000   1.284090000  -0.017130000
| 27> *
| 28>
| 29>                          ****END OF INPUT****

CARTESIAN COORDINATES (ANGSTROEM)
---------------------------------
  O      1.794470    0.923410    2.768350
  H      2.338250    1.359750    3.430940
  H      0.879480    1.303000    2.865760
  O     -1.752130   -0.741530   -2.896280
  H     -2.036450   -0.920500   -1.984040
  H     -0.921210   -1.242140   -2.984230
  O      0.885520   -1.737840    0.052730
  H      1.284090   -0.839590    0.017130
  H      1.032320   -2.090180   -0.841890
  O      1.737840    0.885520   -0.052730
  H      2.090180    1.032320    0.841890
  H      0.839590    1.284090   -0.017130

 Total Charge           Charge          ....    0
 Multiplicity           Mult            ....    1
 Number of Electrons    NEL             ....   40
 Basis Dimension        Dim             ....  172

ORBITAL ENERGIES
----------------

  NO   OCC          E(Eh)            E(eV)
   0   2.0000     -20.600269      -560.5618
   1   2.0000     -20.569558      -559.7261
   2   2.0000     -20.557424      -559.3959
   3   2.0000     -20.525775      -558.5347
   4   2.0000      -1.378687       -37.5160
   5   2.0000      -1.352670       -36.8080
   6   2.0000      -1.336562       -36.3697
   7   2.0000      -1.306274       -35.5455
   8   2.0000      -0.745129       -20.2760
   9   2.0000      -0.716249       -19.4901
  10   2.0000      -0.699562       -19.0361
  11   2.0000      -0.680760       -18.5244
  12   2.0000      -0.621657       -16.9161
  13   2.0000      -0.591687       -16.1006
  14   2.0000      -0.574433       -15.6311
  15   2.0000      -0.556214       -15.1354
  16   2.0000      -0.538365       -14.6496
  17   2.0000      -0.504422       -13.7260
  18   2.0000      -0.501666       -13.6510
  19   2.0000      -0.473604       -12.8874
  20   0.0000       0.092088         2.5058
  21   0.0000       0.116760         3.1772
  22   0.0000       0.155476         4.2307
  23   0.0000       0.180963         4.9243
  24   0.0000       0.188285         5.1235

MULLIKEN ATOMIC CHARGES
-----------------------
   0 O :   -0.690547
   1 H :    0.354972
   2 H :    0.352674
   3 O :   -0.676775
   4 H :    0.340641
   5 H :    0.333517
   6 O :   -0.714451
   7 H :    0.361516
   8 H :    0.315293
   9 O :   -0.694492
  10 H :    0.379761
  11 H :    0.337892
Sum of atomic charges:   -0.0000000

LOEWDIN ATOMIC CHARGES
----------------------
   0 O :   -0.307311
   1 H :    0.164946
   2 H :    0.185208
   3 O :   -0.332288
   4 H :    0.165945
   5 H :    0.163965
   6 O :   -0.361836
   7 H :    0.143094
   8 H :    0.151481
   9 O :   -0.297503
  10 H :    0.153780
  11 H :    0.170520

  Mayer bond orders larger than 0.100000
B(  0-O ,  1-H ) :   0.8402 B(  0-O ,  2-H ) :   0.8357 B(  3-O ,  4-H ) :   0.8501
B(  3-O ,  5-H ) :   0.8542 B(  6-O ,  7-H ) :   0.7913 B(  6-O ,  8-H ) :   0.8642
B(  9-O , 10-H ) :   0.8021 B(  9-O , 11-H ) :   0.8464

MP2 TOTAL ENERGY:     -305.267449024 Eh
FINAL SINGLE POINT ENERGY      -305.267449023831

DIPOLE MOMENT
-------------
                                X             Y             Z
Electronic contribution:      0.12073       0.10500       0.06933
Nuclear contribution   :      0.14554       1.02183       1.31870
                        -----------------------------------------
Total Dipole Moment    :      0.26627       1.12683       1.38803
                        -----------------------------------------
Magnitude (a.u.)       :      1.80756
Magnitude (Debye)      :      4.59445

Rotational constants in cm-1:     0.189298     0.035591     0.033183
Rotational constants in MHz :  5675.016940  1066.995007   994.787423

                             ****ORCA TERMINATED NORMALLY****
TOTAL RUN TIME: 0 days 0 hours 0 minutes 16 seconds 553 msec
