                         Program Version 4.2.0 -  RELEASE  -
|  1> # 12h2o.su.etal.mol0,4,5,6,10,11
|  2> ! MP2 def2-TZVP EnGrad TightSCF
|  3>
|  4> %pal
|  5>     nprocs 6
|  6> end
|  7>
|  8> %maxcore 8000
|  9>
| 10> %scf
| 11>     ConvForced true
| 12> end
| 13>
| 14> *xyz 0 1
| 15> O   1.794470000   0.923410000   2.768350000
| 16> H   2.338250000   1.359750000   3.430940000
| 17> H   0.879480000   1.303000000   2.865760000
| 18> O  -0.885520000   1.737840000   0.052730000
| 19> H  -1.032320000   2.090180000  -0.841890000
| 20> H  -1.284090000   0.839590000   0.017130000
| 21> O   0.885520000  -1.737840000   0.052730000
| 22> H   1.284090000  -0.839590000   0.017130000
| 23> H   1.032320000  -2.090180000  -0.841890000
| 24> O   1.737840000   0.885520000  -0.052730000
| 25> H   2.090180000   1.032320000   0.841890000
| 26> H   0.839590000   1.284090000  -0.017130000
| 27> O  -0.923410000   1.794470000  -2.768350000
| 28> H  -1.359750000   2.338250000  -3.430940000
| 29> H  -1.303000000   0.879480000  -2.865760000
| 30> O  -0.741530000   1.752130000   2.896280000
| 31> H  -0.920500000   2.036450000   1.984040000
| 32> H  -1.242140000   0.921210000   2.984230000
| 33> *
| 34>
| 35>                          ****END OF INPUT****

CARTESIAN COORDINATES (ANGSTROEM)
---------------------------------
  O      1.794470    0.923410    2.768350
  H      2.338250    1.359750    3.430940
  H      0.879480    1.303000    2.865760
  O     -0.885520    1.737840    0.052730
  H     -1.032320    2.090180   -0.841890
  H     -1.284090    0.839590    0.017130
  O      0.885520   -1.737840    0.052730
  H      1.284090   -0.839590    0.017130
  H      1.032320   -2.090180   -0.841890
  O      1.737840    0.885520   -0.052730
  H      2.090180    1.032320    0.841890
  H      0.839590    1.284090   -0.017130
  O     -0.923410    1.794470   -2.768350
  H     -1.359750    2.338250   -3.430940
  H     -1.303000    0.879480   -2.865760
  O     -0.741530    1.752130    2.896280
  H     -0.920500    2.036450    1.984040
  H     -1.242140    0.921210    2.984230

 Total Charge           Charge          ....    0
 Multiplicity           Mult            ....    1
 Number of Electrons    NEL             ....   60
 Basis Dimension        Dim             ....  258

ORBITAL ENERGIES
----------------

  NO   OCC          E(Eh)            E(eV)
   0   2.0000     -20.608161      -560.7766
   1   2.0000     -20.596287      -560.4535
   2   2.0000     -20.576625      -559.9184
   3   2.0000     -20.529670      -558.6407
   4   2.0000     -20.517259      -558.3030
   5   2.0000     -20.511034      -558.1336
   6   2.0000      -1.390087       -37.8262
   7   2.0000      -1.379142       -37.5284
   8   2.0000      -1.364003       -37.1164
   9   2.0000      -1.317059       -35.8390
  10   2.0000      -1.305880       -35.5348
  11   2.0000      -1.288845       -35.0713
  12   2.0000      -0.754915       -20.5423
  13   2.0000      -0.745435       -20.2843
  14   2.0000      -0.724460       -19.7136
  15   2.0000      -0.698677       -19.0120
  16   2.0000      -0.683480       -18.5984
  17   2.0000      -0.663858       -18.0645
  18   2.0000      -0.641381       -17.4529
  19   2.0000      -0.618287       -16.8244
  20   2.0000      -0.594203       -16.1691
  21   2.0000      -0.580447       -15.7948
  22   2.0000      -0.553682       -15.0665
  23   2.0000      -0.547266       -14.8919
  24   2.0000      -0.540471       -14.7070
  25   2.0000      -0.518162       -14.0999
  26   2.0000      -0.508890       -13.8476
  27   2.0000      -0.477586       -12.9958
  28   2.0000      -0.464957       -12.6521
  29   2.0000      -0.458014       -12.4632
  30   0.0000       0.085170         2.3176
  31   0.0000       0.123519         3.3611
  32   0.0000       0.153207         4.1690
  33   0.0000       0.168423         4.5830
  34   0.0000       0.186612         5.0780

MULLIKEN ATOMIC CHARGES
-----------------------
   0 O :   -0.731817
   1 H :    0.331970
   2 H :    0.369841
   3 O :   -0.731268
   4 H :    0.392093
   5 H :    0.351758
   6 O :   -0.728256
   7 H :    0.364689
   8 H :    0.316284
   9 O :   -0.730584
  10 H :    0.375515
  11 H :    0.355381
  12 O :   -0.692591
  13 H :    0.357638
  14 H :    0.356412
  15 O :   -0.694427
  16 H :    0.386382
  17 H :    0.350981
Sum of atomic charges:    0.0000000

LOEWDIN ATOMIC CHARGES
----------------------
   0 O :   -0.338785
   1 H :    0.151665
   2 H :    0.144030
   3 O :   -0.285113
   4 H :    0.159358
   5 H :    0.174793
   6 O :   -0.369738
   7 H :    0.142329
   8 H :    0.152168
   9 O :   -0.318577
  10 H :    0.149454
  11 H :    0.137403
  12 O :   -0.306902
  13 H :    0.166385
  14 H :    0.186971
  15 O :   -0.275460
  16 H :    0.157445
  17 H :    0.172573

  Mayer bond orders larger than 0.100000
B(  0-O ,  1-H ) :   0.8532 B(  0-O ,  2-H ) :   0.7651 B(  3-O ,  4-H ) :   0.7882
B(  3-O ,  5-H ) :   0.8303 B(  6-O ,  7-H ) :   0.7754 B(  6-O ,  8-H ) :   0.8640
B(  7-H ,  9-O ) :   0.1063 B(  9-O , 10-H ) :   0.8004 B(  9-O , 11-H ) :   0.8034
B( 12-O , 13-H ) :   0.8389 B( 12-O , 14-H ) :   0.8332 B( 15-O , 16-H ) :   0.8022
B( 15-O , 17-H ) :   0.8412

MP2 TOTAL ENERGY:     -457.927877226 Eh
FINAL SINGLE POINT ENERGY      -457.927877225937

DIPOLE MOMENT
-------------
                                X             Y             Z
Electronic contribution:     -0.08150       0.43397       0.04594
Nuclear contribution   :     -2.00818       0.36914      -1.46039
                        -----------------------------------------
Total Dipole Moment    :     -2.08968       0.80311      -1.41444
                        -----------------------------------------
Magnitude (a.u.)       :      2.64810
Magnitude (Debye)      :      6.73093

Rotational constants in cm-1:     0.056669     0.033061     0.025351
Rotational constants in MHz :  1698.898053   991.145267   760.007290

                             ****ORCA TERMINATED NORMALLY****
TOTAL RUN TIME: 0 days 0 hours 1 minutes 8 seconds 856 msec
