                         Program Version 4.2.0 -  RELEASE  -
|  1> # 12h2o.su.etal.mol0,2,3,5,6,9,10
|  2> ! MP2 def2-TZVP EnGrad TightSCF
|  3>
|  4> %pal
|  5>     nprocs 6
|  6> end
|  7>
|  8> %maxcore 8000
|  9>
| 10> %scf
| 11>     ConvForced true
| 12> end
| 13>
| 14> *xyz 0 1
| 15> O   1.794470000   0.923410000   2.768350000
| 16> H   2.338250000   1.359750000   3.430940000
| 17> H   0.879480000   1.303000000   2.865760000
| 18> O   0.923410000  -1.794470000  -2.768350000
| 19> H   1.359750000  -2.338250000  -3.430940000
| 20> H   1.303000000  -0.879480000  -2.865760000
| 21> O  -1.752130000  -0.741530000  -2.896280000
| 22> H  -2.036450000  -0.920500000  -1.984040000
| 23> H  -0.921210000  -1.242140000  -2.984230000
| 24> O   0.885520000  -1.737840000   0.052730000
| 25> H   1.284090000  -0.839590000   0.017130000
| 26> H   1.032320000  -2.090180000  -0.841890000
| 27> O   1.737840000   0.885520000  -0.052730000
| 28> H   2.090180000   1.032320000   0.841890000
| 29> H   0.839590000   1.284090000  -0.017130000
| 30> O   0.741530000  -1.752130000   2.896280000
| 31> H   0.920500000  -2.036450000   1.984040000
| 32> H   1.242140000  -0.921210000   2.984230000
| 33> O  -0.923410000   1.794470000  -2.768350000
| 34> H  -1.359750000   2.338250000  -3.430940000
| 35> H  -1.303000000   0.879480000  -2.865760000
| 36> *
| 37>
| 38>                          ****END OF INPUT****

CARTESIAN COORDINATES (ANGSTROEM)
---------------------------------
  O      1.794470    0.923410    2.768350
  H      2.338250    1.359750    3.430940
  H      0.879480    1.303000    2.865760
  O      0.923410   -1.794470   -2.768350
  H      1.359750   -2.338250   -3.430940
  H      1.303000   -0.879480   -2.865760
  O     -1.752130   -0.741530   -2.896280
  H     -2.036450   -0.920500   -1.984040
  H     -0.921210   -1.242140   -2.984230
  O      0.885520   -1.737840    0.052730
  H      1.284090   -0.839590    0.017130
  H      1.032320   -2.090180   -0.841890
  O      1.737840    0.885520   -0.052730
  H      2.090180    1.032320    0.841890
  H      0.839590    1.284090   -0.017130
  O      0.741530   -1.752130    2.896280
  H      0.920500   -2.036450    1.984040
  H      1.242140   -0.921210    2.984230
  O     -0.923410    1.794470   -2.768350
  H     -1.359750    2.338250   -3.430940
  H     -1.303000    0.879480   -2.865760

 Total Charge           Charge          ....    0
 Multiplicity           Mult            ....    1
 Number of Electrons    NEL             ....   70
 Basis Dimension        Dim             ....  301

ORBITAL ENERGIES
----------------

  NO   OCC          E(Eh)            E(eV)
   0   2.0000     -20.614653      -560.9532
   1   2.0000     -20.610715      -560.8461
   2   2.0000     -20.569768      -559.7318
   3   2.0000     -20.569624      -559.7279
   4   2.0000     -20.522185      -558.4371
   5   2.0000     -20.520862      -558.4010
   6   2.0000     -20.497385      -557.7622
   7   2.0000      -1.395092       -37.9624
   8   2.0000      -1.391313       -37.8596
   9   2.0000      -1.358347       -36.9625
  10   2.0000      -1.353439       -36.8289
  11   2.0000      -1.307842       -35.5882
  12   2.0000      -1.303895       -35.4808
  13   2.0000      -1.282174       -34.8897
  14   2.0000      -0.760484       -20.6938
  15   2.0000      -0.756844       -20.5948
  16   2.0000      -0.720639       -19.6096
  17   2.0000      -0.717324       -19.5194
  18   2.0000      -0.691584       -18.8190
  19   2.0000      -0.689621       -18.7655
  20   2.0000      -0.663865       -18.0647
  21   2.0000      -0.635440       -17.2912
  22   2.0000      -0.630674       -17.1615
  23   2.0000      -0.601700       -16.3731
  24   2.0000      -0.591651       -16.0996
  25   2.0000      -0.576808       -15.6957
  26   2.0000      -0.557001       -15.1568
  27   2.0000      -0.547930       -14.9099
  28   2.0000      -0.536511       -14.5992
  29   2.0000      -0.514508       -14.0005
  30   2.0000      -0.503261       -13.6944
  31   2.0000      -0.502196       -13.6654
  32   2.0000      -0.473010       -12.8712
  33   2.0000      -0.472092       -12.8463
  34   2.0000      -0.447192       -12.1687
  35   0.0000       0.091791         2.4978
  36   0.0000       0.104983         2.8567
  37   0.0000       0.143529         3.9056
  38   0.0000       0.164473         4.4755
  39   0.0000       0.175074         4.7640

MULLIKEN ATOMIC CHARGES
-----------------------
   0 O :   -0.712579
   1 H :    0.365637
   2 H :    0.369376
   3 O :   -0.722024
   4 H :    0.363580
   5 H :    0.384288
   6 O :   -0.702514
   7 H :    0.359168
   8 H :    0.373803
   9 O :   -0.741902
  10 H :    0.343830
  11 H :    0.358503
  12 O :   -0.699627
  13 H :    0.376046
  14 H :    0.354173
  15 O :   -0.726612
  16 H :    0.371579
  17 H :    0.333792
  18 O :   -0.740474
  19 H :    0.326574
  20 H :    0.365385
Sum of atomic charges:    0.0000000

LOEWDIN ATOMIC CHARGES
----------------------
   0 O :   -0.286668
   1 H :    0.168405
   2 H :    0.191622
   3 O :   -0.287740
   4 H :    0.167823
   5 H :    0.196603
   6 O :   -0.282433
   7 H :    0.173506
   8 H :    0.152786
   9 O :   -0.348720
  10 H :    0.138178
  11 H :    0.143810
  12 O :   -0.298501
  13 H :    0.151621
  14 H :    0.176296
  15 O :   -0.357474
  16 H :    0.151198
  17 H :    0.136438
  18 O :   -0.377157
  19 H :    0.149394
  20 H :    0.141012

  Mayer bond orders larger than 0.100000
B(  0-O ,  1-H ) :   0.8312 B(  0-O ,  2-H ) :   0.8214 B(  3-O ,  4-H ) :   0.8324
B(  3-O ,  5-H ) :   0.8097 B(  6-O ,  7-H ) :   0.8356 B(  6-O ,  8-H ) :   0.8033
B(  9-O , 10-H ) :   0.7842 B(  9-O , 11-H ) :   0.8272 B( 12-O , 13-H ) :   0.8081
B( 12-O , 14-H ) :   0.8335 B( 15-O , 16-H ) :   0.8156 B( 15-O , 17-H ) :   0.8447
B( 18-O , 19-H ) :   0.8595 B( 18-O , 20-H ) :   0.7737

MP2 TOTAL ENERGY:     -534.245771583 Eh
FINAL SINGLE POINT ENERGY      -534.245771582994

DIPOLE MOMENT
-------------
                                X             Y             Z
Electronic contribution:      0.11194      -0.24534      -0.04642
Nuclear contribution   :      0.71119       1.47680      -0.63259
                        -----------------------------------------
Total Dipole Moment    :      0.82314       1.23145      -0.67901
                        -----------------------------------------
Magnitude (a.u.)       :      1.62944
Magnitude (Debye)      :      4.14172

Rotational constants in cm-1:     0.048115     0.018734     0.015986
Rotational constants in MHz :  1442.458267   561.634108   479.240082

                             ****ORCA TERMINATED NORMALLY****
TOTAL RUN TIME: 0 days 0 hours 1 minutes 45 seconds 43 msec
