                         Program Version 4.2.0 -  RELEASE  -
|  1> # 12h2o.su.etal.mol2,4,8,10
|  2> ! MP2 def2-TZVP EnGrad TightSCF
|  3>
|  4> %pal
|  5>     nprocs 6
|  6> end
|  7>
|  8> %maxcore 8000
|  9>
| 10> %scf
| 11>     ConvForced true
| 12> end
| 13>
| 14> *xyz 0 1
| 15> O   0.923410000  -1.794470000  -2.768350000
| 16> H   1.359750000  -2.338250000  -3.430940000
| 17> H   1.303000000  -0.879480000  -2.865760000
| 18> O  -0.885520000   1.737840000   0.052730000
| 19> H  -1.032320000   2.090180000  -0.841890000
| 20> H  -1.284090000   0.839590000   0.017130000
| 21> O   1.752130000   0.741530000  -2.896280000
| 22> H   2.036450000   0.920500000  -1.984040000
| 23> H   0.921210000   1.242140000  -2.984230000
| 24> O  -0.923410000   1.794470000  -2.768350000
| 25> H  -1.359750000   2.338250000  -3.430940000
| 26> H  -1.303000000   0.879480000  -2.865760000
| 27> *
| 28>
| 29>                          ****END OF INPUT****

CARTESIAN COORDINATES (ANGSTROEM)
---------------------------------
  O      0.923410   -1.794470   -2.768350
  H      1.359750   -2.338250   -3.430940
  H      1.303000   -0.879480   -2.865760
  O     -0.885520    1.737840    0.052730
  H     -1.032320    2.090180   -0.841890
  H     -1.284090    0.839590    0.017130
  O      1.752130    0.741530   -2.896280
  H      2.036450    0.920500   -1.984040
  H      0.921210    1.242140   -2.984230
  O     -0.923410    1.794470   -2.768350
  H     -1.359750    2.338250   -3.430940
  H     -1.303000    0.879480   -2.865760

 Total Charge           Charge          ....    0
 Multiplicity           Mult            ....    1
 Number of Electrons    NEL             ....   40
 Basis Dimension        Dim             ....  172

ORBITAL ENERGIES
----------------

  NO   OCC          E(Eh)            E(eV)
   0   2.0000     -20.622373      -561.1633
   1   2.0000     -20.572259      -559.7996
   2   2.0000     -20.544780      -559.0519
   3   2.0000     -20.519290      -558.3583
   4   2.0000      -1.402774       -38.1714
   5   2.0000      -1.360900       -37.0320
   6   2.0000      -1.323871       -36.0244
   7   2.0000      -1.301258       -35.4090
   8   2.0000      -0.768319       -20.9070
   9   2.0000      -0.723911       -19.6986
  10   2.0000      -0.695981       -18.9386
  11   2.0000      -0.688980       -18.7481
  12   2.0000      -0.639988       -17.4149
  13   2.0000      -0.603958       -16.4345
  14   2.0000      -0.577056       -15.7025
  15   2.0000      -0.550825       -14.9887
  16   2.0000      -0.544136       -14.8067
  17   2.0000      -0.503665       -13.7054
  18   2.0000      -0.490129       -13.3371
  19   2.0000      -0.470041       -12.7905
  20   0.0000       0.088848         2.4177
  21   0.0000       0.145191         3.9509
  22   0.0000       0.162158         4.4125
  23   0.0000       0.173921         4.7326
  24   0.0000       0.196626         5.3505

MULLIKEN ATOMIC CHARGES
-----------------------
   0 O :   -0.739535
   1 H :    0.326021
   2 H :    0.364344
   3 O :   -0.691749
   4 H :    0.360469
   5 H :    0.327042
   6 O :   -0.700589
   7 H :    0.360224
   8 H :    0.371250
   9 O :   -0.720715
  10 H :    0.367156
  11 H :    0.376083
Sum of atomic charges:    0.0000000

LOEWDIN ATOMIC CHARGES
----------------------
   0 O :   -0.376830
   1 H :    0.148715
   2 H :    0.140561
   3 O :   -0.344529
   4 H :    0.145839
   5 H :    0.166394
   6 O :   -0.281818
   7 H :    0.174116
   8 H :    0.151768
   9 O :   -0.287580
  10 H :    0.169362
  11 H :    0.194001

  Mayer bond orders larger than 0.100000
B(  0-O ,  1-H ) :   0.8602 B(  0-O ,  2-H ) :   0.7776 B(  3-O ,  4-H ) :   0.8274
B(  3-O ,  5-H ) :   0.8565 B(  6-O ,  7-H ) :   0.8352 B(  6-O ,  8-H ) :   0.8075
B(  9-O , 10-H ) :   0.8301 B(  9-O , 11-H ) :   0.8148

MP2 TOTAL ENERGY:     -305.275573442 Eh
FINAL SINGLE POINT ENERGY      -305.275573441821

DIPOLE MOMENT
-------------
                                X             Y             Z
Electronic contribution:      0.06851       0.39438       0.07943
Nuclear contribution   :     -0.90891       0.11126      -1.35336
                        -----------------------------------------
Total Dipole Moment    :     -0.84040       0.50564      -1.27393
                        -----------------------------------------
Magnitude (a.u.)       :      1.60774
Magnitude (Debye)      :      4.08656

Rotational constants in cm-1:     0.147761     0.058060     0.052236
Rotational constants in MHz :  4429.762138  1740.585223  1566.006180

                             ****ORCA TERMINATED NORMALLY****
TOTAL RUN TIME: 0 days 0 hours 0 minutes 20 seconds 239 msec
