                         Program Version 4.2.0 -  RELEASE  -
|  1> # 12h2o.su.etal.mol0,2,5,9,10
|  2> ! MP2 def2-TZVP EnGrad TightSCF
|  3>
|  4> %pal
|  5>     nprocs 6
|  6> end
|  7>
|  8> %maxcore 8000
|  9>
| 10> %scf
| 11>     ConvForced true
| 12> end
| 13>
| 14> *xyz 0 1
| 15> O   1.794470000   0.923410000   2.768350000
| 16> H   2.338250000   1.359750000   3.430940000
| 17> H   0.879480000   1.303000000   2.865760000
| 18> O   0.923410000  -1.794470000  -2.768350000
| 19> H   1.359750000  -2.338250000  -3.430940000
| 20> H   1.303000000  -0.879480000  -2.865760000
| 21> O   0.885520000  -1.737840000   0.052730000
| 22> H   1.284090000  -0.839590000   0.017130000
| 23> H   1.032320000  -2.090180000  -0.841890000
| 24> O   0.741530000  -1.752130000   2.896280000
| 25> H   0.920500000  -2.036450000   1.984040000
| 26> H   1.242140000  -0.921210000   2.984230000
| 27> O  -0.923410000   1.794470000  -2.768350000
| 28> H  -1.359750000   2.338250000  -3.430940000
| 29> H  -1.303000000   0.879480000  -2.865760000
| 30> *
| 31>
| 32>                          ****END OF INPUT****

CARTESIAN COORDINATES (ANGSTROEM)
---------------------------------
  O      1.794470    0.923410    2.768350
  H      2.338250    1.359750    3.430940
  H      0.879480    1.303000    2.865760
  O      0.923410   -1.794470   -2.768350
  H      1.359750   -2.338250   -3.430940
  H      1.303000   -0.879480   -2.865760
  O      0.885520   -1.737840    0.052730
  H      1.284090   -0.839590    0.017130
  H      1.032320   -2.090180   -0.841890
  O      0.741530   -1.752130    2.896280
  H      0.920500   -2.036450    1.984040
  H      1.242140   -0.921210    2.984230
  O     -0.923410    1.794470   -2.768350
  H     -1.359750    2.338250   -3.430940
  H     -1.303000    0.879480   -2.865760

 Total Charge           Charge          ....    0
 Multiplicity           Mult            ....    1
 Number of Electrons    NEL             ....   50
 Basis Dimension        Dim             ....  215

ORBITAL ENERGIES
----------------

  NO   OCC          E(Eh)            E(eV)
   0   2.0000     -20.595311      -560.4269
   1   2.0000     -20.581149      -560.0415
   2   2.0000     -20.569921      -559.7360
   3   2.0000     -20.542783      -558.9975
   4   2.0000     -20.488514      -557.5208
   5   2.0000      -1.373199       -37.3666
   6   2.0000      -1.358762       -36.9738
   7   2.0000      -1.345246       -36.6060
   8   2.0000      -1.324128       -36.0314
   9   2.0000      -1.273876       -34.6639
  10   2.0000      -0.740009       -20.1367
  11   2.0000      -0.725805       -19.7501
  12   2.0000      -0.713424       -19.4133
  13   2.0000      -0.693787       -18.8789
  14   2.0000      -0.651359       -17.7244
  15   2.0000      -0.611273       -16.6336
  16   2.0000      -0.596925       -16.2432
  17   2.0000      -0.581715       -15.8293
  18   2.0000      -0.570364       -15.5204
  19   2.0000      -0.538456       -14.6521
  20   2.0000      -0.525026       -14.2867
  21   2.0000      -0.513258       -13.9665
  22   2.0000      -0.502902       -13.6846
  23   2.0000      -0.486463       -13.2373
  24   2.0000      -0.438658       -11.9365
  25   0.0000       0.094969         2.5842
  26   0.0000       0.119445         3.2503
  27   0.0000       0.132606         3.6084
  28   0.0000       0.171010         4.6534
  29   0.0000       0.191980         5.2240

MULLIKEN ATOMIC CHARGES
-----------------------
   0 O :   -0.694949
   1 H :    0.350805
   2 H :    0.361949
   3 O :   -0.697571
   4 H :    0.352418
   5 H :    0.357441
   6 O :   -0.706625
   7 H :    0.332394
   8 H :    0.369094
   9 O :   -0.729353
  10 H :    0.366806
  11 H :    0.336969
  12 O :   -0.690770
  13 H :    0.340771
  14 H :    0.350621
Sum of atomic charges:   -0.0000000

LOEWDIN ATOMIC CHARGES
----------------------
   0 O :   -0.311970
   1 H :    0.162544
   2 H :    0.188779
   3 O :   -0.311246
   4 H :    0.163740
   5 H :    0.185709
   6 O :   -0.325625
   7 H :    0.167430
   8 H :    0.151107
   9 O :   -0.358848
  10 H :    0.149526
  11 H :    0.138546
  12 O :   -0.341644
  13 H :    0.158979
  14 H :    0.182974

  Mayer bond orders larger than 0.100000
B(  0-O ,  1-H ) :   0.8427 B(  0-O ,  2-H ) :   0.8297 B(  3-O ,  4-H ) :   0.8414
B(  3-O ,  5-H ) :   0.8302 B(  6-O ,  7-H ) :   0.8481 B(  6-O ,  8-H ) :   0.8131
B(  9-O , 10-H ) :   0.8230 B(  9-O , 11-H ) :   0.8360 B( 12-O , 13-H ) :   0.8518
B( 12-O , 14-H ) :   0.8387

MP2 TOTAL ENERGY:     -381.584829967 Eh
FINAL SINGLE POINT ENERGY      -381.584829966848

DIPOLE MOMENT
-------------
                                X             Y             Z
Electronic contribution:     -0.09944      -0.12186      -0.02368
Nuclear contribution   :      0.71062       1.58851      -2.09298
                        -----------------------------------------
Total Dipole Moment    :      0.61118       1.46665      -2.11666
                        -----------------------------------------
Magnitude (a.u.)       :      2.64667
Magnitude (Debye)      :      6.72730

Rotational constants in cm-1:     0.065762     0.026007     0.020170
Rotational constants in MHz :  1971.504178   779.669294   604.676753

                             ****ORCA TERMINATED NORMALLY****
TOTAL RUN TIME: 0 days 0 hours 0 minutes 25 seconds 473 msec
