                         Program Version 4.2.0 -  RELEASE  -
|  1> # 12h2o.su.etal.mol1,3
|  2> ! MP2 def2-TZVP EnGrad TightSCF
|  3>
|  4> %pal
|  5>     nprocs 6
|  6> end
|  7>
|  8> %maxcore 8000
|  9>
| 10> %scf
| 11>     ConvForced true
| 12> end
| 13>
| 14> *xyz 0 1
| 15> O  -1.794470000  -0.923410000   2.768350000
| 16> H  -2.338250000  -1.359750000   3.430940000
| 17> H  -0.879480000  -1.303000000   2.865760000
| 18> O  -1.752130000  -0.741530000  -2.896280000
| 19> H  -2.036450000  -0.920500000  -1.984040000
| 20> H  -0.921210000  -1.242140000  -2.984230000
| 21> *
| 22>
| 23>                          ****END OF INPUT****

CARTESIAN COORDINATES (ANGSTROEM)
---------------------------------
  O     -1.794470   -0.923410    2.768350
  H     -2.338250   -1.359750    3.430940
  H     -0.879480   -1.303000    2.865760
  O     -1.752130   -0.741530   -2.896280
  H     -2.036450   -0.920500   -1.984040
  H     -0.921210   -1.242140   -2.984230

 Total Charge           Charge          ....    0
 Multiplicity           Mult            ....    1
 Number of Electrons    NEL             ....   20
 Basis Dimension        Dim             ....   86

ORBITAL ENERGIES
----------------

  NO   OCC          E(Eh)            E(eV)
   0   2.0000     -20.568593      -559.6999
   1   2.0000     -20.557277      -559.3919
   2   2.0000      -1.343905       -36.5695
   3   2.0000      -1.336570       -36.3699
   4   2.0000      -0.712333       -19.3836
   5   2.0000      -0.699342       -19.0301
   6   2.0000      -0.579866       -15.7790
   7   2.0000      -0.574094       -15.6219
   8   2.0000      -0.511792       -13.9266
   9   2.0000      -0.501457       -13.6453
  10   0.0000       0.117525         3.1980
  11   0.0000       0.134115         3.6495
  12   0.0000       0.189996         5.1701
  13   0.0000       0.203690         5.5427
  14   0.0000       0.514152        13.9908

MULLIKEN ATOMIC CHARGES
-----------------------
   0 O :   -0.682791
   1 H :    0.340640
   2 H :    0.342303
   3 O :   -0.675618
   4 H :    0.340832
   5 H :    0.334634
Sum of atomic charges:   -0.0000000

LOEWDIN ATOMIC CHARGES
----------------------
   0 O :   -0.339201
   1 H :    0.158638
   2 H :    0.180650
   3 O :   -0.332566
   4 H :    0.166950
   5 H :    0.165529

  Mayer bond orders larger than 0.100000
B(  0-O ,  1-H ) :   0.8521 B(  0-O ,  2-H ) :   0.8460 B(  3-O ,  4-H ) :   0.8511
B(  3-O ,  5-H ) :   0.8545

MP2 TOTAL ENERGY:     -152.625382254 Eh
FINAL SINGLE POINT ENERGY      -152.625382254264

DIPOLE MOMENT
-------------
                                X             Y             Z
Electronic contribution:     -0.13499       0.20015      -0.18936
Nuclear contribution   :      0.76395      -1.24480       1.31870
                        -----------------------------------------
Total Dipole Moment    :      0.62896      -1.04465       1.12934
                        -----------------------------------------
Magnitude (a.u.)       :      1.66201
Magnitude (Debye)      :      4.22450

Rotational constants in cm-1:     6.980888     0.057996     0.057671
Rotational constants in MHz : 209281.754188  1738.684072  1728.931037

                             ****ORCA TERMINATED NORMALLY****
TOTAL RUN TIME: 0 days 0 hours 0 minutes 6 seconds 907 msec
