                         Program Version 4.2.0 -  RELEASE  -
|  1> # 12h2o.su.etal.mol0,4,8
|  2> ! MP2 def2-TZVP EnGrad TightSCF
|  3>
|  4> %pal
|  5>     nprocs 6
|  6> end
|  7>
|  8> %maxcore 8000
|  9>
| 10> %scf
| 11>     ConvForced true
| 12> end
| 13>
| 14> *xyz 0 1
| 15> O   1.794470000   0.923410000   2.768350000
| 16> H   2.338250000   1.359750000   3.430940000
| 17> H   0.879480000   1.303000000   2.865760000
| 18> O  -0.885520000   1.737840000   0.052730000
| 19> H  -1.032320000   2.090180000  -0.841890000
| 20> H  -1.284090000   0.839590000   0.017130000
| 21> O   1.752130000   0.741530000  -2.896280000
| 22> H   2.036450000   0.920500000  -1.984040000
| 23> H   0.921210000   1.242140000  -2.984230000
| 24> *
| 25>
| 26>                          ****END OF INPUT****

CARTESIAN COORDINATES (ANGSTROEM)
---------------------------------
  O      1.794470    0.923410    2.768350
  H      2.338250    1.359750    3.430940
  H      0.879480    1.303000    2.865760
  O     -0.885520    1.737840    0.052730
  H     -1.032320    2.090180   -0.841890
  H     -1.284090    0.839590    0.017130
  O      1.752130    0.741530   -2.896280
  H      2.036450    0.920500   -1.984040
  H      0.921210    1.242140   -2.984230

 Total Charge           Charge          ....    0
 Multiplicity           Mult            ....    1
 Number of Electrons    NEL             ....   30
 Basis Dimension        Dim             ....  129

ORBITAL ENERGIES
----------------

  NO   OCC          E(Eh)            E(eV)
   0   2.0000     -20.577445      -559.9408
   1   2.0000     -20.559789      -559.4603
   2   2.0000     -20.556449      -559.3694
   3   2.0000      -1.353255       -36.8239
   4   2.0000      -1.338950       -36.4347
   5   2.0000      -1.331817       -36.2406
   6   2.0000      -0.715464       -19.4688
   7   2.0000      -0.701771       -19.0962
   8   2.0000      -0.700033       -19.0489
   9   2.0000      -0.592763       -16.1299
  10   2.0000      -0.576524       -15.6880
  11   2.0000      -0.568082       -15.4583
  12   2.0000      -0.519847       -14.1458
  13   2.0000      -0.503811       -13.7094
  14   2.0000      -0.499650       -13.5962
  15   0.0000       0.092560         2.5187
  16   0.0000       0.133729         3.6389
  17   0.0000       0.159444         4.3387
  18   0.0000       0.182456         4.9649
  19   0.0000       0.212194         5.7741

MULLIKEN ATOMIC CHARGES
-----------------------
   0 O :   -0.685587
   1 H :    0.335920
   2 H :    0.348468
   3 O :   -0.673425
   4 H :    0.331601
   5 H :    0.344684
   6 O :   -0.673492
   7 H :    0.347390
   8 H :    0.324441
Sum of atomic charges:   -0.0000000

LOEWDIN ATOMIC CHARGES
----------------------
   0 O :   -0.340307
   1 H :    0.156556
   2 H :    0.182348
   3 O :   -0.334573
   4 H :    0.162044
   5 H :    0.175431
   6 O :   -0.330609
   7 H :    0.169021
   8 H :    0.160089

  Mayer bond orders larger than 0.100000
B(  0-O ,  1-H ) :   0.8547 B(  0-O ,  2-H ) :   0.8409 B(  3-O ,  4-H ) :   0.8549
B(  3-O ,  5-H ) :   0.8463 B(  6-O ,  7-H ) :   0.8465 B(  6-O ,  8-H ) :   0.8597

MP2 TOTAL ENERGY:     -228.939726232 Eh
FINAL SINGLE POINT ENERGY      -228.939726231995

DIPOLE MOMENT
-------------
                                X             Y             Z
Electronic contribution:      0.19864      -0.12754      -0.05854
Nuclear contribution   :     -1.21789       0.79041       0.54442
                        -----------------------------------------
Total Dipole Moment    :     -1.01925       0.66287       0.48588
                        -----------------------------------------
Magnitude (a.u.)       :      1.30933
Magnitude (Debye)      :      3.32806

Rotational constants in cm-1:     0.173674     0.057642     0.043598
Rotational constants in MHz :  5206.608092  1728.071054  1307.024127

                             ****ORCA TERMINATED NORMALLY****
TOTAL RUN TIME: 0 days 0 hours 0 minutes 34 seconds 446 msec
