                         Program Version 4.2.0 -  RELEASE  -
|  1> # 12h2o.su.etal.mol3,4,6,7,8,10,11
|  2> ! MP2 def2-TZVP EnGrad TightSCF
|  3>
|  4> %pal
|  5>     nprocs 6
|  6> end
|  7>
|  8> %maxcore 8000
|  9>
| 10> %scf
| 11>     ConvForced true
| 12> end
| 13>
| 14> *xyz 0 1
| 15> O  -1.752130000  -0.741530000  -2.896280000
| 16> H  -2.036450000  -0.920500000  -1.984040000
| 17> H  -0.921210000  -1.242140000  -2.984230000
| 18> O  -0.885520000   1.737840000   0.052730000
| 19> H  -1.032320000   2.090180000  -0.841890000
| 20> H  -1.284090000   0.839590000   0.017130000
| 21> O   1.737840000   0.885520000  -0.052730000
| 22> H   2.090180000   1.032320000   0.841890000
| 23> H   0.839590000   1.284090000  -0.017130000
| 24> O  -1.737840000  -0.885520000  -0.052730000
| 25> H  -2.090180000  -1.032320000   0.841890000
| 26> H  -0.839590000  -1.284090000  -0.017130000
| 27> O   1.752130000   0.741530000  -2.896280000
| 28> H   2.036450000   0.920500000  -1.984040000
| 29> H   0.921210000   1.242140000  -2.984230000
| 30> O  -0.923410000   1.794470000  -2.768350000
| 31> H  -1.359750000   2.338250000  -3.430940000
| 32> H  -1.303000000   0.879480000  -2.865760000
| 33> O  -0.741530000   1.752130000   2.896280000
| 34> H  -0.920500000   2.036450000   1.984040000
| 35> H  -1.242140000   0.921210000   2.984230000
| 36> *
| 37>
| 38>                          ****END OF INPUT****

CARTESIAN COORDINATES (ANGSTROEM)
---------------------------------
  O     -1.752130   -0.741530   -2.896280
  H     -2.036450   -0.920500   -1.984040
  H     -0.921210   -1.242140   -2.984230
  O     -0.885520    1.737840    0.052730
  H     -1.032320    2.090180   -0.841890
  H     -1.284090    0.839590    0.017130
  O      1.737840    0.885520   -0.052730
  H      2.090180    1.032320    0.841890
  H      0.839590    1.284090   -0.017130
  O     -1.737840   -0.885520   -0.052730
  H     -2.090180   -1.032320    0.841890
  H     -0.839590   -1.284090   -0.017130
  O      1.752130    0.741530   -2.896280
  H      2.036450    0.920500   -1.984040
  H      0.921210    1.242140   -2.984230
  O     -0.923410    1.794470   -2.768350
  H     -1.359750    2.338250   -3.430940
  H     -1.303000    0.879480   -2.865760
  O     -0.741530    1.752130    2.896280
  H     -0.920500    2.036450    1.984040
  H     -1.242140    0.921210    2.984230

 Total Charge           Charge          ....    0
 Multiplicity           Mult            ....    1
 Number of Electrons    NEL             ....   70
 Basis Dimension        Dim             ....  301

ORBITAL ENERGIES
----------------

  NO   OCC          E(Eh)            E(eV)
   0   2.0000     -20.645863      -561.8025
   1   2.0000     -20.595400      -560.4293
   2   2.0000     -20.570090      -559.7406
   3   2.0000     -20.569914      -559.7358
   4   2.0000     -20.549270      -559.1741
   5   2.0000     -20.544583      -559.0465
   6   2.0000     -20.501973      -557.8870
   7   2.0000      -1.429253       -38.8920
   8   2.0000      -1.385250       -37.6946
   9   2.0000      -1.365670       -37.1618
  10   2.0000      -1.351635       -36.7798
  11   2.0000      -1.330941       -36.2167
  12   2.0000      -1.327032       -36.1104
  13   2.0000      -1.286882       -35.0179
  14   2.0000      -0.787527       -21.4297
  15   2.0000      -0.746568       -20.3151
  16   2.0000      -0.738860       -20.1054
  17   2.0000      -0.735310       -20.0088
  18   2.0000      -0.702934       -19.1278
  19   2.0000      -0.698832       -19.0162
  20   2.0000      -0.672603       -18.3024
  21   2.0000      -0.664811       -18.0904
  22   2.0000      -0.630739       -17.1633
  23   2.0000      -0.621866       -16.9218
  24   2.0000      -0.588998       -16.0274
  25   2.0000      -0.583760       -15.8849
  26   2.0000      -0.576898       -15.6982
  27   2.0000      -0.560228       -15.2446
  28   2.0000      -0.536910       -14.6101
  29   2.0000      -0.527863       -14.3639
  30   2.0000      -0.513835       -13.9822
  31   2.0000      -0.508511       -13.8373
  32   2.0000      -0.495467       -13.4823
  33   2.0000      -0.492007       -13.3882
  34   2.0000      -0.452056       -12.3011
  35   0.0000       0.066436         1.8078
  36   0.0000       0.120793         3.2869
  37   0.0000       0.142053         3.8655
  38   0.0000       0.155260         4.2248
  39   0.0000       0.175827         4.7845

MULLIKEN ATOMIC CHARGES
-----------------------
   0 O :   -0.697836
   1 H :    0.384231
   2 H :    0.363711
   3 O :   -0.745876
   4 H :    0.389079
   5 H :    0.348374
   6 O :   -0.737386
   7 H :    0.342135
   8 H :    0.361358
   9 O :   -0.718829
  10 H :    0.372060
  11 H :    0.380943
  12 O :   -0.735683
  13 H :    0.370458
  14 H :    0.344492
  15 O :   -0.752171
  16 H :    0.351571
  17 H :    0.384220
  18 O :   -0.686747
  19 H :    0.376605
  20 H :    0.305290
Sum of atomic charges:   -0.0000000

LOEWDIN ATOMIC CHARGES
----------------------
   0 O :   -0.270972
   1 H :    0.157292
   2 H :    0.177103
   3 O :   -0.299088
   4 H :    0.154577
   5 H :    0.137870
   6 O :   -0.344383
   7 H :    0.163828
   8 H :    0.141821
   9 O :   -0.276278
  10 H :    0.178660
  11 H :    0.188819
  12 O :   -0.359192
  13 H :    0.150855
  14 H :    0.138790
  15 O :   -0.313183
  16 H :    0.159957
  17 H :    0.146569
  18 O :   -0.336389
  19 H :    0.152069
  20 H :    0.151276

  Mayer bond orders larger than 0.100000
B(  0-O ,  1-H ) :   0.8101 B(  0-O ,  2-H ) :   0.8288 B(  3-O ,  4-H ) :   0.7887
B(  3-O ,  5-H ) :   0.7908 B(  6-O ,  7-H ) :   0.8456 B(  6-O ,  8-H ) :   0.7762
B(  9-O , 10-H ) :   0.8264 B(  9-O , 11-H ) :   0.8127 B( 12-O , 13-H ) :   0.8194
B( 12-O , 14-H ) :   0.8288 B( 15-O , 16-H ) :   0.8399 B( 15-O , 17-H ) :   0.7442
B( 18-O , 19-H ) :   0.8129 B( 18-O , 20-H ) :   0.8698

MP2 TOTAL ENERGY:     -534.257525593 Eh
FINAL SINGLE POINT ENERGY      -534.257525593197

DIPOLE MOMENT
-------------
                                X             Y             Z
Electronic contribution:     -0.24365      -0.15497      -0.23103
Nuclear contribution   :     -1.69875      -1.21834       0.82779
                        -----------------------------------------
Total Dipole Moment    :     -1.94240      -1.37331       0.59677
                        -----------------------------------------
Magnitude (a.u.)       :      2.45255
Magnitude (Debye)      :      6.23390

Rotational constants in cm-1:     0.045126     0.026933     0.021416
Rotational constants in MHz :  1352.845639   807.435925   642.043545

                             ****ORCA TERMINATED NORMALLY****
TOTAL RUN TIME: 0 days 0 hours 2 minutes 21 seconds 599 msec
