                         Program Version 4.2.0 -  RELEASE  -
|  1> # 12h2o.su.etal.mol5,6,8,10,11
|  2> ! MP2 def2-TZVP EnGrad TightSCF
|  3>
|  4> %pal
|  5>     nprocs 6
|  6> end
|  7>
|  8> %maxcore 8000
|  9>
| 10> %scf
| 11>     ConvForced true
| 12> end
| 13>
| 14> *xyz 0 1
| 15> O   0.885520000  -1.737840000   0.052730000
| 16> H   1.284090000  -0.839590000   0.017130000
| 17> H   1.032320000  -2.090180000  -0.841890000
| 18> O   1.737840000   0.885520000  -0.052730000
| 19> H   2.090180000   1.032320000   0.841890000
| 20> H   0.839590000   1.284090000  -0.017130000
| 21> O   1.752130000   0.741530000  -2.896280000
| 22> H   2.036450000   0.920500000  -1.984040000
| 23> H   0.921210000   1.242140000  -2.984230000
| 24> O  -0.923410000   1.794470000  -2.768350000
| 25> H  -1.359750000   2.338250000  -3.430940000
| 26> H  -1.303000000   0.879480000  -2.865760000
| 27> O  -0.741530000   1.752130000   2.896280000
| 28> H  -0.920500000   2.036450000   1.984040000
| 29> H  -1.242140000   0.921210000   2.984230000
| 30> *
| 31>
| 32>                          ****END OF INPUT****

CARTESIAN COORDINATES (ANGSTROEM)
---------------------------------
  O      0.885520   -1.737840    0.052730
  H      1.284090   -0.839590    0.017130
  H      1.032320   -2.090180   -0.841890
  O      1.737840    0.885520   -0.052730
  H      2.090180    1.032320    0.841890
  H      0.839590    1.284090   -0.017130
  O      1.752130    0.741530   -2.896280
  H      2.036450    0.920500   -1.984040
  H      0.921210    1.242140   -2.984230
  O     -0.923410    1.794470   -2.768350
  H     -1.359750    2.338250   -3.430940
  H     -1.303000    0.879480   -2.865760
  O     -0.741530    1.752130    2.896280
  H     -0.920500    2.036450    1.984040
  H     -1.242140    0.921210    2.984230

 Total Charge           Charge          ....    0
 Multiplicity           Mult            ....    1
 Number of Electrons    NEL             ....   50
 Basis Dimension        Dim             ....  215

ORBITAL ENERGIES
----------------

  NO   OCC          E(Eh)            E(eV)
   0   2.0000     -20.609700      -560.8185
   1   2.0000     -20.601056      -560.5832
   2   2.0000     -20.578350      -559.9654
   3   2.0000     -20.528532      -558.6098
   4   2.0000     -20.519372      -558.3605
   5   2.0000      -1.392468       -37.8910
   6   2.0000      -1.378657       -37.5152
   7   2.0000      -1.357310       -36.9343
   8   2.0000      -1.309824       -35.6421
   9   2.0000      -1.304647       -35.5013
  10   2.0000      -0.750750       -20.4289
  11   2.0000      -0.745759       -20.2931
  12   2.0000      -0.720132       -19.5958
  13   2.0000      -0.690215       -18.7817
  14   2.0000      -0.682653       -18.5759
  15   2.0000      -0.632683       -17.2162
  16   2.0000      -0.612501       -16.6670
  17   2.0000      -0.594561       -16.1788
  18   2.0000      -0.574068       -15.6212
  19   2.0000      -0.552945       -15.0464
  20   2.0000      -0.530672       -14.4403
  21   2.0000      -0.525552       -14.3010
  22   2.0000      -0.521842       -14.2000
  23   2.0000      -0.477089       -12.9823
  24   2.0000      -0.468792       -12.7565
  25   0.0000       0.080134         2.1806
  26   0.0000       0.110038         2.9943
  27   0.0000       0.146556         3.9880
  28   0.0000       0.165583         4.5057
  29   0.0000       0.170563         4.6412

MULLIKEN ATOMIC CHARGES
-----------------------
   0 O :   -0.720650
   1 H :    0.353237
   2 H :    0.334854
   3 O :   -0.703918
   4 H :    0.372488
   5 H :    0.356165
   6 O :   -0.721484
   7 H :    0.362813
   8 H :    0.343404
   9 O :   -0.703329
  10 H :    0.358131
  11 H :    0.364011
  12 O :   -0.672266
  13 H :    0.327687
  14 H :    0.348857
Sum of atomic charges:   -0.0000000

LOEWDIN ATOMIC CHARGES
----------------------
   0 O :   -0.363729
   1 H :    0.139825
   2 H :    0.160803
   3 O :   -0.273567
   4 H :    0.178499
   5 H :    0.176913
   6 O :   -0.351357
   7 H :    0.147356
   8 H :    0.141256
   9 O :   -0.314516
  10 H :    0.165907
  11 H :    0.189458
  12 O :   -0.328508
  13 H :    0.159415
  14 H :    0.172245

  Mayer bond orders larger than 0.100000
B(  0-O ,  1-H ) :   0.8090 B(  0-O ,  2-H ) :   0.8537 B(  3-O ,  4-H ) :   0.8254
B(  3-O ,  5-H ) :   0.8282 B(  6-O ,  7-H ) :   0.8316 B(  6-O ,  8-H ) :   0.8297
B(  9-O , 10-H ) :   0.8386 B(  9-O , 11-H ) :   0.8280 B( 12-O , 13-H ) :   0.8572
B( 12-O , 14-H ) :   0.8456

MP2 TOTAL ENERGY:     -381.587188123 Eh
FINAL SINGLE POINT ENERGY      -381.587188123377

DIPOLE MOMENT
-------------
                                X             Y             Z
Electronic contribution:      0.16920       0.17987       0.23352
Nuclear contribution   :     -1.70022       0.71005      -0.63259
                        -----------------------------------------
Total Dipole Moment    :     -1.53102       0.88992      -0.39907
                        -----------------------------------------
Magnitude (a.u.)       :      1.81528
Magnitude (Debye)      :      4.61407

Rotational constants in cm-1:     0.063427     0.034613     0.027289
Rotational constants in MHz :  1901.505170  1037.686015   818.103300

                             ****ORCA TERMINATED NORMALLY****
TOTAL RUN TIME: 0 days 0 hours 0 minutes 29 seconds 0 msec
