                         Program Version 4.2.0 -  RELEASE  -
|  1> # 12mecn.remya.etal.2.mol2,5,10
|  2> ! MP2 def2-TZVP EnGrad TightSCF
|  3>
|  4> %pal
|  5>     nprocs 6
|  6> end
|  7>
|  8> %maxcore 8000
|  9>
| 10> %scf
| 11>     ConvForced true
| 12> end
| 13>
| 14> *xyz 0 1
| 15> C  -4.219070000  -3.477410000  -1.501740000
| 16> H  -3.251530000  -3.803540000  -1.893830000
| 17> H  -4.452920000  -2.481700000  -1.890840000
| 18> H  -4.992170000  -4.178130000  -1.824640000
| 19> C  -4.154550000  -3.418790000  -0.058340000
| 20> N  -4.091140000  -3.354840000   1.104432000
| 21> C  -1.955700000   2.515080000   1.698463000
| 22> H  -2.923830000   2.883163000   2.049269000
| 23> H  -1.154850000   3.171830000   2.050990000
| 24> H  -1.790380000   1.506115000   2.087896000
| 25> C  -1.948230000   2.482156000   0.253672000
| 26> N  -1.937550000   2.462523000  -0.913150000
| 27> C   4.602033000   0.321019000  -1.784800000
| 28> H   4.827650000  -0.662160000  -2.207910000
| 29> H   5.320558000   1.057980000  -2.148500000
| 30> H   3.601982000   0.643751000  -2.087520000
| 31> C   4.654967000   0.244048000  -0.343060000
| 32> N   4.691648000   0.166590000   0.820757000
| 33> *
| 34>
| 35>                          ****END OF INPUT****

CARTESIAN COORDINATES (ANGSTROEM)
---------------------------------
  C     -4.219070   -3.477410   -1.501740
  H     -3.251530   -3.803540   -1.893830
  H     -4.452920   -2.481700   -1.890840
  H     -4.992170   -4.178130   -1.824640
  C     -4.154550   -3.418790   -0.058340
  N     -4.091140   -3.354840    1.104432
  C     -1.955700    2.515080    1.698463
  H     -2.923830    2.883163    2.049269
  H     -1.154850    3.171830    2.050990
  H     -1.790380    1.506115    2.087896
  C     -1.948230    2.482156    0.253672
  N     -1.937550    2.462523   -0.913150
  C      4.602033    0.321019   -1.784800
  H      4.827650   -0.662160   -2.207910
  H      5.320558    1.057980   -2.148500
  H      3.601982    0.643751   -2.087520
  C      4.654967    0.244048   -0.343060
  N      4.691648    0.166590    0.820757

 Total Charge           Charge          ....    0
 Multiplicity           Mult            ....    1
 Number of Electrons    NEL             ....   66
 Basis Dimension        Dim             ....  333

ORBITAL ENERGIES
----------------

  NO   OCC          E(Eh)            E(eV)
   0   2.0000     -15.572949      -423.7615
   1   2.0000     -15.572499      -423.7492
   2   2.0000     -15.572472      -423.7485
   3   2.0000     -11.283869      -307.0497
   4   2.0000     -11.283611      -307.0427
   5   2.0000     -11.281702      -306.9907
   6   2.0000     -11.280346      -306.9538
   7   2.0000     -11.280335      -306.9535
   8   2.0000     -11.279675      -306.9356
   9   2.0000      -1.214836       -33.0574
  10   2.0000      -1.214218       -33.0405
  11   2.0000      -1.213880       -33.0314
  12   2.0000      -1.043117       -28.3847
  13   2.0000      -1.042706       -28.3735
  14   2.0000      -1.041116       -28.3302
  15   2.0000      -0.699664       -19.0388
  16   2.0000      -0.698967       -19.0199
  17   2.0000      -0.697116       -18.9695
  18   2.0000      -0.633187       -17.2299
  19   2.0000      -0.630679       -17.1616
  20   2.0000      -0.629922       -17.1411
  21   2.0000      -0.629734       -17.1359
  22   2.0000      -0.628649       -17.1064
  23   2.0000      -0.627454       -17.0739
  24   2.0000      -0.556250       -15.1363
  25   2.0000      -0.556202       -15.1350
  26   2.0000      -0.555411       -15.1135
  27   2.0000      -0.457951       -12.4615
  28   2.0000      -0.457744       -12.4559
  29   2.0000      -0.457392       -12.4463
  30   2.0000      -0.457245       -12.4423
  31   2.0000      -0.457045       -12.4368
  32   2.0000      -0.456632       -12.4256
  33   0.0000       0.116409         3.1676
  34   0.0000       0.120676         3.2838
  35   0.0000       0.126150         3.4327
  36   0.0000       0.171739         4.6733
  37   0.0000       0.172092         4.6829

MULLIKEN ATOMIC CHARGES
-----------------------
   0 C :   -0.279970
   1 H :    0.171663
   2 H :    0.176681
   3 H :    0.171375
   4 C :   -0.144998
   5 N :   -0.094739
   6 C :   -0.277406
   7 H :    0.171407
   8 H :    0.172702
   9 H :    0.179530
  10 C :   -0.145047
  11 N :   -0.101190
  12 C :   -0.279842
  13 H :    0.171457
  14 H :    0.171575
  15 H :    0.176398
  16 C :   -0.145542
  17 N :   -0.094055
Sum of atomic charges:    0.0000000

LOEWDIN ATOMIC CHARGES
----------------------
   0 C :   -0.283309
   1 H :    0.152882
   2 H :    0.154571
   3 H :    0.150899
   4 C :   -0.218617
   5 N :    0.043579
   6 C :   -0.282061
   7 H :    0.152820
   8 H :    0.153372
   9 H :    0.155341
  10 C :   -0.218359
  11 N :    0.038885
  12 C :   -0.283397
  13 H :    0.152786
  14 H :    0.151490
  15 H :    0.154356
  16 C :   -0.219555
  17 N :    0.044316

  Mayer bond orders larger than 0.100000
B(  0-C ,  1-H ) :   0.9161 B(  0-C ,  2-H ) :   0.9150 B(  0-C ,  3-H ) :   0.9165
B(  0-C ,  4-C ) :   0.9029 B(  4-C ,  5-N ) :   2.8390 B(  6-C ,  7-H ) :   0.9158
B(  6-C ,  8-H ) :   0.9155 B(  6-C ,  9-H ) :   0.9140 B(  6-C , 10-C ) :   0.9022
B( 10-C , 11-N ) :   2.8422 B( 12-C , 13-H ) :   0.9159 B( 12-C , 14-H ) :   0.9168
B( 12-C , 15-H ) :   0.9157 B( 12-C , 16-C ) :   0.9015 B( 16-C , 17-N ) :   2.8382

MP2 TOTAL ENERGY:     -397.451369932 Eh
FINAL SINGLE POINT ENERGY      -397.451369932126

DIPOLE MOMENT
-------------
                                X             Y             Z
Electronic contribution:      0.26976      -0.12489       3.12481
Nuclear contribution   :     -0.41308       0.17628      -4.63241
                        -----------------------------------------
Total Dipole Moment    :     -0.14333       0.05138      -1.50759
                        -----------------------------------------
Magnitude (a.u.)       :      1.51526
Magnitude (Debye)      :      3.85149

Rotational constants in cm-1:     0.022283     0.008277     0.006782
Rotational constants in MHz :   668.012659   248.129696   203.321802

                             ****ORCA TERMINATED NORMALLY****
TOTAL RUN TIME: 0 days 0 hours 1 minutes 50 seconds 183 msec
