                         Program Version 4.2.0 -  RELEASE  -
|  1> # 12h2o.su.etal.mol0,1,6,8,9,10
|  2> ! MP2 def2-TZVP EnGrad TightSCF
|  3>
|  4> %pal
|  5>     nprocs 6
|  6> end
|  7>
|  8> %maxcore 8000
|  9>
| 10> %scf
| 11>     ConvForced true
| 12> end
| 13>
| 14> *xyz 0 1
| 15> O   1.794470000   0.923410000   2.768350000
| 16> H   2.338250000   1.359750000   3.430940000
| 17> H   0.879480000   1.303000000   2.865760000
| 18> O  -1.794470000  -0.923410000   2.768350000
| 19> H  -2.338250000  -1.359750000   3.430940000
| 20> H  -0.879480000  -1.303000000   2.865760000
| 21> O   1.737840000   0.885520000  -0.052730000
| 22> H   2.090180000   1.032320000   0.841890000
| 23> H   0.839590000   1.284090000  -0.017130000
| 24> O   1.752130000   0.741530000  -2.896280000
| 25> H   2.036450000   0.920500000  -1.984040000
| 26> H   0.921210000   1.242140000  -2.984230000
| 27> O   0.741530000  -1.752130000   2.896280000
| 28> H   0.920500000  -2.036450000   1.984040000
| 29> H   1.242140000  -0.921210000   2.984230000
| 30> O  -0.923410000   1.794470000  -2.768350000
| 31> H  -1.359750000   2.338250000  -3.430940000
| 32> H  -1.303000000   0.879480000  -2.865760000
| 33> *
| 34>
| 35>                          ****END OF INPUT****

CARTESIAN COORDINATES (ANGSTROEM)
---------------------------------
  O      1.794470    0.923410    2.768350
  H      2.338250    1.359750    3.430940
  H      0.879480    1.303000    2.865760
  O     -1.794470   -0.923410    2.768350
  H     -2.338250   -1.359750    3.430940
  H     -0.879480   -1.303000    2.865760
  O      1.737840    0.885520   -0.052730
  H      2.090180    1.032320    0.841890
  H      0.839590    1.284090   -0.017130
  O      1.752130    0.741530   -2.896280
  H      2.036450    0.920500   -1.984040
  H      0.921210    1.242140   -2.984230
  O      0.741530   -1.752130    2.896280
  H      0.920500   -2.036450    1.984040
  H      1.242140   -0.921210    2.984230
  O     -0.923410    1.794470   -2.768350
  H     -1.359750    2.338250   -3.430940
  H     -1.303000    0.879480   -2.865760

 Total Charge           Charge          ....    0
 Multiplicity           Mult            ....    1
 Number of Electrons    NEL             ....   60
 Basis Dimension        Dim             ....  258

ORBITAL ENERGIES
----------------

  NO   OCC          E(Eh)            E(eV)
   0   2.0000     -20.625538      -561.2494
   1   2.0000     -20.584449      -560.1313
   2   2.0000     -20.573778      -559.8410
   3   2.0000     -20.558382      -559.4220
   4   2.0000     -20.521225      -558.4109
   5   2.0000     -20.495366      -557.7073
   6   2.0000      -1.405933       -38.2574
   7   2.0000      -1.362461       -37.0745
   8   2.0000      -1.362073       -37.0639
   9   2.0000      -1.339789       -36.4575
  10   2.0000      -1.303184       -35.4614
  11   2.0000      -1.280790       -34.8521
  12   2.0000      -0.771463       -20.9926
  13   2.0000      -0.729153       -19.8413
  14   2.0000      -0.725538       -19.7429
  15   2.0000      -0.710690       -19.3389
  16   2.0000      -0.690998       -18.8030
  17   2.0000      -0.658680       -17.9236
  18   2.0000      -0.644279       -17.5317
  19   2.0000      -0.608071       -16.5465
  20   2.0000      -0.600873       -16.3506
  21   2.0000      -0.583872       -15.8880
  22   2.0000      -0.560830       -15.2610
  23   2.0000      -0.548775       -14.9329
  24   2.0000      -0.533627       -14.5207
  25   2.0000      -0.511518       -13.9191
  26   2.0000      -0.505331       -13.7507
  27   2.0000      -0.499267       -13.5858
  28   2.0000      -0.472007       -12.8440
  29   2.0000      -0.445481       -12.1222
  30   0.0000       0.086322         2.3489
  31   0.0000       0.115934         3.1547
  32   0.0000       0.145803         3.9675
  33   0.0000       0.163387         4.4460
  34   0.0000       0.173021         4.7081

MULLIKEN ATOMIC CHARGES
-----------------------
   0 O :   -0.721694
   1 H :    0.368929
   2 H :    0.377742
   3 O :   -0.740294
   4 H :    0.326473
   5 H :    0.364522
   6 O :   -0.708036
   7 H :    0.366808
   8 H :    0.339423
   9 O :   -0.727900
  10 H :    0.365157
  11 H :    0.338555
  12 O :   -0.700496
  13 H :    0.361162
  14 H :    0.371195
  15 O :   -0.696526
  16 H :    0.352202
  17 H :    0.362779
Sum of atomic charges:   -0.0000000

LOEWDIN ATOMIC CHARGES
----------------------
   0 O :   -0.287577
   1 H :    0.170306
   2 H :    0.194677
   3 O :   -0.377159
   4 H :    0.148904
   5 H :    0.140572
   6 O :   -0.324352
   7 H :    0.149082
   8 H :    0.170590
   9 O :   -0.357889
  10 H :    0.148897
  11 H :    0.139205
  12 O :   -0.281474
  13 H :    0.174523
  14 H :    0.151704
  15 O :   -0.312409
  16 H :    0.163230
  17 H :    0.189169

  Mayer bond orders larger than 0.100000
B(  0-O ,  1-H ) :   0.8293 B(  0-O ,  2-H ) :   0.8141 B(  3-O ,  4-H ) :   0.8600
B(  3-O ,  5-H ) :   0.7773 B(  6-O ,  7-H ) :   0.8173 B(  6-O ,  8-H ) :   0.8437
B(  9-O , 10-H ) :   0.8259 B(  9-O , 11-H ) :   0.8342 B( 12-O , 13-H ) :   0.8348
B( 12-O , 14-H ) :   0.8080 B( 15-O , 16-H ) :   0.8420 B( 15-O , 17-H ) :   0.8292

MP2 TOTAL ENERGY:     -457.915442441 Eh
FINAL SINGLE POINT ENERGY      -457.915442440719

DIPOLE MOMENT
-------------
                                X             Y             Z
Electronic contribution:      0.40705      -0.06199       0.07298
Nuclear contribution   :     -1.02285       1.16559       1.40687
                        -----------------------------------------
Total Dipole Moment    :     -0.61580       1.10360       1.47985
                        -----------------------------------------
Magnitude (a.u.)       :      1.94605
Magnitude (Debye)      :      4.94647

Rotational constants in cm-1:     0.057292     0.019606     0.016644
Rotational constants in MHz :  1717.574620   587.764386   498.974949

                             ****ORCA TERMINATED NORMALLY****
TOTAL RUN TIME: 0 days 0 hours 0 minutes 48 seconds 406 msec
