                         Program Version 3.0.3 - RELEASE   -
|  1> ! wB97X-D3 Def2-TZVP def2-TZVP/J RIJCOSX TightSCF Grid4
|  2>
|  3> %pal nprocs 12 end
|  4>
|  5> %scf
|  6>         maxiter 400
|  7> end
|  8>
|  9> * xyz  0  1
| 10> O  -1.671828	-0.597014	-0.672410
| 11> H  -0.764734	-0.616588	-1.080019
| 12> H  -2.231026	-0.186100	-1.344349
| 13> O  -0.889435	0.740492	1.490766
| 14> H  -1.094367	1.670455	1.323810
| 15> H  -1.313777	0.256575	0.732229
| 16> O  1.612952	-0.070110	0.988503
| 17> H  2.255346	0.616173	1.213996
| 18> H  0.737075	0.294760	1.290198
| 19> O  0.877585	-0.466382	-1.543241
| 20> H  1.263954	-0.265050	-0.647835
| 21> H  1.211344	-1.354547	-1.732083
| 22> **                         ****END OF INPUT****

CARTESIAN COORDINATES (ANGSTROEM)
---------------------------------
  O     -1.671828   -0.597014   -0.672410
  H     -0.764734   -0.616588   -1.080019
  H     -2.231026   -0.186100   -1.344349
  O     -0.889435    0.740492    1.490766
  H     -1.094367    1.670455    1.323810
  H     -1.313777    0.256575    0.732229
  O      1.612952   -0.070110    0.988503
  H      2.255346    0.616173    1.213996
  H      0.737075    0.294760    1.290198
  O      0.877585   -0.466382   -1.543241
  H      1.263954   -0.265050   -0.647835
  H      1.211344   -1.354547   -1.732083

 Total Charge           Charge          ....    0
 Multiplicity           Mult            ....    1
 Number of Electrons    NEL             ....   40
 Basis Dimension        Dim             ....  172

ORBITAL ENERGIES
----------------

  NO   OCC          E(Eh)            E(eV)
   0   2.0000     -19.231368      -523.3121
   1   2.0000     -19.231201      -523.3076
   2   2.0000     -19.229918      -523.2727
   3   2.0000     -19.229521      -523.2619
   4   2.0000      -1.139313       -31.0023
   5   2.0000      -1.122638       -30.5485
   6   2.0000      -1.120853       -30.5000
   7   2.0000      -1.104906       -30.0660
   8   2.0000      -0.646969       -17.6049
   9   2.0000      -0.631261       -17.1775
  10   2.0000      -0.626347       -17.0438
  11   2.0000      -0.618575       -16.8323
  12   2.0000      -0.533370       -14.5137
  13   2.0000      -0.501784       -13.6542
  14   2.0000      -0.498985       -13.5781
  15   2.0000      -0.469461       -12.7747
  16   2.0000      -0.420836       -11.4515
  17   2.0000      -0.416174       -11.3247
  18   2.0000      -0.415057       -11.2943
  19   2.0000      -0.407490       -11.0884
  20   0.0000       0.093926         2.5559
  21   0.0000       0.132633         3.6091
  22   0.0000       0.136262         3.7079
  23   0.0000       0.160554         4.3689
  24   0.0000       0.256916         6.9910

MULLIKEN ATOMIC CHARGES
-----------------------
   0 O :   -0.698882
   1 H :    0.353731
   2 H :    0.336314
   3 O :   -0.704355
   4 H :    0.329220
   5 H :    0.377921
   6 O :   -0.698696
   7 H :    0.334371
   8 H :    0.370297
   9 O :   -0.698169
  10 H :    0.357301
  11 H :    0.340949
Sum of atomic charges:   -0.0000000

LOEWDIN ATOMIC CHARGES
----------------------
   0 O :   -0.296163
   1 H :    0.141042
   2 H :    0.156464
   3 O :   -0.296792
   4 H :    0.153284
   5 H :    0.142880
   6 O :   -0.296958
   7 H :    0.156187
   8 H :    0.144117
   9 O :   -0.302117
  10 H :    0.139183
  11 H :    0.158874

  Mayer bond orders larger than 0.1
B(  0-O ,  1-H ) :   0.7922 B(  0-O ,  2-H ) :   0.8946 B(  0-O ,  5-H ) :   0.1169
B(  1-H ,  9-O ) :   0.1394 B(  3-O ,  4-H ) :   0.8980 B(  3-O ,  5-H ) :   0.7903
B(  3-O ,  8-H ) :   0.1170 B(  6-O ,  7-H ) :   0.8949 B(  6-O ,  8-H ) :   0.7929
B(  6-O , 10-H ) :   0.1405 B(  9-O , 10-H ) :   0.7906 B(  9-O , 11-H ) :   0.8930

Dispersion correction           -0.003022252
FINAL SINGLE POINT ENERGY      -305.802944075982

DIPOLE MOMENT
-------------
                                X             Y             Z
Electronic contribution:     -0.03333      -0.19252       0.12694
Nuclear contribution   :      0.17086       1.00025      -0.64199
                        -----------------------------------------
Total Dipole Moment    :      0.13752       0.80773      -0.51505
                        -----------------------------------------
Magnitude (a.u.)       :      0.96779
Magnitude (Debye)      :      2.45993

                             ****ORCA TERMINATED NORMALLY****
TOTAL RUN TIME: 0 days 0 hours 0 minutes 51 seconds 331 msec
