                         Program Version 3.0.3 - RELEASE   -
|  1> ! wB97X-D3 MA-Def2-TZVP def2-TZVP/J RIJCOSX TightSCF Grid4
|  2>
|  3> %pal nprocs 1 end
|  4>
|  5> %scf
|  6>         maxiter 400
|  7> end
|  8>
|  9> * xyz  0  1
| 10> O  -1.671828	-0.597014	-0.672410
| 11> H  -0.764734	-0.616588	-1.080019
| 12> H  -2.231026	-0.186100	-1.344349
| 13> O  -0.889435	0.740492	1.490766
| 14> H  -1.094367	1.670455	1.323810
| 15> H  -1.313777	0.256575	0.732229
| 16> O  1.612952	-0.070110	0.988503
| 17> H  2.255346	0.616173	1.213996
| 18> H  0.737075	0.294760	1.290198
| 19> O  0.877585	-0.466382	-1.543241
| 20> H  1.263954	-0.265050	-0.647835
| 21> H  1.211344	-1.354547	-1.732083
| 22> **                         ****END OF INPUT****

CARTESIAN COORDINATES (ANGSTROEM)
---------------------------------
  O     -1.671828   -0.597014   -0.672410
  H     -0.764734   -0.616588   -1.080019
  H     -2.231026   -0.186100   -1.344349
  O     -0.889435    0.740492    1.490766
  H     -1.094367    1.670455    1.323810
  H     -1.313777    0.256575    0.732229
  O      1.612952   -0.070110    0.988503
  H      2.255346    0.616173    1.213996
  H      0.737075    0.294760    1.290198
  O      0.877585   -0.466382   -1.543241
  H      1.263954   -0.265050   -0.647835
  H      1.211344   -1.354547   -1.732083

 Total Charge           Charge          ....    0
 Multiplicity           Mult            ....    1
 Number of Electrons    NEL             ....   40
 Basis Dimension        Dim             ....  188

ORBITAL ENERGIES
----------------

  NO   OCC          E(Eh)            E(eV)
   0   2.0000     -19.236415      -523.4495
   1   2.0000     -19.236183      -523.4431
   2   2.0000     -19.234571      -523.3993
   3   2.0000     -19.234350      -523.3933
   4   2.0000      -1.142874       -31.0992
   5   2.0000      -1.126262       -30.6471
   6   2.0000      -1.124317       -30.5942
   7   2.0000      -1.108434       -30.1620
   8   2.0000      -0.650354       -17.6970
   9   2.0000      -0.634676       -17.2704
  10   2.0000      -0.629666       -17.1341
  11   2.0000      -0.621976       -16.9248
  12   2.0000      -0.536892       -14.6096
  13   2.0000      -0.505390       -13.7524
  14   2.0000      -0.502596       -13.6763
  15   2.0000      -0.472990       -12.8707
  16   2.0000      -0.424584       -11.5535
  17   2.0000      -0.419854       -11.4248
  18   2.0000      -0.418511       -11.3883
  19   2.0000      -0.411017       -11.1843
  20   0.0000       0.063536         1.7289
  21   0.0000       0.093374         2.5408
  22   0.0000       0.099285         2.7017
  23   0.0000       0.128813         3.5052
  24   0.0000       0.136523         3.7150

MULLIKEN ATOMIC CHARGES
-----------------------
   0 O :   -0.725799
   1 H :    0.370679
   2 H :    0.346606
   3 O :   -0.769370
   4 H :    0.345490
   5 H :    0.411575
   6 O :   -0.728145
   7 H :    0.342760
   8 H :    0.400504
   9 O :   -0.716438
  10 H :    0.377094
  11 H :    0.345043
Sum of atomic charges:   -0.0000000

LOEWDIN ATOMIC CHARGES
----------------------
   0 O :   -0.372390
   1 H :    0.186670
   2 H :    0.187040
   3 O :   -0.374459
   4 H :    0.185577
   5 H :    0.188032
   6 O :   -0.373074
   7 H :    0.186483
   8 H :    0.189592
   9 O :   -0.378233
  10 H :    0.185418
  11 H :    0.189344

  Mayer bond orders larger than 0.1
B(  0-O ,  1-H ) :   0.8049 B(  0-O ,  2-H ) :   0.8938 B(  3-O ,  4-H ) :   0.8980
B(  3-O ,  5-H ) :   0.8028 B(  6-O ,  7-H ) :   0.8934 B(  6-O ,  8-H ) :   0.8043
B(  9-O , 10-H ) :   0.8057 B(  9-O , 11-H ) :   0.8964

Dispersion correction           -0.003022252
FINAL SINGLE POINT ENERGY      -305.806455081285

DIPOLE MOMENT
-------------
                                X             Y             Z
Electronic contribution:     -0.03800      -0.21453       0.14019
Nuclear contribution   :      0.17086       1.00025      -0.64199
                        -----------------------------------------
Total Dipole Moment    :      0.13286       0.78573      -0.50180
                        -----------------------------------------
Magnitude (a.u.)       :      0.94171
Magnitude (Debye)      :      2.39365

                             ****ORCA TERMINATED NORMALLY****
TOTAL RUN TIME: 0 days 0 hours 1 minutes 16 seconds 969 msec
