                         Program Version 4.2.0 -  RELEASE  -
|  1> # 12h2o.su.etal.mol0,3,6,7,11
|  2> ! MP2 def2-TZVP EnGrad TightSCF
|  3>
|  4> %pal
|  5>     nprocs 6
|  6> end
|  7>
|  8> %maxcore 8000
|  9>
| 10> %scf
| 11>     ConvForced true
| 12> end
| 13>
| 14> *xyz 0 1
| 15> O   1.794470000   0.923410000   2.768350000
| 16> H   2.338250000   1.359750000   3.430940000
| 17> H   0.879480000   1.303000000   2.865760000
| 18> O  -1.752130000  -0.741530000  -2.896280000
| 19> H  -2.036450000  -0.920500000  -1.984040000
| 20> H  -0.921210000  -1.242140000  -2.984230000
| 21> O   1.737840000   0.885520000  -0.052730000
| 22> H   2.090180000   1.032320000   0.841890000
| 23> H   0.839590000   1.284090000  -0.017130000
| 24> O  -1.737840000  -0.885520000  -0.052730000
| 25> H  -2.090180000  -1.032320000   0.841890000
| 26> H  -0.839590000  -1.284090000  -0.017130000
| 27> O  -0.741530000   1.752130000   2.896280000
| 28> H  -0.920500000   2.036450000   1.984040000
| 29> H  -1.242140000   0.921210000   2.984230000
| 30> *
| 31>
| 32>                          ****END OF INPUT****

CARTESIAN COORDINATES (ANGSTROEM)
---------------------------------
  O      1.794470    0.923410    2.768350
  H      2.338250    1.359750    3.430940
  H      0.879480    1.303000    2.865760
  O     -1.752130   -0.741530   -2.896280
  H     -2.036450   -0.920500   -1.984040
  H     -0.921210   -1.242140   -2.984230
  O      1.737840    0.885520   -0.052730
  H      2.090180    1.032320    0.841890
  H      0.839590    1.284090   -0.017130
  O     -1.737840   -0.885520   -0.052730
  H     -2.090180   -1.032320    0.841890
  H     -0.839590   -1.284090   -0.017130
  O     -0.741530    1.752130    2.896280
  H     -0.920500    2.036450    1.984040
  H     -1.242140    0.921210    2.984230

 Total Charge           Charge          ....    0
 Multiplicity           Mult            ....    1
 Number of Electrons    NEL             ....   50
 Basis Dimension        Dim             ....  215

ORBITAL ENERGIES
----------------

  NO   OCC          E(Eh)            E(eV)
   0   2.0000     -20.621639      -561.1433
   1   2.0000     -20.602608      -560.6255
   2   2.0000     -20.554643      -559.3203
   3   2.0000     -20.536592      -558.8291
   4   2.0000     -20.532117      -558.7073
   5   2.0000      -1.406986       -38.2860
   6   2.0000      -1.380793       -37.5733
   7   2.0000      -1.340036       -36.4642
   8   2.0000      -1.314518       -35.7699
   9   2.0000      -1.314025       -35.7564
  10   2.0000      -0.764194       -20.7948
  11   2.0000      -0.742896       -20.2152
  12   2.0000      -0.726182       -19.7604
  13   2.0000      -0.685227       -18.6460
  14   2.0000      -0.683670       -18.6036
  15   2.0000      -0.643850       -17.5200
  16   2.0000      -0.619326       -16.8527
  17   2.0000      -0.592112       -16.1122
  18   2.0000      -0.562261       -15.2999
  19   2.0000      -0.555844       -15.1253
  20   2.0000      -0.541959       -14.7475
  21   2.0000      -0.539807       -14.6889
  22   2.0000      -0.501454       -13.6452
  23   2.0000      -0.481847       -13.1117
  24   2.0000      -0.478418       -13.0184
  25   0.0000       0.065633         1.7860
  26   0.0000       0.123890         3.3712
  27   0.0000       0.135874         3.6973
  28   0.0000       0.152651         4.1539
  29   0.0000       0.184032         5.0078

MULLIKEN ATOMIC CHARGES
-----------------------
   0 O :   -0.735547
   1 H :    0.340022
   2 H :    0.365173
   3 O :   -0.692879
   4 H :    0.365413
   5 H :    0.323884
   6 O :   -0.693516
   7 H :    0.370250
   8 H :    0.308870
   9 O :   -0.696251
  10 H :    0.339008
  11 H :    0.360088
  12 O :   -0.670524
  13 H :    0.360444
  14 H :    0.355564
Sum of atomic charges:   -0.0000000

LOEWDIN ATOMIC CHARGES
----------------------
   0 O :   -0.340040
   1 H :    0.155139
   2 H :    0.142112
   3 O :   -0.338739
   4 H :    0.151306
   5 H :    0.160218
   6 O :   -0.346373
   7 H :    0.149939
   8 H :    0.154714
   9 O :   -0.317096
  10 H :    0.164503
  11 H :    0.180019
  12 O :   -0.264098
  13 H :    0.173848
  14 H :    0.174548

  Mayer bond orders larger than 0.100000
B(  0-O ,  1-H ) :   0.8489 B(  0-O ,  2-H ) :   0.7741 B(  3-O ,  4-H ) :   0.8268
B(  3-O ,  5-H ) :   0.8606 B(  6-O ,  7-H ) :   0.8099 B(  6-O ,  8-H ) :   0.8640
B(  9-O , 10-H ) :   0.8473 B(  9-O , 11-H ) :   0.8278 B( 12-O , 13-H ) :   0.8341
B( 12-O , 14-H ) :   0.8374

MP2 TOTAL ENERGY:     -381.586766075 Eh
FINAL SINGLE POINT ENERGY      -381.586766074999

DIPOLE MOMENT
-------------
                                X             Y             Z
Electronic contribution:     -0.17993       0.13631      -0.00516
Nuclear contribution   :     -0.41967      -0.34148       2.18115
                        -----------------------------------------
Total Dipole Moment    :     -0.59960      -0.20516       2.17599
                        -----------------------------------------
Magnitude (a.u.)       :      2.26640
Magnitude (Debye)      :      5.76073

Rotational constants in cm-1:     0.096113     0.028539     0.023730
Rotational constants in MHz :  2881.399780   855.566430   711.398662

                             ****ORCA TERMINATED NORMALLY****
TOTAL RUN TIME: 0 days 0 hours 0 minutes 28 seconds 63 msec
