                         Program Version 4.2.0 -  RELEASE  -
|  1> # 12meoh.boyd.etal.mol4,6,8
|  2> ! MP2 def2-TZVP EnGrad TightSCF
|  3>
|  4> %pal
|  5>     nprocs 6
|  6> end
|  7>
|  8> %maxcore 8000
|  9>
| 10> %scf
| 11>     ConvForced true
| 12> end
| 13>
| 14> *xyz 0 1
| 15> O  -1.358578914   1.232360421   1.189721000
| 16> H  -1.058250183   1.216459361   0.238591307
| 17> C  -0.389763452   1.957872567   1.943072362
| 18> H  -0.747220771   2.012806578   2.975200343
| 19> H  -0.260410585   2.982763209   1.565366540
| 20> H   0.585220638   1.453754179   1.934070793
| 21> O   2.622209273  -1.703002590  -1.445859723
| 22> H   1.828551432  -1.986513781  -0.909754968
| 23> C   2.781117675  -2.615822239  -2.525472890
| 24> H   3.691063626  -2.339003544  -3.065143454
| 25> H   1.934727323  -2.559520367  -3.223226661
| 26> H   2.879948338  -3.653846211  -2.177750170
| 27> O   3.570084754   2.361662577  -0.202416728
| 28> H   3.393280933   1.755669977   0.560634073
| 29> C   4.368082883   1.644741793  -1.143112807
| 30> H   4.552851717   2.311801738  -1.989632421
| 31> H   3.862427494   0.740851663  -1.508095690
| 32> H   5.333949674   1.357289092  -0.706288100
| 33> *
| 34>
| 35>                          ****END OF INPUT****

CARTESIAN COORDINATES (ANGSTROEM)
---------------------------------
  O     -1.358579    1.232360    1.189721
  H     -1.058250    1.216459    0.238591
  C     -0.389763    1.957873    1.943072
  H     -0.747221    2.012807    2.975200
  H     -0.260411    2.982763    1.565367
  H      0.585221    1.453754    1.934071
  O      2.622209   -1.703003   -1.445860
  H      1.828551   -1.986514   -0.909755
  C      2.781118   -2.615822   -2.525473
  H      3.691064   -2.339004   -3.065143
  H      1.934727   -2.559520   -3.223227
  H      2.879948   -3.653846   -2.177750
  O      3.570085    2.361663   -0.202417
  H      3.393281    1.755670    0.560634
  C      4.368083    1.644742   -1.143113
  H      4.552852    2.311802   -1.989632
  H      3.862427    0.740852   -1.508096
  H      5.333950    1.357289   -0.706288

 Total Charge           Charge          ....    0
 Multiplicity           Mult            ....    1
 Number of Electrons    NEL             ....   54
 Basis Dimension        Dim             ....  258

ORBITAL ENERGIES
----------------

  NO   OCC          E(Eh)            E(eV)
   0   2.0000     -20.568647      -559.7013
   1   2.0000     -20.556592      -559.3733
   2   2.0000     -20.550682      -559.2125
   3   2.0000     -11.279882      -306.9412
   4   2.0000     -11.270064      -306.6740
   5   2.0000     -11.260311      -306.4086
   6   2.0000      -1.356732       -36.9185
   7   2.0000      -1.344104       -36.5749
   8   2.0000      -1.339798       -36.4578
   9   2.0000      -0.928127       -25.2556
  10   2.0000      -0.917565       -24.9682
  11   2.0000      -0.910080       -24.7645
  12   2.0000      -0.691328       -18.8120
  13   2.0000      -0.678977       -18.4759
  14   2.0000      -0.673644       -18.3308
  15   2.0000      -0.626103       -17.0371
  16   2.0000      -0.615304       -16.7433
  17   2.0000      -0.608953       -16.5705
  18   2.0000      -0.599688       -16.3183
  19   2.0000      -0.588729       -16.0201
  20   2.0000      -0.581895       -15.8342
  21   2.0000      -0.510481       -13.8909
  22   2.0000      -0.498831       -13.5739
  23   2.0000      -0.492371       -13.3981
  24   2.0000      -0.459048       -12.4913
  25   2.0000      -0.448125       -12.1941
  26   2.0000      -0.441025       -12.0009
  27   0.0000       0.105438         2.8691
  28   0.0000       0.136223         3.7068
  29   0.0000       0.153661         4.1813
  30   0.0000       0.170596         4.6422
  31   0.0000       0.176706         4.8084

MULLIKEN ATOMIC CHARGES
-----------------------
   0 O :   -0.502175
   1 H :    0.323240
   2 C :   -0.162485
   3 H :    0.127825
   4 H :    0.119256
   5 H :    0.093000
   6 O :   -0.498841
   7 H :    0.323039
   8 C :   -0.172518
   9 H :    0.130476
  10 H :    0.112867
  11 H :    0.113794
  12 O :   -0.505582
  13 H :    0.318843
  14 C :   -0.182434
  15 H :    0.121817
  16 H :    0.134420
  17 H :    0.105457
Sum of atomic charges:    0.0000000

LOEWDIN ATOMIC CHARGES
----------------------
   0 O :   -0.114030
   1 H :    0.192389
   2 C :   -0.379115
   3 H :    0.109733
   4 H :    0.099189
   5 H :    0.091211
   6 O :   -0.110662
   7 H :    0.193820
   8 C :   -0.380871
   9 H :    0.110580
  10 H :    0.096655
  11 H :    0.097514
  12 O :   -0.113921
  13 H :    0.185347
  14 C :   -0.380707
  15 H :    0.107577
  16 H :    0.100486
  17 H :    0.094806

  Mayer bond orders larger than 0.100000
B(  0-O ,  1-H ) :   0.8410 B(  0-O ,  2-C ) :   0.9245 B(  2-C ,  3-H ) :   0.9366
B(  2-C ,  4-H ) :   0.9400 B(  2-C ,  5-H ) :   0.9400 B(  6-O ,  7-H ) :   0.8381
B(  6-O ,  8-C ) :   0.9166 B(  8-C ,  9-H ) :   0.9385 B(  8-C , 10-H ) :   0.9384
B(  8-C , 11-H ) :   0.9361 B( 12-O , 13-H ) :   0.8444 B( 12-O , 14-C ) :   0.9140
B( 14-C , 15-H ) :   0.9362 B( 14-C , 16-H ) :   0.9325 B( 14-C , 17-H ) :   0.9429

MP2 TOTAL ENERGY:     -346.523167258 Eh
FINAL SINGLE POINT ENERGY      -346.523167257884

DIPOLE MOMENT
-------------
                                X             Y             Z
Electronic contribution:     -2.39433       1.21709       1.52214
Nuclear contribution   :      2.74035      -2.22422      -1.87608
                        -----------------------------------------
Total Dipole Moment    :      0.34602      -1.00713      -0.35394
                        -----------------------------------------
Magnitude (a.u.)       :      1.12219
Magnitude (Debye)      :      2.85239

Rotational constants in cm-1:     0.050677     0.024564     0.016969
Rotational constants in MHz :  1519.270950   736.402660   508.711389

                             ****ORCA TERMINATED NORMALLY****
TOTAL RUN TIME: 0 days 0 hours 0 minutes 59 seconds 283 msec
