                         Program Version 3.0.3 - RELEASE   -
|  1> ! B3LYP Def2-TZVP def2-TZVP/J RIJCOSX TightSCF Grid4 D3BJ
|  2>
|  3> %pal nprocs 12 end
|  4>
|  5> %scf
|  6>         maxiter 400
|  7> end
|  8>
|  9> * xyz  0  1
| 10> O  1.815091	1.292341	0.442395
| 11> H  1.129036	1.130352	1.221038
| 12> H  2.515448	1.862818	0.807855
| 13> O  0.031148	0.778502	2.189036
| 14> H  -0.779439	1.033276	1.661463
| 15> H  0.014450	-0.218928	2.113460
| 16> O  0.077710	-1.798143	1.383888
| 17> H  0.869013	-1.666267	0.705948
| 18> H  0.269492	-2.619627	1.871320
| 19> O  -1.909225	1.168677	0.346938
| 20> H  -1.999747	0.166439	0.048641
| 21> H  -2.817556	1.499979	0.468441
| 22> O  1.892140	-1.294594	-0.332487
| 23> H  1.319342	-1.178621	-1.144023
| 24> H  2.085927	-0.345171	-0.084439
| 25> O  -0.021535	1.792653	-1.479193
| 26> H  0.749753	1.791824	-0.842505
| 27> H  -0.802899	1.768221	-0.855198
| 28> O  0.015651	-0.661455	-2.171771
| 29> H  0.000187	0.369961	-1.975743
| 30> H  0.038349	-0.758027	-3.141303
| 31> O  -1.906511	-1.276891	-0.380647
| 32> H  -1.297571	-1.199700	-1.170803
| 33> H  -1.288258	-1.637618	0.317687
| 34> **                         ****END OF INPUT****

CARTESIAN COORDINATES (ANGSTROEM)
---------------------------------
  O      1.815091    1.292341    0.442395
  H      1.129036    1.130352    1.221038
  H      2.515448    1.862818    0.807855
  O      0.031148    0.778502    2.189036
  H     -0.779439    1.033276    1.661463
  H      0.014450   -0.218928    2.113460
  O      0.077710   -1.798143    1.383888
  H      0.869013   -1.666267    0.705948
  H      0.269492   -2.619627    1.871320
  O     -1.909225    1.168677    0.346938
  H     -1.999747    0.166439    0.048641
  H     -2.817556    1.499979    0.468441
  O      1.892140   -1.294594   -0.332487
  H      1.319342   -1.178621   -1.144023
  H      2.085927   -0.345171   -0.084439
  O     -0.021535    1.792653   -1.479193
  H      0.749753    1.791824   -0.842505
  H     -0.802899    1.768221   -0.855198
  O      0.015651   -0.661455   -2.171771
  H      0.000187    0.369961   -1.975743
  H      0.038349   -0.758027   -3.141303
  O     -1.906511   -1.276891   -0.380647
  H     -1.297571   -1.199700   -1.170803
  H     -1.288258   -1.637618    0.317687

 Total Charge           Charge          ....    0
 Multiplicity           Mult            ....    1
 Number of Electrons    NEL             ....   80
 Basis Dimension        Dim             ....  344

ORBITAL ENERGIES
----------------

  NO   OCC          E(Eh)            E(eV)
   0   2.0000     -19.136524      -520.7313
   1   2.0000     -19.136419      -520.7284
   2   2.0000     -19.136053      -520.7185
   3   2.0000     -19.135934      -520.7152
   4   2.0000     -19.120045      -520.2829
   5   2.0000     -19.119865      -520.2780
   6   2.0000     -19.119834      -520.2771
   7   2.0000     -19.119458      -520.2669
   8   2.0000      -1.034256       -28.1435
   9   2.0000      -1.018766       -27.7220
  10   2.0000      -1.015644       -27.6371
  11   2.0000      -1.015270       -27.6269
  12   2.0000      -0.994634       -27.0654
  13   2.0000      -0.994437       -27.0600
  14   2.0000      -0.991152       -26.9706
  15   2.0000      -0.976456       -26.5707
  16   2.0000      -0.544878       -14.8269
  17   2.0000      -0.541157       -14.7256
  18   2.0000      -0.540942       -14.7198
  19   2.0000      -0.540776       -14.7153
  20   2.0000      -0.520509       -14.1638
  21   2.0000      -0.519929       -14.1480
  22   2.0000      -0.513796       -13.9811
  23   2.0000      -0.513574       -13.9751
  24   2.0000      -0.467505       -12.7215
  25   2.0000      -0.424913       -11.5625
  26   2.0000      -0.423529       -11.5248
  27   2.0000      -0.422936       -11.5087
  28   2.0000      -0.393136       -10.6978
  29   2.0000      -0.392733       -10.6868
  30   2.0000      -0.391060       -10.6413
  31   2.0000      -0.353274        -9.6131
  32   2.0000      -0.328736        -8.9453
  33   2.0000      -0.328479        -8.9384
  34   2.0000      -0.326975        -8.8974
  35   2.0000      -0.325650        -8.8614
  36   2.0000      -0.314382        -8.5548
  37   2.0000      -0.313154        -8.5213
  38   2.0000      -0.313078        -8.5193
  39   2.0000      -0.310540        -8.4502
  40   0.0000       0.002700         0.0735
  41   0.0000       0.034395         0.9359
  42   0.0000       0.034839         0.9480
  43   0.0000       0.035044         0.9536
  44   0.0000       0.113712         3.0943

MULLIKEN ATOMIC CHARGES
-----------------------
   0 O :   -0.744172
   1 H :    0.364699
   2 H :    0.333010
   3 O :   -0.674818
   4 H :    0.361136
   5 H :    0.360122
   6 O :   -0.744055
   7 H :    0.364752
   8 H :    0.332905
   9 O :   -0.743423
  10 H :    0.364100
  11 H :    0.333149
  12 O :   -0.674974
  13 H :    0.361634
  14 H :    0.359326
  15 O :   -0.675830
  16 H :    0.361973
  17 H :    0.360438
  18 O :   -0.744170
  19 H :    0.365039
  20 H :    0.333597
  21 O :   -0.675562
  22 H :    0.360088
  23 H :    0.361035
Sum of atomic charges:    0.0000000

LOEWDIN ATOMIC CHARGES
----------------------
   0 O :   -0.318550
   1 H :    0.141603
   2 H :    0.158707
   3 O :   -0.274085
   4 H :    0.145474
   5 H :    0.146158
   6 O :   -0.318176
   7 H :    0.141360
   8 H :    0.158657
   9 O :   -0.317219
  10 H :    0.141948
  11 H :    0.158947
  12 O :   -0.273740
  13 H :    0.145600
  14 H :    0.145871
  15 O :   -0.274218
  16 H :    0.146107
  17 H :    0.146011
  18 O :   -0.317215
  19 H :    0.141893
  20 H :    0.159028
  21 O :   -0.275073
  22 H :    0.145624
  23 H :    0.145289

  Mayer bond orders larger than 0.1
B(  0-O ,  1-H ) :   0.6866 B(  0-O ,  2-H ) :   0.8869 B(  0-O , 14-H ) :   0.1078
B(  0-O , 16-H ) :   0.1085 B(  1-H ,  3-O ) :   0.2345 B(  3-O ,  4-H ) :   0.8113
B(  3-O ,  5-H ) :   0.8120 B(  4-H ,  9-O ) :   0.1093 B(  5-H ,  6-O ) :   0.1071
B(  6-O ,  7-H ) :   0.6866 B(  6-O ,  8-H ) :   0.8870 B(  6-O , 23-H ) :   0.1094
B(  7-H , 12-O ) :   0.2342 B(  9-O , 10-H ) :   0.6872 B(  9-O , 11-H ) :   0.8869
B(  9-O , 17-H ) :   0.1067 B( 10-H , 21-O ) :   0.2346 B( 12-O , 13-H ) :   0.8108
B( 12-O , 14-H ) :   0.8123 B( 13-H , 18-O ) :   0.1093 B( 15-O , 16-H ) :   0.8109
B( 15-O , 17-H ) :   0.8121 B( 15-O , 19-H ) :   0.2338 B( 18-O , 19-H ) :   0.6869
B( 18-O , 20-H ) :   0.8864 B( 18-O , 22-H ) :   0.1077 B( 21-O , 22-H ) :   0.8117
B( 21-O , 23-H ) :   0.8114

Dispersion correction           -0.026083185
FINAL SINGLE POINT ENERGY      -611.545422948215

DIPOLE MOMENT
-------------
                                X             Y             Z
Electronic contribution:     -0.00315       0.00363      -0.00470
Nuclear contribution   :      0.01381      -0.00272       0.00460
                        -----------------------------------------
Total Dipole Moment    :      0.01066       0.00091      -0.00010
                        -----------------------------------------
Magnitude (a.u.)       :      0.01070
Magnitude (Debye)      :      0.02720

                             ****ORCA TERMINATED NORMALLY****
TOTAL RUN TIME: 0 days 0 hours 1 minutes 3 seconds 363 msec
