                         Program Version 4.2.0 -  RELEASE  -
|  1> # 12h2o.su.etal.mol0,1,4,6,7,10
|  2> ! MP2 def2-TZVP EnGrad TightSCF
|  3>
|  4> %pal
|  5>     nprocs 6
|  6> end
|  7>
|  8> %maxcore 8000
|  9>
| 10> %scf
| 11>     ConvForced true
| 12> end
| 13>
| 14> *xyz 0 1
| 15> O   1.794470000   0.923410000   2.768350000
| 16> H   2.338250000   1.359750000   3.430940000
| 17> H   0.879480000   1.303000000   2.865760000
| 18> O  -1.794470000  -0.923410000   2.768350000
| 19> H  -2.338250000  -1.359750000   3.430940000
| 20> H  -0.879480000  -1.303000000   2.865760000
| 21> O  -0.885520000   1.737840000   0.052730000
| 22> H  -1.032320000   2.090180000  -0.841890000
| 23> H  -1.284090000   0.839590000   0.017130000
| 24> O   1.737840000   0.885520000  -0.052730000
| 25> H   2.090180000   1.032320000   0.841890000
| 26> H   0.839590000   1.284090000  -0.017130000
| 27> O  -1.737840000  -0.885520000  -0.052730000
| 28> H  -2.090180000  -1.032320000   0.841890000
| 29> H  -0.839590000  -1.284090000  -0.017130000
| 30> O  -0.923410000   1.794470000  -2.768350000
| 31> H  -1.359750000   2.338250000  -3.430940000
| 32> H  -1.303000000   0.879480000  -2.865760000
| 33> *
| 34>
| 35>                          ****END OF INPUT****

CARTESIAN COORDINATES (ANGSTROEM)
---------------------------------
  O      1.794470    0.923410    2.768350
  H      2.338250    1.359750    3.430940
  H      0.879480    1.303000    2.865760
  O     -1.794470   -0.923410    2.768350
  H     -2.338250   -1.359750    3.430940
  H     -0.879480   -1.303000    2.865760
  O     -0.885520    1.737840    0.052730
  H     -1.032320    2.090180   -0.841890
  H     -1.284090    0.839590    0.017130
  O      1.737840    0.885520   -0.052730
  H      2.090180    1.032320    0.841890
  H      0.839590    1.284090   -0.017130
  O     -1.737840   -0.885520   -0.052730
  H     -2.090180   -1.032320    0.841890
  H     -0.839590   -1.284090   -0.017130
  O     -0.923410    1.794470   -2.768350
  H     -1.359750    2.338250   -3.430940
  H     -1.303000    0.879480   -2.865760

 Total Charge           Charge          ....    0
 Multiplicity           Mult            ....    1
 Number of Electrons    NEL             ....   60
 Basis Dimension        Dim             ....  258

ORBITAL ENERGIES
----------------

  NO   OCC          E(Eh)            E(eV)
   0   2.0000     -20.599015      -560.5277
   1   2.0000     -20.574439      -559.8589
   2   2.0000     -20.572566      -559.8080
   3   2.0000     -20.564287      -559.5827
   4   2.0000     -20.514094      -558.2169
   5   2.0000     -20.477195      -557.2128
   6   2.0000      -1.377355       -37.4797
   7   2.0000      -1.352330       -36.7988
   8   2.0000      -1.350916       -36.7603
   9   2.0000      -1.347455       -36.6661
  10   2.0000      -1.302895       -35.4536
  11   2.0000      -1.261068       -34.3154
  12   2.0000      -0.743753       -20.2385
  13   2.0000      -0.718970       -19.5642
  14   2.0000      -0.717304       -19.5188
  15   2.0000      -0.711227       -19.3535
  16   2.0000      -0.678504       -18.4630
  17   2.0000      -0.644548       -17.5390
  18   2.0000      -0.619883       -16.8679
  19   2.0000      -0.598610       -16.2890
  20   2.0000      -0.588020       -16.0008
  21   2.0000      -0.582350       -15.8465
  22   2.0000      -0.554776       -15.0962
  23   2.0000      -0.538171       -14.6444
  24   2.0000      -0.531272       -14.4566
  25   2.0000      -0.511362       -13.9149
  26   2.0000      -0.501529       -13.6473
  27   2.0000      -0.492006       -13.3882
  28   2.0000      -0.455488       -12.3945
  29   2.0000      -0.428506       -11.6602
  30   0.0000       0.094733         2.5778
  31   0.0000       0.126381         3.4390
  32   0.0000       0.134080         3.6485
  33   0.0000       0.164397         4.4735
  34   0.0000       0.190711         5.1895

MULLIKEN ATOMIC CHARGES
-----------------------
   0 O :   -0.701341
   1 H :    0.344489
   2 H :    0.362828
   3 O :   -0.699739
   4 H :    0.354207
   5 H :    0.361167
   6 O :   -0.734565
   7 H :    0.369834
   8 H :    0.356652
   9 O :   -0.744519
  10 H :    0.349841
  11 H :    0.346719
  12 O :   -0.708456
  13 H :    0.378688
  14 H :    0.350060
  15 O :   -0.689339
  16 H :    0.344787
  17 H :    0.358687
Sum of atomic charges:   -0.0000000

LOEWDIN ATOMIC CHARGES
----------------------
   0 O :   -0.314630
   1 H :    0.159697
   2 H :    0.186810
   3 O :   -0.310234
   4 H :    0.164578
   5 H :    0.187564
   6 O :   -0.323016
   7 H :    0.147670
   8 H :    0.138853
   9 O :   -0.377099
  10 H :    0.139541
  11 H :    0.135115
  12 O :   -0.301638
  13 H :    0.153361
  14 H :    0.174292
  15 O :   -0.307849
  16 H :    0.160089
  17 H :    0.186896

  Mayer bond orders larger than 0.100000
B(  0-O ,  1-H ) :   0.8454 B(  0-O ,  2-H ) :   0.8265 B(  3-O ,  4-H ) :   0.8404
B(  3-O ,  5-H ) :   0.8277 B(  6-O ,  7-H ) :   0.8139 B(  6-O ,  8-H ) :   0.7893
B(  9-O , 10-H ) :   0.8366 B(  9-O , 11-H ) :   0.7943 B( 12-O , 13-H ) :   0.8038
B( 12-O , 14-H ) :   0.8354 B( 15-O , 16-H ) :   0.8459 B( 15-O , 17-H ) :   0.8315

MP2 TOTAL ENERGY:     -457.917089624 Eh
FINAL SINGLE POINT ENERGY      -457.917089623929

DIPOLE MOMENT
-------------
                                X             Y             Z
Electronic contribution:     -0.15890      -0.02213      -0.07031
Nuclear contribution   :     -1.13309      -0.76337       1.40687
                        -----------------------------------------
Total Dipole Moment    :     -1.29200      -0.78551       1.33656
                        -----------------------------------------
Magnitude (a.u.)       :      2.01808
Magnitude (Debye)      :      5.12956

Rotational constants in cm-1:     0.050694     0.033403     0.022634
Rotational constants in MHz :  1519.757897  1001.392391   678.544959

                             ****ORCA TERMINATED NORMALLY****
TOTAL RUN TIME: 0 days 0 hours 1 minutes 4 seconds 659 msec
