                         Program Version 4.2.0 -  RELEASE  -
|  1> # 12h2o.su.etal.mol1,2,5,8,9,10
|  2> ! MP2 def2-TZVP EnGrad TightSCF
|  3>
|  4> %pal
|  5>     nprocs 6
|  6> end
|  7>
|  8> %maxcore 8000
|  9>
| 10> %scf
| 11>     ConvForced true
| 12> end
| 13>
| 14> *xyz 0 1
| 15> O  -1.794470000  -0.923410000   2.768350000
| 16> H  -2.338250000  -1.359750000   3.430940000
| 17> H  -0.879480000  -1.303000000   2.865760000
| 18> O   0.923410000  -1.794470000  -2.768350000
| 19> H   1.359750000  -2.338250000  -3.430940000
| 20> H   1.303000000  -0.879480000  -2.865760000
| 21> O   0.885520000  -1.737840000   0.052730000
| 22> H   1.284090000  -0.839590000   0.017130000
| 23> H   1.032320000  -2.090180000  -0.841890000
| 24> O   1.752130000   0.741530000  -2.896280000
| 25> H   2.036450000   0.920500000  -1.984040000
| 26> H   0.921210000   1.242140000  -2.984230000
| 27> O   0.741530000  -1.752130000   2.896280000
| 28> H   0.920500000  -2.036450000   1.984040000
| 29> H   1.242140000  -0.921210000   2.984230000
| 30> O  -0.923410000   1.794470000  -2.768350000
| 31> H  -1.359750000   2.338250000  -3.430940000
| 32> H  -1.303000000   0.879480000  -2.865760000
| 33> *
| 34>
| 35>                          ****END OF INPUT****

CARTESIAN COORDINATES (ANGSTROEM)
---------------------------------
  O     -1.794470   -0.923410    2.768350
  H     -2.338250   -1.359750    3.430940
  H     -0.879480   -1.303000    2.865760
  O      0.923410   -1.794470   -2.768350
  H      1.359750   -2.338250   -3.430940
  H      1.303000   -0.879480   -2.865760
  O      0.885520   -1.737840    0.052730
  H      1.284090   -0.839590    0.017130
  H      1.032320   -2.090180   -0.841890
  O      1.752130    0.741530   -2.896280
  H      2.036450    0.920500   -1.984040
  H      0.921210    1.242140   -2.984230
  O      0.741530   -1.752130    2.896280
  H      0.920500   -2.036450    1.984040
  H      1.242140   -0.921210    2.984230
  O     -0.923410    1.794470   -2.768350
  H     -1.359750    2.338250   -3.430940
  H     -1.303000    0.879480   -2.865760

 Total Charge           Charge          ....    0
 Multiplicity           Mult            ....    1
 Number of Electrons    NEL             ....   60
 Basis Dimension        Dim             ....  258

ORBITAL ENERGIES
----------------

  NO   OCC          E(Eh)            E(eV)
   0   2.0000     -20.600983      -560.5813
   1   2.0000     -20.589763      -560.2759
   2   2.0000     -20.558177      -559.4164
   3   2.0000     -20.557779      -559.4056
   4   2.0000     -20.553278      -559.2831
   5   2.0000     -20.496771      -557.7455
   6   2.0000      -1.384165       -37.6651
   7   2.0000      -1.373448       -37.3734
   8   2.0000      -1.349864       -36.7317
   9   2.0000      -1.340908       -36.4880
  10   2.0000      -1.331081       -36.2206
  11   2.0000      -1.278942       -34.8018
  12   2.0000      -0.749752       -20.4018
  13   2.0000      -0.735323       -20.0092
  14   2.0000      -0.721699       -19.6384
  15   2.0000      -0.714134       -19.4326
  16   2.0000      -0.699164       -19.0252
  17   2.0000      -0.667397       -18.1608
  18   2.0000      -0.633919       -17.2498
  19   2.0000      -0.609792       -16.5933
  20   2.0000      -0.599280       -16.3072
  21   2.0000      -0.581619       -15.8267
  22   2.0000      -0.565385       -15.3849
  23   2.0000      -0.542589       -14.7646
  24   2.0000      -0.529344       -14.4042
  25   2.0000      -0.525973       -14.3124
  26   2.0000      -0.504871       -13.7382
  27   2.0000      -0.501915       -13.6578
  28   2.0000      -0.485238       -13.2040
  29   2.0000      -0.447250       -12.1703
  30   0.0000       0.088260         2.4017
  31   0.0000       0.118143         3.2148
  32   0.0000       0.146739         3.9930
  33   0.0000       0.153441         4.1754
  34   0.0000       0.187036         5.0895

MULLIKEN ATOMIC CHARGES
-----------------------
   0 O :   -0.734051
   1 H :    0.317605
   2 H :    0.369050
   3 O :   -0.739808
   4 H :    0.339348
   5 H :    0.367484
   6 O :   -0.702143
   7 H :    0.312272
   8 H :    0.381743
   9 O :   -0.695934
  10 H :    0.345701
  11 H :    0.380817
  12 O :   -0.693955
  13 H :    0.387955
  14 H :    0.336484
  15 O :   -0.703083
  16 H :    0.358023
  17 H :    0.372492
Sum of atomic charges:   -0.0000000

LOEWDIN ATOMIC CHARGES
----------------------
   0 O :   -0.374267
   1 H :    0.144725
   2 H :    0.142631
   3 O :   -0.341813
   4 H :    0.154960
   5 H :    0.142051
   6 O :   -0.323355
   7 H :    0.158956
   8 H :    0.155987
   9 O :   -0.278622
  10 H :    0.166497
  11 H :    0.156251
  12 O :   -0.278889
  13 H :    0.159273
  14 H :    0.165819
  15 O :   -0.310108
  16 H :    0.166620
  17 H :    0.193286

  Mayer bond orders larger than 0.100000
B(  0-O ,  1-H ) :   0.8647 B(  0-O ,  2-H ) :   0.7812 B(  3-O ,  4-H ) :   0.8493
B(  3-O ,  5-H ) :   0.7595 B(  6-O ,  7-H ) :   0.8586 B(  6-O ,  8-H ) :   0.7948
B(  9-O , 10-H ) :   0.8448 B(  9-O , 11-H ) :   0.7891 B( 12-O , 13-H ) :   0.7952
B( 12-O , 14-H ) :   0.8499 B( 15-O , 16-H ) :   0.8384 B( 15-O , 17-H ) :   0.8215

MP2 TOTAL ENERGY:     -457.921157273 Eh
FINAL SINGLE POINT ENERGY      -457.921157272996

DIPOLE MOMENT
-------------
                                X             Y             Z
Electronic contribution:     -0.01043       0.13342      -0.30158
Nuclear contribution   :      0.87361       0.79587      -1.40687
                        -----------------------------------------
Total Dipole Moment    :      0.86318       0.92929      -1.70845
                        -----------------------------------------
Magnitude (a.u.)       :      2.12779
Magnitude (Debye)      :      5.40840

Rotational constants in cm-1:     0.059437     0.019731     0.016601
Rotational constants in MHz :  1781.889504   591.524244   497.696606

                             ****ORCA TERMINATED NORMALLY****
TOTAL RUN TIME: 0 days 0 hours 0 minutes 53 seconds 529 msec
