                         Program Version 4.2.0 -  RELEASE  -
|  1> # 12meoh.boyd.etal.mol0,6,10
|  2> ! MP2 def2-TZVP EnGrad TightSCF
|  3>
|  4> %pal
|  5>     nprocs 6
|  6> end
|  7>
|  8> %maxcore 8000
|  9>
| 10> %scf
| 11>     ConvForced true
| 12> end
| 13>
| 14> *xyz 0 1
| 15> O  -1.776108874  -2.741384797  -1.019308298
| 16> H  -2.520094035  -2.452295987  -0.420778302
| 17> C  -2.174025166  -3.952700964  -1.647004581
| 18> H  -1.359803895  -4.272673416  -2.304149236
| 19> H  -3.075973971  -3.808692420  -2.256751112
| 20> H  -2.370225393  -4.752784761  -0.918966137
| 21> O   2.622209273  -1.703002590  -1.445859723
| 22> H   1.828551432  -1.986513781  -0.909754968
| 23> C   2.781117675  -2.615822239  -2.525472890
| 24> H   3.691063626  -2.339003544  -3.065143454
| 25> H   1.934727323  -2.559520367  -3.223226661
| 26> H   2.879948338  -3.653846211  -2.177750170
| 27> O  -5.201143618   0.064582726  -0.172223772
| 28> H  -4.686891530   0.869258890   0.107806143
| 29> C  -6.513192168   0.171391798   0.359883449
| 30> H  -7.049381312  -0.749234190   0.111361174
| 31> H  -7.057741163   1.017801101  -0.081819420
| 32> H  -6.514770575   0.292264928   1.453058834
| 33> *
| 34>
| 35>                          ****END OF INPUT****

CARTESIAN COORDINATES (ANGSTROEM)
---------------------------------
  O     -1.776109   -2.741385   -1.019308
  H     -2.520094   -2.452296   -0.420778
  C     -2.174025   -3.952701   -1.647005
  H     -1.359804   -4.272673   -2.304149
  H     -3.075974   -3.808692   -2.256751
  H     -2.370225   -4.752785   -0.918966
  O      2.622209   -1.703003   -1.445860
  H      1.828551   -1.986514   -0.909755
  C      2.781118   -2.615822   -2.525473
  H      3.691064   -2.339004   -3.065143
  H      1.934727   -2.559520   -3.223227
  H      2.879948   -3.653846   -2.177750
  O     -5.201144    0.064583   -0.172224
  H     -4.686892    0.869259    0.107806
  C     -6.513192    0.171392    0.359883
  H     -7.049381   -0.749234    0.111361
  H     -7.057741    1.017801   -0.081819
  H     -6.514771    0.292265    1.453059

 Total Charge           Charge          ....    0
 Multiplicity           Mult            ....    1
 Number of Electrons    NEL             ....   54
 Basis Dimension        Dim             ....  258

ORBITAL ENERGIES
----------------

  NO   OCC          E(Eh)            E(eV)
   0   2.0000     -20.565025      -559.6028
   1   2.0000     -20.556849      -559.3803
   2   2.0000     -20.545675      -559.0762
   3   2.0000     -11.277423      -306.8743
   4   2.0000     -11.270791      -306.6938
   5   2.0000     -11.261906      -306.4520
   6   2.0000      -1.354929       -36.8695
   7   2.0000      -1.346018       -36.6270
   8   2.0000      -1.334014       -36.3004
   9   2.0000      -0.925470       -25.1833
  10   2.0000      -0.918289       -24.9879
  11   2.0000      -0.909201       -24.7406
  12   2.0000      -0.689210       -18.7543
  13   2.0000      -0.680665       -18.5218
  14   2.0000      -0.669525       -18.2187
  15   2.0000      -0.623260       -16.9598
  16   2.0000      -0.616267       -16.7695
  17   2.0000      -0.606428       -16.5017
  18   2.0000      -0.598439       -16.2844
  19   2.0000      -0.590744       -16.0750
  20   2.0000      -0.580484       -15.7958
  21   2.0000      -0.506792       -13.7905
  22   2.0000      -0.499978       -13.6051
  23   2.0000      -0.489199       -13.3118
  24   2.0000      -0.455496       -12.3947
  25   2.0000      -0.447957       -12.1895
  26   2.0000      -0.437778       -11.9125
  27   0.0000       0.118888         3.2351
  28   0.0000       0.133246         3.6258
  29   0.0000       0.157094         4.2747
  30   0.0000       0.167553         4.5593
  31   0.0000       0.176725         4.8089

MULLIKEN ATOMIC CHARGES
-----------------------
   0 O :   -0.505740
   1 H :    0.330498
   2 C :   -0.173432
   3 H :    0.123962
   4 H :    0.115621
   5 H :    0.108708
   6 O :   -0.504285
   7 H :    0.329856
   8 C :   -0.168985
   9 H :    0.125547
  10 H :    0.110737
  11 H :    0.105274
  12 O :   -0.501705
  13 H :    0.325943
  14 C :   -0.173358
  15 H :    0.128307
  16 H :    0.112119
  17 H :    0.110934
Sum of atomic charges:    0.0000000

LOEWDIN ATOMIC CHARGES
----------------------
   0 O :   -0.112654
   1 H :    0.196155
   2 C :   -0.384401
   3 H :    0.108145
   4 H :    0.097421
   5 H :    0.094979
   6 O :   -0.112271
   7 H :    0.195786
   8 C :   -0.383234
   9 H :    0.108617
  10 H :    0.095615
  11 H :    0.094293
  12 O :   -0.109715
  13 H :    0.192802
  14 C :   -0.384174
  15 H :    0.110143
  16 H :    0.096564
  17 H :    0.095930

  Mayer bond orders larger than 0.100000
B(  0-O ,  1-H ) :   0.8349 B(  0-O ,  2-C ) :   0.9264 B(  2-C ,  3-H ) :   0.9379
B(  2-C ,  4-H ) :   0.9395 B(  2-C ,  5-H ) :   0.9386 B(  6-O ,  7-H ) :   0.8357
B(  6-O ,  8-C ) :   0.9304 B(  8-C ,  9-H ) :   0.9379 B(  8-C , 10-H ) :   0.9391
B(  8-C , 11-H ) :   0.9394 B( 12-O , 13-H ) :   0.8393 B( 12-O , 14-C ) :   0.9223
B( 14-C , 15-H ) :   0.9379 B( 14-C , 16-H ) :   0.9384 B( 14-C , 17-H ) :   0.9383

MP2 TOTAL ENERGY:     -346.523304755 Eh
FINAL SINGLE POINT ENERGY      -346.523304754622

DIPOLE MOMENT
-------------
                                X             Y             Z
Electronic contribution:      2.09073       2.51232       1.32732
Nuclear contribution   :     -3.44909      -2.78700      -0.91121
                        -----------------------------------------
Total Dipole Moment    :     -1.35837      -0.27467       0.41611
                        -----------------------------------------
Magnitude (a.u.)       :      1.44698
Magnitude (Debye)      :      3.67793

Rotational constants in cm-1:     0.103905     0.012444     0.011301
Rotational constants in MHz :  3114.992403   373.049093   338.789170

                             ****ORCA TERMINATED NORMALLY****
TOTAL RUN TIME: 0 days 0 hours 1 minutes 25 seconds 954 msec
