                         Program Version 4.2.0 -  RELEASE  -
|  1> # 12mecn.remya.etal.2.mol7,8,9
|  2> ! MP2 def2-TZVP EnGrad TightSCF
|  3>
|  4> %pal
|  5>     nprocs 6
|  6> end
|  7>
|  8> %maxcore 8000
|  9>
| 10> %scf
| 11>     ConvForced true
| 12> end
| 13>
| 14> *xyz 0 1
| 15> C   1.502241000   0.651296000   1.710523000
| 16> H   1.309219000   1.637164000   2.143202000
| 17> H   2.493408000   0.297996000   2.009069000
| 18> H   0.746597000  -0.059850000   2.055508000
| 19> C   1.447974000   0.738517000   0.269805000
| 20> N   1.405612000   0.808047000  -0.894380000
| 21> C   1.912641000  -2.468050000  -1.750510000
| 22> H   2.876947000  -2.793500000  -2.151200000
| 23> H   1.688016000  -1.463720000  -2.122170000
| 24> H   1.123460000  -3.154780000  -2.069590000
| 25> C   1.977850000  -2.444240000  -0.306900000
| 26> N   2.036566000  -2.426130000   0.858249000
| 27> C   0.923766000   4.000693000  -1.575910000
| 28> H   0.011949000   4.478423000  -1.939550000
| 29> H   0.947903000   2.966558000  -1.929960000
| 30> H   1.805950000   4.519548000  -1.956520000
| 31> C   0.942834000   3.994846000  -0.131200000
| 32> N   0.960035000   3.982544000   1.035639000
| 33> *
| 34>
| 35>                          ****END OF INPUT****

CARTESIAN COORDINATES (ANGSTROEM)
---------------------------------
  C      1.502241    0.651296    1.710523
  H      1.309219    1.637164    2.143202
  H      2.493408    0.297996    2.009069
  H      0.746597   -0.059850    2.055508
  C      1.447974    0.738517    0.269805
  N      1.405612    0.808047   -0.894380
  C      1.912641   -2.468050   -1.750510
  H      2.876947   -2.793500   -2.151200
  H      1.688016   -1.463720   -2.122170
  H      1.123460   -3.154780   -2.069590
  C      1.977850   -2.444240   -0.306900
  N      2.036566   -2.426130    0.858249
  C      0.923766    4.000693   -1.575910
  H      0.011949    4.478423   -1.939550
  H      0.947903    2.966558   -1.929960
  H      1.805950    4.519548   -1.956520
  C      0.942834    3.994846   -0.131200
  N      0.960035    3.982544    1.035639

 Total Charge           Charge          ....    0
 Multiplicity           Mult            ....    1
 Number of Electrons    NEL             ....   66
 Basis Dimension        Dim             ....  333

ORBITAL ENERGIES
----------------

  NO   OCC          E(Eh)            E(eV)
   0   2.0000     -15.570851      -423.7044
   1   2.0000     -15.568444      -423.6389
   2   2.0000     -15.567792      -423.6212
   3   2.0000     -11.284915      -307.0781
   4   2.0000     -11.282040      -306.9999
   5   2.0000     -11.279794      -306.9388
   6   2.0000     -11.274690      -306.7999
   7   2.0000     -11.269932      -306.6704
   8   2.0000     -11.260936      -306.4256
   9   2.0000      -1.218498       -33.1570
  10   2.0000      -1.214273       -33.0420
  11   2.0000      -1.211377       -32.9632
  12   2.0000      -1.036891       -28.2152
  13   2.0000      -1.033974       -28.1359
  14   2.0000      -1.026546       -27.9337
  15   2.0000      -0.694061       -18.8864
  16   2.0000      -0.691833       -18.8257
  17   2.0000      -0.683881       -18.6094
  18   2.0000      -0.629432       -17.1277
  19   2.0000      -0.625615       -17.0238
  20   2.0000      -0.623340       -16.9619
  21   2.0000      -0.622019       -16.9260
  22   2.0000      -0.612119       -16.6566
  23   2.0000      -0.607071       -16.5192
  24   2.0000      -0.559826       -15.2336
  25   2.0000      -0.555484       -15.1155
  26   2.0000      -0.553611       -15.0645
  27   2.0000      -0.462678       -12.5901
  28   2.0000      -0.458990       -12.4897
  29   2.0000      -0.457837       -12.4584
  30   2.0000      -0.455628       -12.3983
  31   2.0000      -0.454495       -12.3674
  32   2.0000      -0.449749       -12.2383
  33   0.0000       0.126522         3.4428
  34   0.0000       0.137206         3.7336
  35   0.0000       0.155330         4.2267
  36   0.0000       0.172903         4.7049
  37   0.0000       0.173768         4.7285

MULLIKEN ATOMIC CHARGES
-----------------------
   0 C :   -0.262108
   1 H :    0.206205
   2 H :    0.171263
   3 H :    0.172548
   4 C :   -0.060829
   5 N :   -0.224645
   6 C :   -0.286709
   7 H :    0.167015
   8 H :    0.199256
   9 H :    0.166991
  10 C :   -0.112903
  11 N :   -0.133538
  12 C :   -0.284158
  13 H :    0.165586
  14 H :    0.201196
  15 H :    0.165230
  16 C :   -0.108443
  17 N :   -0.141956
Sum of atomic charges:    0.0000000

LOEWDIN ATOMIC CHARGES
----------------------
   0 C :   -0.280926
   1 H :    0.155108
   2 H :    0.156654
   3 H :    0.156126
   4 C :   -0.198425
   5 N :    0.012597
   6 C :   -0.282776
   7 H :    0.152115
   8 H :    0.155500
   9 H :    0.151534
  10 C :   -0.210614
  11 N :    0.038186
  12 C :   -0.284108
  13 H :    0.149792
  14 H :    0.155660
  15 H :    0.151249
  16 C :   -0.209797
  17 N :    0.032125

  Mayer bond orders larger than 0.100000
B(  0-C ,  1-H ) :   0.8955 B(  0-C ,  2-H ) :   0.9107 B(  0-C ,  3-H ) :   0.9107
B(  0-C ,  4-C ) :   0.9130 B(  4-C ,  5-N ) :   2.6920 B(  6-C ,  7-H ) :   0.9156
B(  6-C ,  8-H ) :   0.9057 B(  6-C ,  9-H ) :   0.9160 B(  6-C , 10-C ) :   0.8991
B( 10-C , 11-N ) :   2.7934 B( 12-C , 13-H ) :   0.9163 B( 12-C , 14-H ) :   0.9024
B( 12-C , 15-H ) :   0.9151 B( 12-C , 16-C ) :   0.9033 B( 16-C , 17-N ) :   2.7825

MP2 TOTAL ENERGY:     -397.467861737 Eh
FINAL SINGLE POINT ENERGY      -397.467861737087

DIPOLE MOMENT
-------------
                                X             Y             Z
Electronic contribution:      0.06664       0.22561       3.19095
Nuclear contribution   :     -0.09643      -0.36721      -4.66402
                        -----------------------------------------
Total Dipole Moment    :     -0.02979      -0.14160      -1.47307
                        -----------------------------------------
Magnitude (a.u.)       :      1.48016
Magnitude (Debye)      :      3.76227

Rotational constants in cm-1:     0.092909     0.019084     0.015979
Rotational constants in MHz :  2785.334600   572.122448   479.045833

                             ****ORCA TERMINATED NORMALLY****
TOTAL RUN TIME: 0 days 0 hours 4 minutes 1 seconds 513 msec
