                         Program Version 4.2.0 -  RELEASE  -
|  1> # 12h2o.su.etal.mol1,3,4,6,8,11
|  2> ! MP2 def2-TZVP EnGrad TightSCF
|  3>
|  4> %pal
|  5>     nprocs 6
|  6> end
|  7>
|  8> %maxcore 8000
|  9>
| 10> %scf
| 11>     ConvForced true
| 12> end
| 13>
| 14> *xyz 0 1
| 15> O  -1.794470000  -0.923410000   2.768350000
| 16> H  -2.338250000  -1.359750000   3.430940000
| 17> H  -0.879480000  -1.303000000   2.865760000
| 18> O  -1.752130000  -0.741530000  -2.896280000
| 19> H  -2.036450000  -0.920500000  -1.984040000
| 20> H  -0.921210000  -1.242140000  -2.984230000
| 21> O  -0.885520000   1.737840000   0.052730000
| 22> H  -1.032320000   2.090180000  -0.841890000
| 23> H  -1.284090000   0.839590000   0.017130000
| 24> O   1.737840000   0.885520000  -0.052730000
| 25> H   2.090180000   1.032320000   0.841890000
| 26> H   0.839590000   1.284090000  -0.017130000
| 27> O   1.752130000   0.741530000  -2.896280000
| 28> H   2.036450000   0.920500000  -1.984040000
| 29> H   0.921210000   1.242140000  -2.984230000
| 30> O  -0.741530000   1.752130000   2.896280000
| 31> H  -0.920500000   2.036450000   1.984040000
| 32> H  -1.242140000   0.921210000   2.984230000
| 33> *
| 34>
| 35>                          ****END OF INPUT****

CARTESIAN COORDINATES (ANGSTROEM)
---------------------------------
  O     -1.794470   -0.923410    2.768350
  H     -2.338250   -1.359750    3.430940
  H     -0.879480   -1.303000    2.865760
  O     -1.752130   -0.741530   -2.896280
  H     -2.036450   -0.920500   -1.984040
  H     -0.921210   -1.242140   -2.984230
  O     -0.885520    1.737840    0.052730
  H     -1.032320    2.090180   -0.841890
  H     -1.284090    0.839590    0.017130
  O      1.737840    0.885520   -0.052730
  H      2.090180    1.032320    0.841890
  H      0.839590    1.284090   -0.017130
  O      1.752130    0.741530   -2.896280
  H      2.036450    0.920500   -1.984040
  H      0.921210    1.242140   -2.984230
  O     -0.741530    1.752130    2.896280
  H     -0.920500    2.036450    1.984040
  H     -1.242140    0.921210    2.984230

 Total Charge           Charge          ....    0
 Multiplicity           Mult            ....    1
 Number of Electrons    NEL             ....   60
 Basis Dimension        Dim             ....  258

ORBITAL ENERGIES
----------------

  NO   OCC          E(Eh)            E(eV)
   0   2.0000     -20.622984      -561.1799
   1   2.0000     -20.605207      -560.6962
   2   2.0000     -20.577775      -559.9497
   3   2.0000     -20.555991      -559.3570
   4   2.0000     -20.533837      -558.7541
   5   2.0000     -20.526562      -558.5561
   6   2.0000      -1.405853       -38.2552
   7   2.0000      -1.382819       -37.6284
   8   2.0000      -1.356699       -36.9177
   9   2.0000      -1.340134       -36.4669
  10   2.0000      -1.314819       -35.7780
  11   2.0000      -1.311822       -35.6965
  12   2.0000      -0.763762       -20.7830
  13   2.0000      -0.750002       -20.4086
  14   2.0000      -0.719341       -19.5743
  15   2.0000      -0.715943       -19.4818
  16   2.0000      -0.693017       -18.8580
  17   2.0000      -0.683622       -18.6023
  18   2.0000      -0.644129       -17.5276
  19   2.0000      -0.618921       -16.8417
  20   2.0000      -0.598151       -16.2765
  21   2.0000      -0.594260       -16.1706
  22   2.0000      -0.563116       -15.3232
  23   2.0000      -0.555981       -15.1290
  24   2.0000      -0.542592       -14.7647
  25   2.0000      -0.532848       -14.4995
  26   2.0000      -0.521758       -14.1978
  27   2.0000      -0.504855       -13.7378
  28   2.0000      -0.479722       -13.0539
  29   2.0000      -0.476026       -12.9533
  30   0.0000       0.072104         1.9620
  31   0.0000       0.104570         2.8455
  32   0.0000       0.132005         3.5921
  33   0.0000       0.154586         4.2065
  34   0.0000       0.163655         4.4533

MULLIKEN ATOMIC CHARGES
-----------------------
   0 O :   -0.704345
   1 H :    0.359744
   2 H :    0.363937
   3 O :   -0.679186
   4 H :    0.325130
   5 H :    0.356696
   6 O :   -0.703536
   7 H :    0.368835
   8 H :    0.362385
   9 O :   -0.728921
  10 H :    0.347938
  11 H :    0.351863
  12 O :   -0.695925
  13 H :    0.375761
  14 H :    0.312866
  15 O :   -0.720909
  16 H :    0.362682
  17 H :    0.344986
Sum of atomic charges:   -0.0000000

LOEWDIN ATOMIC CHARGES
----------------------
   0 O :   -0.314726
   1 H :    0.166691
   2 H :    0.189424
   3 O :   -0.329356
   4 H :    0.158070
   5 H :    0.173514
   6 O :   -0.271752
   7 H :    0.175837
   8 H :    0.179585
   9 O :   -0.341112
  10 H :    0.167135
  11 H :    0.141226
  12 O :   -0.339325
  13 H :    0.154450
  14 H :    0.152161
  15 O :   -0.350697
  16 H :    0.147000
  17 H :    0.141875

  Mayer bond orders larger than 0.100000
B(  0-O ,  1-H ) :   0.8377 B(  0-O ,  2-H ) :   0.8281 B(  3-O ,  4-H ) :   0.8583
B(  3-O ,  5-H ) :   0.8367 B(  6-O ,  7-H ) :   0.8268 B(  6-O ,  8-H ) :   0.8241
B(  9-O , 10-H ) :   0.8430 B(  9-O , 11-H ) :   0.7922 B( 12-O , 13-H ) :   0.8126
B( 12-O , 14-H ) :   0.8638 B( 15-O , 16-H ) :   0.8331 B( 15-O , 17-H ) :   0.8280

MP2 TOTAL ENERGY:     -457.909853188 Eh
FINAL SINGLE POINT ENERGY      -457.909853187761

DIPOLE MOMENT
-------------
                                X             Y             Z
Electronic contribution:     -0.07221       0.04431      -0.12175
Nuclear contribution   :     -1.16501      -1.13457       1.31870
                        -----------------------------------------
Total Dipole Moment    :     -1.23722      -1.09026       1.19695
                        -----------------------------------------
Magnitude (a.u.)       :      2.03767
Magnitude (Debye)      :      5.17934

Rotational constants in cm-1:     0.052422     0.023999     0.019213
Rotational constants in MHz :  1571.584174   719.465896   575.979974

                             ****ORCA TERMINATED NORMALLY****
TOTAL RUN TIME: 0 days 0 hours 0 minutes 59 seconds 26 msec
