                         Program Version 4.2.0 -  RELEASE  -
|  1> # 12h2o.su.etal.mol0,2,3,7,8,10,11
|  2> ! MP2 def2-TZVP EnGrad TightSCF
|  3>
|  4> %pal
|  5>     nprocs 6
|  6> end
|  7>
|  8> %maxcore 8000
|  9>
| 10> %scf
| 11>     ConvForced true
| 12> end
| 13>
| 14> *xyz 0 1
| 15> O   1.794470000   0.923410000   2.768350000
| 16> H   2.338250000   1.359750000   3.430940000
| 17> H   0.879480000   1.303000000   2.865760000
| 18> O   0.923410000  -1.794470000  -2.768350000
| 19> H   1.359750000  -2.338250000  -3.430940000
| 20> H   1.303000000  -0.879480000  -2.865760000
| 21> O  -1.752130000  -0.741530000  -2.896280000
| 22> H  -2.036450000  -0.920500000  -1.984040000
| 23> H  -0.921210000  -1.242140000  -2.984230000
| 24> O  -1.737840000  -0.885520000  -0.052730000
| 25> H  -2.090180000  -1.032320000   0.841890000
| 26> H  -0.839590000  -1.284090000  -0.017130000
| 27> O   1.752130000   0.741530000  -2.896280000
| 28> H   2.036450000   0.920500000  -1.984040000
| 29> H   0.921210000   1.242140000  -2.984230000
| 30> O  -0.923410000   1.794470000  -2.768350000
| 31> H  -1.359750000   2.338250000  -3.430940000
| 32> H  -1.303000000   0.879480000  -2.865760000
| 33> O  -0.741530000   1.752130000   2.896280000
| 34> H  -0.920500000   2.036450000   1.984040000
| 35> H  -1.242140000   0.921210000   2.984230000
| 36> *
| 37>
| 38>                          ****END OF INPUT****

CARTESIAN COORDINATES (ANGSTROEM)
---------------------------------
  O      1.794470    0.923410    2.768350
  H      2.338250    1.359750    3.430940
  H      0.879480    1.303000    2.865760
  O      0.923410   -1.794470   -2.768350
  H      1.359750   -2.338250   -3.430940
  H      1.303000   -0.879480   -2.865760
  O     -1.752130   -0.741530   -2.896280
  H     -2.036450   -0.920500   -1.984040
  H     -0.921210   -1.242140   -2.984230
  O     -1.737840   -0.885520   -0.052730
  H     -2.090180   -1.032320    0.841890
  H     -0.839590   -1.284090   -0.017130
  O      1.752130    0.741530   -2.896280
  H      2.036450    0.920500   -1.984040
  H      0.921210    1.242140   -2.984230
  O     -0.923410    1.794470   -2.768350
  H     -1.359750    2.338250   -3.430940
  H     -1.303000    0.879480   -2.865760
  O     -0.741530    1.752130    2.896280
  H     -0.920500    2.036450    1.984040
  H     -1.242140    0.921210    2.984230

 Total Charge           Charge          ....    0
 Multiplicity           Mult            ....    1
 Number of Electrons    NEL             ....   70
 Basis Dimension        Dim             ....  301

ORBITAL ENERGIES
----------------

  NO   OCC          E(Eh)            E(eV)
   0   2.0000     -20.603411      -560.6473
   1   2.0000     -20.595956      -560.4445
   2   2.0000     -20.563636      -559.5650
   3   2.0000     -20.545119      -559.0611
   4   2.0000     -20.543589      -559.0195
   5   2.0000     -20.539240      -558.9011
   6   2.0000     -20.524237      -558.4929
   7   2.0000      -1.388651       -37.7871
   8   2.0000      -1.374490       -37.4018
   9   2.0000      -1.356717       -36.9181
  10   2.0000      -1.339396       -36.4468
  11   2.0000      -1.327370       -36.1196
  12   2.0000      -1.315872       -35.8067
  13   2.0000      -1.306626       -35.5551
  14   2.0000      -0.746160       -20.3040
  15   2.0000      -0.736907       -20.0523
  16   2.0000      -0.716409       -19.4945
  17   2.0000      -0.713040       -19.4028
  18   2.0000      -0.701525       -19.0895
  19   2.0000      -0.697999       -18.9935
  20   2.0000      -0.697605       -18.9828
  21   2.0000      -0.624390       -16.9905
  22   2.0000      -0.623000       -16.9527
  23   2.0000      -0.607045       -16.5185
  24   2.0000      -0.579679       -15.7739
  25   2.0000      -0.573474       -15.6050
  26   2.0000      -0.564315       -15.3558
  27   2.0000      -0.546937       -14.8829
  28   2.0000      -0.537667       -14.6307
  29   2.0000      -0.520785       -14.1713
  30   2.0000      -0.504623       -13.7315
  31   2.0000      -0.494960       -13.4685
  32   2.0000      -0.489878       -13.3303
  33   2.0000      -0.488093       -13.2817
  34   2.0000      -0.474674       -12.9165
  35   0.0000       0.078335         2.1316
  36   0.0000       0.127526         3.4702
  37   0.0000       0.144879         3.9423
  38   0.0000       0.160985         4.3806
  39   0.0000       0.169737         4.6188

MULLIKEN ATOMIC CHARGES
-----------------------
   0 O :   -0.734800
   1 H :    0.328023
   2 H :    0.363837
   3 O :   -0.747304
   4 H :    0.341849
   5 H :    0.380187
   6 O :   -0.724639
   7 H :    0.380745
   8 H :    0.366373
   9 O :   -0.698832
  10 H :    0.340099
  11 H :    0.366918
  12 O :   -0.711289
  13 H :    0.356312
  14 H :    0.377987
  15 O :   -0.747532
  16 H :    0.337725
  17 H :    0.383283
  18 O :   -0.675016
  19 H :    0.367545
  20 H :    0.348530
Sum of atomic charges:   -0.0000000

LOEWDIN ATOMIC CHARGES
----------------------
   0 O :   -0.373675
   1 H :    0.149805
   2 H :    0.141181
   3 O :   -0.344143
   4 H :    0.155994
   5 H :    0.145141
   6 O :   -0.288899
   7 H :    0.155982
   8 H :    0.149158
   9 O :   -0.317569
  10 H :    0.165576
  11 H :    0.183725
  12 O :   -0.285180
  13 H :    0.172135
  14 H :    0.154266
  15 O :   -0.343856
  16 H :    0.153818
  17 H :    0.145572
  18 O :   -0.268450
  19 H :    0.178207
  20 H :    0.171212

  Mayer bond orders larger than 0.100000
B(  0-O ,  1-H ) :   0.8593 B(  0-O ,  2-H ) :   0.7891 B(  3-O ,  4-H ) :   0.8483
B(  3-O ,  5-H ) :   0.7476 B(  5-H , 12-O ) :   0.1103 B(  6-O ,  7-H ) :   0.8108
B(  6-O ,  8-H ) :   0.7931 B(  6-O , 17-H ) :   0.1168 B(  9-O , 10-H ) :   0.8473
B(  9-O , 11-H ) :   0.8267 B( 12-O , 13-H ) :   0.8384 B( 12-O , 14-H ) :   0.7801
B( 15-O , 16-H ) :   0.8501 B( 15-O , 17-H ) :   0.7408 B( 18-O , 19-H ) :   0.8305
B( 18-O , 20-H ) :   0.8419

MP2 TOTAL ENERGY:     -534.253889924 Eh
FINAL SINGLE POINT ENERGY      -534.253889923549

DIPOLE MOMENT
-------------
                                X             Y             Z
Electronic contribution:     -0.24140       0.10991      -0.01216
Nuclear contribution   :     -0.42024      -0.22976       0.82779
                        -----------------------------------------
Total Dipole Moment    :     -0.66164      -0.11986       0.81563
                        -----------------------------------------
Magnitude (a.u.)       :      1.05706
Magnitude (Debye)      :      2.68684

Rotational constants in cm-1:     0.038868     0.016756     0.015366
Rotational constants in MHz :  1165.246136   502.326852   460.649948

                             ****ORCA TERMINATED NORMALLY****
TOTAL RUN TIME: 0 days 0 hours 1 minutes 34 seconds 79 msec
