                         Program Version 4.2.0 -  RELEASE  -
|  1> # 12meoh.boyd.etal.mol1,6,11
|  2> ! MP2 def2-TZVP EnGrad TightSCF
|  3>
|  4> %pal
|  5>     nprocs 6
|  6> end
|  7>
|  8> %maxcore 8000
|  9>
| 10> %scf
| 11>     ConvForced true
| 12> end
| 13>
| 14> *xyz 0 1
| 15> O   0.666045193  -2.600503172   0.138317521
| 16> H  -0.227115049  -2.712051982  -0.281868004
| 17> C   0.490021232  -1.851247678   1.341189459
| 18> H   1.466500502  -1.466176022   1.645844415
| 19> H   0.097564527  -2.488364683   2.146902740
| 20> H  -0.187588112  -1.000787499   1.200739571
| 21> O   2.622209273  -1.703002590  -1.445859723
| 22> H   1.828551432  -1.986513781  -0.909754968
| 23> C   2.781117675  -2.615822239  -2.525472890
| 24> H   3.691063626  -2.339003544  -3.065143454
| 25> H   1.934727323  -2.559520367  -3.223226661
| 26> H   2.879948338  -3.653846211  -2.177750170
| 27> O   3.252955559   0.588596242   1.858934315
| 28> H   3.621209177  -0.251605199   1.476063364
| 29> C   4.040824528   0.944288422   2.989639460
| 30> H   3.670521436   1.902573549   3.363847391
| 31> H   5.103749934   1.055868619   2.734277559
| 32> H   3.948540682   0.200279590   3.792908518
| 33> *
| 34>
| 35>                          ****END OF INPUT****

CARTESIAN COORDINATES (ANGSTROEM)
---------------------------------
  O      0.666045   -2.600503    0.138318
  H     -0.227115   -2.712052   -0.281868
  C      0.490021   -1.851248    1.341189
  H      1.466501   -1.466176    1.645844
  H      0.097565   -2.488365    2.146903
  H     -0.187588   -1.000787    1.200740
  O      2.622209   -1.703003   -1.445860
  H      1.828551   -1.986514   -0.909755
  C      2.781118   -2.615822   -2.525473
  H      3.691064   -2.339004   -3.065143
  H      1.934727   -2.559520   -3.223227
  H      2.879948   -3.653846   -2.177750
  O      3.252956    0.588596    1.858934
  H      3.621209   -0.251605    1.476063
  C      4.040825    0.944288    2.989639
  H      3.670521    1.902574    3.363847
  H      5.103750    1.055869    2.734278
  H      3.948541    0.200280    3.792909

 Total Charge           Charge          ....    0
 Multiplicity           Mult            ....    1
 Number of Electrons    NEL             ....   54
 Basis Dimension        Dim             ....  258

ORBITAL ENERGIES
----------------

  NO   OCC          E(Eh)            E(eV)
   0   2.0000     -20.587411      -560.2119
   1   2.0000     -20.553257      -559.2825
   2   2.0000     -20.513425      -558.1987
   3   2.0000     -11.283572      -307.0416
   4   2.0000     -11.268578      -306.6336
   5   2.0000     -11.249151      -306.1050
   6   2.0000      -1.379697       -37.5435
   7   2.0000      -1.342648       -36.5353
   8   2.0000      -1.309432       -35.6315
   9   2.0000      -0.936659       -25.4878
  10   2.0000      -0.916458       -24.9381
  11   2.0000      -0.895548       -24.3691
  12   2.0000      -0.713321       -19.4104
  13   2.0000      -0.677897       -18.4465
  14   2.0000      -0.670197       -18.2370
  15   2.0000      -0.630470       -17.1560
  16   2.0000      -0.614903       -16.7324
  17   2.0000      -0.604705       -16.4549
  18   2.0000      -0.590354       -16.0643
  19   2.0000      -0.586942       -15.9715
  20   2.0000      -0.561189       -15.2707
  21   2.0000      -0.524893       -14.2831
  22   2.0000      -0.496649       -13.5145
  23   2.0000      -0.484875       -13.1941
  24   2.0000      -0.455195       -12.3865
  25   2.0000      -0.444678       -12.1003
  26   2.0000      -0.416300       -11.3281
  27   0.0000       0.118254         3.2179
  28   0.0000       0.141999         3.8640
  29   0.0000       0.168152         4.5756
  30   0.0000       0.179298         4.8790
  31   0.0000       0.185411         5.0453

MULLIKEN ATOMIC CHARGES
-----------------------
   0 O :   -0.520410
   1 H :    0.340864
   2 C :   -0.160076
   3 H :    0.120250
   4 H :    0.119131
   5 H :    0.127575
   6 O :   -0.536398
   7 H :    0.346363
   8 C :   -0.166312
   9 H :    0.120615
  10 H :    0.093304
  11 H :    0.101539
  12 O :   -0.489181
  13 H :    0.333164
  14 C :   -0.179450
  15 H :    0.127501
  16 H :    0.115519
  17 H :    0.106003
Sum of atomic charges:   -0.0000000

LOEWDIN ATOMIC CHARGES
----------------------
   0 O :   -0.078855
   1 H :    0.197227
   2 C :   -0.366124
   3 H :    0.111375
   4 H :    0.102487
   5 H :    0.104701
   6 O :   -0.129328
   7 H :    0.159783
   8 C :   -0.395684
   9 H :    0.105611
  10 H :    0.089921
  11 H :    0.092400
  12 O :   -0.103076
  13 H :    0.191625
  14 C :   -0.382598
  15 H :    0.109463
  16 H :    0.097226
  17 H :    0.093844

  Mayer bond orders larger than 0.100000
B(  0-O ,  1-H ) :   0.8291 B(  0-O ,  2-C ) :   0.8667 B(  2-C ,  3-H ) :   0.9339
B(  2-C ,  4-H ) :   0.9339 B(  2-C ,  5-H ) :   0.9438 B(  6-O ,  7-H ) :   0.7816
B(  6-O ,  8-C ) :   0.9434 B(  8-C ,  9-H ) :   0.9416 B(  8-C , 10-H ) :   0.9412
B(  8-C , 11-H ) :   0.9367 B( 12-O , 13-H ) :   0.8294 B( 12-O , 14-C ) :   0.9360
B( 14-C , 15-H ) :   0.9380 B( 14-C , 16-H ) :   0.9398 B( 14-C , 17-H ) :   0.9370

MP2 TOTAL ENERGY:     -346.531817979 Eh
FINAL SINGLE POINT ENERGY      -346.531817978849

DIPOLE MOMENT
-------------
                                X             Y             Z
Electronic contribution:     -1.00836       0.00766      -1.24637
Nuclear contribution   :      0.27445      -0.63158       1.91530
                        -----------------------------------------
Total Dipole Moment    :     -0.73391      -0.62392       0.66893
                        -----------------------------------------
Magnitude (a.u.)       :      1.17276
Magnitude (Debye)      :      2.98092

Rotational constants in cm-1:     0.087160     0.031145     0.023529
Rotational constants in MHz :  2612.994565   933.702542   705.385332

                             ****ORCA TERMINATED NORMALLY****
TOTAL RUN TIME: 0 days 0 hours 1 minutes 15 seconds 504 msec
