                         Program Version 4.2.0 -  RELEASE  -
|  1> # 12meoh.boyd.etal.mol4,7,8
|  2> ! MP2 def2-TZVP EnGrad TightSCF
|  3>
|  4> %pal
|  5>     nprocs 6
|  6> end
|  7>
|  8> %maxcore 8000
|  9>
| 10> %scf
| 11>     ConvForced true
| 12> end
| 13>
| 14> *xyz 0 1
| 15> O  -1.358578914   1.232360421   1.189721000
| 16> H  -1.058250183   1.216459361   0.238591307
| 17> C  -0.389763452   1.957872567   1.943072362
| 18> H  -0.747220771   2.012806578   2.975200343
| 19> H  -0.260410585   2.982763209   1.565366540
| 20> H   0.585220638   1.453754179   1.934070793
| 21> O   4.310535586  -1.588322800   0.656128299
| 22> H   3.804372199  -1.630404735  -0.196849819
| 23> C   4.312298137  -2.894980854   1.222112691
| 24> H   4.713177833  -2.819907076   2.237066773
| 25> H   4.957796734  -3.574699304   0.648211180
| 26> H   3.302735989  -3.324433205   1.269756773
| 27> O   3.570084754   2.361662577  -0.202416728
| 28> H   3.393280933   1.755669977   0.560634073
| 29> C   4.368082883   1.644741793  -1.143112807
| 30> H   4.552851717   2.311801738  -1.989632421
| 31> H   3.862427494   0.740851663  -1.508095690
| 32> H   5.333949674   1.357289092  -0.706288100
| 33> *
| 34>
| 35>                          ****END OF INPUT****

CARTESIAN COORDINATES (ANGSTROEM)
---------------------------------
  O     -1.358579    1.232360    1.189721
  H     -1.058250    1.216459    0.238591
  C     -0.389763    1.957873    1.943072
  H     -0.747221    2.012807    2.975200
  H     -0.260411    2.982763    1.565367
  H      0.585221    1.453754    1.934071
  O      4.310536   -1.588323    0.656128
  H      3.804372   -1.630405   -0.196850
  C      4.312298   -2.894981    1.222113
  H      4.713178   -2.819907    2.237067
  H      4.957797   -3.574699    0.648211
  H      3.302736   -3.324433    1.269757
  O      3.570085    2.361663   -0.202417
  H      3.393281    1.755670    0.560634
  C      4.368083    1.644742   -1.143113
  H      4.552852    2.311802   -1.989632
  H      3.862427    0.740852   -1.508096
  H      5.333950    1.357289   -0.706288

 Total Charge           Charge          ....    0
 Multiplicity           Mult            ....    1
 Number of Electrons    NEL             ....   54
 Basis Dimension        Dim             ....  258

ORBITAL ENERGIES
----------------

  NO   OCC          E(Eh)            E(eV)
   0   2.0000     -20.569661      -559.7289
   1   2.0000     -20.555716      -559.3495
   2   2.0000     -20.555628      -559.3471
   3   2.0000     -11.280338      -306.9536
   4   2.0000     -11.270600      -306.6886
   5   2.0000     -11.269108      -306.6480
   6   2.0000      -1.359052       -36.9817
   7   2.0000      -1.345118       -36.6025
   8   2.0000      -1.343132       -36.5485
   9   2.0000      -0.929053       -25.2808
  10   2.0000      -0.918448       -24.9922
  11   2.0000      -0.916587       -24.9416
  12   2.0000      -0.693130       -18.8610
  13   2.0000      -0.680255       -18.5107
  14   2.0000      -0.677857       -18.4454
  15   2.0000      -0.626697       -17.0533
  16   2.0000      -0.615740       -16.7551
  17   2.0000      -0.614279       -16.7154
  18   2.0000      -0.601699       -16.3730
  19   2.0000      -0.588311       -16.0088
  20   2.0000      -0.587724       -15.9928
  21   2.0000      -0.511446       -13.9172
  22   2.0000      -0.500286       -13.6135
  23   2.0000      -0.497877       -13.5479
  24   2.0000      -0.460059       -12.5188
  25   2.0000      -0.448505       -12.2044
  26   2.0000      -0.447013       -12.1638
  27   0.0000       0.106697         2.9034
  28   0.0000       0.134667         3.6645
  29   0.0000       0.153553         4.1784
  30   0.0000       0.162911         4.4330
  31   0.0000       0.189842         5.1659

MULLIKEN ATOMIC CHARGES
-----------------------
   0 O :   -0.500109
   1 H :    0.321873
   2 C :   -0.164897
   3 H :    0.127870
   4 H :    0.117640
   5 H :    0.096219
   6 O :   -0.499551
   7 H :    0.323252
   8 C :   -0.180405
   9 H :    0.132388
  10 H :    0.113277
  11 H :    0.115683
  12 O :   -0.504949
  13 H :    0.326515
  14 C :   -0.161212
  15 H :    0.130871
  16 H :    0.081928
  17 H :    0.123608
Sum of atomic charges:   -0.0000000

LOEWDIN ATOMIC CHARGES
----------------------
   0 O :   -0.113427
   1 H :    0.191913
   2 C :   -0.379492
   3 H :    0.109871
   4 H :    0.098547
   5 H :    0.091992
   6 O :   -0.111632
   7 H :    0.188471
   8 C :   -0.378162
   9 H :    0.111160
  10 H :    0.097061
  11 H :    0.097586
  12 O :   -0.111615
  13 H :    0.187924
  14 C :   -0.378227
  15 H :    0.109435
  16 H :    0.088371
  17 H :    0.100222

  Mayer bond orders larger than 0.100000
B(  0-O ,  1-H ) :   0.8417 B(  0-O ,  2-C ) :   0.9246 B(  2-C ,  3-H ) :   0.9367
B(  2-C ,  4-H ) :   0.9395 B(  2-C ,  5-H ) :   0.9399 B(  6-O ,  7-H ) :   0.8399
B(  6-O ,  8-C ) :   0.9168 B(  8-C ,  9-H ) :   0.9384 B(  8-C , 10-H ) :   0.9381
B(  8-C , 11-H ) :   0.9398 B( 12-O , 13-H ) :   0.8389 B( 12-O , 14-C ) :   0.9265
B( 14-C , 15-H ) :   0.9361 B( 14-C , 16-H ) :   0.9390 B( 14-C , 17-H ) :   0.9419

MP2 TOTAL ENERGY:     -346.523272516 Eh
FINAL SINGLE POINT ENERGY      -346.523272516159

DIPOLE MOMENT
-------------
                                X             Y             Z
Electronic contribution:     -2.18346       1.74385      -0.27747
Nuclear contribution   :      2.70859      -2.70839      -0.16236
                        -----------------------------------------
Total Dipole Moment    :      0.52512      -0.96455      -0.43983
                        -----------------------------------------
Magnitude (a.u.)       :      1.18303
Magnitude (Debye)      :      3.00702

Rotational constants in cm-1:     0.050888     0.023160     0.016717
Rotational constants in MHz :  1525.574795   694.312141   501.176860

                             ****ORCA TERMINATED NORMALLY****
TOTAL RUN TIME: 0 days 0 hours 0 minutes 59 seconds 338 msec
