                         Program Version 4.2.0 -  RELEASE  -
|  1> # 12mecn.remya.etal.2.mol0,3,6
|  2> ! MP2 def2-TZVP EnGrad TightSCF
|  3>
|  4> %pal
|  5>     nprocs 6
|  6> end
|  7>
|  8> %maxcore 8000
|  9>
| 10> %scf
| 11>     ConvForced true
| 12> end
| 13>
| 14> *xyz 0 1
| 15> C  -0.869520000  -3.929380000   1.700199000
| 16> H  -0.057420000  -3.268850000   2.015352000
| 17> H  -0.697530000  -4.930670000   2.101524000
| 18> H  -1.821490000  -3.546590000   2.077146000
| 19> C  -0.916080000  -3.969960000   0.256749000
| 20> N  -0.955390000  -3.995980000  -0.909290000
| 21> C  -5.181310000   2.853865000  -1.626100000
| 22> H  -5.488260000   3.811434000  -2.053310000
| 23> H  -5.857590000   2.068112000  -1.968630000
| 24> H  -4.170750000   2.611402000  -1.966640000
| 25> C  -5.187260000   2.919160000  -0.181450000
| 26> N  -5.181700000   2.970641000   0.983640000
| 27> C   5.300864000  -2.920090000   1.401103000
| 28> H   5.986071000  -2.139770000   1.737487000
| 29> H   5.636642000  -3.888750000   1.778233000
| 30> H   4.307359000  -2.697240000   1.799307000
| 31> C   5.234791000  -2.933140000  -0.043290000
| 32> N   5.170868000  -2.941760000  -1.207750000
| 33> *
| 34>
| 35>                          ****END OF INPUT****

CARTESIAN COORDINATES (ANGSTROEM)
---------------------------------
  C     -0.869520   -3.929380    1.700199
  H     -0.057420   -3.268850    2.015352
  H     -0.697530   -4.930670    2.101524
  H     -1.821490   -3.546590    2.077146
  C     -0.916080   -3.969960    0.256749
  N     -0.955390   -3.995980   -0.909290
  C     -5.181310    2.853865   -1.626100
  H     -5.488260    3.811434   -2.053310
  H     -5.857590    2.068112   -1.968630
  H     -4.170750    2.611402   -1.966640
  C     -5.187260    2.919160   -0.181450
  N     -5.181700    2.970641    0.983640
  C      5.300864   -2.920090    1.401103
  H      5.986071   -2.139770    1.737487
  H      5.636642   -3.888750    1.778233
  H      4.307359   -2.697240    1.799307
  C      5.234791   -2.933140   -0.043290
  N      5.170868   -2.941760   -1.207750

 Total Charge           Charge          ....    0
 Multiplicity           Mult            ....    1
 Number of Electrons    NEL             ....   66
 Basis Dimension        Dim             ....  333

ORBITAL ENERGIES
----------------

  NO   OCC          E(Eh)            E(eV)
   0   2.0000     -15.573623      -423.7798
   1   2.0000     -15.573588      -423.7789
   2   2.0000     -15.573121      -423.7662
   3   2.0000     -11.286926      -307.1329
   4   2.0000     -11.286428      -307.1193
   5   2.0000     -11.283752      -307.0465
   6   2.0000     -11.280415      -306.9557
   7   2.0000     -11.280211      -306.9502
   8   2.0000     -11.280087      -306.9468
   9   2.0000      -1.214933       -33.0600
  10   2.0000      -1.214929       -33.0599
  11   2.0000      -1.214602       -33.0510
  12   2.0000      -1.045500       -28.4495
  13   2.0000      -1.045460       -28.4484
  14   2.0000      -1.042906       -28.3789
  15   2.0000      -0.702731       -19.1223
  16   2.0000      -0.701254       -19.0821
  17   2.0000      -0.700393       -19.0587
  18   2.0000      -0.634724       -17.2717
  19   2.0000      -0.634063       -17.2537
  20   2.0000      -0.633154       -17.2290
  21   2.0000      -0.632106       -17.2005
  22   2.0000      -0.631496       -17.1839
  23   2.0000      -0.629157       -17.1202
  24   2.0000      -0.556353       -15.1391
  25   2.0000      -0.555921       -15.1274
  26   2.0000      -0.555880       -15.1263
  27   2.0000      -0.458372       -12.4729
  28   2.0000      -0.458246       -12.4695
  29   2.0000      -0.457858       -12.4590
  30   2.0000      -0.457801       -12.4574
  31   2.0000      -0.457691       -12.4544
  32   2.0000      -0.457591       -12.4517
  33   0.0000       0.100500         2.7347
  34   0.0000       0.120591         3.2814
  35   0.0000       0.126638         3.4460
  36   0.0000       0.158821         4.3217
  37   0.0000       0.169597         4.6150

MULLIKEN ATOMIC CHARGES
-----------------------
   0 C :   -0.278584
   1 H :    0.166582
   2 H :    0.171927
   3 H :    0.174945
   4 C :   -0.145669
   5 N :   -0.089202
   6 C :   -0.280126
   7 H :    0.172103
   8 H :    0.172951
   9 H :    0.174313
  10 C :   -0.145691
  11 N :   -0.093550
  12 C :   -0.280066
  13 H :    0.173074
  14 H :    0.172708
  15 H :    0.166039
  16 C :   -0.145575
  17 N :   -0.086179
Sum of atomic charges:    0.0000000

LOEWDIN ATOMIC CHARGES
----------------------
   0 C :   -0.284128
   1 H :    0.151106
   2 H :    0.151269
   3 H :    0.153734
   4 C :   -0.220260
   5 N :    0.048277
   6 C :   -0.283253
   7 H :    0.151506
   8 H :    0.152037
   9 H :    0.153933
  10 C :   -0.218462
  11 N :    0.044239
  12 C :   -0.284636
  13 H :    0.151670
  14 H :    0.151187
  15 H :    0.151134
  16 C :   -0.219551
  17 N :    0.050197

  Mayer bond orders larger than 0.100000
B(  0-C ,  1-H ) :   0.9179 B(  0-C ,  2-H ) :   0.9171 B(  0-C ,  3-H ) :   0.9160
B(  0-C ,  4-C ) :   0.9012 B(  4-C ,  5-N ) :   2.8348 B(  6-C ,  7-H ) :   0.9162
B(  6-C ,  8-H ) :   0.9163 B(  6-C ,  9-H ) :   0.9160 B(  6-C , 10-C ) :   0.9025
B( 10-C , 11-N ) :   2.8390 B( 12-C , 13-H ) :   0.9169 B( 12-C , 14-H ) :   0.9165
B( 12-C , 15-H ) :   0.9184 B( 12-C , 16-C ) :   0.9026 B( 16-C , 17-N ) :   2.8340

MP2 TOTAL ENERGY:     -397.449113143 Eh
FINAL SINGLE POINT ENERGY      -397.449113143144

DIPOLE MOMENT
-------------
                                X             Y             Z
Electronic contribution:     -0.25509       0.01168      -3.16514
Nuclear contribution   :      0.38026      -0.03177       4.63767
                        -----------------------------------------
Total Dipole Moment    :      0.12517      -0.02010       1.47253
                        -----------------------------------------
Magnitude (a.u.)       :      1.47797
Magnitude (Debye)      :      3.75671

Rotational constants in cm-1:     0.028967     0.005374     0.004951
Rotational constants in MHz :   868.400846   161.109239   148.427900

                             ****ORCA TERMINATED NORMALLY****
TOTAL RUN TIME: 0 days 0 hours 1 minutes 45 seconds 250 msec
