                         Program Version 4.2.0 -  RELEASE  -
|  1> # 12h2o.su.etal.mol5,7,8,9,10,11
|  2> ! MP2 def2-TZVP EnGrad TightSCF
|  3>
|  4> %pal
|  5>     nprocs 6
|  6> end
|  7>
|  8> %maxcore 8000
|  9>
| 10> %scf
| 11>     ConvForced true
| 12> end
| 13>
| 14> *xyz 0 1
| 15> O   0.885520000  -1.737840000   0.052730000
| 16> H   1.284090000  -0.839590000   0.017130000
| 17> H   1.032320000  -2.090180000  -0.841890000
| 18> O  -1.737840000  -0.885520000  -0.052730000
| 19> H  -2.090180000  -1.032320000   0.841890000
| 20> H  -0.839590000  -1.284090000  -0.017130000
| 21> O   1.752130000   0.741530000  -2.896280000
| 22> H   2.036450000   0.920500000  -1.984040000
| 23> H   0.921210000   1.242140000  -2.984230000
| 24> O   0.741530000  -1.752130000   2.896280000
| 25> H   0.920500000  -2.036450000   1.984040000
| 26> H   1.242140000  -0.921210000   2.984230000
| 27> O  -0.923410000   1.794470000  -2.768350000
| 28> H  -1.359750000   2.338250000  -3.430940000
| 29> H  -1.303000000   0.879480000  -2.865760000
| 30> O  -0.741530000   1.752130000   2.896280000
| 31> H  -0.920500000   2.036450000   1.984040000
| 32> H  -1.242140000   0.921210000   2.984230000
| 33> *
| 34>
| 35>                          ****END OF INPUT****

CARTESIAN COORDINATES (ANGSTROEM)
---------------------------------
  O      0.885520   -1.737840    0.052730
  H      1.284090   -0.839590    0.017130
  H      1.032320   -2.090180   -0.841890
  O     -1.737840   -0.885520   -0.052730
  H     -2.090180   -1.032320    0.841890
  H     -0.839590   -1.284090   -0.017130
  O      1.752130    0.741530   -2.896280
  H      2.036450    0.920500   -1.984040
  H      0.921210    1.242140   -2.984230
  O      0.741530   -1.752130    2.896280
  H      0.920500   -2.036450    1.984040
  H      1.242140   -0.921210    2.984230
  O     -0.923410    1.794470   -2.768350
  H     -1.359750    2.338250   -3.430940
  H     -1.303000    0.879480   -2.865760
  O     -0.741530    1.752130    2.896280
  H     -0.920500    2.036450    1.984040
  H     -1.242140    0.921210    2.984230

 Total Charge           Charge          ....    0
 Multiplicity           Mult            ....    1
 Number of Electrons    NEL             ....   60
 Basis Dimension        Dim             ....  258

ORBITAL ENERGIES
----------------

  NO   OCC          E(Eh)            E(eV)
   0   2.0000     -20.623287      -561.1882
   1   2.0000     -20.593007      -560.3642
   2   2.0000     -20.561903      -559.5178
   3   2.0000     -20.554336      -559.3119
   4   2.0000     -20.548837      -559.1623
   5   2.0000     -20.546852      -559.1083
   6   2.0000      -1.406100       -38.2619
   7   2.0000      -1.370910       -37.3044
   8   2.0000      -1.341020       -36.4910
   9   2.0000      -1.336026       -36.3551
  10   2.0000      -1.330681       -36.2097
  11   2.0000      -1.327775       -36.1306
  12   2.0000      -0.764577       -20.8052
  13   2.0000      -0.738174       -20.0867
  14   2.0000      -0.707900       -19.2629
  15   2.0000      -0.704061       -19.1585
  16   2.0000      -0.703599       -19.1459
  17   2.0000      -0.700265       -19.0552
  18   2.0000      -0.642192       -17.4749
  19   2.0000      -0.613137       -16.6843
  20   2.0000      -0.590781       -16.0760
  21   2.0000      -0.578953       -15.7541
  22   2.0000      -0.574150       -15.6234
  23   2.0000      -0.563961       -15.3462
  24   2.0000      -0.544482       -14.8161
  25   2.0000      -0.532639       -14.4938
  26   2.0000      -0.507178       -13.8010
  27   2.0000      -0.501317       -13.6415
  28   2.0000      -0.495025       -13.4703
  29   2.0000      -0.493679       -13.4337
  30   0.0000       0.074299         2.0218
  31   0.0000       0.117136         3.1874
  32   0.0000       0.123302         3.3552
  33   0.0000       0.145613         3.9623
  34   0.0000       0.166396         4.5279

MULLIKEN ATOMIC CHARGES
-----------------------
   0 O :   -0.707282
   1 H :    0.355687
   2 H :    0.377141
   3 O :   -0.716217
   4 H :    0.332899
   5 H :    0.354885
   6 O :   -0.699939
   7 H :    0.317642
   8 H :    0.363940
   9 O :   -0.697389
  10 H :    0.366879
  11 H :    0.331804
  12 O :   -0.700463
  13 H :    0.353774
  14 H :    0.368977
  15 O :   -0.683760
  16 H :    0.340819
  17 H :    0.340606
Sum of atomic charges:   -0.0000000

LOEWDIN ATOMIC CHARGES
----------------------
   0 O :   -0.274811
   1 H :    0.177949
   2 H :    0.180770
   3 O :   -0.359807
   4 H :    0.159490
   5 H :    0.140589
   6 O :   -0.344513
   7 H :    0.153301
   8 H :    0.149804
   9 O :   -0.336163
  10 H :    0.150096
  11 H :    0.161500
  12 O :   -0.311711
  13 H :    0.164428
  14 H :    0.191092
  15 O :   -0.332728
  16 H :    0.165749
  17 H :    0.164966

  Mayer bond orders larger than 0.100000
B(  0-O ,  1-H ) :   0.8282 B(  0-O ,  2-H ) :   0.8223 B(  3-O ,  4-H ) :   0.8543
B(  3-O ,  5-H ) :   0.8051 B(  6-O ,  7-H ) :   0.8634 B(  6-O ,  8-H ) :   0.8090
B(  9-O , 10-H ) :   0.8260 B(  9-O , 11-H ) :   0.8526 B( 12-O , 13-H ) :   0.8408
B( 12-O , 14-H ) :   0.8232 B( 15-O , 16-H ) :   0.8496 B( 15-O , 17-H ) :   0.8469

MP2 TOTAL ENERGY:     -457.906162429 Eh
FINAL SINGLE POINT ENERGY      -457.906162428999

DIPOLE MOMENT
-------------
                                X             Y             Z
Electronic contribution:      0.03614      -0.06526      -0.00094
Nuclear contribution   :     -0.22578       0.25712      -1.31870
                        -----------------------------------------
Total Dipole Moment    :     -0.18964       0.19187      -1.31964
                        -----------------------------------------
Magnitude (a.u.)       :      1.34693
Magnitude (Debye)      :      3.42362

Rotational constants in cm-1:     0.046346     0.022628     0.019162
Rotational constants in MHz :  1389.404713   678.374894   574.457771

                             ****ORCA TERMINATED NORMALLY****
TOTAL RUN TIME: 0 days 0 hours 0 minutes 59 seconds 724 msec
