                         Program Version 4.2.0 -  RELEASE  -
|  1> # 12h2o.su.etal.mol0,2,3,9,10,11
|  2> ! MP2 def2-TZVP EnGrad TightSCF
|  3>
|  4> %pal
|  5>     nprocs 6
|  6> end
|  7>
|  8> %maxcore 8000
|  9>
| 10> %scf
| 11>     ConvForced true
| 12> end
| 13>
| 14> *xyz 0 1
| 15> O   1.794470000   0.923410000   2.768350000
| 16> H   2.338250000   1.359750000   3.430940000
| 17> H   0.879480000   1.303000000   2.865760000
| 18> O   0.923410000  -1.794470000  -2.768350000
| 19> H   1.359750000  -2.338250000  -3.430940000
| 20> H   1.303000000  -0.879480000  -2.865760000
| 21> O  -1.752130000  -0.741530000  -2.896280000
| 22> H  -2.036450000  -0.920500000  -1.984040000
| 23> H  -0.921210000  -1.242140000  -2.984230000
| 24> O   0.741530000  -1.752130000   2.896280000
| 25> H   0.920500000  -2.036450000   1.984040000
| 26> H   1.242140000  -0.921210000   2.984230000
| 27> O  -0.923410000   1.794470000  -2.768350000
| 28> H  -1.359750000   2.338250000  -3.430940000
| 29> H  -1.303000000   0.879480000  -2.865760000
| 30> O  -0.741530000   1.752130000   2.896280000
| 31> H  -0.920500000   2.036450000   1.984040000
| 32> H  -1.242140000   0.921210000   2.984230000
| 33> *
| 34>
| 35>                          ****END OF INPUT****

CARTESIAN COORDINATES (ANGSTROEM)
---------------------------------
  O      1.794470    0.923410    2.768350
  H      2.338250    1.359750    3.430940
  H      0.879480    1.303000    2.865760
  O      0.923410   -1.794470   -2.768350
  H      1.359750   -2.338250   -3.430940
  H      1.303000   -0.879480   -2.865760
  O     -1.752130   -0.741530   -2.896280
  H     -2.036450   -0.920500   -1.984040
  H     -0.921210   -1.242140   -2.984230
  O      0.741530   -1.752130    2.896280
  H      0.920500   -2.036450    1.984040
  H      1.242140   -0.921210    2.984230
  O     -0.923410    1.794470   -2.768350
  H     -1.359750    2.338250   -3.430940
  H     -1.303000    0.879480   -2.865760
  O     -0.741530    1.752130    2.896280
  H     -0.920500    2.036450    1.984040
  H     -1.242140    0.921210    2.984230

 Total Charge           Charge          ....    0
 Multiplicity           Mult            ....    1
 Number of Electrons    NEL             ....   60
 Basis Dimension        Dim             ....  258

ORBITAL ENERGIES
----------------

  NO   OCC          E(Eh)            E(eV)
   0   2.0000     -20.598986      -560.5269
   1   2.0000     -20.597343      -560.4822
   2   2.0000     -20.573980      -559.8465
   3   2.0000     -20.542684      -558.9949
   4   2.0000     -20.527467      -558.5808
   5   2.0000     -20.522035      -558.4330
   6   2.0000      -1.383140       -37.6372
   7   2.0000      -1.377956       -37.4961
   8   2.0000      -1.361424       -37.0462
   9   2.0000      -1.327737       -36.1296
  10   2.0000      -1.308734       -35.6125
  11   2.0000      -1.303973       -35.4829
  12   2.0000      -0.745024       -20.2731
  13   2.0000      -0.739677       -20.1276
  14   2.0000      -0.723014       -19.6742
  15   2.0000      -0.712377       -19.3848
  16   2.0000      -0.691675       -18.8214
  17   2.0000      -0.678031       -18.4502
  18   2.0000      -0.623003       -16.9528
  19   2.0000      -0.622262       -16.9326
  20   2.0000      -0.596023       -16.2186
  21   2.0000      -0.578657       -15.7461
  22   2.0000      -0.554002       -15.0752
  23   2.0000      -0.549404       -14.9500
  24   2.0000      -0.538539       -14.6544
  25   2.0000      -0.524882       -14.2828
  26   2.0000      -0.505774       -13.7628
  27   2.0000      -0.491176       -13.3656
  28   2.0000      -0.475289       -12.9333
  29   2.0000      -0.472886       -12.8679
  30   0.0000       0.099259         2.7010
  31   0.0000       0.114073         3.1041
  32   0.0000       0.147646         4.0177
  33   0.0000       0.161865         4.4046
  34   0.0000       0.169114         4.6018

MULLIKEN ATOMIC CHARGES
-----------------------
   0 O :   -0.736056
   1 H :    0.339021
   2 H :    0.378301
   3 O :   -0.704259
   4 H :    0.357161
   5 H :    0.371458
   6 O :   -0.699107
   7 H :    0.351086
   8 H :    0.374085
   9 O :   -0.717029
  10 H :    0.328916
  11 H :    0.361650
  12 O :   -0.740403
  13 H :    0.326371
  14 H :    0.363960
  15 O :   -0.687728
  16 H :    0.365507
  17 H :    0.367065
Sum of atomic charges:   -0.0000000

LOEWDIN ATOMIC CHARGES
----------------------
   0 O :   -0.338960
   1 H :    0.154730
   2 H :    0.145142
   3 O :   -0.311497
   4 H :    0.166021
   5 H :    0.192707
   6 O :   -0.282913
   7 H :    0.170411
   8 H :    0.153588
   9 O :   -0.353645
  10 H :    0.159598
  11 H :    0.146910
  12 O :   -0.377337
  13 H :    0.148742
  14 H :    0.140481
  15 O :   -0.270610
  16 H :    0.177965
  17 H :    0.178668

  Mayer bond orders larger than 0.100000
B(  0-O ,  1-H ) :   0.8497 B(  0-O ,  2-H ) :   0.7664 B(  3-O ,  4-H ) :   0.8390
B(  3-O ,  5-H ) :   0.8219 B(  6-O ,  7-H ) :   0.8421 B(  6-O ,  8-H ) :   0.7972
B(  9-O , 10-H ) :   0.8580 B(  9-O , 11-H ) :   0.8051 B( 12-O , 13-H ) :   0.8600
B( 12-O , 14-H ) :   0.7771 B( 15-O , 16-H ) :   0.8325 B( 15-O , 17-H ) :   0.8278

MP2 TOTAL ENERGY:     -457.918755844 Eh
FINAL SINGLE POINT ENERGY      -457.918755843514

DIPOLE MOMENT
-------------
                                X             Y             Z
Electronic contribution:     -0.13150      -0.11942       0.18291
Nuclear contribution   :      0.14599       0.11349      -1.31870
                        -----------------------------------------
Total Dipole Moment    :      0.01449      -0.00592      -1.13579
                        -----------------------------------------
Magnitude (a.u.)       :      1.13590
Magnitude (Debye)      :      2.88722

Rotational constants in cm-1:     0.045552     0.016667     0.014048
Rotational constants in MHz :  1365.620174   499.672194   421.141638

                             ****ORCA TERMINATED NORMALLY****
TOTAL RUN TIME: 0 days 0 hours 0 minutes 43 seconds 158 msec
