                         Program Version 4.2.0 -  RELEASE  -
|  1> # 12h2o.su.etal.mol2,8,11
|  2> ! MP2 def2-TZVP EnGrad TightSCF
|  3>
|  4> %pal
|  5>     nprocs 6
|  6> end
|  7>
|  8> %maxcore 8000
|  9>
| 10> %scf
| 11>     ConvForced true
| 12> end
| 13>
| 14> *xyz 0 1
| 15> O   0.923410000  -1.794470000  -2.768350000
| 16> H   1.359750000  -2.338250000  -3.430940000
| 17> H   1.303000000  -0.879480000  -2.865760000
| 18> O   1.752130000   0.741530000  -2.896280000
| 19> H   2.036450000   0.920500000  -1.984040000
| 20> H   0.921210000   1.242140000  -2.984230000
| 21> O  -0.741530000   1.752130000   2.896280000
| 22> H  -0.920500000   2.036450000   1.984040000
| 23> H  -1.242140000   0.921210000   2.984230000
| 24> *
| 25>
| 26>                          ****END OF INPUT****

CARTESIAN COORDINATES (ANGSTROEM)
---------------------------------
  O      0.923410   -1.794470   -2.768350
  H      1.359750   -2.338250   -3.430940
  H      1.303000   -0.879480   -2.865760
  O      1.752130    0.741530   -2.896280
  H      2.036450    0.920500   -1.984040
  H      0.921210    1.242140   -2.984230
  O     -0.741530    1.752130    2.896280
  H     -0.920500    2.036450    1.984040
  H     -1.242140    0.921210    2.984230

 Total Charge           Charge          ....    0
 Multiplicity           Mult            ....    1
 Number of Electrons    NEL             ....   30
 Basis Dimension        Dim             ....  129

ORBITAL ENERGIES
----------------

  NO   OCC          E(Eh)            E(eV)
   0   2.0000     -20.602273      -560.6163
   1   2.0000     -20.566329      -559.6383
   2   2.0000     -20.519859      -558.3738
   3   2.0000      -1.387526       -37.7565
   4   2.0000      -1.345579       -36.6151
   5   2.0000      -1.302321       -35.4380
   6   2.0000      -0.745028       -20.2732
   7   2.0000      -0.708438       -19.2776
   8   2.0000      -0.693929       -18.8828
   9   2.0000      -0.621787       -16.9197
  10   2.0000      -0.582964       -15.8633
  11   2.0000      -0.561506       -15.2794
  12   2.0000      -0.517630       -14.0854
  13   2.0000      -0.510420       -13.8892
  14   2.0000      -0.470189       -12.7945
  15   0.0000       0.103447         2.8149
  16   0.0000       0.124787         3.3956
  17   0.0000       0.174009         4.7350
  18   0.0000       0.179173         4.8756
  19   0.0000       0.193990         5.2787

MULLIKEN ATOMIC CHARGES
-----------------------
   0 O :   -0.731177
   1 H :    0.326079
   2 H :    0.362745
   3 O :   -0.675798
   4 H :    0.359627
   5 H :    0.358522
   6 O :   -0.673025
   7 H :    0.333142
   8 H :    0.339885
Sum of atomic charges:   -0.0000000

LOEWDIN ATOMIC CHARGES
----------------------
   0 O :   -0.371982
   1 H :    0.148897
   2 H :    0.141077
   3 O :   -0.270030
   4 H :    0.175536
   5 H :    0.176501
   6 O :   -0.331687
   7 H :    0.163732
   8 H :    0.167955

  Mayer bond orders larger than 0.100000
B(  0-O ,  1-H ) :   0.8604 B(  0-O ,  2-H ) :   0.7912 B(  3-O ,  4-H ) :   0.8363
B(  3-O ,  5-H ) :   0.8366 B(  6-O ,  7-H ) :   0.8557 B(  6-O ,  8-H ) :   0.8515

MP2 TOTAL ENERGY:     -228.945308608 Eh
FINAL SINGLE POINT ENERGY      -228.945308607603

DIPOLE MOMENT
-------------
                                X             Y             Z
Electronic contribution:      0.13973       0.23252       0.10670
Nuclear contribution   :     -0.34148       0.41967      -0.63259
                        -----------------------------------------
Total Dipole Moment    :     -0.20174       0.65218      -0.52590
                        -----------------------------------------
Magnitude (a.u.)       :      0.86175
Magnitude (Debye)      :      2.19039

Rotational constants in cm-1:     0.264078     0.033185     0.029643
Rotational constants in MHz :  7916.864006   994.875857   888.688184

                             ****ORCA TERMINATED NORMALLY****
TOTAL RUN TIME: 0 days 0 hours 0 minutes 8 seconds 820 msec
