                         Program Version 4.2.0 -  RELEASE  -
|  1> # 12h2o.su.etal.mol0,1,4,6,8
|  2> ! MP2 def2-TZVP EnGrad TightSCF
|  3>
|  4> %pal
|  5>     nprocs 6
|  6> end
|  7>
|  8> %maxcore 8000
|  9>
| 10> %scf
| 11>     ConvForced true
| 12> end
| 13>
| 14> *xyz 0 1
| 15> O   1.794470000   0.923410000   2.768350000
| 16> H   2.338250000   1.359750000   3.430940000
| 17> H   0.879480000   1.303000000   2.865760000
| 18> O  -1.794470000  -0.923410000   2.768350000
| 19> H  -2.338250000  -1.359750000   3.430940000
| 20> H  -0.879480000  -1.303000000   2.865760000
| 21> O  -0.885520000   1.737840000   0.052730000
| 22> H  -1.032320000   2.090180000  -0.841890000
| 23> H  -1.284090000   0.839590000   0.017130000
| 24> O   1.737840000   0.885520000  -0.052730000
| 25> H   2.090180000   1.032320000   0.841890000
| 26> H   0.839590000   1.284090000  -0.017130000
| 27> O   1.752130000   0.741530000  -2.896280000
| 28> H   2.036450000   0.920500000  -1.984040000
| 29> H   0.921210000   1.242140000  -2.984230000
| 30> *
| 31>
| 32>                          ****END OF INPUT****

CARTESIAN COORDINATES (ANGSTROEM)
---------------------------------
  O      1.794470    0.923410    2.768350
  H      2.338250    1.359750    3.430940
  H      0.879480    1.303000    2.865760
  O     -1.794470   -0.923410    2.768350
  H     -2.338250   -1.359750    3.430940
  H     -0.879480   -1.303000    2.865760
  O     -0.885520    1.737840    0.052730
  H     -1.032320    2.090180   -0.841890
  H     -1.284090    0.839590    0.017130
  O      1.737840    0.885520   -0.052730
  H      2.090180    1.032320    0.841890
  H      0.839590    1.284090   -0.017130
  O      1.752130    0.741530   -2.896280
  H      2.036450    0.920500   -1.984040
  H      0.921210    1.242140   -2.984230

 Total Charge           Charge          ....    0
 Multiplicity           Mult            ....    1
 Number of Electrons    NEL             ....   50
 Basis Dimension        Dim             ....  215

ORBITAL ENERGIES
----------------

  NO   OCC          E(Eh)            E(eV)
   0   2.0000     -20.596516      -560.4597
   1   2.0000     -20.587455      -560.2131
   2   2.0000     -20.574795      -559.8686
   3   2.0000     -20.520253      -558.3845
   4   2.0000     -20.519415      -558.3617
   5   2.0000      -1.377175       -37.4748
   6   2.0000      -1.365276       -37.1511
   7   2.0000      -1.350073       -36.7374
   8   2.0000      -1.309948       -35.6455
   9   2.0000      -1.298234       -35.3267
  10   2.0000      -0.735126       -20.0038
  11   2.0000      -0.731891       -19.9158
  12   2.0000      -0.718132       -19.5414
  13   2.0000      -0.690175       -18.7806
  14   2.0000      -0.668294       -18.1852
  15   2.0000      -0.620391       -16.8817
  16   2.0000      -0.602567       -16.3967
  17   2.0000      -0.587177       -15.9779
  18   2.0000      -0.569337       -15.4924
  19   2.0000      -0.541142       -14.7252
  20   2.0000      -0.529584       -14.4107
  21   2.0000      -0.518247       -14.1022
  22   2.0000      -0.511884       -13.9291
  23   2.0000      -0.472712       -12.8632
  24   2.0000      -0.464948       -12.6519
  25   0.0000       0.091414         2.4875
  26   0.0000       0.115441         3.1413
  27   0.0000       0.132156         3.5962
  28   0.0000       0.178655         4.8614
  29   0.0000       0.196849         5.3565

MULLIKEN ATOMIC CHARGES
-----------------------
   0 O :   -0.700001
   1 H :    0.349100
   2 H :    0.362710
   3 O :   -0.694899
   4 H :    0.343650
   5 H :    0.353459
   6 O :   -0.683623
   7 H :    0.350041
   8 H :    0.372585
   9 O :   -0.738957
  10 H :    0.366361
  11 H :    0.334259
  12 O :   -0.692245
  13 H :    0.376854
  14 H :    0.300706
Sum of atomic charges:   -0.0000000

LOEWDIN ATOMIC CHARGES
----------------------
   0 O :   -0.312352
   1 H :    0.162220
   2 H :    0.187122
   3 O :   -0.342537
   4 H :    0.160484
   5 H :    0.184199
   6 O :   -0.290294
   7 H :    0.169163
   8 H :    0.185473
   9 O :   -0.348218
  10 H :    0.148247
  11 H :    0.135600
  12 O :   -0.341929
  13 H :    0.154044
  14 H :    0.148777

  Mayer bond orders larger than 0.100000
B(  0-O ,  1-H ) :   0.8433 B(  0-O ,  2-H ) :   0.8271 B(  3-O ,  4-H ) :   0.8500
B(  3-O ,  5-H ) :   0.8365 B(  6-O ,  7-H ) :   0.8415 B(  6-O ,  8-H ) :   0.8237
B(  9-O , 10-H ) :   0.8188 B(  9-O , 11-H ) :   0.7975 B( 12-O , 13-H ) :   0.8082
B( 12-O , 14-H ) :   0.8727

MP2 TOTAL ENERGY:     -381.588391353 Eh
FINAL SINGLE POINT ENERGY      -381.588391352504

DIPOLE MOMENT
-------------
                                X             Y             Z
Electronic contribution:      0.01335      -0.10071       0.13150
Nuclear contribution   :     -1.36331       0.56521       1.95129
                        -----------------------------------------
Total Dipole Moment    :     -1.34996       0.46450       2.08279
                        -----------------------------------------
Magnitude (a.u.)       :      2.52511
Magnitude (Debye)      :      6.41831

Rotational constants in cm-1:     0.078053     0.031891     0.026129
Rotational constants in MHz :  2339.964483   956.063604   783.329194

                             ****ORCA TERMINATED NORMALLY****
TOTAL RUN TIME: 0 days 0 hours 0 minutes 28 seconds 367 msec
