                         Program Version 4.2.0 -  RELEASE  -
|  1> ! MP2 def2-TZVP EnGrad TightSCF FrozenCore
|  2>
|  3> %pal
|  4>     nprocs 8
|  5> end
|  6>
|  7> %maxcore 8000
|  8>
|  9> %scf
| 10>     ConvForced true
| 11> end
| 12>
| 13> *xyz 0 1
| 14> O          0.00000        0.00000        0.00000
| 15> H          0.96430        0.00000        0.00000
| 16> H         -0.25718        0.00000       -0.95249
| 17> O         -0.72943       -0.03161       -2.62494
| 18> H         -1.51688       -0.59282       -2.82023
| 19> H         -0.92388        0.81307       -3.04888
| 20> O         -2.90855       -1.57793       -3.16761
| 21> H         -2.84559       -2.52143       -2.88931
| 22> H         -3.20641       -1.60566       -4.08455
| 23> O         -1.51991       -1.43987        1.74546
| 24> H         -1.17104       -2.33861        1.77405
| 25> H         -0.93444       -0.95787        1.11599
| 26> O         -2.65610       -4.13867       -2.26887
| 27> H         -3.31413       -4.82954       -2.40946
| 28> H         -1.78501       -4.58608       -2.38807
| 29> O         -4.19353       -1.16082        1.28515
| 30> H         -5.17975       -1.17221        1.28048
| 31> H         -3.95464       -1.26396        2.21420
| 32> *
| 33>
| 34>
| 35>                          ****END OF INPUT****

CARTESIAN COORDINATES (ANGSTROEM)
---------------------------------
  O      0.000000    0.000000    0.000000
  H      0.964300    0.000000    0.000000
  H     -0.257180    0.000000   -0.952490
  O     -0.729430   -0.031610   -2.624940
  H     -1.516880   -0.592820   -2.820230
  H     -0.923880    0.813070   -3.048880
  O     -2.908550   -1.577930   -3.167610
  H     -2.845590   -2.521430   -2.889310
  H     -3.206410   -1.605660   -4.084550
  O     -1.519910   -1.439870    1.745460
  H     -1.171040   -2.338610    1.774050
  H     -0.934440   -0.957870    1.115990
  O     -2.656100   -4.138670   -2.268870
  H     -3.314130   -4.829540   -2.409460
  H     -1.785010   -4.586080   -2.388070
  O     -4.193530   -1.160820    1.285150
  H     -5.179750   -1.172210    1.280480
  H     -3.954640   -1.263960    2.214200

 Total Charge           Charge          ....    0
 Multiplicity           Mult            ....    1
 Number of Electrons    NEL             ....   60
 Basis Dimension        Dim             ....  258

ORBITAL ENERGIES
----------------

  NO   OCC          E(Eh)            E(eV)
   0   2.0000     -20.603516      -560.6502
   1   2.0000     -20.556511      -559.3711
   2   2.0000     -20.542810      -558.9983
   3   2.0000     -20.525407      -558.5247
   4   2.0000     -20.516130      -558.2723
   5   2.0000     -20.485586      -557.4411
   6   2.0000      -1.385392       -37.6984
   7   2.0000      -1.346299       -36.6346
   8   2.0000      -1.329432       -36.1757
   9   2.0000      -1.310673       -35.6652
  10   2.0000      -1.294110       -35.2145
  11   2.0000      -1.269341       -34.5405
  12   2.0000      -0.747087       -20.3293
  13   2.0000      -0.721677       -19.6378
  14   2.0000      -0.703693       -19.1485
  15   2.0000      -0.688224       -18.7275
  16   2.0000      -0.659411       -17.9435
  17   2.0000      -0.653518       -17.7831
  18   2.0000      -0.624002       -16.9800
  19   2.0000      -0.595756       -16.2113
  20   2.0000      -0.570217       -15.5164
  21   2.0000      -0.548080       -14.9140
  22   2.0000      -0.536025       -14.5860
  23   2.0000      -0.530130       -14.4256
  24   2.0000      -0.507620       -13.8131
  25   2.0000      -0.505235       -13.7481
  26   2.0000      -0.488647       -13.2968
  27   2.0000      -0.468990       -12.7619
  28   2.0000      -0.460296       -12.5253
  29   2.0000      -0.434070       -11.8117
  30   0.0000       0.097417         2.6509
  31   0.0000       0.140325         3.8184
  32   0.0000       0.156364         4.2549
  33   0.0000       0.165569         4.5054
  34   0.0000       0.175554         4.7771

MULLIKEN ATOMIC CHARGES
-----------------------
   0 O :   -0.733634
   1 H :    0.329280
   2 H :    0.396633
   3 O :   -0.739693
   4 H :    0.399659
   5 H :    0.338966
   6 O :   -0.721495
   7 H :    0.399172
   8 H :    0.333198
   9 O :   -0.724248
  10 H :    0.304706
  11 H :    0.387171
  12 O :   -0.688884
  13 H :    0.357822
  14 H :    0.362081
  15 O :   -0.645499
  16 H :    0.303692
  17 H :    0.341072
Sum of atomic charges:   -0.0000000

LOEWDIN ATOMIC CHARGES
----------------------
   0 O :   -0.312904
   1 H :    0.153091
   2 H :    0.152415
   3 O :   -0.313269
   4 H :    0.154174
   5 H :    0.158613
   6 O :   -0.301642
   7 H :    0.155869
   8 H :    0.155902
   9 O :   -0.344510
  10 H :    0.140246
  11 H :    0.148096
  12 O :   -0.283962
  13 H :    0.169227
  14 H :    0.185693
  15 O :   -0.329758
  16 H :    0.156702
  17 H :    0.156018

  Mayer bond orders larger than 0.100000
B(  0-O ,  1-H ) :   0.8551 B(  0-O ,  2-H ) :   0.7631 B(  3-O ,  4-H ) :   0.7602
B(  3-O ,  5-H ) :   0.8496 B(  6-O ,  7-H ) :   0.7752 B(  6-O ,  8-H ) :   0.8512
B(  9-O , 10-H ) :   0.8696 B(  9-O , 11-H ) :   0.7869 B( 12-O , 13-H ) :   0.8391
B( 12-O , 14-H ) :   0.8327 B( 15-O , 16-H ) :   0.8659 B( 15-O , 17-H ) :   0.8443

MP2 TOTAL ENERGY:     -457.915106087 Eh
FINAL SINGLE POINT ENERGY      -457.915106087400

DIPOLE MOMENT
-------------
                                X             Y             Z
Electronic contribution:     -0.13137       0.00383      -0.21211
Nuclear contribution   :     -0.09124      -1.96213      -1.78679
                        -----------------------------------------
Total Dipole Moment    :     -0.22261      -1.95830      -1.99889
                        -----------------------------------------
Magnitude (a.u.)       :      2.80714
Magnitude (Debye)      :      7.13519

Rotational constants in cm-1:     0.040010     0.031490     0.022354
Rotational constants in MHz :  1199.466902   944.059250   670.158201

                             ****ORCA TERMINATED NORMALLY****
TOTAL RUN TIME: 0 days 0 hours 0 minutes 49 seconds 630 msec
