                         Program Version 4.2.0 -  RELEASE  -
|  1> # 12h2o.su.etal.mol0,1,3,4,5,6,7,9,10
|  2> ! MP2 def2-TZVP EnGrad TightSCF
|  3>
|  4> %pal
|  5>     nprocs 6
|  6> end
|  7>
|  8> %maxcore 8000
|  9>
| 10> %scf
| 11>     ConvForced true
| 12> end
| 13>
| 14> *xyz 0 1
| 15> O   1.794470000   0.923410000   2.768350000
| 16> H   2.338250000   1.359750000   3.430940000
| 17> H   0.879480000   1.303000000   2.865760000
| 18> O  -1.794470000  -0.923410000   2.768350000
| 19> H  -2.338250000  -1.359750000   3.430940000
| 20> H  -0.879480000  -1.303000000   2.865760000
| 21> O  -1.752130000  -0.741530000  -2.896280000
| 22> H  -2.036450000  -0.920500000  -1.984040000
| 23> H  -0.921210000  -1.242140000  -2.984230000
| 24> O  -0.885520000   1.737840000   0.052730000
| 25> H  -1.032320000   2.090180000  -0.841890000
| 26> H  -1.284090000   0.839590000   0.017130000
| 27> O   0.885520000  -1.737840000   0.052730000
| 28> H   1.284090000  -0.839590000   0.017130000
| 29> H   1.032320000  -2.090180000  -0.841890000
| 30> O   1.737840000   0.885520000  -0.052730000
| 31> H   2.090180000   1.032320000   0.841890000
| 32> H   0.839590000   1.284090000  -0.017130000
| 33> O  -1.737840000  -0.885520000  -0.052730000
| 34> H  -2.090180000  -1.032320000   0.841890000
| 35> H  -0.839590000  -1.284090000  -0.017130000
| 36> O   0.741530000  -1.752130000   2.896280000
| 37> H   0.920500000  -2.036450000   1.984040000
| 38> H   1.242140000  -0.921210000   2.984230000
| 39> O  -0.923410000   1.794470000  -2.768350000
| 40> H  -1.359750000   2.338250000  -3.430940000
| 41> H  -1.303000000   0.879480000  -2.865760000
| 42> *
| 43>
| 44>                          ****END OF INPUT****

CARTESIAN COORDINATES (ANGSTROEM)
---------------------------------
  O      1.794470    0.923410    2.768350
  H      2.338250    1.359750    3.430940
  H      0.879480    1.303000    2.865760
  O     -1.794470   -0.923410    2.768350
  H     -2.338250   -1.359750    3.430940
  H     -0.879480   -1.303000    2.865760
  O     -1.752130   -0.741530   -2.896280
  H     -2.036450   -0.920500   -1.984040
  H     -0.921210   -1.242140   -2.984230
  O     -0.885520    1.737840    0.052730
  H     -1.032320    2.090180   -0.841890
  H     -1.284090    0.839590    0.017130
  O      0.885520   -1.737840    0.052730
  H      1.284090   -0.839590    0.017130
  H      1.032320   -2.090180   -0.841890
  O      1.737840    0.885520   -0.052730
  H      2.090180    1.032320    0.841890
  H      0.839590    1.284090   -0.017130
  O     -1.737840   -0.885520   -0.052730
  H     -2.090180   -1.032320    0.841890
  H     -0.839590   -1.284090   -0.017130
  O      0.741530   -1.752130    2.896280
  H      0.920500   -2.036450    1.984040
  H      1.242140   -0.921210    2.984230
  O     -0.923410    1.794470   -2.768350
  H     -1.359750    2.338250   -3.430940
  H     -1.303000    0.879480   -2.865760

 Total Charge           Charge          ....    0
 Multiplicity           Mult            ....    1
 Number of Electrons    NEL             ....   90
 Basis Dimension        Dim             ....  387

ORBITAL ENERGIES
----------------

  NO   OCC          E(Eh)            E(eV)
   0   2.0000     -20.613150      -560.9123
   1   2.0000     -20.584845      -560.1421
   2   2.0000     -20.574965      -559.8733
   3   2.0000     -20.559743      -559.4590
   4   2.0000     -20.553907      -559.3002
   5   2.0000     -20.544248      -559.0374
   6   2.0000     -20.535950      -558.8116
   7   2.0000     -20.533529      -558.7457
   8   2.0000     -20.522126      -558.4354
   9   2.0000      -1.393919       -37.9305
  10   2.0000      -1.377514       -37.4841
  11   2.0000      -1.365502       -37.1572
  12   2.0000      -1.352767       -36.8107
  13   2.0000      -1.344818       -36.5944
  14   2.0000      -1.327339       -36.1187
  15   2.0000      -1.324061       -36.0295
  16   2.0000      -1.318184       -35.8696
  17   2.0000      -1.303365       -35.4664
  18   2.0000      -0.759252       -20.6603
  19   2.0000      -0.739036       -20.1102
  20   2.0000      -0.728843       -19.8328
  21   2.0000      -0.718109       -19.5407
  22   2.0000      -0.713962       -19.4279
  23   2.0000      -0.709617       -19.3097
  24   2.0000      -0.701822       -19.0975
  25   2.0000      -0.697440       -18.9783
  26   2.0000      -0.684147       -18.6166
  27   2.0000      -0.644969       -17.5505
  28   2.0000      -0.627239       -17.0680
  29   2.0000      -0.614374       -16.7180
  30   2.0000      -0.599636       -16.3169
  31   2.0000      -0.592711       -16.1285
  32   2.0000      -0.580501       -15.7962
  33   2.0000      -0.572585       -15.5808
  34   2.0000      -0.558009       -15.1842
  35   2.0000      -0.544346       -14.8124
  36   2.0000      -0.541013       -14.7217
  37   2.0000      -0.525779       -14.3072
  38   2.0000      -0.509878       -13.8745
  39   2.0000      -0.503044       -13.6885
  40   2.0000      -0.497457       -13.5365
  41   2.0000      -0.494207       -13.4481
  42   2.0000      -0.487040       -13.2530
  43   2.0000      -0.481802       -13.1105
  44   2.0000      -0.470156       -12.7936
  45   0.0000       0.095071         2.5870
  46   0.0000       0.108886         2.9629
  47   0.0000       0.149119         4.0577
  48   0.0000       0.158522         4.3136
  49   0.0000       0.188275         5.1232

MULLIKEN ATOMIC CHARGES
-----------------------
   0 O :   -0.728121
   1 H :    0.365731
   2 H :    0.387721
   3 O :   -0.743702
   4 H :    0.337116
   5 H :    0.372664
   6 O :   -0.692809
   7 H :    0.392700
   8 H :    0.338121
   9 O :   -0.745363
  10 H :    0.376800
  11 H :    0.364730
  12 O :   -0.741319
  13 H :    0.374384
  14 H :    0.351181
  15 O :   -0.730638
  16 H :    0.366473
  17 H :    0.370354
  18 O :   -0.760619
  19 H :    0.388867
  20 H :    0.350758
  21 O :   -0.716246
  22 H :    0.385937
  23 H :    0.366238
  24 O :   -0.736805
  25 H :    0.333642
  26 H :    0.372204
Sum of atomic charges:   -0.0000000

LOEWDIN ATOMIC CHARGES
----------------------
   0 O :   -0.289532
   1 H :    0.168814
   2 H :    0.198191
   3 O :   -0.343464
   4 H :    0.153975
   5 H :    0.143420
   6 O :   -0.275688
   7 H :    0.158903
   8 H :    0.166072
   9 O :   -0.322597
  10 H :    0.149884
  11 H :    0.139282
  12 O :   -0.298380
  13 H :    0.147088
  14 H :    0.166657
  15 O :   -0.314846
  16 H :    0.145013
  17 H :    0.142589
  18 O :   -0.305468
  19 H :    0.155481
  20 H :    0.138066
  21 O :   -0.284849
  22 H :    0.156474
  23 H :    0.149276
  24 O :   -0.341039
  25 H :    0.152307
  26 H :    0.144371

  Mayer bond orders larger than 0.100000
B(  0-O ,  1-H ) :   0.8310 B(  0-O ,  2-H ) :   0.8068 B(  3-O ,  4-H ) :   0.8506
B(  3-O ,  5-H ) :   0.7491 B(  5-H , 21-O ) :   0.1125 B(  6-O ,  7-H ) :   0.7908
B(  6-O ,  8-H ) :   0.8481 B(  9-O , 10-H ) :   0.7989 B(  9-O , 11-H ) :   0.7817
B(  9-O , 17-H ) :   0.1193 B( 12-O , 13-H ) :   0.7300 B( 12-O , 14-H ) :   0.8395
B( 13-H , 15-O ) :   0.1424 B( 15-O , 16-H ) :   0.8195 B( 15-O , 17-H ) :   0.7565
B( 18-O , 19-H ) :   0.7854 B( 18-O , 20-H ) :   0.7727 B( 21-O , 22-H ) :   0.8055
B( 21-O , 23-H ) :   0.8089 B( 24-O , 25-H ) :   0.8524 B( 24-O , 26-H ) :   0.7615

MP2 TOTAL ENERGY:     -686.933017147 Eh
FINAL SINGLE POINT ENERGY      -686.933017146761

DIPOLE MOMENT
-------------
                                X             Y             Z
Electronic contribution:      0.20573      -0.01150       0.13756
Nuclear contribution   :      0.34148      -0.41967       0.63259
                        -----------------------------------------
Total Dipole Moment    :      0.54720      -0.43117       0.77016
                        -----------------------------------------
Magnitude (a.u.)       :      1.03850
Magnitude (Debye)      :      2.63965

Rotational constants in cm-1:     0.032430     0.016916     0.014687
Rotational constants in MHz :   972.234453   507.129632   440.303173

                             ****ORCA TERMINATED NORMALLY****
TOTAL RUN TIME: 0 days 0 hours 5 minutes 7 seconds 129 msec
