                         Program Version 4.2.0 -  RELEASE  -
|  1> # 12h2o.su.etal.mol1,2,3,5,8,11
|  2> ! MP2 def2-TZVP EnGrad TightSCF
|  3>
|  4> %pal
|  5>     nprocs 6
|  6> end
|  7>
|  8> %maxcore 8000
|  9>
| 10> %scf
| 11>     ConvForced true
| 12> end
| 13>
| 14> *xyz 0 1
| 15> O  -1.794470000  -0.923410000   2.768350000
| 16> H  -2.338250000  -1.359750000   3.430940000
| 17> H  -0.879480000  -1.303000000   2.865760000
| 18> O   0.923410000  -1.794470000  -2.768350000
| 19> H   1.359750000  -2.338250000  -3.430940000
| 20> H   1.303000000  -0.879480000  -2.865760000
| 21> O  -1.752130000  -0.741530000  -2.896280000
| 22> H  -2.036450000  -0.920500000  -1.984040000
| 23> H  -0.921210000  -1.242140000  -2.984230000
| 24> O   0.885520000  -1.737840000   0.052730000
| 25> H   1.284090000  -0.839590000   0.017130000
| 26> H   1.032320000  -2.090180000  -0.841890000
| 27> O   1.752130000   0.741530000  -2.896280000
| 28> H   2.036450000   0.920500000  -1.984040000
| 29> H   0.921210000   1.242140000  -2.984230000
| 30> O  -0.741530000   1.752130000   2.896280000
| 31> H  -0.920500000   2.036450000   1.984040000
| 32> H  -1.242140000   0.921210000   2.984230000
| 33> *
| 34>
| 35>                          ****END OF INPUT****

CARTESIAN COORDINATES (ANGSTROEM)
---------------------------------
  O     -1.794470   -0.923410    2.768350
  H     -2.338250   -1.359750    3.430940
  H     -0.879480   -1.303000    2.865760
  O      0.923410   -1.794470   -2.768350
  H      1.359750   -2.338250   -3.430940
  H      1.303000   -0.879480   -2.865760
  O     -1.752130   -0.741530   -2.896280
  H     -2.036450   -0.920500   -1.984040
  H     -0.921210   -1.242140   -2.984230
  O      0.885520   -1.737840    0.052730
  H      1.284090   -0.839590    0.017130
  H      1.032320   -2.090180   -0.841890
  O      1.752130    0.741530   -2.896280
  H      2.036450    0.920500   -1.984040
  H      0.921210    1.242140   -2.984230
  O     -0.741530    1.752130    2.896280
  H     -0.920500    2.036450    1.984040
  H     -1.242140    0.921210    2.984230

 Total Charge           Charge          ....    0
 Multiplicity           Mult            ....    1
 Number of Electrons    NEL             ....   60
 Basis Dimension        Dim             ....  258

ORBITAL ENERGIES
----------------

  NO   OCC          E(Eh)            E(eV)
   0   2.0000     -20.619078      -561.0736
   1   2.0000     -20.581083      -560.0397
   2   2.0000     -20.575983      -559.9010
   3   2.0000     -20.548884      -559.1636
   4   2.0000     -20.534471      -558.7714
   5   2.0000     -20.532548      -558.7190
   6   2.0000      -1.405252       -38.2388
   7   2.0000      -1.362485       -37.0751
   8   2.0000      -1.358849       -36.9762
   9   2.0000      -1.327299       -36.1176
  10   2.0000      -1.316675       -35.8285
  11   2.0000      -1.314788       -35.7772
  12   2.0000      -0.761214       -20.7137
  13   2.0000      -0.744573       -20.2609
  14   2.0000      -0.725922       -19.7533
  15   2.0000      -0.697010       -18.9666
  16   2.0000      -0.686759       -18.6877
  17   2.0000      -0.683538       -18.6000
  18   2.0000      -0.646093       -17.5811
  19   2.0000      -0.607203       -16.5228
  20   2.0000      -0.599518       -16.3137
  21   2.0000      -0.576180       -15.6787
  22   2.0000      -0.560900       -15.2629
  23   2.0000      -0.555462       -15.1149
  24   2.0000      -0.545278       -14.8378
  25   2.0000      -0.519424       -14.1342
  26   2.0000      -0.518051       -14.0969
  27   2.0000      -0.494145       -13.4464
  28   2.0000      -0.482319       -13.1246
  29   2.0000      -0.480226       -13.0676
  30   0.0000       0.078391         2.1331
  31   0.0000       0.118854         3.2342
  32   0.0000       0.140271         3.8170
  33   0.0000       0.156975         4.2715
  34   0.0000       0.163946         4.4612

MULLIKEN ATOMIC CHARGES
-----------------------
   0 O :   -0.697554
   1 H :    0.349789
   2 H :    0.369050
   3 O :   -0.748381
   4 H :    0.352170
   5 H :    0.379551
   6 O :   -0.717020
   7 H :    0.337975
   8 H :    0.359946
   9 O :   -0.690665
  10 H :    0.308122
  11 H :    0.369727
  12 O :   -0.681364
  13 H :    0.354855
  14 H :    0.376246
  15 O :   -0.705870
  16 H :    0.324574
  17 H :    0.358849
Sum of atomic charges:   -0.0000000

LOEWDIN ATOMIC CHARGES
----------------------
   0 O :   -0.311079
   1 H :    0.162461
   2 H :    0.191031
   3 O :   -0.311807
   4 H :    0.160087
   5 H :    0.145388
   6 O :   -0.351175
   7 H :    0.163301
   8 H :    0.145390
   9 O :   -0.344893
  10 H :    0.156510
  11 H :    0.149246
  12 O :   -0.265487
  13 H :    0.171963
  14 H :    0.183102
  15 O :   -0.349832
  16 H :    0.158154
  17 H :    0.147640

  Mayer bond orders larger than 0.100000
B(  0-O ,  1-H ) :   0.8430 B(  0-O ,  2-H ) :   0.8235 B(  3-O ,  4-H ) :   0.8394
B(  3-O ,  5-H ) :   0.7525 B(  6-O ,  7-H ) :   0.8516 B(  6-O ,  8-H ) :   0.8156
B(  9-O , 10-H ) :   0.8653 B(  9-O , 11-H ) :   0.8126 B( 12-O , 13-H ) :   0.8383
B( 12-O , 14-H ) :   0.8215 B( 15-O , 16-H ) :   0.8609 B( 15-O , 17-H ) :   0.8150

MP2 TOTAL ENERGY:     -457.914587039 Eh
FINAL SINGLE POINT ENERGY      -457.914587038643

DIPOLE MOMENT
-------------
                                X             Y             Z
Electronic contribution:      0.02969       0.04225      -0.19797
Nuclear contribution   :      0.87642      -0.37074      -0.08817
                        -----------------------------------------
Total Dipole Moment    :      0.90611      -0.32850      -0.28614
                        -----------------------------------------
Magnitude (a.u.)       :      1.00539
Magnitude (Debye)      :      2.55551

Rotational constants in cm-1:     0.054086     0.018464     0.017482
Rotational constants in MHz :  1621.454870   553.528665   524.089880

                             ****ORCA TERMINATED NORMALLY****
TOTAL RUN TIME: 0 days 0 hours 0 minutes 51 seconds 480 msec
