                         Program Version 4.2.0 -  RELEASE  -
|  1> # 12mecn.remya.etal.2.mol2,3,4
|  2> ! MP2 def2-TZVP EnGrad TightSCF
|  3>
|  4> %pal
|  5>     nprocs 6
|  6> end
|  7>
|  8> %maxcore 8000
|  9>
| 10> %scf
| 11>     ConvForced true
| 12> end
| 13>
| 14> *xyz 0 1
| 15> C  -4.219070000  -3.477410000  -1.501740000
| 16> H  -3.251530000  -3.803540000  -1.893830000
| 17> H  -4.452920000  -2.481700000  -1.890840000
| 18> H  -4.992170000  -4.178130000  -1.824640000
| 19> C  -4.154550000  -3.418790000  -0.058340000
| 20> N  -4.091140000  -3.354840000   1.104432000
| 21> C  -5.181310000   2.853865000  -1.626100000
| 22> H  -5.488260000   3.811434000  -2.053310000
| 23> H  -5.857590000   2.068112000  -1.968630000
| 24> H  -4.170750000   2.611402000  -1.966640000
| 25> C  -5.187260000   2.919160000  -0.181450000
| 26> N  -5.181700000   2.970641000   0.983640000
| 27> C  -1.509690000  -0.693960000  -1.610140000
| 28> H  -1.327010000  -1.692700000  -2.017370000
| 29> H  -0.742170000  -0.000650000  -1.964400000
| 30> H  -2.491920000  -0.334310000  -1.929350000
| 31> C  -1.473570000  -0.748120000  -0.167200000
| 32> N  -1.447490000  -0.793720000   0.998938000
| 33> *
| 34>
| 35>                          ****END OF INPUT****

CARTESIAN COORDINATES (ANGSTROEM)
---------------------------------
  C     -4.219070   -3.477410   -1.501740
  H     -3.251530   -3.803540   -1.893830
  H     -4.452920   -2.481700   -1.890840
  H     -4.992170   -4.178130   -1.824640
  C     -4.154550   -3.418790   -0.058340
  N     -4.091140   -3.354840    1.104432
  C     -5.181310    2.853865   -1.626100
  H     -5.488260    3.811434   -2.053310
  H     -5.857590    2.068112   -1.968630
  H     -4.170750    2.611402   -1.966640
  C     -5.187260    2.919160   -0.181450
  N     -5.181700    2.970641    0.983640
  C     -1.509690   -0.693960   -1.610140
  H     -1.327010   -1.692700   -2.017370
  H     -0.742170   -0.000650   -1.964400
  H     -2.491920   -0.334310   -1.929350
  C     -1.473570   -0.748120   -0.167200
  N     -1.447490   -0.793720    0.998938

 Total Charge           Charge          ....    0
 Multiplicity           Mult            ....    1
 Number of Electrons    NEL             ....   66
 Basis Dimension        Dim             ....  333

ORBITAL ENERGIES
----------------

  NO   OCC          E(Eh)            E(eV)
   0   2.0000     -15.574529      -423.8045
   1   2.0000     -15.572319      -423.7443
   2   2.0000     -15.572092      -423.7382
   3   2.0000     -11.293567      -307.3136
   4   2.0000     -11.291901      -307.2683
   5   2.0000     -11.290828      -307.2391
   6   2.0000     -11.280115      -306.9475
   7   2.0000     -11.276414      -306.8468
   8   2.0000     -11.276217      -306.8415
   9   2.0000      -1.215278       -33.0694
  10   2.0000      -1.212743       -33.0004
  11   2.0000      -1.211273       -32.9604
  12   2.0000      -1.051028       -28.5999
  13   2.0000      -1.048400       -28.5284
  14   2.0000      -1.047745       -28.5106
  15   2.0000      -0.705808       -19.2060
  16   2.0000      -0.705407       -19.1951
  17   2.0000      -0.703117       -19.1328
  18   2.0000      -0.645119       -17.5546
  19   2.0000      -0.642995       -17.4968
  20   2.0000      -0.637905       -17.3583
  21   2.0000      -0.636630       -17.3236
  22   2.0000      -0.635579       -17.2950
  23   2.0000      -0.632173       -17.2023
  24   2.0000      -0.555860       -15.1257
  25   2.0000      -0.553662       -15.0659
  26   2.0000      -0.550824       -14.9887
  27   2.0000      -0.463223       -12.6049
  28   2.0000      -0.458806       -12.4847
  29   2.0000      -0.458446       -12.4749
  30   2.0000      -0.456971       -12.4348
  31   2.0000      -0.453942       -12.3524
  32   2.0000      -0.447040       -12.1646
  33   0.0000       0.078424         2.1340
  34   0.0000       0.115684         3.1479
  35   0.0000       0.136090         3.7032
  36   0.0000       0.146145         3.9768
  37   0.0000       0.154464         4.2032

MULLIKEN ATOMIC CHARGES
-----------------------
   0 C :   -0.284872
   1 H :    0.165948
   2 H :    0.157983
   3 H :    0.182817
   4 C :   -0.154854
   5 N :   -0.066894
   6 C :   -0.288000
   7 H :    0.177043
   8 H :    0.170016
   9 H :    0.162932
  10 C :   -0.143133
  11 N :   -0.078819
  12 C :   -0.285799
  13 H :    0.165931
  14 H :    0.183062
  15 H :    0.155573
  16 C :   -0.152374
  17 N :   -0.066559
Sum of atomic charges:    0.0000000

LOEWDIN ATOMIC CHARGES
----------------------
   0 C :   -0.289019
   1 H :    0.149407
   2 H :    0.147603
   3 H :    0.151957
   4 C :   -0.225139
   5 N :    0.065297
   6 C :   -0.286801
   7 H :    0.152104
   8 H :    0.149902
   9 H :    0.148913
  10 C :   -0.220681
  11 N :    0.056537
  12 C :   -0.289574
  13 H :    0.149070
  14 H :    0.153325
  15 H :    0.146262
  16 C :   -0.226505
  17 N :    0.067342

  Mayer bond orders larger than 0.100000
B(  0-C ,  1-H ) :   0.9229 B(  0-C ,  2-H ) :   0.9220 B(  0-C ,  3-H ) :   0.9115
B(  0-C ,  4-C ) :   0.8988 B(  4-C ,  5-N ) :   2.8226 B(  6-C ,  7-H ) :   0.9154
B(  6-C ,  8-H ) :   0.9191 B(  6-C ,  9-H ) :   0.9202 B(  6-C , 10-C ) :   0.9009
B( 10-C , 11-N ) :   2.8280 B( 12-C , 13-H ) :   0.9208 B( 12-C , 14-H ) :   0.9125
B( 12-C , 15-H ) :   0.9256 B( 12-C , 16-C ) :   0.8955 B( 16-C , 17-N ) :   2.8185

MP2 TOTAL ENERGY:     -397.444745943 Eh
FINAL SINGLE POINT ENERGY      -397.444745942957

DIPOLE MOMENT
-------------
                                X             Y             Z
Electronic contribution:      0.19662       0.15349       9.64923
Nuclear contribution   :     -0.29797      -0.23242     -13.92249
                        -----------------------------------------
Total Dipole Moment    :     -0.10135      -0.07893      -4.27325
                        -----------------------------------------
Magnitude (a.u.)       :      4.27518
Magnitude (Debye)      :     10.86665

Rotational constants in cm-1:     0.041013     0.016110     0.014791
Rotational constants in MHz :  1229.551299   482.977783   443.434675

                             ****ORCA TERMINATED NORMALLY****
TOTAL RUN TIME: 0 days 0 hours 3 minutes 6 seconds 68 msec
