                         Program Version 4.2.0 -  RELEASE  -
|  1> ! MP2 def2-TZVP EnGrad TightSCF FrozenCore
|  2>
|  3> %pal
|  4>     nprocs 12
|  5> end
|  6>
|  7> %maxcore 8000
|  8>
|  9> %scf
| 10>     ConvForced true
| 11> end
| 12>
| 13> *xyz 0 1
| 14> C     0.961556     3.104495    -0.467082
| 15> H     1.403555     2.991266    -1.459627
| 16> H     1.680004     2.751797     0.278769
| 17> H     0.716387     4.153291    -0.280479
| 18> C    -0.245526     2.289120    -0.378159
| 19> N    -1.216051     1.654151    -0.299543
| 20> C    -0.450050    -0.560556     2.363672
| 21> H    -0.941532    -0.206962     3.273833
| 22> H    -0.209279    -1.622089     2.457834
| 23> H    -1.128616    -0.436814     1.514080
| 24> C     0.770828     0.204579     2.129026
| 25> N     1.736496     0.826639     1.949916
| 26> C    -4.299828     0.774880    -0.364119
| 27> H    -4.040437     1.503019     0.407833
| 28> H    -5.384435     0.647564    -0.406496
| 29> H    -3.933114     1.156925    -1.319706
| 30> C    -3.654544    -0.501505    -0.068005
| 31> N    -3.145996    -1.519336     0.167231
| 32> C     3.789506    -0.720976    -0.000074
| 33> H     4.076810     0.003139     0.765876
| 34> H     4.678738    -1.106869    -0.505177
| 35> H     3.251169    -1.543859     0.480165
| 36> C     2.903102    -0.080936    -0.967799
| 37> N     2.196339     0.420170    -1.743028
| 38> C    -0.440100    -1.584115    -1.761229
| 39> H    -1.328984    -2.193266    -1.941575
| 40> H     0.180943    -1.532941    -2.659030
| 41> H    -0.750349    -0.569772    -1.491828
| 42> C     0.333966    -2.157265    -0.664148
| 43> N     0.960022    -2.610304     0.204428
| 44> *
| 45>
| 46>                          ****END OF INPUT****

CARTESIAN COORDINATES (ANGSTROEM)
---------------------------------
  C      0.961556    3.104495   -0.467082
  H      1.403555    2.991266   -1.459627
  H      1.680004    2.751797    0.278769
  H      0.716387    4.153291   -0.280479
  C     -0.245526    2.289120   -0.378159
  N     -1.216051    1.654151   -0.299543
  C     -0.450050   -0.560556    2.363672
  H     -0.941532   -0.206962    3.273833
  H     -0.209279   -1.622089    2.457834
  H     -1.128616   -0.436814    1.514080
  C      0.770828    0.204579    2.129026
  N      1.736496    0.826639    1.949916
  C     -4.299828    0.774880   -0.364119
  H     -4.040437    1.503019    0.407833
  H     -5.384435    0.647564   -0.406496
  H     -3.933114    1.156925   -1.319706
  C     -3.654544   -0.501505   -0.068005
  N     -3.145996   -1.519336    0.167231
  C      3.789506   -0.720976   -0.000074
  H      4.076810    0.003139    0.765876
  H      4.678738   -1.106869   -0.505177
  H      3.251169   -1.543859    0.480165
  C      2.903102   -0.080936   -0.967799
  N      2.196339    0.420170   -1.743028
  C     -0.440100   -1.584115   -1.761229
  H     -1.328984   -2.193266   -1.941575
  H      0.180943   -1.532941   -2.659030
  H     -0.750349   -0.569772   -1.491828
  C      0.333966   -2.157265   -0.664148
  N      0.960022   -2.610304    0.204428

 Total Charge           Charge          ....    0
 Multiplicity           Mult            ....    1
 Number of Electrons    NEL             ....  110
 Basis Dimension        Dim             ....  555

ORBITAL ENERGIES
----------------

  NO   OCC          E(Eh)            E(eV)
   0   2.0000     -15.569073      -423.6560
   1   2.0000     -15.568881      -423.6508
   2   2.0000     -15.560727      -423.4289
   3   2.0000     -15.560370      -423.4192
   4   2.0000     -15.555934      -423.2985
   5   2.0000     -11.286037      -307.1087
   6   2.0000     -11.281208      -306.9773
   7   2.0000     -11.275826      -306.8308
   8   2.0000     -11.275815      -306.8305
   9   2.0000     -11.275775      -306.8294
  10   2.0000     -11.270715      -306.6918
  11   2.0000     -11.265400      -306.5471
  12   2.0000     -11.259226      -306.3791
  13   2.0000     -11.256243      -306.2980
  14   2.0000     -11.253325      -306.2185
  15   2.0000      -1.219984       -33.1975
  16   2.0000      -1.216970       -33.1154
  17   2.0000      -1.211710       -32.9723
  18   2.0000      -1.209156       -32.9028
  19   2.0000      -1.204893       -32.7868
  20   2.0000      -1.032313       -28.0907
  21   2.0000      -1.026304       -27.9272
  22   2.0000      -1.019428       -27.7401
  23   2.0000      -1.016590       -27.6628
  24   2.0000      -1.013146       -27.5691
  25   2.0000      -0.691708       -18.8223
  26   2.0000      -0.686880       -18.6910
  27   2.0000      -0.679279       -18.4841
  28   2.0000      -0.677672       -18.4404
  29   2.0000      -0.672785       -18.3074
  30   2.0000      -0.627517       -17.0756
  31   2.0000      -0.622125       -16.9289
  32   2.0000      -0.619390       -16.8545
  33   2.0000      -0.615556       -16.7501
  34   2.0000      -0.613988       -16.7075
  35   2.0000      -0.611484       -16.6393
  36   2.0000      -0.608618       -16.5613
  37   2.0000      -0.600506       -16.3406
  38   2.0000      -0.598465       -16.2851
  39   2.0000      -0.595305       -16.1991
  40   2.0000      -0.559257       -15.2182
  41   2.0000      -0.555703       -15.1215
  42   2.0000      -0.550245       -14.9729
  43   2.0000      -0.549476       -14.9520
  44   2.0000      -0.544709       -14.8223
  45   2.0000      -0.465575       -12.6689
  46   2.0000      -0.464300       -12.6342
  47   2.0000      -0.461831       -12.5670
  48   2.0000      -0.459213       -12.4958
  49   2.0000      -0.456469       -12.4212
  50   2.0000      -0.453753       -12.3473
  51   2.0000      -0.451048       -12.2736
  52   2.0000      -0.445624       -12.1260
  53   2.0000      -0.444599       -12.0982
  54   2.0000      -0.442424       -12.0390
  55   0.0000       0.123159         3.3513
  56   0.0000       0.142968         3.8904
  57   0.0000       0.155858         4.2411
  58   0.0000       0.160162         4.3582
  59   0.0000       0.163629         4.4526

MULLIKEN ATOMIC CHARGES
-----------------------
   0 C :   -0.289587
   1 H :    0.186385
   2 H :    0.197490
   3 H :    0.167566
   4 C :   -0.054105
   5 N :   -0.205586
   6 C :   -0.283908
   7 H :    0.166780
   8 H :    0.191183
   9 H :    0.179787
  10 C :   -0.070086
  11 N :   -0.187789
  12 C :   -0.257158
  13 H :    0.171310
  14 H :    0.172578
  15 H :    0.170979
  16 C :   -0.112318
  17 N :   -0.140307
  18 C :   -0.284577
  19 H :    0.180714
  20 H :    0.165438
  21 H :    0.199996
  22 C :   -0.082096
  23 N :   -0.179393
  24 C :   -0.249478
  25 H :    0.179108
  26 H :    0.175408
  27 H :    0.171039
  28 C :   -0.108076
  29 N :   -0.171298
Sum of atomic charges:   -0.0000000

LOEWDIN ATOMIC CHARGES
----------------------
   0 C :   -0.281610
   1 H :    0.154705
   2 H :    0.156247
   3 H :    0.146622
   4 C :   -0.191719
   5 N :    0.026985
   6 C :   -0.280832
   7 H :    0.147773
   8 H :    0.156474
   9 H :    0.153956
  10 C :   -0.196765
  11 N :    0.025762
  12 C :   -0.287719
  13 H :    0.152533
  14 H :    0.146591
  15 H :    0.152513
  16 C :   -0.212319
  17 N :    0.036110
  18 C :   -0.285134
  19 H :    0.152652
  20 H :    0.146304
  21 H :    0.156696
  22 C :   -0.201432
  23 N :    0.030429
  24 C :   -0.286084
  25 H :    0.150502
  26 H :    0.150845
  27 H :    0.153981
  28 C :   -0.200191
  29 N :    0.026124

  Mayer bond orders larger than 0.100000
B(  0-C ,  1-H ) :   0.9143 B(  0-C ,  2-H ) :   0.9069 B(  0-C ,  3-H ) :   0.9099
B(  0-C ,  4-C ) :   0.8932 B(  4-C ,  5-N ) :   2.7121 B(  6-C ,  7-H ) :   0.9106
B(  6-C ,  8-H ) :   0.9150 B(  6-C ,  9-H ) :   0.9099 B(  6-C , 10-C ) :   0.8935
B( 10-C , 11-N ) :   2.7295 B( 12-C , 13-H ) :   0.9174 B( 12-C , 14-H ) :   0.9097
B( 12-C , 15-H ) :   0.9195 B( 12-C , 16-C ) :   0.9006 B( 16-C , 17-N ) :   2.7601
B( 18-C , 19-H ) :   0.9146 B( 18-C , 20-H ) :   0.9102 B( 18-C , 21-H ) :   0.9076
B( 18-C , 22-C ) :   0.8925 B( 22-C , 23-N ) :   2.7367 B( 24-C , 25-H ) :   0.9076
B( 24-C , 26-H ) :   0.9070 B( 24-C , 27-H ) :   0.9125 B( 24-C , 28-C ) :   0.9149
B( 28-C , 29-N ) :   2.7337

MP2 TOTAL ENERGY:     -662.459963059 Eh
FINAL SINGLE POINT ENERGY      -662.459963059458

DIPOLE MOMENT
-------------
                                X             Y             Z
Electronic contribution:      1.15718      -2.70588       0.60995
Nuclear contribution   :     -1.73715       4.01292      -0.88959
                        -----------------------------------------
Total Dipole Moment    :     -0.57997       1.30704      -0.27963
                        -----------------------------------------
Magnitude (a.u.)       :      1.45702
Magnitude (Debye)      :      3.70346

Rotational constants in cm-1:     0.020240     0.012030     0.010537
Rotational constants in MHz :   606.785688   360.643735   315.893266

                             ****ORCA TERMINATED NORMALLY****
TOTAL RUN TIME: 0 days 0 hours 31 minutes 26 seconds 697 msec
