                         Program Version 4.2.0 -  RELEASE  -
|  1> # 12h2o.su.etal.mol1,4,6,7,9,11
|  2> ! MP2 def2-TZVP EnGrad TightSCF
|  3>
|  4> %pal
|  5>     nprocs 6
|  6> end
|  7>
|  8> %maxcore 8000
|  9>
| 10> %scf
| 11>     ConvForced true
| 12> end
| 13>
| 14> *xyz 0 1
| 15> O  -1.794470000  -0.923410000   2.768350000
| 16> H  -2.338250000  -1.359750000   3.430940000
| 17> H  -0.879480000  -1.303000000   2.865760000
| 18> O  -0.885520000   1.737840000   0.052730000
| 19> H  -1.032320000   2.090180000  -0.841890000
| 20> H  -1.284090000   0.839590000   0.017130000
| 21> O   1.737840000   0.885520000  -0.052730000
| 22> H   2.090180000   1.032320000   0.841890000
| 23> H   0.839590000   1.284090000  -0.017130000
| 24> O  -1.737840000  -0.885520000  -0.052730000
| 25> H  -2.090180000  -1.032320000   0.841890000
| 26> H  -0.839590000  -1.284090000  -0.017130000
| 27> O   0.741530000  -1.752130000   2.896280000
| 28> H   0.920500000  -2.036450000   1.984040000
| 29> H   1.242140000  -0.921210000   2.984230000
| 30> O  -0.741530000   1.752130000   2.896280000
| 31> H  -0.920500000   2.036450000   1.984040000
| 32> H  -1.242140000   0.921210000   2.984230000
| 33> *
| 34>
| 35>                          ****END OF INPUT****

CARTESIAN COORDINATES (ANGSTROEM)
---------------------------------
  O     -1.794470   -0.923410    2.768350
  H     -2.338250   -1.359750    3.430940
  H     -0.879480   -1.303000    2.865760
  O     -0.885520    1.737840    0.052730
  H     -1.032320    2.090180   -0.841890
  H     -1.284090    0.839590    0.017130
  O      1.737840    0.885520   -0.052730
  H      2.090180    1.032320    0.841890
  H      0.839590    1.284090   -0.017130
  O     -1.737840   -0.885520   -0.052730
  H     -2.090180   -1.032320    0.841890
  H     -0.839590   -1.284090   -0.017130
  O      0.741530   -1.752130    2.896280
  H      0.920500   -2.036450    1.984040
  H      1.242140   -0.921210    2.984230
  O     -0.741530    1.752130    2.896280
  H     -0.920500    2.036450    1.984040
  H     -1.242140    0.921210    2.984230

 Total Charge           Charge          ....    0
 Multiplicity           Mult            ....    1
 Number of Electrons    NEL             ....   60
 Basis Dimension        Dim             ....  258

ORBITAL ENERGIES
----------------

  NO   OCC          E(Eh)            E(eV)
   0   2.0000     -20.618578      -561.0600
   1   2.0000     -20.583494      -560.1053
   2   2.0000     -20.581638      -560.0549
   3   2.0000     -20.574366      -559.8570
   4   2.0000     -20.537997      -558.8673
   5   2.0000     -20.517914      -558.3208
   6   2.0000      -1.405125       -38.2354
   7   2.0000      -1.375634       -37.4329
   8   2.0000      -1.365339       -37.1528
   9   2.0000      -1.356049       -36.9000
  10   2.0000      -1.318317       -35.8732
  11   2.0000      -1.302914       -35.4541
  12   2.0000      -0.760776       -20.7018
  13   2.0000      -0.749610       -20.3979
  14   2.0000      -0.730425       -19.8759
  15   2.0000      -0.728413       -19.8211
  16   2.0000      -0.693314       -18.8660
  17   2.0000      -0.681613       -18.5476
  18   2.0000      -0.650896       -17.7118
  19   2.0000      -0.624058       -16.9815
  20   2.0000      -0.606007       -16.4903
  21   2.0000      -0.597687       -16.2639
  22   2.0000      -0.570553       -15.5255
  23   2.0000      -0.555395       -15.1131
  24   2.0000      -0.542128       -14.7520
  25   2.0000      -0.524357       -14.2685
  26   2.0000      -0.521356       -14.1868
  27   2.0000      -0.512216       -13.9381
  28   2.0000      -0.486110       -13.2277
  29   2.0000      -0.467748       -12.7281
  30   0.0000       0.079567         2.1651
  31   0.0000       0.136939         3.7263
  32   0.0000       0.141713         3.8562
  33   0.0000       0.143567         3.9067
  34   0.0000       0.196726         5.3532

MULLIKEN ATOMIC CHARGES
-----------------------
   0 O :   -0.753326
   1 H :    0.355737
   2 H :    0.381659
   3 O :   -0.735211
   4 H :    0.356958
   5 H :    0.372997
   6 O :   -0.721358
   7 H :    0.324427
   8 H :    0.359234
   9 O :   -0.695062
  10 H :    0.384021
  11 H :    0.337702
  12 O :   -0.682591
  13 H :    0.357426
  14 H :    0.373299
  15 O :   -0.731805
  16 H :    0.368561
  17 H :    0.347332
Sum of atomic charges:   -0.0000000

LOEWDIN ATOMIC CHARGES
----------------------
   0 O :   -0.313176
   1 H :    0.161780
   2 H :    0.145792
   3 O :   -0.295898
   4 H :    0.170511
   5 H :    0.147119
   6 O :   -0.362556
   7 H :    0.154405
   8 H :    0.140826
   9 O :   -0.293851
  10 H :    0.154126
  11 H :    0.168127
  12 O :   -0.264791
  13 H :    0.172411
  14 H :    0.180956
  15 O :   -0.355002
  16 H :    0.149020
  17 H :    0.140200

  Mayer bond orders larger than 0.100000
B(  0-O ,  1-H ) :   0.8375 B(  0-O ,  2-H ) :   0.7487 B(  3-O ,  4-H ) :   0.8357
B(  3-O ,  5-H ) :   0.7583 B(  6-O ,  7-H ) :   0.8588 B(  6-O ,  8-H ) :   0.7899
B(  9-O , 10-H ) :   0.7937 B(  9-O , 11-H ) :   0.8435 B( 12-O , 13-H ) :   0.8358
B( 12-O , 14-H ) :   0.8218 B( 15-O , 16-H ) :   0.8234 B( 15-O , 17-H ) :   0.8261

MP2 TOTAL ENERGY:     -457.934256154 Eh
FINAL SINGLE POINT ENERGY      -457.934256153921

DIPOLE MOMENT
-------------
                                X             Y             Z
Electronic contribution:     -0.10308      -0.20637       0.07087
Nuclear contribution   :     -0.14496      -1.13354       0.03466
                        -----------------------------------------
Total Dipole Moment    :     -0.24805      -1.33991       0.10553
                        -----------------------------------------
Magnitude (a.u.)       :      1.36676
Magnitude (Debye)      :      3.47403

Rotational constants in cm-1:     0.052696     0.038628     0.036293
Rotational constants in MHz :  1579.797629  1158.044280  1088.034299

                             ****ORCA TERMINATED NORMALLY****
TOTAL RUN TIME: 0 days 0 hours 1 minutes 22 seconds 244 msec
