                         Program Version 4.2.0 -  RELEASE  -
|  1> # 12mecn.remya.etal.2.mol1,5,8
|  2> ! MP2 def2-TZVP EnGrad TightSCF
|  3>
|  4> %pal
|  5>     nprocs 6
|  6> end
|  7>
|  8> %maxcore 8000
|  9>
| 10> %scf
| 11>     ConvForced true
| 12> end
| 13>
| 14> *xyz 0 1
| 15> C  -4.697980000  -0.249690000   1.746215000
| 16> H  -4.927570000   0.755530000   2.111799000
| 17> H  -3.709180000  -0.561560000   2.093253000
| 18> H  -5.432280000  -0.961520000   2.128066000
| 19> C  -4.714100000  -0.247110000   0.301670000
| 20> N  -4.729750000  -0.234960000  -0.865260000
| 21> C  -1.955700000   2.515080000   1.698463000
| 22> H  -2.923830000   2.883163000   2.049269000
| 23> H  -1.154850000   3.171830000   2.050990000
| 24> H  -1.790380000   1.506115000   2.087896000
| 25> C  -1.948230000   2.482156000   0.253672000
| 26> N  -1.937550000   2.462523000  -0.913150000
| 27> C   1.912641000  -2.468050000  -1.750510000
| 28> H   2.876947000  -2.793500000  -2.151200000
| 29> H   1.688016000  -1.463720000  -2.122170000
| 30> H   1.123460000  -3.154780000  -2.069590000
| 31> C   1.977850000  -2.444240000  -0.306900000
| 32> N   2.036566000  -2.426130000   0.858249000
| 33> *
| 34>
| 35>                          ****END OF INPUT****

CARTESIAN COORDINATES (ANGSTROEM)
---------------------------------
  C     -4.697980   -0.249690    1.746215
  H     -4.927570    0.755530    2.111799
  H     -3.709180   -0.561560    2.093253
  H     -5.432280   -0.961520    2.128066
  C     -4.714100   -0.247110    0.301670
  N     -4.729750   -0.234960   -0.865260
  C     -1.955700    2.515080    1.698463
  H     -2.923830    2.883163    2.049269
  H     -1.154850    3.171830    2.050990
  H     -1.790380    1.506115    2.087896
  C     -1.948230    2.482156    0.253672
  N     -1.937550    2.462523   -0.913150
  C      1.912641   -2.468050   -1.750510
  H      2.876947   -2.793500   -2.151200
  H      1.688016   -1.463720   -2.122170
  H      1.123460   -3.154780   -2.069590
  C      1.977850   -2.444240   -0.306900
  N      2.036566   -2.426130    0.858249

 Total Charge           Charge          ....    0
 Multiplicity           Mult            ....    1
 Number of Electrons    NEL             ....   66
 Basis Dimension        Dim             ....  333

ORBITAL ENERGIES
----------------

  NO   OCC          E(Eh)            E(eV)
   0   2.0000     -15.572764      -423.7564
   1   2.0000     -15.572238      -423.7421
   2   2.0000     -15.572103      -423.7385
   3   2.0000     -11.289139      -307.1931
   4   2.0000     -11.288589      -307.1781
   5   2.0000     -11.281580      -306.9874
   6   2.0000     -11.279912      -306.9420
   7   2.0000     -11.278111      -306.8930
   8   2.0000     -11.277858      -306.8861
   9   2.0000      -1.214009       -33.0349
  10   2.0000      -1.213322       -33.0162
  11   2.0000      -1.212308       -32.9886
  12   2.0000      -1.048251       -28.5244
  13   2.0000      -1.045418       -28.4473
  14   2.0000      -1.040942       -28.3255
  15   2.0000      -0.703663       -19.1477
  16   2.0000      -0.700773       -19.0690
  17   2.0000      -0.696880       -18.9631
  18   2.0000      -0.641880       -17.4664
  19   2.0000      -0.638750       -17.3813
  20   2.0000      -0.633719       -17.2444
  21   2.0000      -0.629597       -17.1322
  22   2.0000      -0.628497       -17.1023
  23   2.0000      -0.627383       -17.0719
  24   2.0000      -0.555819       -15.1246
  25   2.0000      -0.554797       -15.0968
  26   2.0000      -0.552961       -15.0468
  27   2.0000      -0.462257       -12.5787
  28   2.0000      -0.457652       -12.4533
  29   2.0000      -0.457145       -12.4396
  30   2.0000      -0.456804       -12.4303
  31   2.0000      -0.455092       -12.3837
  32   2.0000      -0.449379       -12.2282
  33   0.0000       0.096242         2.6189
  34   0.0000       0.122829         3.3423
  35   0.0000       0.144201         3.9239
  36   0.0000       0.148368         4.0373
  37   0.0000       0.156261         4.2521

MULLIKEN ATOMIC CHARGES
-----------------------
   0 C :   -0.285475
   1 H :    0.164104
   2 H :    0.169554
   3 H :    0.182272
   4 C :   -0.152725
   5 N :   -0.077797
   6 C :   -0.282277
   7 H :    0.165465
   8 H :    0.182796
   9 H :    0.167012
  10 C :   -0.152973
  11 N :   -0.079947
  12 C :   -0.277690
  13 H :    0.170555
  14 H :    0.179393
  15 H :    0.173396
  16 C :   -0.145579
  17 N :   -0.100082
Sum of atomic charges:   -0.0000000

LOEWDIN ATOMIC CHARGES
----------------------
   0 C :   -0.287375
   1 H :    0.149601
   2 H :    0.150859
   3 H :    0.152779
   4 C :   -0.223396
   5 N :    0.057539
   6 C :   -0.286925
   7 H :    0.149605
   8 H :    0.154250
   9 H :    0.150073
  10 C :   -0.222971
  11 N :    0.055965
  12 C :   -0.282173
  13 H :    0.152486
  14 H :    0.155317
  15 H :    0.153509
  16 C :   -0.218639
  17 N :    0.039497

  Mayer bond orders larger than 0.100000
B(  0-C ,  1-H ) :   0.9199 B(  0-C ,  2-H ) :   0.9218 B(  0-C ,  3-H ) :   0.9109
B(  0-C ,  4-C ) :   0.8980 B(  4-C ,  5-N ) :   2.8290 B(  6-C ,  7-H ) :   0.9222
B(  6-C ,  8-H ) :   0.9102 B(  6-C ,  9-H ) :   0.9192 B(  6-C , 10-C ) :   0.8989
B( 10-C , 11-N ) :   2.8306 B( 12-C , 13-H ) :   0.9164 B( 12-C , 14-H ) :   0.9141
B( 12-C , 15-H ) :   0.9151 B( 12-C , 16-C ) :   0.9020 B( 16-C , 17-N ) :   2.8422

MP2 TOTAL ENERGY:     -397.449532758 Eh
FINAL SINGLE POINT ENERGY      -397.449532758214

DIPOLE MOMENT
-------------
                                X             Y             Z
Electronic contribution:      0.10941       0.00109      -3.28161
Nuclear contribution   :     -0.17526      -0.00762       4.64606
                        -----------------------------------------
Total Dipole Moment    :     -0.06585      -0.00653       1.36445
                        -----------------------------------------
Magnitude (a.u.)       :      1.36605
Magnitude (Debye)      :      3.47222

Rotational constants in cm-1:     0.037056     0.012771     0.011516
Rotational constants in MHz :  1110.924398   382.856631   345.234680

                             ****ORCA TERMINATED NORMALLY****
TOTAL RUN TIME: 0 days 0 hours 3 minutes 48 seconds 101 msec
