                         Program Version 4.2.0 -  RELEASE  -
|  1> ! MP2 def2-TZVP EnGrad TightSCF FrozenCore
|  2>
|  3> %pal
|  4>     nprocs 12
|  5> end
|  6>
|  7> %maxcore 8000
|  8>
|  9> %scf
| 10>     ConvForced true
| 11> end
| 12>
| 13> *xyz 0 1
| 14> O    -0.7199977175     2.0430306175    -1.5868534966
| 15> H     0.1974605188     1.9380001227    -1.2152645362
| 16> C    -0.6194684372     2.0155018663    -3.0039304409
| 17> H    -1.6308170325     2.1054866929    -3.41094831
| 18> H    -0.177896639      1.0790650825    -3.3742973224
| 19> H    -0.0176655713     2.8547919645    -3.3779071146
| 20> O    -2.5622461446     0.3199364144    -0.6728023812
| 21> H    -1.8475121134     0.9352702345    -0.9912250494
| 22> C    -3.533512062      1.0914499049     0.0189152037
| 23> H    -4.288440536      0.4033451401     0.4104068998
| 24> H    -4.029041468      1.806341214     -0.6521780638
| 25> H    -3.1018480416     1.6495001057     0.8624837933
| 26> O     2.5630784042    -0.3102827189     0.7066454522
| 27> H     1.8278326428    -0.8736806504     1.0691811621
| 28> C     3.4893783769    -1.1693635788     0.0569951739
| 29> H     4.2725814628    -0.5439099351    -0.3812505236
| 30> H     3.0225697958    -1.7564285323    -0.7471451486
| 31> H     3.956604124     -1.8648160999     0.7675479442
| 32> O     1.8109755789     1.831466985     -0.7251953276
| 33> H     2.0493853794     1.002715287     -0.2286932598
| 34> C     2.257483243      2.9412974522     0.0409519717
| 35> H     1.9367359906     3.8516207603    -0.4738970784
| 36> H     3.3529490524     2.9554591642     0.123519156
| 37> H     1.8329165053     2.9471301271     1.055083543
| 38> O     0.6891662326    -1.9680407836     1.6764393865
| 39> H    -0.2095319121    -1.9207692969     1.2522778766
| 40> C     0.5113942742    -1.9337217938     3.0851566717
| 41> H     1.5032290366    -1.9435114727     3.5465662703
| 42> H    -0.0458849398    -2.8114594109     3.4395834964
| 43> H    -0.0177060495    -1.0291363674     3.4181215174
| 44> O    -1.784826527     -1.8893707892     0.6370981108
| 45> H    -2.0270046056    -1.0429232121     0.1734344373
| 46> C    -2.1012806852    -2.9687361119    -0.2302057985
| 47> H    -1.8087672805    -3.8957793583     0.2715525335
| 48> H    -1.5644170762    -2.9075054097    -1.1879922834
| 49> H    -3.1788981133    -3.011290385     -0.4389105819
| 50> *
| 51>
| 52>                          ****END OF INPUT****

CARTESIAN COORDINATES (ANGSTROEM)
---------------------------------
  O     -0.719998    2.043031   -1.586853
  H      0.197461    1.938000   -1.215265
  C     -0.619468    2.015502   -3.003930
  H     -1.630817    2.105487   -3.410948
  H     -0.177897    1.079065   -3.374297
  H     -0.017666    2.854792   -3.377907
  O     -2.562246    0.319936   -0.672802
  H     -1.847512    0.935270   -0.991225
  C     -3.533512    1.091450    0.018915
  H     -4.288441    0.403345    0.410407
  H     -4.029041    1.806341   -0.652178
  H     -3.101848    1.649500    0.862484
  O      2.563078   -0.310283    0.706645
  H      1.827833   -0.873681    1.069181
  C      3.489378   -1.169364    0.056995
  H      4.272581   -0.543910   -0.381251
  H      3.022570   -1.756429   -0.747145
  H      3.956604   -1.864816    0.767548
  O      1.810976    1.831467   -0.725195
  H      2.049385    1.002715   -0.228693
  C      2.257483    2.941297    0.040952
  H      1.936736    3.851621   -0.473897
  H      3.352949    2.955459    0.123519
  H      1.832917    2.947130    1.055084
  O      0.689166   -1.968041    1.676439
  H     -0.209532   -1.920769    1.252278
  C      0.511394   -1.933722    3.085157
  H      1.503229   -1.943511    3.546566
  H     -0.045885   -2.811459    3.439583
  H     -0.017706   -1.029136    3.418122
  O     -1.784827   -1.889371    0.637098
  H     -2.027005   -1.042923    0.173434
  C     -2.101281   -2.968736   -0.230206
  H     -1.808767   -3.895779    0.271553
  H     -1.564417   -2.907505   -1.187992
  H     -3.178898   -3.011290   -0.438911

 Total Charge           Charge          ....    0
 Multiplicity           Mult            ....    1
 Number of Electrons    NEL             ....  108
 Basis Dimension        Dim             ....  516

ORBITAL ENERGIES
----------------

  NO   OCC          E(Eh)            E(eV)
   0   2.0000     -20.546121      -559.0884
   1   2.0000     -20.546053      -559.0865
   2   2.0000     -20.546015      -559.0855
   3   2.0000     -20.546003      -559.0852
   4   2.0000     -20.545939      -559.0834
   5   2.0000     -20.545846      -559.0809
   6   2.0000     -11.266568      -306.5789
   7   2.0000     -11.266465      -306.5761
   8   2.0000     -11.266412      -306.5747
   9   2.0000     -11.266313      -306.5720
  10   2.0000     -11.266122      -306.5668
  11   2.0000     -11.266045      -306.5647
  12   2.0000      -1.364072       -37.1183
  13   2.0000      -1.356021       -36.8992
  14   2.0000      -1.355959       -36.8975
  15   2.0000      -1.339078       -36.4382
  16   2.0000      -1.338959       -36.4349
  17   2.0000      -1.330035       -36.1921
  18   2.0000      -0.920760       -25.0551
  19   2.0000      -0.918824       -25.0025
  20   2.0000      -0.918677       -24.9985
  21   2.0000      -0.914057       -24.8728
  22   2.0000      -0.913924       -24.8691
  23   2.0000      -0.910850       -24.7855
  24   2.0000      -0.726869       -19.7791
  25   2.0000      -0.707389       -19.2490
  26   2.0000      -0.707116       -19.2416
  27   2.0000      -0.676730       -18.4148
  28   2.0000      -0.676650       -18.4126
  29   2.0000      -0.667734       -18.1700
  30   2.0000      -0.613483       -16.6937
  31   2.0000      -0.613259       -16.6876
  32   2.0000      -0.613230       -16.6868
  33   2.0000      -0.612370       -16.6634
  34   2.0000      -0.612226       -16.6595
  35   2.0000      -0.608109       -16.5475
  36   2.0000      -0.588846       -16.0233
  37   2.0000      -0.587165       -15.9776
  38   2.0000      -0.587109       -15.9760
  39   2.0000      -0.586202       -15.9514
  40   2.0000      -0.586081       -15.9481
  41   2.0000      -0.584955       -15.9174
  42   2.0000      -0.522544       -14.2191
  43   2.0000      -0.513193       -13.9647
  44   2.0000      -0.513032       -13.9603
  45   2.0000      -0.488839       -13.3020
  46   2.0000      -0.488715       -13.2986
  47   2.0000      -0.474990       -12.9251
  48   2.0000      -0.443232       -12.0610
  49   2.0000      -0.443180       -12.0596
  50   2.0000      -0.442755       -12.0480
  51   2.0000      -0.442576       -12.0431
  52   2.0000      -0.441859       -12.0236
  53   2.0000      -0.440697       -11.9920
  54   0.0000       0.122616         3.3366
  55   0.0000       0.153395         4.1741
  56   0.0000       0.155906         4.2424
  57   0.0000       0.156794         4.2666
  58   0.0000       0.168946         4.5973

MULLIKEN ATOMIC CHARGES
-----------------------
   0 O :   -0.568471
   1 H :    0.375396
   2 C :   -0.169581
   3 H :    0.126344
   4 H :    0.117412
   5 H :    0.118753
   6 O :   -0.569055
   7 H :    0.375794
   8 C :   -0.168739
   9 H :    0.126637
  10 H :    0.118085
  11 H :    0.117262
  12 O :   -0.568298
  13 H :    0.373940
  14 C :   -0.167366
  15 H :    0.126088
  16 H :    0.117156
  17 H :    0.118371
  18 O :   -0.568715
  19 H :    0.374289
  20 C :   -0.167760
  21 H :    0.126470
  22 H :    0.117486
  23 H :    0.118027
  24 O :   -0.568690
  25 H :    0.374234
  26 C :   -0.167127
  27 H :    0.126326
  28 H :    0.118677
  29 H :    0.116622
  30 O :   -0.568809
  31 H :    0.375212
  32 C :   -0.168028
  33 H :    0.126639
  34 H :    0.116439
  35 H :    0.118980
Sum of atomic charges:   -0.0000000

LOEWDIN ATOMIC CHARGES
----------------------
   0 O :   -0.090701
   1 H :    0.166088
   2 C :   -0.386672
   3 H :    0.108039
   4 H :    0.099707
   5 H :    0.102851
   6 O :   -0.090209
   7 H :    0.166069
   8 C :   -0.386327
   9 H :    0.108190
  10 H :    0.102551
  11 H :    0.099754
  12 O :   -0.090016
  13 H :    0.165907
  14 C :   -0.386294
  15 H :    0.107897
  16 H :    0.099720
  17 H :    0.102809
  18 O :   -0.090287
  19 H :    0.166034
  20 C :   -0.386178
  21 H :    0.107986
  22 H :    0.102494
  23 H :    0.100016
  24 O :   -0.090093
  25 H :    0.165965
  26 C :   -0.386084
  27 H :    0.108064
  28 H :    0.102820
  29 H :    0.099578
  30 O :   -0.089961
  31 H :    0.166150
  32 C :   -0.386441
  33 H :    0.108157
  34 H :    0.099469
  35 H :    0.102948

  Mayer bond orders larger than 0.100000
B(  0-O ,  1-H ) :   0.7330 B(  0-O ,  2-C ) :   0.8874 B(  0-O ,  7-H ) :   0.1249
B(  1-H , 18-O ) :   0.1250 B(  2-C ,  3-H ) :   0.9407 B(  2-C ,  4-H ) :   0.9423
B(  2-C ,  5-H ) :   0.9371 B(  6-O ,  7-H ) :   0.7310 B(  6-O ,  8-C ) :   0.8891
B(  6-O , 31-H ) :   0.1239 B(  8-C ,  9-H ) :   0.9408 B(  8-C , 10-H ) :   0.9368
B(  8-C , 11-H ) :   0.9421 B( 12-O , 13-H ) :   0.7338 B( 12-O , 14-C ) :   0.8872
B( 12-O , 19-H ) :   0.1255 B( 13-H , 24-O ) :   0.1254 B( 14-C , 15-H ) :   0.9407
B( 14-C , 16-H ) :   0.9418 B( 14-C , 17-H ) :   0.9373 B( 18-O , 19-H ) :   0.7334
B( 18-O , 20-C ) :   0.8871 B( 20-C , 21-H ) :   0.9407 B( 20-C , 22-H ) :   0.9372
B( 20-C , 23-H ) :   0.9419 B( 24-O , 25-H ) :   0.7329 B( 24-O , 26-C ) :   0.8877
B( 25-H , 30-O ) :   0.1252 B( 26-C , 27-H ) :   0.9408 B( 26-C , 28-H ) :   0.9375
B( 26-C , 29-H ) :   0.9415 B( 30-O , 31-H ) :   0.7329 B( 30-O , 32-C ) :   0.8877
B( 32-C , 33-H ) :   0.9408 B( 32-C , 34-H ) :   0.9419 B( 32-C , 35-H ) :   0.9372

MP2 TOTAL ENERGY:     -693.132410433 Eh
FINAL SINGLE POINT ENERGY      -693.132410432558

DIPOLE MOMENT
-------------
                                X             Y             Z
Electronic contribution:     -0.00827       0.05914       0.08746
Nuclear contribution   :      0.00715      -0.07603      -0.09431
                        -----------------------------------------
Total Dipole Moment    :     -0.00112      -0.01689      -0.00685
                        -----------------------------------------
Magnitude (a.u.)       :      0.01826
Magnitude (Debye)      :      0.04642

Rotational constants in cm-1:     0.015527     0.015448     0.009199
Rotational constants in MHz :   465.487741   463.119758   275.791228

                             ****ORCA TERMINATED NORMALLY****
TOTAL RUN TIME: 0 days 0 hours 17 minutes 3 seconds 927 msec
