                         Program Version 3.0.3 - RELEASE   -
|  1> ! wB97X-D3 MA-Def2-TZVP def2-TZVP/J RIJCOSX TightSCF Grid4
|  2>
|  3> %pal nprocs 1 end
|  4>
|  5> %scf
|  6>         maxiter 400
|  7> end
|  8>
|  9> %cosmo
| 10>         SMD true
| 11>         solvent "WATER"
| 12> end
| 13>
| 14> * xyz  0  1
| 15> O  2.058060	1.146415	0.564795
| 16> H  1.473215	1.534133	-0.147809
| 17> H  1.405646	1.034526	1.313103
| 18> O  -0.035310	0.618318	2.216835
| 19> H  -0.107341	-0.371979	2.002888
| 20> H  -0.140860	0.690084	3.185867
| 21> O  -0.166175	-1.811537	1.248646
| 22> H  0.682620	-1.732733	0.655002
| 23> H  -0.037390	-2.607309	1.801101
| 24> O  -1.824273	1.377725	0.327617
| 25> H  -2.028575	0.440047	0.000218
| 26> H  -1.261105	1.202414	1.136796
| 27> O  1.824462	-1.376068	-0.327440
| 28> H  1.261390	-1.201948	-1.136960
| 29> H  2.027249	-0.438196	0.000071
| 30> O  0.167013	1.810406	-1.249586
| 31> H  0.038807	2.607561	-1.800229
| 32> H  -0.681228	1.731835	-0.655496
| 33> O  0.034448	-0.620056	-2.217192
| 34> H  0.107751	0.370191	-2.004270
| 35> H  0.141661	-0.692702	-3.185987
| 36> O  -2.058830	-1.144534	-0.563642
| 37> H  -1.407367	-1.033775	-1.312850
| 38> H  -1.473869	-1.532821	0.148524
| 39> **                         ****END OF INPUT****

CARTESIAN COORDINATES (ANGSTROEM)
---------------------------------
  O      2.058060    1.146415    0.564795
  H      1.473215    1.534133   -0.147809
  H      1.405646    1.034526    1.313103
  O     -0.035310    0.618318    2.216835
  H     -0.107341   -0.371979    2.002888
  H     -0.140860    0.690084    3.185867
  O     -0.166175   -1.811537    1.248646
  H      0.682620   -1.732733    0.655002
  H     -0.037390   -2.607309    1.801101
  O     -1.824273    1.377725    0.327617
  H     -2.028575    0.440047    0.000218
  H     -1.261105    1.202414    1.136796
  O      1.824462   -1.376068   -0.327440
  H      1.261390   -1.201948   -1.136960
  H      2.027249   -0.438196    0.000071
  O      0.167013    1.810406   -1.249586
  H      0.038807    2.607561   -1.800229
  H     -0.681228    1.731835   -0.655496
  O      0.034448   -0.620056   -2.217192
  H      0.107751    0.370191   -2.004270
  H      0.141661   -0.692702   -3.185987
  O     -2.058830   -1.144534   -0.563642
  H     -1.407367   -1.033775   -1.312850
  H     -1.473869   -1.532821    0.148524

 Total Charge           Charge          ....    0
 Multiplicity           Mult            ....    1
 Number of Electrons    NEL             ....   80
 Basis Dimension        Dim             ....  376

ORBITAL ENERGIES
----------------

  NO   OCC          E(Eh)            E(eV)
   0   2.0000     -19.242172      -523.6061
   1   2.0000     -19.242162      -523.6058
   2   2.0000     -19.240882      -523.5710
   3   2.0000     -19.240753      -523.5675
   4   2.0000     -19.228656      -523.2383
   5   2.0000     -19.228545      -523.2353
   6   2.0000     -19.226330      -523.1750
   7   2.0000     -19.226247      -523.1728
   8   2.0000      -1.147941       -31.2371
   9   2.0000      -1.134498       -30.8713
  10   2.0000      -1.128215       -30.7003
  11   2.0000      -1.121191       -30.5092
  12   2.0000      -1.115389       -30.3513
  13   2.0000      -1.108237       -30.1567
  14   2.0000      -1.101838       -29.9825
  15   2.0000      -1.089339       -29.6424
  16   2.0000      -0.650270       -17.6947
  17   2.0000      -0.649451       -17.6725
  18   2.0000      -0.628588       -17.1048
  19   2.0000      -0.628171       -17.0934
  20   2.0000      -0.623906       -16.9774
  21   2.0000      -0.621446       -16.9104
  22   2.0000      -0.616731       -16.7821
  23   2.0000      -0.614555       -16.7229
  24   2.0000      -0.559131       -15.2147
  25   2.0000      -0.535814       -14.5802
  26   2.0000      -0.518877       -14.1194
  27   2.0000      -0.516095       -14.0437
  28   2.0000      -0.511886       -13.9291
  29   2.0000      -0.492569       -13.4035
  30   2.0000      -0.485707       -13.2168
  31   2.0000      -0.462601       -12.5880
  32   2.0000      -0.428134       -11.6501
  33   2.0000      -0.427276       -11.6268
  34   2.0000      -0.421612       -11.4726
  35   2.0000      -0.420239       -11.4353
  36   2.0000      -0.416261       -11.3270
  37   2.0000      -0.412634       -11.2283
  38   2.0000      -0.409328       -11.1384
  39   2.0000      -0.409205       -11.1350
  40   0.0000       0.066902         1.8205
  41   0.0000       0.091133         2.4798
  42   0.0000       0.098288         2.6745
  43   0.0000       0.107379         2.9219
  44   0.0000       0.114568         3.1176

MULLIKEN ATOMIC CHARGES
-----------------------
   0 O :   -0.832456
   1 H :    0.425301
   2 H :    0.423731
   3 O :   -0.848837
   4 H :    0.421417
   5 H :    0.419685
   6 O :   -0.872558
   7 H :    0.435190
   8 H :    0.419731
   9 O :   -0.855621
  10 H :    0.439012
  11 H :    0.426391
  12 O :   -0.856108
  13 H :    0.427230
  14 H :    0.438002
  15 O :   -0.871575
  16 H :    0.419751
  17 H :    0.433398
  18 O :   -0.848291
  19 H :    0.421135
  20 H :    0.419568
  21 O :   -0.832689
  22 H :    0.423642
  23 H :    0.424952
Sum of atomic charges:   -0.0000000

LOEWDIN ATOMIC CHARGES
----------------------
   0 O :   -0.436102
   1 H :    0.198799
   2 H :    0.199758
   3 O :   -0.390741
   4 H :    0.200306
   5 H :    0.220592
   6 O :   -0.391238
   7 H :    0.198392
   8 H :    0.219893
   9 O :   -0.418250
  10 H :    0.199024
  11 H :    0.199226
  12 O :   -0.417925
  13 H :    0.199451
  14 H :    0.198854
  15 O :   -0.391059
  16 H :    0.219950
  17 H :    0.198112
  18 O :   -0.390583
  19 H :    0.200299
  20 H :    0.220586
  21 O :   -0.435895
  22 H :    0.199759
  23 H :    0.198791

  Mayer bond orders larger than 0.1
B(  0-O ,  1-H ) :   0.8078 B(  0-O ,  2-H ) :   0.8095 B(  3-O ,  4-H ) :   0.7681
B(  3-O ,  5-H ) :   0.8303 B(  6-O ,  7-H ) :   0.7245 B(  6-O ,  8-H ) :   0.8297
B(  7-H , 12-O ) :   0.1332 B(  9-O , 10-H ) :   0.7788 B(  9-O , 11-H ) :   0.8071
B(  9-O , 17-H ) :   0.1342 B( 12-O , 13-H ) :   0.8067 B( 12-O , 14-H ) :   0.7792
B( 15-O , 16-H ) :   0.8297 B( 15-O , 17-H ) :   0.7253 B( 18-O , 19-H ) :   0.7687
B( 18-O , 20-H ) :   0.8304 B( 21-O , 22-H ) :   0.8096 B( 21-O , 23-H ) :   0.8080

Dispersion correction           -0.012575925
FINAL SINGLE POINT ENERGY      -611.670314572985

DIPOLE MOMENT
-------------
                                X             Y             Z
Electronic contribution:      0.00205      -0.00188      -0.00115
Nuclear contribution   :      0.00151      -0.00167      -0.00008
                        -----------------------------------------
Total Dipole Moment    :      0.00356      -0.00356      -0.00123
                        -----------------------------------------
Magnitude (a.u.)       :      0.00518
Magnitude (Debye)      :      0.01317

                             ****ORCA TERMINATED NORMALLY****
TOTAL RUN TIME: 0 days 0 hours 6 minutes 43 seconds 491 msec
