                         Program Version 3.0.3 - RELEASE   -
|  1> ! wB97X-D3 MA-Def2-TZVP def2-TZVP/J RIJCOSX TightSCF Grid4
|  2>
|  3> %pal nprocs 1 end
|  4>
|  5> %scf
|  6>         maxiter 400
|  7> end
|  8>
|  9> * xyz  0  1
| 10> O  2.081362	1.195624	0.526618
| 11> H  1.521380	1.597059	-0.170232
| 12> H  1.472937	1.125202	1.289549
| 13> O  -0.036184	0.581440	2.331299
| 14> H  -0.118135	-0.386892	2.115448
| 15> H  -0.149617	0.660074	3.287149
| 16> O  -0.161220	-1.874740	1.344840
| 17> H  0.646613	-1.744242	0.720580
| 18> H  -0.035035	-2.724001	1.788173
| 19> O  -1.747672	1.368368	0.268780
| 20> H  -2.042474	0.458647	-0.009714
| 21> H  -1.268674	1.215851	1.111016
| 22> O  1.747659	-1.368392	-0.268778
| 23> H  1.268650	-1.215860	-1.111008
| 24> H  2.042474	-0.458671	0.009702
| 25> O  0.161203	1.874763	-1.344840
| 26> H  0.035040	2.724014	-1.788199
| 27> H  -0.646631	1.744265	-0.720590
| 28> O  0.036203	-0.581435	-2.331254
| 29> H  0.118140	0.386902	-2.115409
| 30> H  0.149631	-0.660079	-3.287103
| 31> O  -2.081360	-1.195643	-0.526658
| 32> H  -1.472915	-1.125197	-1.289570
| 33> H  -1.521377	-1.597062	0.170201
| 34> **                         ****END OF INPUT****

CARTESIAN COORDINATES (ANGSTROEM)
---------------------------------
  O      2.081362    1.195624    0.526618
  H      1.521380    1.597059   -0.170232
  H      1.472937    1.125202    1.289549
  O     -0.036184    0.581440    2.331299
  H     -0.118135   -0.386892    2.115448
  H     -0.149617    0.660074    3.287149
  O     -0.161220   -1.874740    1.344840
  H      0.646613   -1.744242    0.720580
  H     -0.035035   -2.724001    1.788173
  O     -1.747672    1.368368    0.268780
  H     -2.042474    0.458647   -0.009714
  H     -1.268674    1.215851    1.111016
  O      1.747659   -1.368392   -0.268778
  H      1.268650   -1.215860   -1.111008
  H      2.042474   -0.458671    0.009702
  O      0.161203    1.874763   -1.344840
  H      0.035040    2.724014   -1.788199
  H     -0.646631    1.744265   -0.720590
  O      0.036203   -0.581435   -2.331254
  H      0.118140    0.386902   -2.115409
  H      0.149631   -0.660079   -3.287103
  O     -2.081360   -1.195643   -0.526658
  H     -1.472915   -1.125197   -1.289570
  H     -1.521377   -1.597062    0.170201

 Total Charge           Charge          ....    0
 Multiplicity           Mult            ....    1
 Number of Electrons    NEL             ....   80
 Basis Dimension        Dim             ....  376

ORBITAL ENERGIES
----------------

  NO   OCC          E(Eh)            E(eV)
   0   2.0000     -19.256616      -523.9992
   1   2.0000     -19.256614      -523.9991
   2   2.0000     -19.251143      -523.8502
   3   2.0000     -19.251140      -523.8502
   4   2.0000     -19.226458      -523.1785
   5   2.0000     -19.226457      -523.1785
   6   2.0000     -19.219235      -522.9820
   7   2.0000     -19.219233      -522.9819
   8   2.0000      -1.158087       -31.5131
   9   2.0000      -1.151441       -31.3323
  10   2.0000      -1.140576       -31.0367
  11   2.0000      -1.134611       -30.8743
  12   2.0000      -1.121857       -30.5273
  13   2.0000      -1.115359       -30.3505
  14   2.0000      -1.104695       -30.0603
  15   2.0000      -1.098724       -29.8978
  16   2.0000      -0.671362       -18.2687
  17   2.0000      -0.670182       -18.2366
  18   2.0000      -0.646238       -17.5850
  19   2.0000      -0.644892       -17.5484
  20   2.0000      -0.628441       -17.1008
  21   2.0000      -0.624765       -17.0007
  22   2.0000      -0.623000       -16.9527
  23   2.0000      -0.617701       -16.8085
  24   2.0000      -0.559982       -15.2379
  25   2.0000      -0.535096       -14.5607
  26   2.0000      -0.533321       -14.5124
  27   2.0000      -0.505423       -13.7533
  28   2.0000      -0.505158       -13.7461
  29   2.0000      -0.498852       -13.5745
  30   2.0000      -0.488492       -13.2925
  31   2.0000      -0.462345       -12.5810
  32   2.0000      -0.441887       -12.0244
  33   2.0000      -0.437677       -11.9098
  34   2.0000      -0.433260       -11.7896
  35   2.0000      -0.430443       -11.7130
  36   2.0000      -0.417845       -11.3701
  37   2.0000      -0.414632       -11.2827
  38   2.0000      -0.400837       -10.9073
  39   2.0000      -0.399752       -10.8778
  40   0.0000       0.051028         1.3885
  41   0.0000       0.067044         1.8244
  42   0.0000       0.082960         2.2575
  43   0.0000       0.089674         2.4402
  44   0.0000       0.113514         3.0889

MULLIKEN ATOMIC CHARGES
-----------------------
   0 O :   -0.734560
   1 H :    0.395793
   2 H :    0.393660
   3 O :   -0.794733
   4 H :    0.391896
   5 H :    0.358512
   6 O :   -0.825417
   7 H :    0.421485
   8 H :    0.360020
   9 O :   -0.798193
  10 H :    0.432565
  11 H :    0.398964
  12 O :   -0.798062
  13 H :    0.398904
  14 H :    0.432528
  15 O :   -0.825407
  16 H :    0.360052
  17 H :    0.421448
  18 O :   -0.794752
  19 H :    0.391869
  20 H :    0.358521
  21 O :   -0.734536
  22 H :    0.393685
  23 H :    0.395757
Sum of atomic charges:   -0.0000000

LOEWDIN ATOMIC CHARGES
----------------------
   0 O :   -0.378190
   1 H :    0.187145
   2 H :    0.192068
   3 O :   -0.389232
   4 H :    0.190930
   5 H :    0.191133
   6 O :   -0.399541
   7 H :    0.185391
   8 H :    0.190354
   9 O :   -0.356719
  10 H :    0.195099
  11 H :    0.191555
  12 O :   -0.356714
  13 H :    0.191552
  14 H :    0.195099
  15 O :   -0.399535
  16 H :    0.190356
  17 H :    0.185391
  18 O :   -0.389224
  19 H :    0.190930
  20 H :    0.191132
  21 O :   -0.378189
  22 H :    0.192064
  23 H :    0.187145

  Mayer bond orders larger than 0.1
B(  0-O ,  1-H ) :   0.8563 B(  0-O ,  2-H ) :   0.8703 B(  3-O ,  4-H ) :   0.8004
B(  3-O ,  5-H ) :   0.8766 B(  6-O ,  7-H ) :   0.7187 B(  6-O ,  8-H ) :   0.8754
B(  7-H , 12-O ) :   0.1578 B(  9-O , 10-H ) :   0.8077 B(  9-O , 11-H ) :   0.8603
B(  9-O , 17-H ) :   0.1578 B( 12-O , 13-H ) :   0.8604 B( 12-O , 14-H ) :   0.8077
B( 15-O , 16-H ) :   0.8754 B( 15-O , 17-H ) :   0.7186 B( 18-O , 19-H ) :   0.8004
B( 18-O , 20-H ) :   0.8766 B( 21-O , 22-H ) :   0.8703 B( 21-O , 23-H ) :   0.8563

Dispersion correction           -0.012133041
FINAL SINGLE POINT ENERGY      -611.645478649569

DIPOLE MOMENT
-------------
                                X             Y             Z
Electronic contribution:      0.00000       0.00001      -0.00001
Nuclear contribution   :      0.00002       0.00003      -0.00002
                        -----------------------------------------
Total Dipole Moment    :      0.00002       0.00004      -0.00003
                        -----------------------------------------
Magnitude (a.u.)       :      0.00006
Magnitude (Debye)      :      0.00014

                             ****ORCA TERMINATED NORMALLY****
TOTAL RUN TIME: 0 days 0 hours 6 minutes 5 seconds 795 msec
