                         Program Version 3.0.3 - RELEASE   -
|  1> ! wB97X-D3 MA-Def2-TZVP def2-TZVP/J RIJCOSX TightSCF Grid4
|  2>
|  3> %pal nprocs 1 end
|  4>
|  5> %scf
|  6>         maxiter 400
|  7> end
|  8>
|  9> %cosmo
| 10>         SMD true
| 11>         solvent "WATER"
| 12> end
| 13>
| 14> * xyz  0  1
| 15> O  2.079924	1.257150	0.568982
| 16> H  1.494485	1.603407	-0.142686
| 17> H  1.454672	1.122275	1.316490
| 18> O  -0.002138	0.605424	2.283133
| 19> H  -0.099079	-0.365110	2.092040
| 20> H  -0.133474	0.695370	3.239285
| 21> O  -0.186957	-1.865000	1.315019
| 22> H  0.627139	-1.784383	0.730311
| 23> H  -0.096868	-2.699535	1.799741
| 24> O  -1.800403	1.347315	0.330782
| 25> H  -2.029835	0.436446	0.015123
| 26> H  -1.249160	1.180623	1.131277
| 27> O  1.801076	-1.346244	-0.331569
| 28> H  1.249821	-1.180711	-1.132266
| 29> H  2.029091	-0.435228	-0.015402
| 30> O  0.188051	1.864297	-1.315466
| 31> H  0.099759	2.699670	-1.799108
| 32> H  -0.626313	1.784836	-0.730857
| 33> O  -0.000195	-0.606213	-2.283037
| 34> H  0.098511	0.364083	-2.092123
| 35> H  0.134731	-0.696835	-3.238622
| 36> O  -2.081047	-1.256726	-0.568031
| 37> H  -1.456728	-1.122512	-1.316387
| 38> H  -1.495062	-1.602404	0.143370
| 39> **                         ****END OF INPUT****

CARTESIAN COORDINATES (ANGSTROEM)
---------------------------------
  O      2.079924    1.257150    0.568982
  H      1.494485    1.603407   -0.142686
  H      1.454672    1.122275    1.316490
  O     -0.002138    0.605424    2.283133
  H     -0.099079   -0.365110    2.092040
  H     -0.133474    0.695370    3.239285
  O     -0.186957   -1.865000    1.315019
  H      0.627139   -1.784383    0.730311
  H     -0.096868   -2.699535    1.799741
  O     -1.800403    1.347315    0.330782
  H     -2.029835    0.436446    0.015123
  H     -1.249160    1.180623    1.131277
  O      1.801076   -1.346244   -0.331569
  H      1.249821   -1.180711   -1.132266
  H      2.029091   -0.435228   -0.015402
  O      0.188051    1.864297   -1.315466
  H      0.099759    2.699670   -1.799108
  H     -0.626313    1.784836   -0.730857
  O     -0.000195   -0.606213   -2.283037
  H      0.098511    0.364083   -2.092123
  H      0.134731   -0.696835   -3.238622
  O     -2.081047   -1.256726   -0.568031
  H     -1.456728   -1.122512   -1.316387
  H     -1.495062   -1.602404    0.143370

 Total Charge           Charge          ....    0
 Multiplicity           Mult            ....    1
 Number of Electrons    NEL             ....   80
 Basis Dimension        Dim             ....  376

ORBITAL ENERGIES
----------------

  NO   OCC          E(Eh)            E(eV)
   0   2.0000     -19.241370      -523.5843
   1   2.0000     -19.241249      -523.5810
   2   2.0000     -19.241183      -523.5792
   3   2.0000     -19.241142      -523.5781
   4   2.0000     -19.229386      -523.2582
   5   2.0000     -19.229324      -523.2565
   6   2.0000     -19.225569      -523.1543
   7   2.0000     -19.225557      -523.1540
   8   2.0000      -1.148861       -31.2621
   9   2.0000      -1.138224       -30.9727
  10   2.0000      -1.131830       -30.7987
  11   2.0000      -1.124287       -30.5934
  12   2.0000      -1.121175       -30.5087
  13   2.0000      -1.114331       -30.3225
  14   2.0000      -1.108966       -30.1765
  15   2.0000      -1.098851       -29.9013
  16   2.0000      -0.653267       -17.7763
  17   2.0000      -0.652397       -17.7526
  18   2.0000      -0.633574       -17.2404
  19   2.0000      -0.632109       -17.2006
  20   2.0000      -0.627854       -17.0848
  21   2.0000      -0.625311       -17.0156
  22   2.0000      -0.621669       -16.9165
  23   2.0000      -0.621144       -16.9022
  24   2.0000      -0.551539       -15.0081
  25   2.0000      -0.534592       -14.5470
  26   2.0000      -0.519772       -14.1437
  27   2.0000      -0.511401       -13.9159
  28   2.0000      -0.508859       -13.8468
  29   2.0000      -0.493549       -13.4302
  30   2.0000      -0.488067       -13.2810
  31   2.0000      -0.465487       -12.6665
  32   2.0000      -0.429999       -11.7009
  33   2.0000      -0.429978       -11.7003
  34   2.0000      -0.423699       -11.5294
  35   2.0000      -0.422060       -11.4848
  36   2.0000      -0.420594       -11.4449
  37   2.0000      -0.417808       -11.3691
  38   2.0000      -0.412293       -11.2191
  39   2.0000      -0.412092       -11.2136
  40   0.0000       0.066271         1.8033
  41   0.0000       0.091566         2.4916
  42   0.0000       0.097895         2.6638
  43   0.0000       0.107122         2.9149
  44   0.0000       0.114439         3.1140

MULLIKEN ATOMIC CHARGES
-----------------------
   0 O :   -0.809625
   1 H :    0.414870
   2 H :    0.417068
   3 O :   -0.837873
   4 H :    0.413699
   5 H :    0.416322
   6 O :   -0.844399
   7 H :    0.431669
   8 H :    0.416568
   9 O :   -0.851291
  10 H :    0.418979
  11 H :    0.414364
  12 O :   -0.851365
  13 H :    0.414915
  14 H :    0.418394
  15 O :   -0.843979
  16 H :    0.416580
  17 H :    0.430978
  18 O :   -0.837414
  19 H :    0.413214
  20 H :    0.416182
  21 O :   -0.809552
  22 H :    0.417264
  23 H :    0.414433
Sum of atomic charges:   -0.0000000

LOEWDIN ATOMIC CHARGES
----------------------
   0 O :   -0.427570
   1 H :    0.189873
   2 H :    0.194721
   3 O :   -0.381471
   4 H :    0.194362
   5 H :    0.215019
   6 O :   -0.373655
   7 H :    0.193603
   8 H :    0.215658
   9 O :   -0.408210
  10 H :    0.194149
  11 H :    0.193584
  12 O :   -0.408252
  13 H :    0.193805
  14 H :    0.193972
  15 O :   -0.373633
  16 H :    0.215649
  17 H :    0.193476
  18 O :   -0.381380
  19 H :    0.194251
  20 H :    0.214980
  21 O :   -0.427483
  22 H :    0.194733
  23 H :    0.189816

  Mayer bond orders larger than 0.1
B(  0-O ,  1-H ) :   0.8201 B(  0-O ,  2-H ) :   0.8272 B(  3-O ,  4-H ) :   0.7944
B(  3-O ,  5-H ) :   0.8350 B(  6-O ,  7-H ) :   0.7693 B(  6-O ,  8-H ) :   0.8341
B(  9-O , 10-H ) :   0.8090 B(  9-O , 11-H ) :   0.8213 B( 12-O , 13-H ) :   0.8212
B( 12-O , 14-H ) :   0.8091 B( 15-O , 16-H ) :   0.8341 B( 15-O , 17-H ) :   0.7697
B( 18-O , 19-H ) :   0.7948 B( 18-O , 20-H ) :   0.8352 B( 21-O , 22-H ) :   0.8270
B( 21-O , 23-H ) :   0.8204

Dispersion correction           -0.012147633
FINAL SINGLE POINT ENERGY      -611.680951760841

DIPOLE MOMENT
-------------
                                X             Y             Z
Electronic contribution:      0.00092      -0.00115      -0.00018
Nuclear contribution   :      0.00422      -0.00001       0.00047
                        -----------------------------------------
Total Dipole Moment    :      0.00514      -0.00116       0.00029
                        -----------------------------------------
Magnitude (a.u.)       :      0.00528
Magnitude (Debye)      :      0.01341

                             ****ORCA TERMINATED NORMALLY****
TOTAL RUN TIME: 0 days 0 hours 6 minutes 0 seconds 948 msec
