                         Program Version 3.0.3 - RELEASE   -
|  1> ! wB97X-D3 Def2-TZVP def2-TZVP/J RIJCOSX TightSCF Grid4
|  2>
|  3> %pal nprocs 12 end
|  4>
|  5> %scf
|  6>         maxiter 400
|  7> end
|  8>
|  9> * xyz  0  1
| 10> O  2.051532	1.097154	0.526730
| 11> H  1.482804	1.519451	-0.173114
| 12> H  1.423730	1.043711	1.293118
| 13> O  -0.064418	0.597699	2.244940
| 14> H  -0.120509	-0.396767	2.020135
| 15> H  -0.161931	0.670983	3.211493
| 16> O  -0.131955	-1.814448	1.286191
| 17> H  0.725702	-1.704082	0.638498
| 18> H  -0.004630	-2.643515	1.781636
| 19> O  -1.774149	1.404553	0.274919
| 20> H  -2.035090	0.461960	-0.020397
| 21> H  -1.266315	1.236579	1.115430
| 22> O  1.774148	-1.404554	-0.274919
| 23> H  1.266315	-1.236580	-1.115431
| 24> H  2.035090	-0.461960	0.020397
| 25> O  0.131954	1.814447	-1.286190
| 26> H  0.004631	2.643515	-1.781636
| 27> H  -0.725703	1.704082	-0.638499
| 28> O  0.064419	-0.597699	-2.244940
| 29> H  0.120509	0.396766	-2.020134
| 30> H  0.161929	-0.670982	-3.211494
| 31> O  -2.051532	-1.097154	-0.526730
| 32> H  -1.423729	-1.043712	-1.293118
| 33> H  -1.482805	-1.519452	0.173114
| 34> **                         ****END OF INPUT****

CARTESIAN COORDINATES (ANGSTROEM)
---------------------------------
  O      2.051532    1.097154    0.526730
  H      1.482804    1.519451   -0.173114
  H      1.423730    1.043711    1.293118
  O     -0.064418    0.597699    2.244940
  H     -0.120509   -0.396767    2.020135
  H     -0.161931    0.670983    3.211493
  O     -0.131955   -1.814448    1.286191
  H      0.725702   -1.704082    0.638498
  H     -0.004630   -2.643515    1.781636
  O     -1.774149    1.404553    0.274919
  H     -2.035090    0.461960   -0.020397
  H     -1.266315    1.236579    1.115430
  O      1.774148   -1.404554   -0.274919
  H      1.266315   -1.236580   -1.115431
  H      2.035090   -0.461960    0.020397
  O      0.131954    1.814447   -1.286190
  H      0.004631    2.643515   -1.781636
  H     -0.725703    1.704082   -0.638499
  O      0.064419   -0.597699   -2.244940
  H      0.120509    0.396766   -2.020134
  H      0.161929   -0.670982   -3.211494
  O     -2.051532   -1.097154   -0.526730
  H     -1.423729   -1.043712   -1.293118
  H     -1.482805   -1.519452    0.173114

 Total Charge           Charge          ....    0
 Multiplicity           Mult            ....    1
 Number of Electrons    NEL             ....   80
 Basis Dimension        Dim             ....  344

ORBITAL ENERGIES
----------------

  NO   OCC          E(Eh)            E(eV)
   0   2.0000     -19.254497      -523.9415
   1   2.0000     -19.254496      -523.9415
   2   2.0000     -19.243812      -523.6508
   3   2.0000     -19.243812      -523.6507
   4   2.0000     -19.226404      -523.1770
   5   2.0000     -19.226402      -523.1770
   6   2.0000     -19.218334      -522.9575
   7   2.0000     -19.218332      -522.9574
   8   2.0000      -1.153889       -31.3989
   9   2.0000      -1.144456       -31.1422
  10   2.0000      -1.133315       -30.8391
  11   2.0000      -1.124995       -30.6127
  12   2.0000      -1.117227       -30.4013
  13   2.0000      -1.106543       -30.1106
  14   2.0000      -1.098036       -29.8791
  15   2.0000      -1.088307       -29.6143
  16   2.0000      -0.665774       -18.1166
  17   2.0000      -0.664660       -18.0863
  18   2.0000      -0.637069       -17.3355
  19   2.0000      -0.634901       -17.2765
  20   2.0000      -0.624217       -16.9858
  21   2.0000      -0.618814       -16.8388
  22   2.0000      -0.618701       -16.8357
  23   2.0000      -0.610618       -16.6158
  24   2.0000      -0.565537       -15.3890
  25   2.0000      -0.535252       -14.5649
  26   2.0000      -0.528604       -14.3841
  27   2.0000      -0.509401       -13.8615
  28   2.0000      -0.501902       -13.6575
  29   2.0000      -0.500198       -13.6111
  30   2.0000      -0.485319       -13.2062
  31   2.0000      -0.457138       -12.4394
  32   2.0000      -0.436916       -11.8891
  33   2.0000      -0.433002       -11.7826
  34   2.0000      -0.426727       -11.6118
  35   2.0000      -0.423184       -11.5154
  36   2.0000      -0.411963       -11.2101
  37   2.0000      -0.409187       -11.1346
  38   2.0000      -0.397934       -10.8283
  39   2.0000      -0.397137       -10.8067
  40   0.0000       0.080248         2.1837
  41   0.0000       0.104513         2.8440
  42   0.0000       0.126075         3.4307
  43   0.0000       0.137223         3.7340
  44   0.0000       0.185354         5.0437

MULLIKEN ATOMIC CHARGES
-----------------------
   0 O :   -0.705771
   1 H :    0.363653
   2 H :    0.357075
   3 O :   -0.744570
   4 H :    0.364975
   5 H :    0.353297
   6 O :   -0.779679
   7 H :    0.373028
   8 H :    0.354774
   9 O :   -0.691071
  10 H :    0.389110
  11 H :    0.365184
  12 O :   -0.691062
  13 H :    0.365165
  14 H :    0.389110
  15 O :   -0.779693
  16 H :    0.354784
  17 H :    0.373020
  18 O :   -0.744557
  19 H :    0.364987
  20 H :    0.353291
  21 O :   -0.705776
  22 H :    0.357080
  23 H :    0.363647
Sum of atomic charges:   -0.0000000

LOEWDIN ATOMIC CHARGES
----------------------
   0 O :   -0.300436
   1 H :    0.144633
   2 H :    0.145386
   3 O :   -0.307079
   4 H :    0.143726
   5 H :    0.165088
   6 O :   -0.327667
   7 H :    0.139007
   8 H :    0.159344
   9 O :   -0.259940
  10 H :    0.151971
  11 H :    0.145967
  12 O :   -0.259940
  13 H :    0.145965
  14 H :    0.151972
  15 O :   -0.327668
  16 H :    0.159344
  17 H :    0.139006
  18 O :   -0.307076
  19 H :    0.143726
  20 H :    0.165087
  21 O :   -0.300436
  22 H :    0.145386
  23 H :    0.144633

  Mayer bond orders larger than 0.1
B(  0-O ,  1-H ) :   0.8270 B(  0-O ,  2-H ) :   0.8383 B(  0-O , 14-H ) :   0.1476
B(  3-O ,  4-H ) :   0.7488 B(  3-O ,  5-H ) :   0.8792 B(  4-H ,  6-O ) :   0.1585
B(  6-O ,  7-H ) :   0.6409 B(  6-O ,  8-H ) :   0.8777 B(  7-H , 12-O ) :   0.2813
B(  9-O , 10-H ) :   0.7560 B(  9-O , 11-H ) :   0.8219 B(  9-O , 17-H ) :   0.2813
B( 10-H , 21-O ) :   0.1476 B( 12-O , 13-H ) :   0.8219 B( 12-O , 14-H ) :   0.7560
B( 15-O , 16-H ) :   0.8777 B( 15-O , 17-H ) :   0.6409 B( 15-O , 19-H ) :   0.1585
B( 18-O , 19-H ) :   0.7488 B( 18-O , 20-H ) :   0.8792 B( 21-O , 22-H ) :   0.8383
B( 21-O , 23-H ) :   0.8270

Dispersion correction           -0.012578721
FINAL SINGLE POINT ENERGY      -611.629688578224

DIPOLE MOMENT
-------------
                                X             Y             Z
Electronic contribution:     -0.00000       0.00001       0.00000
Nuclear contribution   :      0.00000       0.00000      -0.00000
                        -----------------------------------------
Total Dipole Moment    :     -0.00000       0.00001       0.00000
                        -----------------------------------------
Magnitude (a.u.)       :      0.00001
Magnitude (Debye)      :      0.00002

                             ****ORCA TERMINATED NORMALLY****
TOTAL RUN TIME: 0 days 0 hours 1 minutes 5 seconds 649 msec
