                         Program Version 4.2.0 -  RELEASE  -
|  1> # 12h2o.su.etal.mol0,1,3,6,11
|  2> ! MP2 def2-TZVP EnGrad TightSCF
|  3>
|  4> %pal
|  5>     nprocs 6
|  6> end
|  7>
|  8> %maxcore 8000
|  9>
| 10> %scf
| 11>     ConvForced true
| 12> end
| 13>
| 14> *xyz 0 1
| 15> O   1.794470000   0.923410000   2.768350000
| 16> H   2.338250000   1.359750000   3.430940000
| 17> H   0.879480000   1.303000000   2.865760000
| 18> O  -1.794470000  -0.923410000   2.768350000
| 19> H  -2.338250000  -1.359750000   3.430940000
| 20> H  -0.879480000  -1.303000000   2.865760000
| 21> O  -1.752130000  -0.741530000  -2.896280000
| 22> H  -2.036450000  -0.920500000  -1.984040000
| 23> H  -0.921210000  -1.242140000  -2.984230000
| 24> O   1.737840000   0.885520000  -0.052730000
| 25> H   2.090180000   1.032320000   0.841890000
| 26> H   0.839590000   1.284090000  -0.017130000
| 27> O  -0.741530000   1.752130000   2.896280000
| 28> H  -0.920500000   2.036450000   1.984040000
| 29> H  -1.242140000   0.921210000   2.984230000
| 30> *
| 31>
| 32>                          ****END OF INPUT****

CARTESIAN COORDINATES (ANGSTROEM)
---------------------------------
  O      1.794470    0.923410    2.768350
  H      2.338250    1.359750    3.430940
  H      0.879480    1.303000    2.865760
  O     -1.794470   -0.923410    2.768350
  H     -2.338250   -1.359750    3.430940
  H     -0.879480   -1.303000    2.865760
  O     -1.752130   -0.741530   -2.896280
  H     -2.036450   -0.920500   -1.984040
  H     -0.921210   -1.242140   -2.984230
  O      1.737840    0.885520   -0.052730
  H      2.090180    1.032320    0.841890
  H      0.839590    1.284090   -0.017130
  O     -0.741530    1.752130    2.896280
  H     -0.920500    2.036450    1.984040
  H     -1.242140    0.921210    2.984230

 Total Charge           Charge          ....    0
 Multiplicity           Mult            ....    1
 Number of Electrons    NEL             ....   50
 Basis Dimension        Dim             ....  215

ORBITAL ENERGIES
----------------

  NO   OCC          E(Eh)            E(eV)
   0   2.0000     -20.606885      -560.7418
   1   2.0000     -20.586792      -560.1951
   2   2.0000     -20.557094      -559.3870
   3   2.0000     -20.546920      -559.1101
   4   2.0000     -20.529086      -558.6248
   5   2.0000      -1.386657       -37.7329
   6   2.0000      -1.373796       -37.3829
   7   2.0000      -1.336323       -36.3632
   8   2.0000      -1.331598       -36.2346
   9   2.0000      -1.307163       -35.5697
  10   2.0000      -0.753501       -20.5038
  11   2.0000      -0.734797       -19.9948
  12   2.0000      -0.715320       -19.4648
  13   2.0000      -0.699187       -19.0258
  14   2.0000      -0.676508       -18.4087
  15   2.0000      -0.633916       -17.2497
  16   2.0000      -0.609193       -16.5770
  17   2.0000      -0.577881       -15.7249
  18   2.0000      -0.574006       -15.6195
  19   2.0000      -0.551332       -15.0025
  20   2.0000      -0.546934       -14.8828
  21   2.0000      -0.521647       -14.1947
  22   2.0000      -0.501248       -13.6396
  23   2.0000      -0.494113       -13.4455
  24   2.0000      -0.474685       -12.9168
  25   0.0000       0.088024         2.3953
  26   0.0000       0.120421         3.2768
  27   0.0000       0.136589         3.7168
  28   0.0000       0.156938         4.2705
  29   0.0000       0.182566         4.9679

MULLIKEN ATOMIC CHARGES
-----------------------
   0 O :   -0.740109
   1 H :    0.337209
   2 H :    0.365167
   3 O :   -0.705946
   4 H :    0.359254
   5 H :    0.371806
   6 O :   -0.677056
   7 H :    0.334670
   8 H :    0.342648
   9 O :   -0.692545
  10 H :    0.369480
  11 H :    0.304765
  12 O :   -0.696076
  13 H :    0.348277
  14 H :    0.378455
Sum of atomic charges:   -0.0000000

LOEWDIN ATOMIC CHARGES
----------------------
   0 O :   -0.343297
   1 H :    0.153596
   2 H :    0.141517
   3 O :   -0.311783
   4 H :    0.167008
   5 H :    0.192771
   6 O :   -0.333190
   7 H :    0.164216
   8 H :    0.169137
   9 O :   -0.348436
  10 H :    0.149574
  11 H :    0.154743
  12 O :   -0.278752
  13 H :    0.167731
  14 H :    0.155164

  Mayer bond orders larger than 0.100000
B(  0-O ,  1-H ) :   0.8503 B(  0-O ,  2-H ) :   0.7616 B(  3-O ,  4-H ) :   0.8377
B(  3-O ,  5-H ) :   0.8217 B(  6-O ,  7-H ) :   0.8547 B(  6-O ,  8-H ) :   0.8498
B(  9-O , 10-H ) :   0.8110 B(  9-O , 11-H ) :   0.8680 B( 12-O , 13-H ) :   0.8426
B( 12-O , 14-H ) :   0.7935

MP2 TOTAL ENERGY:     -381.592420560 Eh
FINAL SINGLE POINT ENERGY      -381.592420559535

DIPOLE MOMENT
-------------
                                X             Y             Z
Electronic contribution:     -0.26235      -0.06852      -0.08153
Nuclear contribution   :     -0.56508      -0.56668       2.03947
                        -----------------------------------------
Total Dipole Moment    :     -0.82744      -0.63520       1.95794
                        -----------------------------------------
Magnitude (a.u.)       :      2.21848
Magnitude (Debye)      :      5.63892

Rotational constants in cm-1:     0.058742     0.030079     0.022310
Rotational constants in MHz :  1761.046534   901.741479   668.850682

                             ****ORCA TERMINATED NORMALLY****
TOTAL RUN TIME: 0 days 0 hours 0 minutes 30 seconds 800 msec
