                         Program Version 4.2.0 -  RELEASE  -
|  1> # 12h2o.su.etal.mol1,2,3,6,7,8,9,11
|  2> ! MP2 def2-TZVP EnGrad TightSCF
|  3>
|  4> %pal
|  5>     nprocs 6
|  6> end
|  7>
|  8> %maxcore 8000
|  9>
| 10> %scf
| 11>     ConvForced true
| 12> end
| 13>
| 14> *xyz 0 1
| 15> O  -1.794470000  -0.923410000   2.768350000
| 16> H  -2.338250000  -1.359750000   3.430940000
| 17> H  -0.879480000  -1.303000000   2.865760000
| 18> O   0.923410000  -1.794470000  -2.768350000
| 19> H   1.359750000  -2.338250000  -3.430940000
| 20> H   1.303000000  -0.879480000  -2.865760000
| 21> O  -1.752130000  -0.741530000  -2.896280000
| 22> H  -2.036450000  -0.920500000  -1.984040000
| 23> H  -0.921210000  -1.242140000  -2.984230000
| 24> O   1.737840000   0.885520000  -0.052730000
| 25> H   2.090180000   1.032320000   0.841890000
| 26> H   0.839590000   1.284090000  -0.017130000
| 27> O  -1.737840000  -0.885520000  -0.052730000
| 28> H  -2.090180000  -1.032320000   0.841890000
| 29> H  -0.839590000  -1.284090000  -0.017130000
| 30> O   1.752130000   0.741530000  -2.896280000
| 31> H   2.036450000   0.920500000  -1.984040000
| 32> H   0.921210000   1.242140000  -2.984230000
| 33> O   0.741530000  -1.752130000   2.896280000
| 34> H   0.920500000  -2.036450000   1.984040000
| 35> H   1.242140000  -0.921210000   2.984230000
| 36> O  -0.741530000   1.752130000   2.896280000
| 37> H  -0.920500000   2.036450000   1.984040000
| 38> H  -1.242140000   0.921210000   2.984230000
| 39> *
| 40>
| 41>                          ****END OF INPUT****

CARTESIAN COORDINATES (ANGSTROEM)
---------------------------------
  O     -1.794470   -0.923410    2.768350
  H     -2.338250   -1.359750    3.430940
  H     -0.879480   -1.303000    2.865760
  O      0.923410   -1.794470   -2.768350
  H      1.359750   -2.338250   -3.430940
  H      1.303000   -0.879480   -2.865760
  O     -1.752130   -0.741530   -2.896280
  H     -2.036450   -0.920500   -1.984040
  H     -0.921210   -1.242140   -2.984230
  O      1.737840    0.885520   -0.052730
  H      2.090180    1.032320    0.841890
  H      0.839590    1.284090   -0.017130
  O     -1.737840   -0.885520   -0.052730
  H     -2.090180   -1.032320    0.841890
  H     -0.839590   -1.284090   -0.017130
  O      1.752130    0.741530   -2.896280
  H      2.036450    0.920500   -1.984040
  H      0.921210    1.242140   -2.984230
  O      0.741530   -1.752130    2.896280
  H      0.920500   -2.036450    1.984040
  H      1.242140   -0.921210    2.984230
  O     -0.741530    1.752130    2.896280
  H     -0.920500    2.036450    1.984040
  H     -1.242140    0.921210    2.984230

 Total Charge           Charge          ....    0
 Multiplicity           Mult            ....    1
 Number of Electrons    NEL             ....   80
 Basis Dimension        Dim             ....  344

ORBITAL ENERGIES
----------------

  NO   OCC          E(Eh)            E(eV)
   0   2.0000     -20.626484      -561.2752
   1   2.0000     -20.611024      -560.8545
   2   2.0000     -20.585539      -560.1610
   3   2.0000     -20.573864      -559.8433
   4   2.0000     -20.562143      -559.5244
   5   2.0000     -20.557350      -559.3939
   6   2.0000     -20.536749      -558.8333
   7   2.0000     -20.494305      -557.6784
   8   2.0000      -1.412755       -38.4430
   9   2.0000      -1.389749       -37.8170
  10   2.0000      -1.372245       -37.3407
  11   2.0000      -1.362244       -37.0685
  12   2.0000      -1.343023       -36.5455
  13   2.0000      -1.338850       -36.4320
  14   2.0000      -1.320327       -35.9279
  15   2.0000      -1.279367       -34.8133
  16   2.0000      -0.768571       -20.9139
  17   2.0000      -0.754020       -20.5179
  18   2.0000      -0.752635       -20.4802
  19   2.0000      -0.722958       -19.6727
  20   2.0000      -0.712312       -19.3830
  21   2.0000      -0.708124       -19.2690
  22   2.0000      -0.704361       -19.1666
  23   2.0000      -0.657293       -17.8858
  24   2.0000      -0.653855       -17.7923
  25   2.0000      -0.635508       -17.2930
  26   2.0000      -0.617212       -16.7952
  27   2.0000      -0.601569       -16.3695
  28   2.0000      -0.590661       -16.0727
  29   2.0000      -0.577572       -15.7165
  30   2.0000      -0.564308       -15.3556
  31   2.0000      -0.556550       -15.1445
  32   2.0000      -0.554015       -15.0755
  33   2.0000      -0.532868       -14.5001
  34   2.0000      -0.522081       -14.2065
  35   2.0000      -0.509384       -13.8611
  36   2.0000      -0.505212       -13.7475
  37   2.0000      -0.503140       -13.6911
  38   2.0000      -0.482157       -13.1202
  39   2.0000      -0.444682       -12.1004
  40   0.0000       0.062550         1.7021
  41   0.0000       0.113059         3.0765
  42   0.0000       0.126305         3.4369
  43   0.0000       0.134355         3.6560
  44   0.0000       0.153378         4.1736

MULLIKEN ATOMIC CHARGES
-----------------------
   0 O :   -0.752195
   1 H :    0.356346
   2 H :    0.381991
   3 O :   -0.743311
   4 H :    0.336275
   5 H :    0.382323
   6 O :   -0.738657
   7 H :    0.364927
   8 H :    0.346288
   9 O :   -0.701860
  10 H :    0.352282
  11 H :    0.353083
  12 O :   -0.711924
  13 H :    0.373945
  14 H :    0.327094
  15 O :   -0.699471
  16 H :    0.384095
  17 H :    0.355871
  18 O :   -0.679640
  19 H :    0.364137
  20 H :    0.365093
  21 O :   -0.710391
  22 H :    0.327199
  23 H :    0.366500
Sum of atomic charges:   -0.0000000

LOEWDIN ATOMIC CHARGES
----------------------
   0 O :   -0.312335
   1 H :    0.162265
   2 H :    0.145600
   3 O :   -0.343725
   4 H :    0.153274
   5 H :    0.145572
   6 O :   -0.361728
   7 H :    0.147777
   8 H :    0.140322
   9 O :   -0.316075
  10 H :    0.169871
  11 H :    0.175825
  12 O :   -0.324737
  13 H :    0.150884
  14 H :    0.162141
  15 O :   -0.275028
  16 H :    0.158626
  17 H :    0.173306
  18 O :   -0.263344
  19 H :    0.175249
  20 H :    0.177291
  21 O :   -0.346077
  22 H :    0.156795
  23 H :    0.148252

  Mayer bond orders larger than 0.100000
B(  0-O ,  1-H ) :   0.8370 B(  0-O ,  2-H ) :   0.7508 B(  3-O ,  4-H ) :   0.8511
B(  3-O ,  5-H ) :   0.7579 B(  6-O ,  7-H ) :   0.8265 B(  6-O ,  8-H ) :   0.8194
B(  9-O , 10-H ) :   0.8396 B(  9-O , 11-H ) :   0.8301 B( 12-O , 13-H ) :   0.8050
B( 12-O , 14-H ) :   0.8464 B( 15-O , 16-H ) :   0.8062 B( 15-O , 17-H ) :   0.8344
B( 18-O , 19-H ) :   0.8322 B( 18-O , 20-H ) :   0.8284 B( 21-O , 22-H ) :   0.8570
B( 21-O , 23-H ) :   0.8079

MP2 TOTAL ENERGY:     -610.569819756 Eh
FINAL SINGLE POINT ENERGY      -610.569819756222

DIPOLE MOMENT
-------------
                                X             Y             Z
Electronic contribution:      0.28956       0.05095       0.30018
Nuclear contribution   :      0.98813      -0.37017       1.54856
                        -----------------------------------------
Total Dipole Moment    :      1.27769      -0.31922       1.84874
                        -----------------------------------------
Magnitude (a.u.)       :      2.26985
Magnitude (Debye)      :      5.76950

Rotational constants in cm-1:     0.033934     0.015440     0.013775
Rotational constants in MHz :  1017.301740   462.894022   412.977678

                             ****ORCA TERMINATED NORMALLY****
TOTAL RUN TIME: 0 days 0 hours 2 minutes 45 seconds 601 msec
