                         Program Version 4.2.0 -  RELEASE  -
|  1> # 12h2o.su.etal.mol1,5,7,8,9,10,11
|  2> ! MP2 def2-TZVP EnGrad TightSCF
|  3>
|  4> %pal
|  5>     nprocs 6
|  6> end
|  7>
|  8> %maxcore 8000
|  9>
| 10> %scf
| 11>     ConvForced true
| 12> end
| 13>
| 14> *xyz 0 1
| 15> O  -1.794470000  -0.923410000   2.768350000
| 16> H  -2.338250000  -1.359750000   3.430940000
| 17> H  -0.879480000  -1.303000000   2.865760000
| 18> O   0.885520000  -1.737840000   0.052730000
| 19> H   1.284090000  -0.839590000   0.017130000
| 20> H   1.032320000  -2.090180000  -0.841890000
| 21> O  -1.737840000  -0.885520000  -0.052730000
| 22> H  -2.090180000  -1.032320000   0.841890000
| 23> H  -0.839590000  -1.284090000  -0.017130000
| 24> O   1.752130000   0.741530000  -2.896280000
| 25> H   2.036450000   0.920500000  -1.984040000
| 26> H   0.921210000   1.242140000  -2.984230000
| 27> O   0.741530000  -1.752130000   2.896280000
| 28> H   0.920500000  -2.036450000   1.984040000
| 29> H   1.242140000  -0.921210000   2.984230000
| 30> O  -0.923410000   1.794470000  -2.768350000
| 31> H  -1.359750000   2.338250000  -3.430940000
| 32> H  -1.303000000   0.879480000  -2.865760000
| 33> O  -0.741530000   1.752130000   2.896280000
| 34> H  -0.920500000   2.036450000   1.984040000
| 35> H  -1.242140000   0.921210000   2.984230000
| 36> *
| 37>
| 38>                          ****END OF INPUT****

CARTESIAN COORDINATES (ANGSTROEM)
---------------------------------
  O     -1.794470   -0.923410    2.768350
  H     -2.338250   -1.359750    3.430940
  H     -0.879480   -1.303000    2.865760
  O      0.885520   -1.737840    0.052730
  H      1.284090   -0.839590    0.017130
  H      1.032320   -2.090180   -0.841890
  O     -1.737840   -0.885520   -0.052730
  H     -2.090180   -1.032320    0.841890
  H     -0.839590   -1.284090   -0.017130
  O      1.752130    0.741530   -2.896280
  H      2.036450    0.920500   -1.984040
  H      0.921210    1.242140   -2.984230
  O      0.741530   -1.752130    2.896280
  H      0.920500   -2.036450    1.984040
  H      1.242140   -0.921210    2.984230
  O     -0.923410    1.794470   -2.768350
  H     -1.359750    2.338250   -3.430940
  H     -1.303000    0.879480   -2.865760
  O     -0.741530    1.752130    2.896280
  H     -0.920500    2.036450    1.984040
  H     -1.242140    0.921210    2.984230

 Total Charge           Charge          ....    0
 Multiplicity           Mult            ....    1
 Number of Electrons    NEL             ....   70
 Basis Dimension        Dim             ....  301

ORBITAL ENERGIES
----------------

  NO   OCC          E(Eh)            E(eV)
   0   2.0000     -20.624607      -561.2241
   1   2.0000     -20.589128      -560.2587
   2   2.0000     -20.586372      -560.1836
   3   2.0000     -20.560732      -559.4860
   4   2.0000     -20.551077      -559.2232
   5   2.0000     -20.529643      -558.6400
   6   2.0000     -20.514246      -558.2210
   7   2.0000      -1.407961       -38.3126
   8   2.0000      -1.378359       -37.5071
   9   2.0000      -1.364345       -37.1257
  10   2.0000      -1.346395       -36.6373
  11   2.0000      -1.332660       -36.2635
  12   2.0000      -1.311699       -35.6932
  13   2.0000      -1.298503       -35.3341
  14   2.0000      -0.767610       -20.8877
  15   2.0000      -0.738308       -20.0904
  16   2.0000      -0.731614       -19.9082
  17   2.0000      -0.728217       -19.8158
  18   2.0000      -0.700544       -19.0628
  19   2.0000      -0.686557       -18.6822
  20   2.0000      -0.681122       -18.5343
  21   2.0000      -0.652886       -17.7659
  22   2.0000      -0.614566       -16.7232
  23   2.0000      -0.607108       -16.5202
  24   2.0000      -0.596882       -16.2420
  25   2.0000      -0.572488       -15.5782
  26   2.0000      -0.570029       -15.5113
  27   2.0000      -0.552143       -15.0246
  28   2.0000      -0.531173       -14.4539
  29   2.0000      -0.526486       -14.3264
  30   2.0000      -0.524490       -14.2721
  31   2.0000      -0.502170       -13.6647
  32   2.0000      -0.498076       -13.5533
  33   2.0000      -0.477697       -12.9988
  34   2.0000      -0.464706       -12.6453
  35   0.0000       0.077318         2.1039
  36   0.0000       0.120974         3.2919
  37   0.0000       0.134605         3.6628
  38   0.0000       0.148196         4.0326
  39   0.0000       0.161715         4.4005

MULLIKEN ATOMIC CHARGES
-----------------------
   0 O :   -0.748313
   1 H :    0.346898
   2 H :    0.381899
   3 O :   -0.711998
   4 H :    0.357708
   5 H :    0.380780
   6 O :   -0.734438
   7 H :    0.364380
   8 H :    0.334589
   9 O :   -0.700835
  10 H :    0.317014
  11 H :    0.364745
  12 O :   -0.697579
  13 H :    0.387211
  14 H :    0.357464
  15 O :   -0.699466
  16 H :    0.351925
  17 H :    0.370273
  18 O :   -0.719308
  19 H :    0.334769
  20 H :    0.362281
Sum of atomic charges:    0.0000000

LOEWDIN ATOMIC CHARGES
----------------------
   0 O :   -0.312782
   1 H :    0.157545
   2 H :    0.146208
   3 O :   -0.277599
   4 H :    0.178692
   5 H :    0.182876
   6 O :   -0.370395
   7 H :    0.145117
   8 H :    0.132421
   9 O :   -0.345151
  10 H :    0.152990
  11 H :    0.150186
  12 O :   -0.271966
  13 H :    0.158671
  14 H :    0.173944
  15 O :   -0.311200
  16 H :    0.163626
  17 H :    0.191602
  18 O :   -0.352702
  19 H :    0.161563
  20 H :    0.146353

  Mayer bond orders larger than 0.100000
B(  0-O ,  1-H ) :   0.8421 B(  0-O ,  2-H ) :   0.7460 B(  3-O ,  4-H ) :   0.8270
B(  3-O ,  5-H ) :   0.8208 B(  6-O ,  7-H ) :   0.8196 B(  6-O ,  8-H ) :   0.8236
B(  9-O , 10-H ) :   0.8638 B(  9-O , 11-H ) :   0.8075 B( 12-O , 13-H ) :   0.8047
B( 12-O , 14-H ) :   0.8339 B( 15-O , 16-H ) :   0.8418 B( 15-O , 17-H ) :   0.8220
B( 18-O , 19-H ) :   0.8532 B( 18-O , 20-H ) :   0.8112

MP2 TOTAL ENERGY:     -534.243520667 Eh
FINAL SINGLE POINT ENERGY      -534.243520666522

DIPOLE MOMENT
-------------
                                X             Y             Z
Electronic contribution:      0.18082      -0.20172       0.05337
Nuclear contribution   :      0.08320      -0.42202      -0.68611
                        -----------------------------------------
Total Dipole Moment    :      0.26402      -0.62374      -0.63274
                        -----------------------------------------
Magnitude (a.u.)       :      0.92689
Magnitude (Debye)      :      2.35596

Rotational constants in cm-1:     0.042551     0.018358     0.016126
Rotational constants in MHz :  1275.658318   550.359544   483.447339

                             ****ORCA TERMINATED NORMALLY****
TOTAL RUN TIME: 0 days 0 hours 1 minutes 48 seconds 418 msec
