                         Program Version 4.2.0 -  RELEASE  -
|  1> # 12h2o.su.etal.mol4,7,9,10
|  2> ! MP2 def2-TZVP EnGrad TightSCF
|  3>
|  4> %pal
|  5>     nprocs 6
|  6> end
|  7>
|  8> %maxcore 8000
|  9>
| 10> %scf
| 11>     ConvForced true
| 12> end
| 13>
| 14> *xyz 0 1
| 15> O  -0.885520000   1.737840000   0.052730000
| 16> H  -1.032320000   2.090180000  -0.841890000
| 17> H  -1.284090000   0.839590000   0.017130000
| 18> O  -1.737840000  -0.885520000  -0.052730000
| 19> H  -2.090180000  -1.032320000   0.841890000
| 20> H  -0.839590000  -1.284090000  -0.017130000
| 21> O   0.741530000  -1.752130000   2.896280000
| 22> H   0.920500000  -2.036450000   1.984040000
| 23> H   1.242140000  -0.921210000   2.984230000
| 24> O  -0.923410000   1.794470000  -2.768350000
| 25> H  -1.359750000   2.338250000  -3.430940000
| 26> H  -1.303000000   0.879480000  -2.865760000
| 27> *
| 28>
| 29>                          ****END OF INPUT****

CARTESIAN COORDINATES (ANGSTROEM)
---------------------------------
  O     -0.885520    1.737840    0.052730
  H     -1.032320    2.090180   -0.841890
  H     -1.284090    0.839590    0.017130
  O     -1.737840   -0.885520   -0.052730
  H     -2.090180   -1.032320    0.841890
  H     -0.839590   -1.284090   -0.017130
  O      0.741530   -1.752130    2.896280
  H      0.920500   -2.036450    1.984040
  H      1.242140   -0.921210    2.984230
  O     -0.923410    1.794470   -2.768350
  H     -1.359750    2.338250   -3.430940
  H     -1.303000    0.879480   -2.865760

 Total Charge           Charge          ....    0
 Multiplicity           Mult            ....    1
 Number of Electrons    NEL             ....   40
 Basis Dimension        Dim             ....  172

ORBITAL ENERGIES
----------------

  NO   OCC          E(Eh)            E(eV)
   0   2.0000     -20.595344      -560.4278
   1   2.0000     -20.580321      -560.0190
   2   2.0000     -20.573748      -559.8401
   3   2.0000     -20.498418      -557.7903
   4   2.0000      -1.375789       -37.4371
   5   2.0000      -1.358139       -36.9569
   6   2.0000      -1.352711       -36.8091
   7   2.0000      -1.283124       -34.9156
   8   2.0000      -0.734438       -19.9851
   9   2.0000      -0.725012       -19.7286
  10   2.0000      -0.715574       -19.4718
  11   2.0000      -0.669122       -18.2077
  12   2.0000      -0.616387       -16.7727
  13   2.0000      -0.595009       -16.1910
  14   2.0000      -0.590048       -16.0560
  15   2.0000      -0.553444       -15.0600
  16   2.0000      -0.523136       -14.2352
  17   2.0000      -0.517375       -14.0785
  18   2.0000      -0.500794       -13.6273
  19   2.0000      -0.449440       -12.2299
  20   0.0000       0.088195         2.3999
  21   0.0000       0.120500         3.2790
  22   0.0000       0.156005         4.2451
  23   0.0000       0.172848         4.7034
  24   0.0000       0.192654         5.2424

MULLIKEN ATOMIC CHARGES
-----------------------
   0 O :   -0.734506
   1 H :    0.359281
   2 H :    0.333806
   3 O :   -0.681402
   4 H :    0.365913
   5 H :    0.345196
   6 O :   -0.672311
   7 H :    0.325236
   8 H :    0.350464
   9 O :   -0.691832
  10 H :    0.346445
  11 H :    0.353710
Sum of atomic charges:    0.0000000

LOEWDIN ATOMIC CHARGES
----------------------
   0 O :   -0.372688
   1 H :    0.143890
   2 H :    0.133249
   3 O :   -0.291290
   4 H :    0.176493
   5 H :    0.173243
   6 O :   -0.328773
   7 H :    0.158593
   8 H :    0.172961
   9 O :   -0.310697
  10 H :    0.160628
  11 H :    0.184391

  Mayer bond orders larger than 0.100000
B(  0-O ,  1-H ) :   0.8292 B(  0-O ,  2-H ) :   0.8190 B(  3-O ,  4-H ) :   0.8326
B(  3-O ,  5-H ) :   0.8408 B(  6-O ,  7-H ) :   0.8586 B(  6-O ,  8-H ) :   0.8447
B(  9-O , 10-H ) :   0.8448 B(  9-O , 11-H ) :   0.8348

MP2 TOTAL ENERGY:     -305.264275787 Eh
FINAL SINGLE POINT ENERGY      -305.264275787091

DIPOLE MOMENT
-------------
                                X             Y             Z
Electronic contribution:     -0.03392      -0.05763       0.11463
Nuclear contribution   :     -0.11304      -0.76235      -1.31870
                        -----------------------------------------
Total Dipole Moment    :     -0.14696      -0.81998      -1.20407
                        -----------------------------------------
Magnitude (a.u.)       :      1.46415
Magnitude (Debye)      :      3.72158

Rotational constants in cm-1:     0.202423     0.035778     0.033293
Rotational constants in MHz :  6068.487491  1072.603843   998.098376

                             ****ORCA TERMINATED NORMALLY****
TOTAL RUN TIME: 0 days 0 hours 0 minutes 17 seconds 625 msec
