                         Program Version 4.2.0 -  RELEASE  -
|  1> # 12mecn.remya.etal.2.mol8,9,11
|  2> ! MP2 def2-TZVP EnGrad TightSCF
|  3>
|  4> %pal
|  5>     nprocs 6
|  6> end
|  7>
|  8> %maxcore 8000
|  9>
| 10> %scf
| 11>     ConvForced true
| 12> end
| 13>
| 14> *xyz 0 1
| 15> C   1.912641000  -2.468050000  -1.750510000
| 16> H   2.876947000  -2.793500000  -2.151200000
| 17> H   1.688016000  -1.463720000  -2.122170000
| 18> H   1.123460000  -3.154780000  -2.069590000
| 19> C   1.977850000  -2.444240000  -0.306900000
| 20> N   2.036566000  -2.426130000   0.858249000
| 21> C   0.923766000   4.000693000  -1.575910000
| 22> H   0.011949000   4.478423000  -1.939550000
| 23> H   0.947903000   2.966558000  -1.929960000
| 24> H   1.805950000   4.519548000  -1.956520000
| 25> C   0.942834000   3.994846000  -0.131200000
| 26> N   0.960035000   3.982544000   1.035639000
| 27> C   4.214163000   3.378139000   1.593627000
| 28> H   3.242643000   3.657109000   2.012358000
| 29> H   4.969258000   4.086643000   1.941290000
| 30> H   4.482966000   2.372549000   1.931698000
| 31> C   4.130759000   3.388436000   0.150192000
| 32> N   4.050180000   3.381449000  -1.013420000
| 33> *
| 34>
| 35>                          ****END OF INPUT****

CARTESIAN COORDINATES (ANGSTROEM)
---------------------------------
  C      1.912641   -2.468050   -1.750510
  H      2.876947   -2.793500   -2.151200
  H      1.688016   -1.463720   -2.122170
  H      1.123460   -3.154780   -2.069590
  C      1.977850   -2.444240   -0.306900
  N      2.036566   -2.426130    0.858249
  C      0.923766    4.000693   -1.575910
  H      0.011949    4.478423   -1.939550
  H      0.947903    2.966558   -1.929960
  H      1.805950    4.519548   -1.956520
  C      0.942834    3.994846   -0.131200
  N      0.960035    3.982544    1.035639
  C      4.214163    3.378139    1.593627
  H      3.242643    3.657109    2.012358
  H      4.969258    4.086643    1.941290
  H      4.482966    2.372549    1.931698
  C      4.130759    3.388436    0.150192
  N      4.050180    3.381449   -1.013420

 Total Charge           Charge          ....    0
 Multiplicity           Mult            ....    1
 Number of Electrons    NEL             ....   66
 Basis Dimension        Dim             ....  333

ORBITAL ENERGIES
----------------

  NO   OCC          E(Eh)            E(eV)
   0   2.0000     -15.573115      -423.7660
   1   2.0000     -15.570526      -423.6956
   2   2.0000     -15.570399      -423.6921
   3   2.0000     -11.285314      -307.0890
   4   2.0000     -11.282793      -307.0204
   5   2.0000     -11.282141      -307.0027
   6   2.0000     -11.280164      -306.9489
   7   2.0000     -11.273384      -306.7644
   8   2.0000     -11.269775      -306.6662
   9   2.0000      -1.217781       -33.1375
  10   2.0000      -1.214521       -33.0488
  11   2.0000      -1.213097       -33.0100
  12   2.0000      -1.043926       -28.4067
  13   2.0000      -1.036651       -28.2087
  14   2.0000      -1.032477       -28.0951
  15   2.0000      -0.699674       -19.0391
  16   2.0000      -0.694977       -18.9113
  17   2.0000      -0.690327       -18.7848
  18   2.0000      -0.632897       -17.2220
  19   2.0000      -0.631197       -17.1757
  20   2.0000      -0.631097       -17.1730
  21   2.0000      -0.621794       -16.9199
  22   2.0000      -0.618832       -16.8393
  23   2.0000      -0.614800       -16.7295
  24   2.0000      -0.558820       -15.2063
  25   2.0000      -0.555893       -15.1266
  26   2.0000      -0.555428       -15.1140
  27   2.0000      -0.462106       -12.5745
  28   2.0000      -0.458222       -12.4689
  29   2.0000      -0.457739       -12.4557
  30   2.0000      -0.457467       -12.4483
  31   2.0000      -0.456691       -12.4272
  32   2.0000      -0.452862       -12.3230
  33   0.0000       0.105322         2.8659
  34   0.0000       0.132610         3.6085
  35   0.0000       0.143005         3.8914
  36   0.0000       0.164609         4.4792
  37   0.0000       0.171365         4.6631

MULLIKEN ATOMIC CHARGES
-----------------------
   0 C :   -0.277040
   1 H :    0.172938
   2 H :    0.170641
   3 H :    0.171779
   4 C :   -0.145737
   5 N :   -0.092585
   6 C :   -0.266740
   7 H :    0.170652
   8 H :    0.163581
   9 H :    0.191330
  10 C :   -0.112960
  11 N :   -0.145952
  12 C :   -0.287019
  13 H :    0.205781
  14 H :    0.165606
  15 H :    0.171748
  16 C :   -0.109104
  17 N :   -0.146918
Sum of atomic charges:   -0.0000000

LOEWDIN ATOMIC CHARGES
----------------------
   0 C :   -0.283611
   1 H :    0.153138
   2 H :    0.152424
   3 H :    0.152302
   4 C :   -0.219804
   5 N :    0.045550
   6 C :   -0.284590
   7 H :    0.148728
   8 H :    0.154459
   9 H :    0.156329
  10 C :   -0.209697
  11 N :    0.031873
  12 C :   -0.281351
  13 H :    0.157694
  14 H :    0.149858
  15 H :    0.154643
  16 C :   -0.207770
  17 N :    0.029827

  Mayer bond orders larger than 0.100000
B(  0-C ,  1-H ) :   0.9160 B(  0-C ,  2-H ) :   0.9166 B(  0-C ,  3-H ) :   0.9166
B(  0-C ,  4-C ) :   0.9019 B(  4-C ,  5-N ) :   2.8369 B(  6-C ,  7-H ) :   0.9125
B(  6-C ,  8-H ) :   0.9167 B(  6-C ,  9-H ) :   0.9078 B(  6-C , 10-C ) :   0.9088
B( 10-C , 11-N ) :   2.7705 B( 12-C , 13-H ) :   0.9017 B( 12-C , 14-H ) :   0.9160
B( 12-C , 15-H ) :   0.9129 B( 12-C , 16-C ) :   0.9015 B( 16-C , 17-N ) :   2.7889

MP2 TOTAL ENERGY:     -397.459484371 Eh
FINAL SINGLE POINT ENERGY      -397.459484371411

DIPOLE MOMENT
-------------
                                X             Y             Z
Electronic contribution:      0.00148       0.08277       3.14467
Nuclear contribution   :      0.00063      -0.10442      -4.63518
                        -----------------------------------------
Total Dipole Moment    :      0.00211      -0.02164      -1.49051
                        -----------------------------------------
Magnitude (a.u.)       :      1.49067
Magnitude (Debye)      :      3.78899

Rotational constants in cm-1:     0.043748     0.014163     0.012969
Rotational constants in MHz :  1311.527470   424.595398   388.785925

                             ****ORCA TERMINATED NORMALLY****
TOTAL RUN TIME: 0 days 0 hours 3 minutes 18 seconds 241 msec
