                         Program Version 4.2.0 -  RELEASE  -
|  1> ! MP2 def2-TZVP EnGrad TightSCF FrozenCore
|  2>
|  3> %pal
|  4>     nprocs 12
|  5> end
|  6>
|  7> %maxcore 8000
|  8>
|  9> %scf
| 10>     ConvForced true
| 11> end
| 12>
| 13> *xyz 0 1
| 14> C     2.187232     0.688544     2.546978
| 15> H     2.873415     0.835755     1.707898
| 16> H     2.293335    -0.338903     2.902233
| 17> H     2.423754     1.391633     3.349774
| 18> C     0.820607     0.908177     2.083024
| 19> N    -0.267068     1.101265     1.721175
| 20> C    -1.246131    -1.984593     0.710960
| 21> H    -0.353240    -2.500060     1.075291
| 22> H    -2.045611    -2.697942     0.495647
| 23> H    -1.591930    -1.286369     1.478570
| 24> C    -0.910068    -1.237657    -0.497725
| 25> N    -0.646542    -0.640984    -1.460482
| 26> C    -3.306737     1.234532    -0.233099
| 27> H    -4.025177     2.041336    -0.066613
| 28> H    -2.896854     1.310767    -1.244508
| 29> H    -2.483834     1.323138     0.484984
| 30> C    -3.959426    -0.062722    -0.071195
| 31> N    -4.458394    -1.102897     0.066042
| 32> C     2.712898    -1.536128    -1.811176
| 33> H     3.524222    -0.810207    -1.901336
| 34> H     1.823134    -1.131670    -2.302808
| 35> H     2.998963    -2.478723    -2.284915
| 36> C     2.411360    -1.758434    -0.400082
| 37> N     2.164458    -1.949413     0.719456
| 38> C     0.199262     2.491679    -1.419201
| 39> H     0.307305     3.533975    -1.730069
| 40> H    -0.450162     2.431104    -0.540742
| 41> H    -0.246914     1.901523    -2.223398
| 42> C     1.503591     1.934597    -1.073306
| 43> N     2.546699     1.507268    -0.790629
| 44> *
| 45>
| 46>                          ****END OF INPUT****

CARTESIAN COORDINATES (ANGSTROEM)
---------------------------------
  C      2.187232    0.688544    2.546978
  H      2.873415    0.835755    1.707898
  H      2.293335   -0.338903    2.902233
  H      2.423754    1.391633    3.349774
  C      0.820607    0.908177    2.083024
  N     -0.267068    1.101265    1.721175
  C     -1.246131   -1.984593    0.710960
  H     -0.353240   -2.500060    1.075291
  H     -2.045611   -2.697942    0.495647
  H     -1.591930   -1.286369    1.478570
  C     -0.910068   -1.237657   -0.497725
  N     -0.646542   -0.640984   -1.460482
  C     -3.306737    1.234532   -0.233099
  H     -4.025177    2.041336   -0.066613
  H     -2.896854    1.310767   -1.244508
  H     -2.483834    1.323138    0.484984
  C     -3.959426   -0.062722   -0.071195
  N     -4.458394   -1.102897    0.066042
  C      2.712898   -1.536128   -1.811176
  H      3.524222   -0.810207   -1.901336
  H      1.823134   -1.131670   -2.302808
  H      2.998963   -2.478723   -2.284915
  C      2.411360   -1.758434   -0.400082
  N      2.164458   -1.949413    0.719456
  C      0.199262    2.491679   -1.419201
  H      0.307305    3.533975   -1.730069
  H     -0.450162    2.431104   -0.540742
  H     -0.246914    1.901523   -2.223398
  C      1.503591    1.934597   -1.073306
  N      2.546699    1.507268   -0.790629

 Total Charge           Charge          ....    0
 Multiplicity           Mult            ....    1
 Number of Electrons    NEL             ....  110
 Basis Dimension        Dim             ....  555

ORBITAL ENERGIES
----------------

  NO   OCC          E(Eh)            E(eV)
   0   2.0000     -15.571793      -423.7300
   1   2.0000     -15.571011      -423.7087
   2   2.0000     -15.566218      -423.5783
   3   2.0000     -15.565456      -423.5576
   4   2.0000     -15.564408      -423.5291
   5   2.0000     -11.288071      -307.1640
   6   2.0000     -11.285526      -307.0948
   7   2.0000     -11.281405      -306.9826
   8   2.0000     -11.280988      -306.9713
   9   2.0000     -11.275244      -306.8150
  10   2.0000     -11.273201      -306.7594
  11   2.0000     -11.270555      -306.6874
  12   2.0000     -11.267283      -306.5984
  13   2.0000     -11.266724      -306.5832
  14   2.0000     -11.258835      -306.3685
  15   2.0000      -1.223477       -33.2925
  16   2.0000      -1.219317       -33.1793
  17   2.0000      -1.216850       -33.1122
  18   2.0000      -1.214155       -33.0388
  19   2.0000      -1.211392       -32.9637
  20   2.0000      -1.032872       -28.1059
  21   2.0000      -1.028093       -27.9758
  22   2.0000      -1.027363       -27.9560
  23   2.0000      -1.025811       -27.9137
  24   2.0000      -1.019913       -27.7532
  25   2.0000      -0.694647       -18.9023
  26   2.0000      -0.687947       -18.7200
  27   2.0000      -0.685861       -18.6632
  28   2.0000      -0.685484       -18.6530
  29   2.0000      -0.679559       -18.4917
  30   2.0000      -0.631947       -17.1961
  31   2.0000      -0.627143       -17.0654
  32   2.0000      -0.623824       -16.9751
  33   2.0000      -0.621127       -16.9017
  34   2.0000      -0.618690       -16.8354
  35   2.0000      -0.616444       -16.7743
  36   2.0000      -0.613215       -16.6864
  37   2.0000      -0.608696       -16.5635
  38   2.0000      -0.605871       -16.4866
  39   2.0000      -0.600171       -16.3315
  40   2.0000      -0.562264       -15.3000
  41   2.0000      -0.559102       -15.2139
  42   2.0000      -0.556206       -15.1351
  43   2.0000      -0.553802       -15.0697
  44   2.0000      -0.551007       -14.9937
  45   2.0000      -0.472115       -12.8469
  46   2.0000      -0.464848       -12.6491
  47   2.0000      -0.463837       -12.6216
  48   2.0000      -0.462820       -12.5940
  49   2.0000      -0.457896       -12.4600
  50   2.0000      -0.457171       -12.4402
  51   2.0000      -0.455546       -12.3961
  52   2.0000      -0.452814       -12.3217
  53   2.0000      -0.452642       -12.3170
  54   2.0000      -0.450644       -12.2626
  55   0.0000       0.125297         3.4095
  56   0.0000       0.141696         3.8558
  57   0.0000       0.151180         4.1138
  58   0.0000       0.151372         4.1190
  59   0.0000       0.158919         4.3244

MULLIKEN ATOMIC CHARGES
-----------------------
   0 C :   -0.282030
   1 H :    0.196121
   2 H :    0.184980
   3 H :    0.169983
   4 C :   -0.070154
   5 N :   -0.190970
   6 C :   -0.296264
   7 H :    0.196243
   8 H :    0.189408
   9 H :    0.180554
  10 C :   -0.070111
  11 N :   -0.198746
  12 C :   -0.289611
  13 H :    0.171983
  14 H :    0.170628
  15 H :    0.183454
  16 C :   -0.146689
  17 N :   -0.099951
  18 C :   -0.289836
  19 H :    0.183509
  20 H :    0.190452
  21 H :    0.170357
  22 C :   -0.068904
  23 N :   -0.184457
  24 C :   -0.292818
  25 H :    0.172549
  26 H :    0.180435
  27 H :    0.186026
  28 C :   -0.068253
  29 N :   -0.177888
Sum of atomic charges:   -0.0000000

LOEWDIN ATOMIC CHARGES
----------------------
   0 C :   -0.281412
   1 H :    0.156462
   2 H :    0.154753
   3 H :    0.147523
   4 C :   -0.190808
   5 N :    0.021086
   6 C :   -0.282666
   7 H :    0.152705
   8 H :    0.153913
   9 H :    0.153642
  10 C :   -0.198930
  11 N :    0.024304
  12 C :   -0.290356
  13 H :    0.147660
  14 H :    0.151319
  15 H :    0.152431
  16 C :   -0.213911
  17 N :    0.039642
  18 C :   -0.284391
  19 H :    0.153532
  20 H :    0.154591
  21 H :    0.147328
  22 C :   -0.198437
  23 N :    0.028773
  24 C :   -0.286402
  25 H :    0.147062
  26 H :    0.151870
  27 H :    0.153087
  28 C :   -0.197444
  29 N :    0.033076

  Mayer bond orders larger than 0.100000
B(  0-C ,  1-H ) :   0.9092 B(  0-C ,  2-H ) :   0.9131 B(  0-C ,  3-H ) :   0.9082
B(  0-C ,  4-C ) :   0.8950 B(  4-C ,  5-N ) :   2.7183 B(  6-C ,  7-H ) :   0.9019
B(  6-C ,  8-H ) :   0.9079 B(  6-C ,  9-H ) :   0.9124 B(  6-C , 10-C ) :   0.8948
B( 10-C , 11-N ) :   2.7115 B( 12-C , 13-H ) :   0.9109 B( 12-C , 14-H ) :   0.9143
B( 12-C , 15-H ) :   0.9037 B( 12-C , 16-C ) :   0.9133 B( 16-C , 17-N ) :   2.8259
B( 18-C , 19-H ) :   0.9141 B( 18-C , 20-H ) :   0.9110 B( 18-C , 21-H ) :   0.9108
B( 18-C , 22-C ) :   0.8944 B( 22-C , 23-N ) :   2.7261 B( 24-C , 25-H ) :   0.9104
B( 24-C , 26-H ) :   0.9112 B( 24-C , 27-H ) :   0.9114 B( 24-C , 28-C ) :   0.9036
B( 28-C , 29-N ) :   2.7262

MP2 TOTAL ENERGY:     -662.460129952 Eh
FINAL SINGLE POINT ENERGY      -662.460129952315

DIPOLE MOMENT
-------------
                                X             Y             Z
Electronic contribution:     -1.28915      -2.46077       0.58873
Nuclear contribution   :      2.16036       3.54167      -0.80364
                        -----------------------------------------
Total Dipole Moment    :      0.87121       1.08090      -0.21491
                        -----------------------------------------
Magnitude (a.u.)       :      1.40482
Magnitude (Debye)      :      3.57078

Rotational constants in cm-1:     0.020495     0.011378     0.010604
Rotational constants in MHz :   614.434287   341.105915   317.888805

                             ****ORCA TERMINATED NORMALLY****
TOTAL RUN TIME: 0 days 0 hours 24 minutes 2 seconds 346 msec
