                         Program Version 4.2.0 -  RELEASE  -
|  1> ! MP2 def2-TZVP EnGrad TightSCF FrozenCore
|  2>
|  3> %pal
|  4>     nprocs 12
|  5> end
|  6>
|  7> %maxcore 8000
|  8>
|  9> %scf
| 10>     ConvForced true
| 11> end
| 12>
| 13> *xyz 0 1
| 14> C    -1.686134    -2.385727     1.700814
| 15> H    -1.996439    -3.406609     1.937658
| 16> H    -1.031656    -2.009784     2.491622
| 17> H    -1.119184    -2.375160     0.765079
| 18> C    -2.856472    -1.523774     1.560305
| 19> N    -3.774998    -0.821924     1.439380
| 20> C    -3.733619     0.174738    -1.833462
| 21> H    -3.581218     1.195588    -2.192288
| 22> H    -4.273701     0.212004    -0.882546
| 23> H    -4.311471    -0.399793    -2.561886
| 24> C    -2.437735    -0.459383    -1.612298
| 25> N    -1.408268    -0.967724    -1.428547
| 26> C     1.686111    -2.385419    -1.701111
| 27> H     1.031657    -2.009281    -2.491845
| 28> H     1.119164    -2.374984    -0.765372
| 29> H     1.996339    -3.406280    -1.938147
| 30> C     2.856513    -1.523576    -1.560449
| 31> N     3.775090    -0.821813    -1.439409
| 32> C     1.114809     1.501769    -1.588134
| 33> H     0.372322     2.147673    -2.064682
| 34> H     0.624421     0.561000    -1.309864
| 35> H     1.934659     1.290609    -2.279527
| 36> C     1.633423     2.149374    -0.386776
| 37> N     2.026004     2.652839     0.584635
| 38> C     3.733567     0.174507     1.833561
| 39> H     4.273673     0.211895     0.882663
| 40> H     4.311393    -0.400134     2.561919
| 41> H     3.581176     1.195310     2.192525
| 42> C     2.437678    -0.459562     1.612279
| 43> N     1.408208    -0.967865     1.428437
| 44> C    -1.114809     1.501644     1.588258
| 45> H    -0.624472     0.560873     1.309904
| 46> H    -1.934670     1.290464     2.279632
| 47> H    -0.372289     2.147468     2.064863
| 48> C    -1.633391     2.149385     0.386958
| 49> N    -2.025945     2.652957    -0.584408
| 50> *
| 51>
| 52>                          ****END OF INPUT****

CARTESIAN COORDINATES (ANGSTROEM)
---------------------------------
  C     -1.686134   -2.385727    1.700814
  H     -1.996439   -3.406609    1.937658
  H     -1.031656   -2.009784    2.491622
  H     -1.119184   -2.375160    0.765079
  C     -2.856472   -1.523774    1.560305
  N     -3.774998   -0.821924    1.439380
  C     -3.733619    0.174738   -1.833462
  H     -3.581218    1.195588   -2.192288
  H     -4.273701    0.212004   -0.882546
  H     -4.311471   -0.399793   -2.561886
  C     -2.437735   -0.459383   -1.612298
  N     -1.408268   -0.967724   -1.428547
  C      1.686111   -2.385419   -1.701111
  H      1.031657   -2.009281   -2.491845
  H      1.119164   -2.374984   -0.765372
  H      1.996339   -3.406280   -1.938147
  C      2.856513   -1.523576   -1.560449
  N      3.775090   -0.821813   -1.439409
  C      1.114809    1.501769   -1.588134
  H      0.372322    2.147673   -2.064682
  H      0.624421    0.561000   -1.309864
  H      1.934659    1.290609   -2.279527
  C      1.633423    2.149374   -0.386776
  N      2.026004    2.652839    0.584635
  C      3.733567    0.174507    1.833561
  H      4.273673    0.211895    0.882663
  H      4.311393   -0.400134    2.561919
  H      3.581176    1.195310    2.192525
  C      2.437678   -0.459562    1.612279
  N      1.408208   -0.967865    1.428437
  C     -1.114809    1.501644    1.588258
  H     -0.624472    0.560873    1.309904
  H     -1.934670    1.290464    2.279632
  H     -0.372289    2.147468    2.064863
  C     -1.633391    2.149385    0.386958
  N     -2.025945    2.652957   -0.584408

 Total Charge           Charge          ....    0
 Multiplicity           Mult            ....    1
 Number of Electrons    NEL             ....  132
 Basis Dimension        Dim             ....  666

ORBITAL ENERGIES
----------------

  NO   OCC          E(Eh)            E(eV)
   0   2.0000     -15.573941      -423.7885
   1   2.0000     -15.573941      -423.7885
   2   2.0000     -15.573481      -423.7759
   3   2.0000     -15.573480      -423.7759
   4   2.0000     -15.564263      -423.5251
   5   2.0000     -15.564262      -423.5251
   6   2.0000     -11.291479      -307.2568
   7   2.0000     -11.291479      -307.2568
   8   2.0000     -11.285807      -307.1024
   9   2.0000     -11.285806      -307.1024
  10   2.0000     -11.277334      -306.8718
  11   2.0000     -11.277333      -306.8718
  12   2.0000     -11.273441      -306.7659
  13   2.0000     -11.273440      -306.7659
  14   2.0000     -11.268590      -306.6339
  15   2.0000     -11.268590      -306.6339
  16   2.0000     -11.262311      -306.4631
  17   2.0000     -11.262310      -306.4630
  18   2.0000      -1.226325       -33.3700
  19   2.0000      -1.225840       -33.3568
  20   2.0000      -1.221082       -33.2273
  21   2.0000      -1.220920       -33.2229
  22   2.0000      -1.214083       -33.0369
  23   2.0000      -1.211716       -32.9725
  24   2.0000      -1.033549       -28.1243
  25   2.0000      -1.032349       -28.0917
  26   2.0000      -1.029752       -28.0210
  27   2.0000      -1.029290       -28.0084
  28   2.0000      -1.022557       -27.8252
  29   2.0000      -1.021564       -27.7982
  30   2.0000      -0.696698       -18.9581
  31   2.0000      -0.692350       -18.8398
  32   2.0000      -0.689594       -18.7648
  33   2.0000      -0.688939       -18.7470
  34   2.0000      -0.682668       -18.5763
  35   2.0000      -0.681294       -18.5390
  36   2.0000      -0.633590       -17.2409
  37   2.0000      -0.628077       -17.0908
  38   2.0000      -0.624837       -17.0027
  39   2.0000      -0.623778       -16.9739
  40   2.0000      -0.622992       -16.9525
  41   2.0000      -0.621558       -16.9134
  42   2.0000      -0.621465       -16.9109
  43   2.0000      -0.611265       -16.6334
  44   2.0000      -0.609871       -16.5954
  45   2.0000      -0.606014       -16.4905
  46   2.0000      -0.604708       -16.4549
  47   2.0000      -0.601843       -16.3770
  48   2.0000      -0.566449       -15.4139
  49   2.0000      -0.564830       -15.3698
  50   2.0000      -0.560407       -15.2494
  51   2.0000      -0.558884       -15.2080
  52   2.0000      -0.553289       -15.0558
  53   2.0000      -0.551666       -15.0116
  54   2.0000      -0.473673       -12.8893
  55   2.0000      -0.470360       -12.7991
  56   2.0000      -0.469124       -12.7655
  57   2.0000      -0.466720       -12.7001
  58   2.0000      -0.464868       -12.6497
  59   2.0000      -0.464144       -12.6300
  60   2.0000      -0.461538       -12.5591
  61   2.0000      -0.459185       -12.4951
  62   2.0000      -0.454416       -12.3653
  63   2.0000      -0.454306       -12.3623
  64   2.0000      -0.452866       -12.3231
  65   2.0000      -0.447610       -12.1801
  66   0.0000       0.122285         3.3275
  67   0.0000       0.139496         3.7959
  68   0.0000       0.144298         3.9265
  69   0.0000       0.150917         4.1067
  70   0.0000       0.153412         4.1745

MULLIKEN ATOMIC CHARGES
-----------------------
   0 C :   -0.262622
   1 H :    0.173524
   2 H :    0.173999
   3 H :    0.181582
   4 C :   -0.121976
   5 N :   -0.143128
   6 C :   -0.290347
   7 H :    0.192813
   8 H :    0.203131
   9 H :    0.166701
  10 C :   -0.060930
  11 N :   -0.208836
  12 C :   -0.262632
  13 H :    0.174000
  14 H :    0.181583
  15 H :    0.173524
  16 C :   -0.121977
  17 N :   -0.143120
  18 C :   -0.297034
  19 H :    0.193859
  20 H :    0.170316
  21 H :    0.186921
  22 C :   -0.113690
  23 N :   -0.144284
  24 C :   -0.290343
  25 H :    0.203131
  26 H :    0.166702
  27 H :    0.192811
  28 C :   -0.060929
  29 N :   -0.208839
  30 C :   -0.297032
  31 H :    0.170318
  32 H :    0.186921
  33 H :    0.193858
  34 C :   -0.113691
  35 N :   -0.144285
Sum of atomic charges:   -0.0000000

LOEWDIN ATOMIC CHARGES
----------------------
   0 C :   -0.285946
   1 H :    0.148589
   2 H :    0.152359
   3 H :    0.152057
   4 C :   -0.210265
   5 N :    0.032515
   6 C :   -0.279792
   7 H :    0.155846
   8 H :    0.158348
   9 H :    0.147857
  10 C :   -0.194473
  11 N :    0.017657
  12 C :   -0.285948
  13 H :    0.152358
  14 H :    0.152057
  15 H :    0.148589
  16 C :   -0.210267
  17 N :    0.032516
  18 C :   -0.283839
  19 H :    0.155023
  20 H :    0.153457
  21 H :    0.151844
  22 C :   -0.203763
  23 N :    0.032530
  24 C :   -0.279793
  25 H :    0.158349
  26 H :    0.147857
  27 H :    0.155846
  28 C :   -0.194473
  29 N :    0.017656
  30 C :   -0.283839
  31 H :    0.153456
  32 H :    0.151844
  33 H :    0.155022
  34 C :   -0.203763
  35 N :    0.032529

  Mayer bond orders larger than 0.100000
B(  0-C ,  1-H ) :   0.9106 B(  0-C ,  2-H ) :   0.9121 B(  0-C ,  3-H ) :   0.9100
B(  0-C ,  4-C ) :   0.9054 B(  4-C ,  5-N ) :   2.7571 B(  6-C ,  7-H ) :   0.9105
B(  6-C ,  8-H ) :   0.9048 B(  6-C ,  9-H ) :   0.9100 B(  6-C , 10-C ) :   0.8917
B( 10-C , 11-N ) :   2.6983 B( 12-C , 13-H ) :   0.9121 B( 12-C , 14-H ) :   0.9100
B( 12-C , 15-H ) :   0.9106 B( 12-C , 16-C ) :   0.9054 B( 16-C , 17-N ) :   2.7571
B( 18-C , 19-H ) :   0.9043 B( 18-C , 20-H ) :   0.9103 B( 18-C , 21-H ) :   0.9064
B( 18-C , 22-C ) :   0.9115 B( 22-C , 23-N ) :   2.7600 B( 24-C , 25-H ) :   0.9048
B( 24-C , 26-H ) :   0.9100 B( 24-C , 27-H ) :   0.9105 B( 24-C , 28-C ) :   0.8917
B( 28-C , 29-N ) :   2.6983 B( 30-C , 31-H ) :   0.9103 B( 30-C , 32-H ) :   0.9064
B( 30-C , 33-H ) :   0.9043 B( 30-C , 34-C ) :   0.9115 B( 34-C , 35-N ) :   2.7600

MP2 TOTAL ENERGY:     -794.954224423 Eh
FINAL SINGLE POINT ENERGY      -794.954224422988

DIPOLE MOMENT
-------------
                                X             Y             Z
Electronic contribution:      0.00020       3.84014       0.00022
Nuclear contribution   :     -0.00030      -5.59484      -0.00029
                        -----------------------------------------
Total Dipole Moment    :     -0.00010      -1.75470      -0.00007
                        -----------------------------------------
Magnitude (a.u.)       :      1.75470
Magnitude (Debye)      :      4.46009

Rotational constants in cm-1:     0.014128     0.008201     0.007689
Rotational constants in MHz :   423.543152   245.862219   230.497731

                             ****ORCA TERMINATED NORMALLY****
TOTAL RUN TIME: 0 days 0 hours 32 minutes 39 seconds 473 msec
