                         Program Version 4.2.0 -  RELEASE  -
|  1> # 12h2o.su.etal.mol1,2,5,6,7
|  2> ! MP2 def2-TZVP EnGrad TightSCF
|  3>
|  4> %pal
|  5>     nprocs 6
|  6> end
|  7>
|  8> %maxcore 8000
|  9>
| 10> %scf
| 11>     ConvForced true
| 12> end
| 13>
| 14> *xyz 0 1
| 15> O  -1.794470000  -0.923410000   2.768350000
| 16> H  -2.338250000  -1.359750000   3.430940000
| 17> H  -0.879480000  -1.303000000   2.865760000
| 18> O   0.923410000  -1.794470000  -2.768350000
| 19> H   1.359750000  -2.338250000  -3.430940000
| 20> H   1.303000000  -0.879480000  -2.865760000
| 21> O   0.885520000  -1.737840000   0.052730000
| 22> H   1.284090000  -0.839590000   0.017130000
| 23> H   1.032320000  -2.090180000  -0.841890000
| 24> O   1.737840000   0.885520000  -0.052730000
| 25> H   2.090180000   1.032320000   0.841890000
| 26> H   0.839590000   1.284090000  -0.017130000
| 27> O  -1.737840000  -0.885520000  -0.052730000
| 28> H  -2.090180000  -1.032320000   0.841890000
| 29> H  -0.839590000  -1.284090000  -0.017130000
| 30> *
| 31>
| 32>                          ****END OF INPUT****

CARTESIAN COORDINATES (ANGSTROEM)
---------------------------------
  O     -1.794470   -0.923410    2.768350
  H     -2.338250   -1.359750    3.430940
  H     -0.879480   -1.303000    2.865760
  O      0.923410   -1.794470   -2.768350
  H      1.359750   -2.338250   -3.430940
  H      1.303000   -0.879480   -2.865760
  O      0.885520   -1.737840    0.052730
  H      1.284090   -0.839590    0.017130
  H      1.032320   -2.090180   -0.841890
  O      1.737840    0.885520   -0.052730
  H      2.090180    1.032320    0.841890
  H      0.839590    1.284090   -0.017130
  O     -1.737840   -0.885520   -0.052730
  H     -2.090180   -1.032320    0.841890
  H     -0.839590   -1.284090   -0.017130

 Total Charge           Charge          ....    0
 Multiplicity           Mult            ....    1
 Number of Electrons    NEL             ....   50
 Basis Dimension        Dim             ....  215

ORBITAL ENERGIES
----------------

  NO   OCC          E(Eh)            E(eV)
   0   2.0000     -20.596083      -560.4479
   1   2.0000     -20.579645      -560.0006
   2   2.0000     -20.573618      -559.8366
   3   2.0000     -20.527145      -558.5720
   4   2.0000     -20.481431      -557.3281
   5   2.0000      -1.376983       -37.4696
   6   2.0000      -1.357617       -36.9426
   7   2.0000      -1.351517       -36.7766
   8   2.0000      -1.315968       -35.8093
   9   2.0000      -1.265539       -34.4371
  10   2.0000      -0.734548       -19.9881
  11   2.0000      -0.724258       -19.7081
  12   2.0000      -0.718410       -19.5489
  13   2.0000      -0.692808       -18.8523
  14   2.0000      -0.648874       -17.6568
  15   2.0000      -0.620108       -16.8740
  16   2.0000      -0.598443       -16.2845
  17   2.0000      -0.588659       -16.0182
  18   2.0000      -0.566010       -15.4019
  19   2.0000      -0.536093       -14.5878
  20   2.0000      -0.526008       -14.3134
  21   2.0000      -0.514560       -14.0019
  22   2.0000      -0.498583       -13.5671
  23   2.0000      -0.465961       -12.6794
  24   2.0000      -0.432678       -11.7738
  25   0.0000       0.102089         2.7780
  26   0.0000       0.125937         3.4269
  27   0.0000       0.136169         3.7053
  28   0.0000       0.184444         5.0190
  29   0.0000       0.201482         5.4826

MULLIKEN ATOMIC CHARGES
-----------------------
   0 O :   -0.694453
   1 H :    0.344719
   2 H :    0.355735
   3 O :   -0.689247
   4 H :    0.347063
   5 H :    0.357352
   6 O :   -0.731553
   7 H :    0.346592
   8 H :    0.374337
   9 O :   -0.694375
  10 H :    0.357411
  11 H :    0.371558
  12 O :   -0.743622
  13 H :    0.352497
  14 H :    0.345986
Sum of atomic charges:   -0.0000000

LOEWDIN ATOMIC CHARGES
----------------------
   0 O :   -0.312462
   1 H :    0.159624
   2 H :    0.185000
   3 O :   -0.307383
   4 H :    0.161232
   5 H :    0.186442
   6 O :   -0.322662
   7 H :    0.136758
   8 H :    0.149469
   9 O :   -0.293580
  10 H :    0.173314
  11 H :    0.185005
  12 O :   -0.376132
  13 H :    0.140776
  14 H :    0.134599

  Mayer bond orders larger than 0.100000
B(  0-O ,  1-H ) :   0.8457 B(  0-O ,  2-H ) :   0.8329 B(  3-O ,  4-H ) :   0.8446
B(  3-O ,  5-H ) :   0.8325 B(  6-O ,  7-H ) :   0.7987 B(  6-O ,  8-H ) :   0.8105
B(  9-O , 10-H ) :   0.8383 B(  9-O , 11-H ) :   0.8218 B( 12-O , 13-H ) :   0.8340
B( 12-O , 14-H ) :   0.7987

MP2 TOTAL ENERGY:     -381.594669578 Eh
FINAL SINGLE POINT ENERGY      -381.594669578191

DIPOLE MOMENT
-------------
                                X             Y             Z
Electronic contribution:      0.04651       0.12906      -0.19361
Nuclear contribution   :      1.44207       0.08423       0.77428
                        -----------------------------------------
Total Dipole Moment    :      1.48858       0.21329       0.58067
                        -----------------------------------------
Magnitude (a.u.)       :      1.61200
Magnitude (Debye)      :      4.09737

Rotational constants in cm-1:     0.092352     0.038926     0.031832
Rotational constants in MHz :  2768.639580  1166.963086   954.309937

                             ****ORCA TERMINATED NORMALLY****
TOTAL RUN TIME: 0 days 0 hours 0 minutes 38 seconds 210 msec
