                         Program Version 4.2.0 -  RELEASE  -
|  1> # 12h2o.su.etal.mol0,1,2,4,10,11
|  2> ! MP2 def2-TZVP EnGrad TightSCF
|  3>
|  4> %pal
|  5>     nprocs 6
|  6> end
|  7>
|  8> %maxcore 8000
|  9>
| 10> %scf
| 11>     ConvForced true
| 12> end
| 13>
| 14> *xyz 0 1
| 15> O   1.794470000   0.923410000   2.768350000
| 16> H   2.338250000   1.359750000   3.430940000
| 17> H   0.879480000   1.303000000   2.865760000
| 18> O  -1.794470000  -0.923410000   2.768350000
| 19> H  -2.338250000  -1.359750000   3.430940000
| 20> H  -0.879480000  -1.303000000   2.865760000
| 21> O   0.923410000  -1.794470000  -2.768350000
| 22> H   1.359750000  -2.338250000  -3.430940000
| 23> H   1.303000000  -0.879480000  -2.865760000
| 24> O  -0.885520000   1.737840000   0.052730000
| 25> H  -1.032320000   2.090180000  -0.841890000
| 26> H  -1.284090000   0.839590000   0.017130000
| 27> O  -0.923410000   1.794470000  -2.768350000
| 28> H  -1.359750000   2.338250000  -3.430940000
| 29> H  -1.303000000   0.879480000  -2.865760000
| 30> O  -0.741530000   1.752130000   2.896280000
| 31> H  -0.920500000   2.036450000   1.984040000
| 32> H  -1.242140000   0.921210000   2.984230000
| 33> *
| 34>
| 35>                          ****END OF INPUT****

CARTESIAN COORDINATES (ANGSTROEM)
---------------------------------
  O      1.794470    0.923410    2.768350
  H      2.338250    1.359750    3.430940
  H      0.879480    1.303000    2.865760
  O     -1.794470   -0.923410    2.768350
  H     -2.338250   -1.359750    3.430940
  H     -0.879480   -1.303000    2.865760
  O      0.923410   -1.794470   -2.768350
  H      1.359750   -2.338250   -3.430940
  H      1.303000   -0.879480   -2.865760
  O     -0.885520    1.737840    0.052730
  H     -1.032320    2.090180   -0.841890
  H     -1.284090    0.839590    0.017130
  O     -0.923410    1.794470   -2.768350
  H     -1.359750    2.338250   -3.430940
  H     -1.303000    0.879480   -2.865760
  O     -0.741530    1.752130    2.896280
  H     -0.920500    2.036450    1.984040
  H     -1.242140    0.921210    2.984230

 Total Charge           Charge          ....    0
 Multiplicity           Mult            ....    1
 Number of Electrons    NEL             ....   60
 Basis Dimension        Dim             ....  258

ORBITAL ENERGIES
----------------

  NO   OCC          E(Eh)            E(eV)
   0   2.0000     -20.595231      -560.4247
   1   2.0000     -20.585451      -560.1586
   2   2.0000     -20.565204      -559.6076
   3   2.0000     -20.547482      -559.1254
   4   2.0000     -20.526475      -558.5538
   5   2.0000     -20.492518      -557.6298
   6   2.0000      -1.373144       -37.3651
   7   2.0000      -1.363325       -37.0980
   8   2.0000      -1.340523       -36.4775
   9   2.0000      -1.330383       -36.2016
  10   2.0000      -1.316661       -35.8282
  11   2.0000      -1.273912       -34.6649
  12   2.0000      -0.739908       -20.1339
  13   2.0000      -0.730234       -19.8707
  14   2.0000      -0.708716       -19.2851
  15   2.0000      -0.700529       -19.0624
  16   2.0000      -0.682352       -18.5678
  17   2.0000      -0.660062       -17.9612
  18   2.0000      -0.612551       -16.6684
  19   2.0000      -0.605032       -16.4638
  20   2.0000      -0.579620       -15.7723
  21   2.0000      -0.576952       -15.6997
  22   2.0000      -0.556730       -15.1494
  23   2.0000      -0.532340       -14.4857
  24   2.0000      -0.528224       -14.3737
  25   2.0000      -0.511659       -13.9230
  26   2.0000      -0.508493       -13.8368
  27   2.0000      -0.493748       -13.4356
  28   2.0000      -0.465425       -12.6649
  29   2.0000      -0.443326       -12.0635
  30   0.0000       0.095917         2.6100
  31   0.0000       0.118345         3.2203
  32   0.0000       0.135578         3.6893
  33   0.0000       0.169420         4.6102
  34   0.0000       0.181562         4.9405

MULLIKEN ATOMIC CHARGES
-----------------------
   0 O :   -0.739569
   1 H :    0.315980
   2 H :    0.369650
   3 O :   -0.704341
   4 H :    0.352837
   5 H :    0.372411
   6 O :   -0.690287
   7 H :    0.339708
   8 H :    0.351351
   9 O :   -0.707753
  10 H :    0.371906
  11 H :    0.335713
  12 O :   -0.697008
  13 H :    0.352171
  14 H :    0.358116
  15 O :   -0.720049
  16 H :    0.383285
  17 H :    0.355877
Sum of atomic charges:   -0.0000000

LOEWDIN ATOMIC CHARGES
----------------------
   0 O :   -0.377755
   1 H :    0.143850
   2 H :    0.141844
   3 O :   -0.312779
   4 H :    0.163814
   5 H :    0.192913
   6 O :   -0.341473
   7 H :    0.158522
   8 H :    0.183354
   9 O :   -0.324265
  10 H :    0.152777
  11 H :    0.169083
  12 O :   -0.310611
  13 H :    0.163699
  14 H :    0.186116
  15 O :   -0.291344
  16 H :    0.156357
  17 H :    0.145899

  Mayer bond orders larger than 0.100000
B(  0-O ,  1-H ) :   0.8652 B(  0-O ,  2-H ) :   0.7689 B(  2-H , 15-O ) :   0.1035
B(  3-O ,  4-H ) :   0.8416 B(  3-O ,  5-H ) :   0.8210 B(  6-O ,  7-H ) :   0.8524
B(  6-O ,  8-H ) :   0.8383 B(  9-O , 10-H ) :   0.8109 B(  9-O , 11-H ) :   0.8463
B( 12-O , 13-H ) :   0.8416 B( 12-O , 14-H ) :   0.8298 B( 15-O , 16-H ) :   0.8027
B( 15-O , 17-H ) :   0.8145

MP2 TOTAL ENERGY:     -457.911797643 Eh
FINAL SINGLE POINT ENERGY      -457.911797643174

DIPOLE MOMENT
-------------
                                X             Y             Z
Electronic contribution:     -0.19923       0.08828      -0.17843
Nuclear contribution   :     -1.01960      -0.90936      -1.46039
                        -----------------------------------------
Total Dipole Moment    :     -1.21883      -0.82108      -1.63882
                        -----------------------------------------
Magnitude (a.u.)       :      2.20124
Magnitude (Debye)      :      5.59510

Rotational constants in cm-1:     0.044185     0.019725     0.018060
Rotational constants in MHz :  1324.619722   591.354074   541.426942

                             ****ORCA TERMINATED NORMALLY****
TOTAL RUN TIME: 0 days 0 hours 0 minutes 53 seconds 947 msec
