                         Program Version 4.2.0 -  RELEASE  -
|  1> # 12h2o.su.etal.mol0,2,3,4,5,6
|  2> ! MP2 def2-TZVP EnGrad TightSCF
|  3>
|  4> %pal
|  5>     nprocs 6
|  6> end
|  7>
|  8> %maxcore 8000
|  9>
| 10> %scf
| 11>     ConvForced true
| 12> end
| 13>
| 14> *xyz 0 1
| 15> O   1.794470000   0.923410000   2.768350000
| 16> H   2.338250000   1.359750000   3.430940000
| 17> H   0.879480000   1.303000000   2.865760000
| 18> O   0.923410000  -1.794470000  -2.768350000
| 19> H   1.359750000  -2.338250000  -3.430940000
| 20> H   1.303000000  -0.879480000  -2.865760000
| 21> O  -1.752130000  -0.741530000  -2.896280000
| 22> H  -2.036450000  -0.920500000  -1.984040000
| 23> H  -0.921210000  -1.242140000  -2.984230000
| 24> O  -0.885520000   1.737840000   0.052730000
| 25> H  -1.032320000   2.090180000  -0.841890000
| 26> H  -1.284090000   0.839590000   0.017130000
| 27> O   0.885520000  -1.737840000   0.052730000
| 28> H   1.284090000  -0.839590000   0.017130000
| 29> H   1.032320000  -2.090180000  -0.841890000
| 30> O   1.737840000   0.885520000  -0.052730000
| 31> H   2.090180000   1.032320000   0.841890000
| 32> H   0.839590000   1.284090000  -0.017130000
| 33> *
| 34>
| 35>                          ****END OF INPUT****

CARTESIAN COORDINATES (ANGSTROEM)
---------------------------------
  O      1.794470    0.923410    2.768350
  H      2.338250    1.359750    3.430940
  H      0.879480    1.303000    2.865760
  O      0.923410   -1.794470   -2.768350
  H      1.359750   -2.338250   -3.430940
  H      1.303000   -0.879480   -2.865760
  O     -1.752130   -0.741530   -2.896280
  H     -2.036450   -0.920500   -1.984040
  H     -0.921210   -1.242140   -2.984230
  O     -0.885520    1.737840    0.052730
  H     -1.032320    2.090180   -0.841890
  H     -1.284090    0.839590    0.017130
  O      0.885520   -1.737840    0.052730
  H      1.284090   -0.839590    0.017130
  H      1.032320   -2.090180   -0.841890
  O      1.737840    0.885520   -0.052730
  H      2.090180    1.032320    0.841890
  H      0.839590    1.284090   -0.017130

 Total Charge           Charge          ....    0
 Multiplicity           Mult            ....    1
 Number of Electrons    NEL             ....   60
 Basis Dimension        Dim             ....  258

ORBITAL ENERGIES
----------------

  NO   OCC          E(Eh)            E(eV)
   0   2.0000     -20.601727      -560.6015
   1   2.0000     -20.596123      -560.4490
   2   2.0000     -20.582702      -560.0838
   3   2.0000     -20.543969      -559.0298
   4   2.0000     -20.531689      -558.6957
   5   2.0000     -20.495072      -557.6993
   6   2.0000      -1.381985       -37.6057
   7   2.0000      -1.377012       -37.4704
   8   2.0000      -1.360684       -37.0261
   9   2.0000      -1.326002       -36.0823
  10   2.0000      -1.320612       -35.9357
  11   2.0000      -1.278888       -34.8003
  12   2.0000      -0.747655       -20.3447
  13   2.0000      -0.734723       -19.9928
  14   2.0000      -0.727305       -19.7910
  15   2.0000      -0.696724       -18.9588
  16   2.0000      -0.695555       -18.9270
  17   2.0000      -0.664012       -18.0687
  18   2.0000      -0.623305       -16.9610
  19   2.0000      -0.615977       -16.7616
  20   2.0000      -0.601091       -16.3565
  21   2.0000      -0.577523       -15.7152
  22   2.0000      -0.566722       -15.4213
  23   2.0000      -0.546465       -14.8701
  24   2.0000      -0.528572       -14.3832
  25   2.0000      -0.522389       -14.2149
  26   2.0000      -0.511527       -13.9194
  27   2.0000      -0.491222       -13.3668
  28   2.0000      -0.473008       -12.8712
  29   2.0000      -0.446053       -12.1377
  30   0.0000       0.095004         2.5852
  31   0.0000       0.117471         3.1966
  32   0.0000       0.129343         3.5196
  33   0.0000       0.167122         4.5476
  34   0.0000       0.185747         5.0544

MULLIKEN ATOMIC CHARGES
-----------------------
   0 O :   -0.690874
   1 H :    0.348158
   2 H :    0.358048
   3 O :   -0.713287
   4 H :    0.359744
   5 H :    0.374549
   6 O :   -0.705126
   7 H :    0.326576
   8 H :    0.362381
   9 O :   -0.692453
  10 H :    0.364193
  11 H :    0.360474
  12 O :   -0.741123
  13 H :    0.348812
  14 H :    0.349041
  15 O :   -0.733762
  16 H :    0.375356
  17 H :    0.349293
Sum of atomic charges:   -0.0000000

LOEWDIN ATOMIC CHARGES
----------------------
   0 O :   -0.307974
   1 H :    0.161741
   2 H :    0.186725
   3 O :   -0.287075
   4 H :    0.165740
   5 H :    0.192926
   6 O :   -0.345580
   7 H :    0.156881
   8 H :    0.148450
   9 O :   -0.291640
  10 H :    0.175673
  11 H :    0.178673
  12 O :   -0.373438
  13 H :    0.135680
  14 H :    0.138549
  15 O :   -0.322730
  16 H :    0.149871
  17 H :    0.137525

  Mayer bond orders larger than 0.100000
B(  0-O ,  1-H ) :   0.8440 B(  0-O ,  2-H ) :   0.8321 B(  3-O ,  4-H ) :   0.8341
B(  3-O ,  5-H ) :   0.8172 B(  6-O ,  7-H ) :   0.8571 B(  6-O ,  8-H ) :   0.8165
B(  9-O , 10-H ) :   0.8329 B(  9-O , 11-H ) :   0.8278 B( 12-O , 13-H ) :   0.7935
B( 12-O , 14-H ) :   0.8386 B( 15-O , 16-H ) :   0.8094 B( 15-O , 17-H ) :   0.7954

MP2 TOTAL ENERGY:     -457.918684774 Eh
FINAL SINGLE POINT ENERGY      -457.918684774239

DIPOLE MOMENT
-------------
                                X             Y             Z
Electronic contribution:      0.00787       0.08358       0.07295
Nuclear contribution   :      0.37074       0.87642      -0.08817
                        -----------------------------------------
Total Dipole Moment    :      0.37861       0.95999      -0.01522
                        -----------------------------------------
Magnitude (a.u.)       :      1.03207
Magnitude (Debye)      :      2.62331

Rotational constants in cm-1:     0.067789     0.027558     0.022285
Rotational constants in MHz :  2032.273498   826.174506   668.081533

                             ****ORCA TERMINATED NORMALLY****
TOTAL RUN TIME: 0 days 0 hours 1 minutes 3 seconds 603 msec
