                         Program Version 4.2.0 -  RELEASE  -
|  1> # 12meoh.boyd.etal.mol5,8,11
|  2> ! MP2 def2-TZVP EnGrad TightSCF
|  3>
|  4> %pal
|  5>     nprocs 6
|  6> end
|  7>
|  8> %maxcore 8000
|  9>
| 10> %scf
| 11>     ConvForced true
| 12> end
| 13>
| 14> *xyz 0 1
| 15> O  -0.662721750   1.449094618  -1.383082065
| 16> H   0.064188300   2.119867608  -1.465650660
| 17> C  -0.353319239   0.341218776  -2.229326771
| 18> H  -1.072358530  -0.454743281  -2.019906495
| 19> H   0.657636746  -0.044472139  -2.042736771
| 20> H  -0.434616607   0.624733901  -3.287793021
| 21> O   3.570084754   2.361662577  -0.202416728
| 22> H   3.393280933   1.755669977   0.560634073
| 23> C   4.368082883   1.644741793  -1.143112807
| 24> H   4.552851717   2.311801738  -1.989632421
| 25> H   3.862427494   0.740851663  -1.508095690
| 26> H   5.333949674   1.357289092  -0.706288100
| 27> O   3.252955559   0.588596242   1.858934315
| 28> H   3.621209177  -0.251605199   1.476063364
| 29> C   4.040824528   0.944288422   2.989639460
| 30> H   3.670521436   1.902573549   3.363847391
| 31> H   5.103749934   1.055868619   2.734277559
| 32> H   3.948540682   0.200279590   3.792908518
| 33> *
| 34>
| 35>                          ****END OF INPUT****

CARTESIAN COORDINATES (ANGSTROEM)
---------------------------------
  O     -0.662722    1.449095   -1.383082
  H      0.064188    2.119868   -1.465651
  C     -0.353319    0.341219   -2.229327
  H     -1.072359   -0.454743   -2.019906
  H      0.657637   -0.044472   -2.042737
  H     -0.434617    0.624734   -3.287793
  O      3.570085    2.361663   -0.202417
  H      3.393281    1.755670    0.560634
  C      4.368083    1.644742   -1.143113
  H      4.552852    2.311802   -1.989632
  H      3.862427    0.740852   -1.508096
  H      5.333950    1.357289   -0.706288
  O      3.252956    0.588596    1.858934
  H      3.621209   -0.251605    1.476063
  C      4.040825    0.944288    2.989639
  H      3.670521    1.902574    3.363847
  H      5.103750    1.055869    2.734278
  H      3.948541    0.200280    3.792909

 Total Charge           Charge          ....    0
 Multiplicity           Mult            ....    1
 Number of Electrons    NEL             ....   54
 Basis Dimension        Dim             ....  258

ORBITAL ENERGIES
----------------

  NO   OCC          E(Eh)            E(eV)
   0   2.0000     -20.591523      -560.3238
   1   2.0000     -20.545531      -559.0723
   2   2.0000     -20.526731      -558.5608
   3   2.0000     -11.291119      -307.2470
   4   2.0000     -11.264615      -306.5257
   5   2.0000     -11.262963      -306.4808
   6   2.0000      -1.384197       -37.6659
   7   2.0000      -1.334066       -36.3018
   8   2.0000      -1.322819       -35.9957
   9   2.0000      -0.943034       -25.6612
  10   2.0000      -0.912003       -24.8169
  11   2.0000      -0.909209       -24.7408
  12   2.0000      -0.714078       -19.4311
  13   2.0000      -0.683066       -18.5872
  14   2.0000      -0.670615       -18.2484
  15   2.0000      -0.635010       -17.2795
  16   2.0000      -0.615358       -16.7447
  17   2.0000      -0.608330       -16.5535
  18   2.0000      -0.603780       -16.4297
  19   2.0000      -0.581258       -15.8168
  20   2.0000      -0.572523       -15.5791
  21   2.0000      -0.528881       -14.3916
  22   2.0000      -0.495531       -13.4841
  23   2.0000      -0.491326       -13.3697
  24   2.0000      -0.465001       -12.6533
  25   2.0000      -0.439523       -11.9600
  26   2.0000      -0.429924       -11.6988
  27   0.0000       0.106263         2.8916
  28   0.0000       0.141047         3.8381
  29   0.0000       0.159624         4.3436
  30   0.0000       0.173388         4.7181
  31   0.0000       0.182367         4.9625

MULLIKEN ATOMIC CHARGES
-----------------------
   0 O :   -0.502725
   1 H :    0.330376
   2 C :   -0.168066
   3 H :    0.126115
   4 H :    0.104080
   5 H :    0.108427
   6 O :   -0.524510
   7 H :    0.362341
   8 C :   -0.197940
   9 H :    0.129373
  10 H :    0.099528
  11 H :    0.100669
  12 O :   -0.515238
  13 H :    0.339409
  14 C :   -0.192063
  15 H :    0.148843
  16 H :    0.125217
  17 H :    0.126166
Sum of atomic charges:    0.0000000

LOEWDIN ATOMIC CHARGES
----------------------
   0 O :   -0.112268
   1 H :    0.191959
   2 C :   -0.378276
   3 H :    0.108282
   4 H :    0.093661
   5 H :    0.095042
   6 O :   -0.120127
   7 H :    0.160465
   8 C :   -0.396615
   9 H :    0.108474
  10 H :    0.089356
  11 H :    0.090609
  12 O :   -0.076146
  13 H :    0.196949
  14 C :   -0.374173
  15 H :    0.117546
  16 H :    0.101309
  17 H :    0.103954

  Mayer bond orders larger than 0.100000
B(  0-O ,  1-H ) :   0.8359 B(  0-O ,  2-C ) :   0.9327 B(  2-C ,  3-H ) :   0.9382
B(  2-C ,  4-H ) :   0.9389 B(  2-C ,  5-H ) :   0.9406 B(  6-O ,  7-H ) :   0.7907
B(  6-O ,  8-C ) :   0.9422 B(  8-C ,  9-H ) :   0.9429 B(  8-C , 10-H ) :   0.9379
B(  8-C , 11-H ) :   0.9363 B( 12-O , 13-H ) :   0.8299 B( 12-O , 14-C ) :   0.8744
B( 14-C , 15-H ) :   0.9390 B( 14-C , 16-H ) :   0.9363 B( 14-C , 17-H ) :   0.9348

MP2 TOTAL ENERGY:     -346.531117333 Eh
FINAL SINGLE POINT ENERGY      -346.531117333254

DIPOLE MOMENT
-------------
                                X             Y             Z
Electronic contribution:     -2.60408       1.92193       1.17761
Nuclear contribution   :      3.92992      -3.07212      -0.86509
                        -----------------------------------------
Total Dipole Moment    :      1.32584      -1.15019       0.31252
                        -----------------------------------------
Magnitude (a.u.)       :      1.78282
Magnitude (Debye)      :      4.53158

Rotational constants in cm-1:     0.088673     0.026308     0.022114
Rotational constants in MHz :  2658.347401   788.681430   662.969786

                             ****ORCA TERMINATED NORMALLY****
TOTAL RUN TIME: 0 days 0 hours 1 minutes 7 seconds 339 msec
