                         Program Version 4.2.0 -  RELEASE  -
|  1> # 12h2o.su.etal.mol0,1,4,5,7,8,10,11
|  2> ! MP2 def2-TZVP EnGrad TightSCF
|  3>
|  4> %pal
|  5>     nprocs 6
|  6> end
|  7>
|  8> %maxcore 8000
|  9>
| 10> %scf
| 11>     ConvForced true
| 12> end
| 13>
| 14> *xyz 0 1
| 15> O   1.794470000   0.923410000   2.768350000
| 16> H   2.338250000   1.359750000   3.430940000
| 17> H   0.879480000   1.303000000   2.865760000
| 18> O  -1.794470000  -0.923410000   2.768350000
| 19> H  -2.338250000  -1.359750000   3.430940000
| 20> H  -0.879480000  -1.303000000   2.865760000
| 21> O  -0.885520000   1.737840000   0.052730000
| 22> H  -1.032320000   2.090180000  -0.841890000
| 23> H  -1.284090000   0.839590000   0.017130000
| 24> O   0.885520000  -1.737840000   0.052730000
| 25> H   1.284090000  -0.839590000   0.017130000
| 26> H   1.032320000  -2.090180000  -0.841890000
| 27> O  -1.737840000  -0.885520000  -0.052730000
| 28> H  -2.090180000  -1.032320000   0.841890000
| 29> H  -0.839590000  -1.284090000  -0.017130000
| 30> O   1.752130000   0.741530000  -2.896280000
| 31> H   2.036450000   0.920500000  -1.984040000
| 32> H   0.921210000   1.242140000  -2.984230000
| 33> O  -0.923410000   1.794470000  -2.768350000
| 34> H  -1.359750000   2.338250000  -3.430940000
| 35> H  -1.303000000   0.879480000  -2.865760000
| 36> O  -0.741530000   1.752130000   2.896280000
| 37> H  -0.920500000   2.036450000   1.984040000
| 38> H  -1.242140000   0.921210000   2.984230000
| 39> *
| 40>
| 41>                          ****END OF INPUT****

CARTESIAN COORDINATES (ANGSTROEM)
---------------------------------
  O      1.794470    0.923410    2.768350
  H      2.338250    1.359750    3.430940
  H      0.879480    1.303000    2.865760
  O     -1.794470   -0.923410    2.768350
  H     -2.338250   -1.359750    3.430940
  H     -0.879480   -1.303000    2.865760
  O     -0.885520    1.737840    0.052730
  H     -1.032320    2.090180   -0.841890
  H     -1.284090    0.839590    0.017130
  O      0.885520   -1.737840    0.052730
  H      1.284090   -0.839590    0.017130
  H      1.032320   -2.090180   -0.841890
  O     -1.737840   -0.885520   -0.052730
  H     -2.090180   -1.032320    0.841890
  H     -0.839590   -1.284090   -0.017130
  O      1.752130    0.741530   -2.896280
  H      2.036450    0.920500   -1.984040
  H      0.921210    1.242140   -2.984230
  O     -0.923410    1.794470   -2.768350
  H     -1.359750    2.338250   -3.430940
  H     -1.303000    0.879480   -2.865760
  O     -0.741530    1.752130    2.896280
  H     -0.920500    2.036450    1.984040
  H     -1.242140    0.921210    2.984230

 Total Charge           Charge          ....    0
 Multiplicity           Mult            ....    1
 Number of Electrons    NEL             ....   80
 Basis Dimension        Dim             ....  344

ORBITAL ENERGIES
----------------

  NO   OCC          E(Eh)            E(eV)
   0   2.0000     -20.610216      -560.8325
   1   2.0000     -20.609876      -560.8233
   2   2.0000     -20.589369      -560.2652
   3   2.0000     -20.545394      -559.0686
   4   2.0000     -20.543377      -559.0137
   5   2.0000     -20.534160      -558.7629
   6   2.0000     -20.525345      -558.5230
   7   2.0000     -20.506422      -558.0081
   8   2.0000      -1.390790       -37.8453
   9   2.0000      -1.390061       -37.8255
  10   2.0000      -1.370661       -37.2976
  11   2.0000      -1.335281       -36.3348
  12   2.0000      -1.328295       -36.1447
  13   2.0000      -1.325526       -36.0694
  14   2.0000      -1.308396       -35.6033
  15   2.0000      -1.287283       -35.0288
  16   2.0000      -0.756014       -20.5722
  17   2.0000      -0.755663       -20.5626
  18   2.0000      -0.727216       -19.7885
  19   2.0000      -0.709542       -19.3076
  20   2.0000      -0.699003       -19.0208
  21   2.0000      -0.695678       -18.9304
  22   2.0000      -0.687528       -18.7086
  23   2.0000      -0.672984       -18.3128
  24   2.0000      -0.636811       -17.3285
  25   2.0000      -0.628215       -17.0946
  26   2.0000      -0.611247       -16.6329
  27   2.0000      -0.589570       -16.0430
  28   2.0000      -0.586902       -15.9704
  29   2.0000      -0.570902       -15.5350
  30   2.0000      -0.553664       -15.0660
  31   2.0000      -0.545258       -14.8372
  32   2.0000      -0.536494       -14.5988
  33   2.0000      -0.524135       -14.2624
  34   2.0000      -0.520834       -14.1726
  35   2.0000      -0.490808       -13.3556
  36   2.0000      -0.490468       -13.3463
  37   2.0000      -0.478887       -13.0312
  38   2.0000      -0.473019       -12.8715
  39   2.0000      -0.457308       -12.4440
  40   0.0000       0.092666         2.5216
  41   0.0000       0.108614         2.9555
  42   0.0000       0.128224         3.4891
  43   0.0000       0.165816         4.5121
  44   0.0000       0.174875         4.7586

MULLIKEN ATOMIC CHARGES
-----------------------
   0 O :   -0.746146
   1 H :    0.321741
   2 H :    0.371323
   3 O :   -0.723919
   4 H :    0.363899
   5 H :    0.384351
   6 O :   -0.749017
   7 H :    0.361754
   8 H :    0.345658
   9 O :   -0.694869
  10 H :    0.371854
  11 H :    0.359458
  12 O :   -0.730620
  13 H :    0.372967
  14 H :    0.356782
  15 O :   -0.706364
  16 H :    0.333034
  17 H :    0.359846
  18 O :   -0.715149
  19 H :    0.362831
  20 H :    0.376437
  21 O :   -0.719206
  22 H :    0.387651
  23 H :    0.355701
Sum of atomic charges:    0.0000000

LOEWDIN ATOMIC CHARGES
----------------------
   0 O :   -0.380330
   1 H :    0.146952
   2 H :    0.142069
   3 O :   -0.288323
   4 H :    0.167881
   5 H :    0.196866
   6 O :   -0.349659
   7 H :    0.145364
   8 H :    0.137208
   9 O :   -0.290023
  10 H :    0.182665
  11 H :    0.173580
  12 O :   -0.320481
  13 H :    0.148097
  14 H :    0.139827
  15 O :   -0.345336
  16 H :    0.159675
  17 H :    0.147405
  18 O :   -0.287000
  19 H :    0.167338
  20 H :    0.193840
  21 O :   -0.290237
  22 H :    0.157604
  23 H :    0.145020

  Mayer bond orders larger than 0.100000
B(  0-O ,  1-H ) :   0.8620 B(  0-O ,  2-H ) :   0.7637 B(  2-H , 21-O ) :   0.1071
B(  3-O ,  4-H ) :   0.8323 B(  3-O ,  5-H ) :   0.8093 B(  6-O ,  7-H ) :   0.8245
B(  6-O ,  8-H ) :   0.7735 B(  8-H , 12-O ) :   0.1065 B(  9-O , 10-H ) :   0.8180
B(  9-O , 11-H ) :   0.8351 B( 12-O , 13-H ) :   0.8147 B( 12-O , 14-H ) :   0.7837
B( 15-O , 16-H ) :   0.8536 B( 15-O , 17-H ) :   0.8201 B( 18-O , 19-H ) :   0.8328
B( 18-O , 20-H ) :   0.8163 B( 21-O , 22-H ) :   0.7950 B( 21-O , 23-H ) :   0.8207

MP2 TOTAL ENERGY:     -610.577484291 Eh
FINAL SINGLE POINT ENERGY      -610.577484291369

DIPOLE MOMENT
-------------
                                X             Y             Z
Electronic contribution:     -0.18565      -0.17740      -0.18078
Nuclear contribution   :     -1.24538      -0.65224      -0.14168
                        -----------------------------------------
Total Dipole Moment    :     -1.43103      -0.82963      -0.32246
                        -----------------------------------------
Magnitude (a.u.)       :      1.68526
Magnitude (Debye)      :      4.28360

Rotational constants in cm-1:     0.033031     0.017379     0.016972
Rotational constants in MHz :   990.256285   521.000891   508.810871

                             ****ORCA TERMINATED NORMALLY****
TOTAL RUN TIME: 0 days 0 hours 3 minutes 15 seconds 378 msec
