                         Program Version 4.2.0 -  RELEASE  -
|  1> # 12h2o.su.etal.mol1,2,5,7,8,9,10
|  2> ! MP2 def2-TZVP EnGrad TightSCF
|  3>
|  4> %pal
|  5>     nprocs 6
|  6> end
|  7>
|  8> %maxcore 8000
|  9>
| 10> %scf
| 11>     ConvForced true
| 12> end
| 13>
| 14> *xyz 0 1
| 15> O  -1.794470000  -0.923410000   2.768350000
| 16> H  -2.338250000  -1.359750000   3.430940000
| 17> H  -0.879480000  -1.303000000   2.865760000
| 18> O   0.923410000  -1.794470000  -2.768350000
| 19> H   1.359750000  -2.338250000  -3.430940000
| 20> H   1.303000000  -0.879480000  -2.865760000
| 21> O   0.885520000  -1.737840000   0.052730000
| 22> H   1.284090000  -0.839590000   0.017130000
| 23> H   1.032320000  -2.090180000  -0.841890000
| 24> O  -1.737840000  -0.885520000  -0.052730000
| 25> H  -2.090180000  -1.032320000   0.841890000
| 26> H  -0.839590000  -1.284090000  -0.017130000
| 27> O   1.752130000   0.741530000  -2.896280000
| 28> H   2.036450000   0.920500000  -1.984040000
| 29> H   0.921210000   1.242140000  -2.984230000
| 30> O   0.741530000  -1.752130000   2.896280000
| 31> H   0.920500000  -2.036450000   1.984040000
| 32> H   1.242140000  -0.921210000   2.984230000
| 33> O  -0.923410000   1.794470000  -2.768350000
| 34> H  -1.359750000   2.338250000  -3.430940000
| 35> H  -1.303000000   0.879480000  -2.865760000
| 36> *
| 37>
| 38>                          ****END OF INPUT****

CARTESIAN COORDINATES (ANGSTROEM)
---------------------------------
  O     -1.794470   -0.923410    2.768350
  H     -2.338250   -1.359750    3.430940
  H     -0.879480   -1.303000    2.865760
  O      0.923410   -1.794470   -2.768350
  H      1.359750   -2.338250   -3.430940
  H      1.303000   -0.879480   -2.865760
  O      0.885520   -1.737840    0.052730
  H      1.284090   -0.839590    0.017130
  H      1.032320   -2.090180   -0.841890
  O     -1.737840   -0.885520   -0.052730
  H     -2.090180   -1.032320    0.841890
  H     -0.839590   -1.284090   -0.017130
  O      1.752130    0.741530   -2.896280
  H      2.036450    0.920500   -1.984040
  H      0.921210    1.242140   -2.984230
  O      0.741530   -1.752130    2.896280
  H      0.920500   -2.036450    1.984040
  H      1.242140   -0.921210    2.984230
  O     -0.923410    1.794470   -2.768350
  H     -1.359750    2.338250   -3.430940
  H     -1.303000    0.879480   -2.865760

 Total Charge           Charge          ....    0
 Multiplicity           Mult            ....    1
 Number of Electrons    NEL             ....   70
 Basis Dimension        Dim             ....  301

ORBITAL ENERGIES
----------------

  NO   OCC          E(Eh)            E(eV)
   0   2.0000     -20.587369      -560.2108
   1   2.0000     -20.586499      -560.1871
   2   2.0000     -20.586044      -560.1747
   3   2.0000     -20.575391      -559.8849
   4   2.0000     -20.555089      -559.3324
   5   2.0000     -20.525170      -558.5183
   6   2.0000     -20.485704      -557.4444
   7   2.0000      -1.379697       -37.5435
   8   2.0000      -1.374928       -37.4137
   9   2.0000      -1.362104       -37.0647
  10   2.0000      -1.361323       -37.0435
  11   2.0000      -1.336599       -36.3707
  12   2.0000      -1.309808       -35.6417
  13   2.0000      -1.269913       -34.5561
  14   2.0000      -0.741821       -20.1860
  15   2.0000      -0.739400       -20.1201
  16   2.0000      -0.726036       -19.7564
  17   2.0000      -0.721427       -19.6310
  18   2.0000      -0.720992       -19.6192
  19   2.0000      -0.694734       -18.9047
  20   2.0000      -0.656646       -17.8682
  21   2.0000      -0.634112       -17.2551
  22   2.0000      -0.622770       -16.9464
  23   2.0000      -0.599927       -16.3248
  24   2.0000      -0.590458       -16.0672
  25   2.0000      -0.574112       -15.6224
  26   2.0000      -0.565523       -15.3887
  27   2.0000      -0.538440       -14.6517
  28   2.0000      -0.528917       -14.3926
  29   2.0000      -0.524315       -14.2673
  30   2.0000      -0.507142       -13.8000
  31   2.0000      -0.505268       -13.7490
  32   2.0000      -0.500016       -13.6061
  33   2.0000      -0.469910       -12.7869
  34   2.0000      -0.436747       -11.8845
  35   0.0000       0.087713         2.3868
  36   0.0000       0.123367         3.3570
  37   0.0000       0.140504         3.8233
  38   0.0000       0.151367         4.1189
  39   0.0000       0.174742         4.7550

MULLIKEN ATOMIC CHARGES
-----------------------
   0 O :   -0.732995
   1 H :    0.329426
   2 H :    0.367917
   3 O :   -0.737485
   4 H :    0.340550
   5 H :    0.369171
   6 O :   -0.719914
   7 H :    0.330661
   8 H :    0.394022
   9 O :   -0.743289
  10 H :    0.361607
  11 H :    0.342494
  12 O :   -0.696521
  13 H :    0.343008
  14 H :    0.382653
  15 O :   -0.692383
  16 H :    0.388504
  17 H :    0.344115
  18 O :   -0.704352
  19 H :    0.352184
  20 H :    0.380625
Sum of atomic charges:   -0.0000000

LOEWDIN ATOMIC CHARGES
----------------------
   0 O :   -0.341123
   1 H :    0.149976
   2 H :    0.143347
   3 O :   -0.338981
   4 H :    0.155824
   5 H :    0.142724
   6 O :   -0.285393
   7 H :    0.166020
   8 H :    0.159516
   9 O :   -0.375484
  10 H :    0.144833
  11 H :    0.133557
  12 O :   -0.279078
  13 H :    0.165232
  14 H :    0.157191
  15 O :   -0.275529
  16 H :    0.158164
  17 H :    0.169336
  18 O :   -0.310085
  19 H :    0.164196
  20 H :    0.195758

  Mayer bond orders larger than 0.100000
B(  0-O ,  1-H ) :   0.8544 B(  0-O ,  2-H ) :   0.7674 B(  3-O ,  4-H ) :   0.8488
B(  3-O ,  5-H ) :   0.7569 B(  5-H , 12-O ) :   0.1020 B(  6-O ,  7-H ) :   0.8444
B(  6-O ,  8-H ) :   0.7773 B(  9-O , 10-H ) :   0.8189 B(  9-O , 11-H ) :   0.8192
B( 12-O , 13-H ) :   0.8467 B( 12-O , 14-H ) :   0.7838 B( 15-O , 16-H ) :   0.7985
B( 15-O , 17-H ) :   0.8454 B( 18-O , 19-H ) :   0.8414 B( 18-O , 20-H ) :   0.8139

MP2 TOTAL ENERGY:     -534.250833845 Eh
FINAL SINGLE POINT ENERGY      -534.250833845111

DIPOLE MOMENT
-------------
                                X             Y             Z
Electronic contribution:      0.09197       0.15785      -0.20305
Nuclear contribution   :      1.32801       0.34193      -0.63259
                        -----------------------------------------
Total Dipole Moment    :      1.41997       0.49977      -0.83564
                        -----------------------------------------
Magnitude (a.u.)       :      1.72174
Magnitude (Debye)      :      4.37632

Rotational constants in cm-1:     0.049929     0.018895     0.015929
Rotational constants in MHz :  1496.823753   566.456627   477.536450

                             ****ORCA TERMINATED NORMALLY****
TOTAL RUN TIME: 0 days 0 hours 2 minutes 11 seconds 4 msec
