                         Program Version 4.2.0 -  RELEASE  -
|  1> # 12meoh.boyd.etal.mol2,6,7
|  2> ! MP2 def2-TZVP EnGrad TightSCF
|  3>
|  4> %pal
|  5>     nprocs 6
|  6> end
|  7>
|  8> %maxcore 8000
|  9>
| 10> %scf
| 11>     ConvForced true
| 12> end
| 13>
| 14> *xyz 0 1
| 15> O  -3.839777402   2.233595098   0.660436763
| 16> H  -2.958345897   1.907036203   0.973588449
| 17> C  -3.600368059   3.168790682  -0.390480452
| 18> H  -4.551709193   3.344148967  -0.901254863
| 19> H  -2.868237594   2.789240199  -1.113617525
| 20> H  -3.243594915   4.128998607   0.009549480
| 21> O   2.622209273  -1.703002590  -1.445859723
| 22> H   1.828551432  -1.986513781  -0.909754968
| 23> C   2.781117675  -2.615822239  -2.525472890
| 24> H   3.691063626  -2.339003544  -3.065143454
| 25> H   1.934727323  -2.559520367  -3.223226661
| 26> H   2.879948338  -3.653846211  -2.177750170
| 27> O   4.310535586  -1.588322800   0.656128299
| 28> H   3.804372199  -1.630404735  -0.196849819
| 29> C   4.312298137  -2.894980854   1.222112691
| 30> H   4.713177833  -2.819907076   2.237066773
| 31> H   4.957796734  -3.574699304   0.648211180
| 32> H   3.302735989  -3.324433205   1.269756773
| 33> *
| 34>
| 35>                          ****END OF INPUT****

CARTESIAN COORDINATES (ANGSTROEM)
---------------------------------
  O     -3.839777    2.233595    0.660437
  H     -2.958346    1.907036    0.973588
  C     -3.600368    3.168791   -0.390480
  H     -4.551709    3.344149   -0.901255
  H     -2.868238    2.789240   -1.113618
  H     -3.243595    4.128999    0.009549
  O      2.622209   -1.703003   -1.445860
  H      1.828551   -1.986514   -0.909755
  C      2.781118   -2.615822   -2.525473
  H      3.691064   -2.339004   -3.065143
  H      1.934727   -2.559520   -3.223227
  H      2.879948   -3.653846   -2.177750
  O      4.310536   -1.588323    0.656128
  H      3.804372   -1.630405   -0.196850
  C      4.312298   -2.894981    1.222113
  H      4.713178   -2.819907    2.237067
  H      4.957797   -3.574699    0.648211
  H      3.302736   -3.324433    1.269757

 Total Charge           Charge          ....    0
 Multiplicity           Mult            ....    1
 Number of Electrons    NEL             ....   54
 Basis Dimension        Dim             ....  258

ORBITAL ENERGIES
----------------

  NO   OCC          E(Eh)            E(eV)
   0   2.0000     -20.593322      -560.3728
   1   2.0000     -20.557509      -559.3983
   2   2.0000     -20.520401      -558.3885
   3   2.0000     -11.294159      -307.3297
   4   2.0000     -11.272330      -306.7357
   5   2.0000     -11.257609      -306.3351
   6   2.0000      -1.385417       -37.6991
   7   2.0000      -1.346980       -36.6532
   8   2.0000      -1.317460       -35.8499
   9   2.0000      -0.946044       -25.7432
  10   2.0000      -0.920178       -25.0393
  11   2.0000      -0.903272       -24.5793
  12   2.0000      -0.714327       -19.4378
  13   2.0000      -0.682238       -18.5646
  14   2.0000      -0.682192       -18.5634
  15   2.0000      -0.636858       -17.3298
  16   2.0000      -0.617250       -16.7962
  17   2.0000      -0.615739       -16.7551
  18   2.0000      -0.598719       -16.2920
  19   2.0000      -0.590489       -16.0680
  20   2.0000      -0.568260       -15.4632
  21   2.0000      -0.529956       -14.4208
  22   2.0000      -0.502197       -13.6655
  23   2.0000      -0.494462       -13.4550
  24   2.0000      -0.461684       -12.5631
  25   2.0000      -0.449757       -12.2385
  26   2.0000      -0.423690       -11.5292
  27   0.0000       0.110653         3.0110
  28   0.0000       0.134401         3.6572
  29   0.0000       0.156069         4.2469
  30   0.0000       0.173431         4.7193
  31   0.0000       0.175905         4.7866

MULLIKEN ATOMIC CHARGES
-----------------------
   0 O :   -0.496721
   1 H :    0.321212
   2 C :   -0.175108
   3 H :    0.128925
   4 H :    0.110323
   5 H :    0.111370
   6 O :   -0.514580
   7 H :    0.340668
   8 C :   -0.188124
   9 H :    0.145549
  10 H :    0.127391
  11 H :    0.125369
  12 O :   -0.523267
  13 H :    0.353499
  14 C :   -0.177781
  15 H :    0.127292
  16 H :    0.101916
  17 H :    0.082069
Sum of atomic charges:   -0.0000000

LOEWDIN ATOMIC CHARGES
----------------------
   0 O :   -0.111119
   1 H :    0.188070
   2 C :   -0.378569
   3 H :    0.109681
   4 H :    0.095643
   5 H :    0.096293
   6 O :   -0.073744
   7 H :    0.201433
   8 C :   -0.375103
   9 H :    0.116316
  10 H :    0.104365
  11 H :    0.100881
  12 O :   -0.119828
  13 H :    0.157962
  14 C :   -0.397400
  15 H :    0.107399
  16 H :    0.091801
  17 H :    0.085918

  Mayer bond orders larger than 0.100000
B(  0-O ,  1-H ) :   0.8440 B(  0-O ,  2-C ) :   0.9261 B(  2-C ,  3-H ) :   0.9380
B(  2-C ,  4-H ) :   0.9411 B(  2-C ,  5-H ) :   0.9378 B(  6-O ,  7-H ) :   0.8281
B(  6-O ,  8-C ) :   0.8727 B(  8-C ,  9-H ) :   0.9390 B(  8-C , 10-H ) :   0.9355
B(  8-C , 11-H ) :   0.9367 B( 12-O , 13-H ) :   0.7927 B( 12-O , 14-C ) :   0.9461
B( 14-C , 15-H ) :   0.9423 B( 14-C , 16-H ) :   0.9407 B( 14-C , 17-H ) :   0.9355

MP2 TOTAL ENERGY:     -346.527911062 Eh
FINAL SINGLE POINT ENERGY      -346.527911062176

DIPOLE MOMENT
-------------
                                X             Y             Z
Electronic contribution:     -0.61413       1.80531       1.66456
Nuclear contribution   :      0.35187      -2.68453      -2.65287
                        -----------------------------------------
Total Dipole Moment    :     -0.26226      -0.87922      -0.98831
                        -----------------------------------------
Magnitude (a.u.)       :      1.34854
Magnitude (Debye)      :      3.42771

Rotational constants in cm-1:     0.082515     0.009980     0.009183
Rotational constants in MHz :  2473.744727   299.197073   275.289063

                             ****ORCA TERMINATED NORMALLY****
TOTAL RUN TIME: 0 days 0 hours 0 minutes 52 seconds 748 msec
