                         Program Version 4.2.0 -  RELEASE  -
|  1> # 12h2o.su.etal.mol0,3,5,8
|  2> ! MP2 def2-TZVP EnGrad TightSCF
|  3>
|  4> %pal
|  5>     nprocs 6
|  6> end
|  7>
|  8> %maxcore 8000
|  9>
| 10> %scf
| 11>     ConvForced true
| 12> end
| 13>
| 14> *xyz 0 1
| 15> O   1.794470000   0.923410000   2.768350000
| 16> H   2.338250000   1.359750000   3.430940000
| 17> H   0.879480000   1.303000000   2.865760000
| 18> O  -1.752130000  -0.741530000  -2.896280000
| 19> H  -2.036450000  -0.920500000  -1.984040000
| 20> H  -0.921210000  -1.242140000  -2.984230000
| 21> O   0.885520000  -1.737840000   0.052730000
| 22> H   1.284090000  -0.839590000   0.017130000
| 23> H   1.032320000  -2.090180000  -0.841890000
| 24> O   1.752130000   0.741530000  -2.896280000
| 25> H   2.036450000   0.920500000  -1.984040000
| 26> H   0.921210000   1.242140000  -2.984230000
| 27> *
| 28>
| 29>                          ****END OF INPUT****

CARTESIAN COORDINATES (ANGSTROEM)
---------------------------------
  O      1.794470    0.923410    2.768350
  H      2.338250    1.359750    3.430940
  H      0.879480    1.303000    2.865760
  O     -1.752130   -0.741530   -2.896280
  H     -2.036450   -0.920500   -1.984040
  H     -0.921210   -1.242140   -2.984230
  O      0.885520   -1.737840    0.052730
  H      1.284090   -0.839590    0.017130
  H      1.032320   -2.090180   -0.841890
  O      1.752130    0.741530   -2.896280
  H      2.036450    0.920500   -1.984040
  H      0.921210    1.242140   -2.984230

 Total Charge           Charge          ....    0
 Multiplicity           Mult            ....    1
 Number of Electrons    NEL             ....   40
 Basis Dimension        Dim             ....  172

ORBITAL ENERGIES
----------------

  NO   OCC          E(Eh)            E(eV)
   0   2.0000     -20.572867      -559.8162
   1   2.0000     -20.572783      -559.8139
   2   2.0000     -20.565300      -559.6103
   3   2.0000     -20.563370      -559.5577
   4   2.0000      -1.351904       -36.7872
   5   2.0000      -1.348025       -36.6816
   6   2.0000      -1.342469       -36.5304
   7   2.0000      -1.340904       -36.4878
   8   2.0000      -0.716511       -19.4972
   9   2.0000      -0.714686       -19.4476
  10   2.0000      -0.705040       -19.1851
  11   2.0000      -0.702694       -19.1213
  12   2.0000      -0.589621       -16.0444
  13   2.0000      -0.584465       -15.9041
  14   2.0000      -0.581267       -15.8171
  15   2.0000      -0.579320       -15.7641
  16   2.0000      -0.517794       -14.0899
  17   2.0000      -0.515977       -14.0405
  18   2.0000      -0.507943       -13.8218
  19   2.0000      -0.506252       -13.7758
  20   0.0000       0.087904         2.3920
  21   0.0000       0.117888         3.2079
  22   0.0000       0.141525         3.8511
  23   0.0000       0.166593         4.5332
  24   0.0000       0.185056         5.0356

MULLIKEN ATOMIC CHARGES
-----------------------
   0 O :   -0.685084
   1 H :    0.342463
   2 H :    0.344801
   3 O :   -0.680950
   4 H :    0.341842
   5 H :    0.337861
   6 O :   -0.671528
   7 H :    0.337316
   8 H :    0.331988
   9 O :   -0.679278
  10 H :    0.330904
  11 H :    0.349665
Sum of atomic charges:    0.0000000

LOEWDIN ATOMIC CHARGES
----------------------
   0 O :   -0.339461
   1 H :    0.159757
   2 H :    0.181723
   3 O :   -0.331700
   4 H :    0.166508
   5 H :    0.163805
   6 O :   -0.332530
   7 H :    0.169467
   8 H :    0.161008
   9 O :   -0.329615
  10 H :    0.160814
  11 H :    0.170224

  Mayer bond orders larger than 0.100000
B(  0-O ,  1-H ) :   0.8508 B(  0-O ,  2-H ) :   0.8441 B(  3-O ,  4-H ) :   0.8493
B(  3-O ,  5-H ) :   0.8491 B(  6-O ,  7-H ) :   0.8473 B(  6-O ,  8-H ) :   0.8541
B(  9-O , 10-H ) :   0.8545 B(  9-O , 11-H ) :   0.8419

MP2 TOTAL ENERGY:     -305.256669869 Eh
FINAL SINGLE POINT ENERGY      -305.256669869106

DIPOLE MOMENT
-------------
                                X             Y             Z
Electronic contribution:     -0.01142      -0.16415      -0.15605
Nuclear contribution   :      0.14496       1.13354       1.23053
                        -----------------------------------------
Total Dipole Moment    :      0.13354       0.96939       1.07447
                        -----------------------------------------
Magnitude (a.u.)       :      1.45329
Magnitude (Debye)      :      3.69396

Rotational constants in cm-1:     0.094643     0.033023     0.028538
Rotational constants in MHz :  2837.340042   990.016333   855.533396

                             ****ORCA TERMINATED NORMALLY****
TOTAL RUN TIME: 0 days 0 hours 0 minutes 16 seconds 566 msec
