                         Program Version 4.2.0 -  RELEASE  -
|  1> # 12mecn.remya.etal.2.mol3,10
|  2> ! MP2 def2-TZVP EnGrad TightSCF
|  3>
|  4> %pal
|  5>     nprocs 6
|  6> end
|  7>
|  8> %maxcore 8000
|  9>
| 10> %scf
| 11>     ConvForced true
| 12> end
| 13>
| 14> *xyz 0 1
| 15> C  -5.181310000   2.853865000  -1.626100000
| 16> H  -5.488260000   3.811434000  -2.053310000
| 17> H  -5.857590000   2.068112000  -1.968630000
| 18> H  -4.170750000   2.611402000  -1.966640000
| 19> C  -5.187260000   2.919160000  -0.181450000
| 20> N  -5.181700000   2.970641000   0.983640000
| 21> C   4.602033000   0.321019000  -1.784800000
| 22> H   4.827650000  -0.662160000  -2.207910000
| 23> H   5.320558000   1.057980000  -2.148500000
| 24> H   3.601982000   0.643751000  -2.087520000
| 25> C   4.654967000   0.244048000  -0.343060000
| 26> N   4.691648000   0.166590000   0.820757000
| 27> *
| 28>
| 29>                          ****END OF INPUT****

CARTESIAN COORDINATES (ANGSTROEM)
---------------------------------
  C     -5.181310    2.853865   -1.626100
  H     -5.488260    3.811434   -2.053310
  H     -5.857590    2.068112   -1.968630
  H     -4.170750    2.611402   -1.966640
  C     -5.187260    2.919160   -0.181450
  N     -5.181700    2.970641    0.983640
  C      4.602033    0.321019   -1.784800
  H      4.827650   -0.662160   -2.207910
  H      5.320558    1.057980   -2.148500
  H      3.601982    0.643751   -2.087520
  C      4.654967    0.244048   -0.343060
  N      4.691648    0.166590    0.820757

 Total Charge           Charge          ....    0
 Multiplicity           Mult            ....    1
 Number of Electrons    NEL             ....   44
 Basis Dimension        Dim             ....  222

ORBITAL ENERGIES
----------------

  NO   OCC          E(Eh)            E(eV)
   0   2.0000     -15.573737      -423.7829
   1   2.0000     -15.573629      -423.7800
   2   2.0000     -11.286034      -307.1086
   3   2.0000     -11.285990      -307.1074
   4   2.0000     -11.280559      -306.9596
   5   2.0000     -11.280419      -306.9558
   6   2.0000      -1.215254       -33.0688
   7   2.0000      -1.214778       -33.0558
   8   2.0000      -1.045160       -28.4402
   9   2.0000      -1.044692       -28.4275
  10   2.0000      -0.702074       -19.1044
  11   2.0000      -0.700919       -19.0730
  12   2.0000      -0.635405       -17.2902
  13   2.0000      -0.633530       -17.2392
  14   2.0000      -0.631291       -17.1783
  15   2.0000      -0.631014       -17.1708
  16   2.0000      -0.556399       -15.1404
  17   2.0000      -0.556089       -15.1320
  18   2.0000      -0.458615       -12.4796
  19   2.0000      -0.458166       -12.4673
  20   2.0000      -0.458104       -12.4657
  21   2.0000      -0.457604       -12.4521
  22   0.0000       0.117869         3.2074
  23   0.0000       0.117922         3.2088
  24   0.0000       0.170318         4.6346
  25   0.0000       0.170363         4.6358
  26   0.0000       0.170442         4.6380

MULLIKEN ATOMIC CHARGES
-----------------------
   0 C :   -0.280868
   1 H :    0.172463
   2 H :    0.172271
   3 H :    0.170855
   4 C :   -0.145639
   5 N :   -0.089082
   6 C :   -0.278872
   7 H :    0.172411
   8 H :    0.172095
   9 H :    0.170704
  10 C :   -0.145851
  11 N :   -0.090487
Sum of atomic charges:    0.0000000

LOEWDIN ATOMIC CHARGES
----------------------
   0 C :   -0.284253
   1 H :    0.151400
   2 H :    0.151512
   3 H :    0.152637
   4 C :   -0.219062
   5 N :    0.047765
   6 C :   -0.283992
   7 H :    0.152900
   8 H :    0.151430
   9 H :    0.152623
  10 C :   -0.220103
  11 N :    0.047142

  Mayer bond orders larger than 0.100000
B(  0-C ,  1-H ) :   0.9163 B(  0-C ,  2-H ) :   0.9168 B(  0-C ,  3-H ) :   0.9171
B(  0-C ,  4-C ) :   0.9028 B(  4-C ,  5-N ) :   2.8360 B(  6-C ,  7-H ) :   0.9160
B(  6-C ,  8-H ) :   0.9170 B(  6-C ,  9-H ) :   0.9171 B(  6-C , 10-C ) :   0.9016
B( 10-C , 11-N ) :   2.8359

MP2 TOTAL ENERGY:     -264.965900871 Eh
FINAL SINGLE POINT ENERGY      -264.965900870635

DIPOLE MOMENT
-------------
                                X             Y             Z
Electronic contribution:      0.09771      -0.02733       6.23853
Nuclear contribution   :     -0.14896       0.05075      -9.28227
                        -----------------------------------------
Total Dipole Moment    :     -0.05124       0.02342      -3.04374
                        -----------------------------------------
Magnitude (a.u.)       :      3.04426
Magnitude (Debye)      :      7.73789

Rotational constants in cm-1:     0.154295     0.007892     0.007531
Rotational constants in MHz :  4625.637550   236.600696   225.778689

                             ****ORCA TERMINATED NORMALLY****
TOTAL RUN TIME: 0 days 0 hours 0 minutes 32 seconds 609 msec
