                         Program Version 4.2.0 -  RELEASE  -
|  1> # 12mecn.remya.etal.2.mol4,7,9
|  2> ! MP2 def2-TZVP EnGrad TightSCF
|  3>
|  4> %pal
|  5>     nprocs 6
|  6> end
|  7>
|  8> %maxcore 8000
|  9>
| 10> %scf
| 11>     ConvForced true
| 12> end
| 13>
| 14> *xyz 0 1
| 15> C  -1.509690000  -0.693960000  -1.610140000
| 16> H  -1.327010000  -1.692700000  -2.017370000
| 17> H  -0.742170000  -0.000650000  -1.964400000
| 18> H  -2.491920000  -0.334310000  -1.929350000
| 19> C  -1.473570000  -0.748120000  -0.167200000
| 20> N  -1.447490000  -0.793720000   0.998938000
| 21> C   1.502241000   0.651296000   1.710523000
| 22> H   1.309219000   1.637164000   2.143202000
| 23> H   2.493408000   0.297996000   2.009069000
| 24> H   0.746597000  -0.059850000   2.055508000
| 25> C   1.447974000   0.738517000   0.269805000
| 26> N   1.405612000   0.808047000  -0.894380000
| 27> C   0.923766000   4.000693000  -1.575910000
| 28> H   0.011949000   4.478423000  -1.939550000
| 29> H   0.947903000   2.966558000  -1.929960000
| 30> H   1.805950000   4.519548000  -1.956520000
| 31> C   0.942834000   3.994846000  -0.131200000
| 32> N   0.960035000   3.982544000   1.035639000
| 33> *
| 34>
| 35>                          ****END OF INPUT****

CARTESIAN COORDINATES (ANGSTROEM)
---------------------------------
  C     -1.509690   -0.693960   -1.610140
  H     -1.327010   -1.692700   -2.017370
  H     -0.742170   -0.000650   -1.964400
  H     -2.491920   -0.334310   -1.929350
  C     -1.473570   -0.748120   -0.167200
  N     -1.447490   -0.793720    0.998938
  C      1.502241    0.651296    1.710523
  H      1.309219    1.637164    2.143202
  H      2.493408    0.297996    2.009069
  H      0.746597   -0.059850    2.055508
  C      1.447974    0.738517    0.269805
  N      1.405612    0.808047   -0.894380
  C      0.923766    4.000693   -1.575910
  H      0.011949    4.478423   -1.939550
  H      0.947903    2.966558   -1.929960
  H      1.805950    4.519548   -1.956520
  C      0.942834    3.994846   -0.131200
  N      0.960035    3.982544    1.035639

 Total Charge           Charge          ....    0
 Multiplicity           Mult            ....    1
 Number of Electrons    NEL             ....   66
 Basis Dimension        Dim             ....  333

ORBITAL ENERGIES
----------------

  NO   OCC          E(Eh)            E(eV)
   0   2.0000     -15.571241      -423.7150
   1   2.0000     -15.569662      -423.6720
   2   2.0000     -15.569345      -423.6634
   3   2.0000     -11.286138      -307.1114
   4   2.0000     -11.282319      -307.0075
   5   2.0000     -11.280649      -306.9621
   6   2.0000     -11.275138      -306.8121
   7   2.0000     -11.272342      -306.7360
   8   2.0000     -11.261137      -306.4311
   9   2.0000      -1.219486       -33.1839
  10   2.0000      -1.214668       -33.0528
  11   2.0000      -1.212425       -32.9918
  12   2.0000      -1.037961       -28.2443
  13   2.0000      -1.036012       -28.1913
  14   2.0000      -1.027788       -27.9675
  15   2.0000      -0.694810       -18.9067
  16   2.0000      -0.693398       -18.8683
  17   2.0000      -0.685041       -18.6409
  18   2.0000      -0.629838       -17.1388
  19   2.0000      -0.628343       -17.0981
  20   2.0000      -0.625980       -17.0338
  21   2.0000      -0.624964       -17.0061
  22   2.0000      -0.612394       -16.6641
  23   2.0000      -0.608686       -16.5632
  24   2.0000      -0.560225       -15.2445
  25   2.0000      -0.555731       -15.1222
  26   2.0000      -0.554789       -15.0966
  27   2.0000      -0.460929       -12.5425
  28   2.0000      -0.460360       -12.5270
  29   2.0000      -0.457841       -12.4585
  30   2.0000      -0.456563       -12.4237
  31   2.0000      -0.454794       -12.3756
  32   2.0000      -0.453112       -12.3298
  33   0.0000       0.121190         3.2978
  34   0.0000       0.140691         3.8284
  35   0.0000       0.154631         4.2077
  36   0.0000       0.164246         4.4694
  37   0.0000       0.172777         4.7015

MULLIKEN ATOMIC CHARGES
-----------------------
   0 C :   -0.282873
   1 H :    0.168693
   2 H :    0.194913
   3 H :    0.167425
   4 C :   -0.105463
   5 N :   -0.142466
   6 C :   -0.290331
   7 H :    0.200985
   8 H :    0.161306
   9 H :    0.198719
  10 C :   -0.053909
  11 N :   -0.214959
  12 C :   -0.286885
  13 H :    0.165773
  14 H :    0.198486
  15 H :    0.167711
  16 C :   -0.107778
  17 N :   -0.139347
Sum of atomic charges:    0.0000000

LOEWDIN ATOMIC CHARGES
----------------------
   0 C :   -0.283375
   1 H :    0.153306
   2 H :    0.153955
   3 H :    0.151098
   4 C :   -0.210257
   5 N :    0.034868
   6 C :   -0.278979
   7 H :    0.158129
   8 H :    0.151014
   9 H :    0.156639
  10 C :   -0.196791
  11 N :    0.015160
  12 C :   -0.284756
  13 H :    0.149435
  14 H :    0.154408
  15 H :    0.151897
  16 C :   -0.210236
  17 N :    0.034483

  Mayer bond orders larger than 0.100000
B(  0-C ,  1-H ) :   0.9145 B(  0-C ,  2-H ) :   0.9058 B(  0-C ,  3-H ) :   0.9174
B(  0-C ,  4-C ) :   0.9002 B(  4-C ,  5-N ) :   2.7735 B(  6-C ,  7-H ) :   0.9023
B(  6-C ,  8-H ) :   0.9135 B(  6-C ,  9-H ) :   0.9030 B(  6-C , 10-C ) :   0.8989
B( 10-C , 11-N ) :   2.6987 B( 12-C , 13-H ) :   0.9169 B( 12-C , 14-H ) :   0.9039
B( 12-C , 15-H ) :   0.9150 B( 12-C , 16-C ) :   0.9017 B( 16-C , 17-N ) :   2.7809

MP2 TOTAL ENERGY:     -397.467363867 Eh
FINAL SINGLE POINT ENERGY      -397.467363866876

DIPOLE MOMENT
-------------
                                X             Y             Z
Electronic contribution:      0.00478       0.05775       3.20232
Nuclear contribution   :      0.00180      -0.11341      -4.65445
                        -----------------------------------------
Total Dipole Moment    :      0.00658      -0.05565      -1.45213
                        -----------------------------------------
Magnitude (a.u.)       :      1.45321
Magnitude (Debye)      :      3.69377

Rotational constants in cm-1:     0.059841     0.025134     0.021571
Rotational constants in MHz :  1793.990688   753.493157   646.696072

                             ****ORCA TERMINATED NORMALLY****
TOTAL RUN TIME: 0 days 0 hours 4 minutes 11 seconds 631 msec
