                         Program Version 4.2.0 -  RELEASE  -
|  1> # 12h2o.su.etal.mol3,4,5,7,10,11
|  2> ! MP2 def2-TZVP EnGrad TightSCF
|  3>
|  4> %pal
|  5>     nprocs 6
|  6> end
|  7>
|  8> %maxcore 8000
|  9>
| 10> %scf
| 11>     ConvForced true
| 12> end
| 13>
| 14> *xyz 0 1
| 15> O  -1.752130000  -0.741530000  -2.896280000
| 16> H  -2.036450000  -0.920500000  -1.984040000
| 17> H  -0.921210000  -1.242140000  -2.984230000
| 18> O  -0.885520000   1.737840000   0.052730000
| 19> H  -1.032320000   2.090180000  -0.841890000
| 20> H  -1.284090000   0.839590000   0.017130000
| 21> O   0.885520000  -1.737840000   0.052730000
| 22> H   1.284090000  -0.839590000   0.017130000
| 23> H   1.032320000  -2.090180000  -0.841890000
| 24> O  -1.737840000  -0.885520000  -0.052730000
| 25> H  -2.090180000  -1.032320000   0.841890000
| 26> H  -0.839590000  -1.284090000  -0.017130000
| 27> O  -0.923410000   1.794470000  -2.768350000
| 28> H  -1.359750000   2.338250000  -3.430940000
| 29> H  -1.303000000   0.879480000  -2.865760000
| 30> O  -0.741530000   1.752130000   2.896280000
| 31> H  -0.920500000   2.036450000   1.984040000
| 32> H  -1.242140000   0.921210000   2.984230000
| 33> *
| 34>
| 35>                          ****END OF INPUT****

CARTESIAN COORDINATES (ANGSTROEM)
---------------------------------
  O     -1.752130   -0.741530   -2.896280
  H     -2.036450   -0.920500   -1.984040
  H     -0.921210   -1.242140   -2.984230
  O     -0.885520    1.737840    0.052730
  H     -1.032320    2.090180   -0.841890
  H     -1.284090    0.839590    0.017130
  O      0.885520   -1.737840    0.052730
  H      1.284090   -0.839590    0.017130
  H      1.032320   -2.090180   -0.841890
  O     -1.737840   -0.885520   -0.052730
  H     -2.090180   -1.032320    0.841890
  H     -0.839590   -1.284090   -0.017130
  O     -0.923410    1.794470   -2.768350
  H     -1.359750    2.338250   -3.430940
  H     -1.303000    0.879480   -2.865760
  O     -0.741530    1.752130    2.896280
  H     -0.920500    2.036450    1.984040
  H     -1.242140    0.921210    2.984230

 Total Charge           Charge          ....    0
 Multiplicity           Mult            ....    1
 Number of Electrons    NEL             ....   60
 Basis Dimension        Dim             ....  258

ORBITAL ENERGIES
----------------

  NO   OCC          E(Eh)            E(eV)
   0   2.0000     -20.619620      -561.0884
   1   2.0000     -20.599904      -560.5519
   2   2.0000     -20.593334      -560.3731
   3   2.0000     -20.543799      -559.0252
   4   2.0000     -20.523262      -558.4663
   5   2.0000     -20.522748      -558.4524
   6   2.0000      -1.403605       -38.1940
   7   2.0000      -1.387788       -37.7636
   8   2.0000      -1.378233       -37.5036
   9   2.0000      -1.329266       -36.1712
  10   2.0000      -1.312129       -35.7048
  11   2.0000      -1.301190       -35.4072
  12   2.0000      -0.758456       -20.6386
  13   2.0000      -0.756546       -20.5867
  14   2.0000      -0.741384       -20.1741
  15   2.0000      -0.713317       -19.4103
  16   2.0000      -0.693003       -18.8576
  17   2.0000      -0.672198       -18.2914
  18   2.0000      -0.654498       -17.8098
  19   2.0000      -0.629954       -17.1419
  20   2.0000      -0.609431       -16.5835
  21   2.0000      -0.590154       -16.0589
  22   2.0000      -0.565461       -15.3870
  23   2.0000      -0.555219       -15.1083
  24   2.0000      -0.544427       -14.8146
  25   2.0000      -0.525226       -14.2921
  26   2.0000      -0.523399       -14.2424
  27   2.0000      -0.491377       -13.3710
  28   2.0000      -0.475576       -12.9411
  29   2.0000      -0.468227       -12.7411
  30   0.0000       0.071402         1.9430
  31   0.0000       0.113786         3.0963
  32   0.0000       0.145586         3.9616
  33   0.0000       0.156673         4.2633
  34   0.0000       0.196889         5.3576

MULLIKEN ATOMIC CHARGES
-----------------------
   0 O :   -0.686278
   1 H :    0.390901
   2 H :    0.336786
   3 O :   -0.746042
   4 H :    0.373496
   5 H :    0.333142
   6 O :   -0.685051
   7 H :    0.381023
   8 H :    0.351229
   9 O :   -0.734086
  10 H :    0.361594
  11 H :    0.368430
  12 O :   -0.738188
  13 H :    0.336625
  14 H :    0.369979
  15 O :   -0.693577
  16 H :    0.377896
  17 H :    0.302122
Sum of atomic charges:    0.0000000

LOEWDIN ATOMIC CHARGES
----------------------
   0 O :   -0.271496
   1 H :    0.159632
   2 H :    0.165835
   3 O :   -0.349724
   4 H :    0.150294
   5 H :    0.132679
   6 O :   -0.284581
   7 H :    0.189840
   8 H :    0.169811
   9 O :   -0.296314
  10 H :    0.172205
  11 H :    0.145848
  12 O :   -0.341814
  13 H :    0.153564
  14 H :    0.143328
  15 O :   -0.342340
  16 H :    0.153928
  17 H :    0.149306

  Mayer bond orders larger than 0.100000
B(  0-O ,  1-H ) :   0.7986 B(  0-O ,  2-H ) :   0.8486 B(  3-O ,  4-H ) :   0.8047
B(  3-O ,  5-H ) :   0.8013 B(  6-O ,  7-H ) :   0.8161 B(  6-O ,  8-H ) :   0.8407
B(  9-O , 10-H ) :   0.8335 B(  9-O , 11-H ) :   0.7634 B( 12-O , 13-H ) :   0.8508
B( 12-O , 14-H ) :   0.7664 B( 15-O , 16-H ) :   0.8073 B( 15-O , 17-H ) :   0.8720

MP2 TOTAL ENERGY:     -457.927143948 Eh
FINAL SINGLE POINT ENERGY      -457.927143947642

DIPOLE MOMENT
-------------
                                X             Y             Z
Electronic contribution:      0.20733      -0.23671      -0.00603
Nuclear contribution   :     -0.33544      -1.78355      -1.40687
                        -----------------------------------------
Total Dipole Moment    :     -0.12811      -2.02026      -1.41290
                        -----------------------------------------
Magnitude (a.u.)       :      2.46863
Magnitude (Debye)      :      6.27476

Rotational constants in cm-1:     0.055875     0.033452     0.025199
Rotational constants in MHz :  1675.091109  1002.872953   755.455642

                             ****ORCA TERMINATED NORMALLY****
TOTAL RUN TIME: 0 days 0 hours 1 minutes 11 seconds 215 msec
