                         Program Version 4.2.0 -  RELEASE  -
|  1> # 12h2o.su.etal.mol2,3,8,9
|  2> ! MP2 def2-TZVP EnGrad TightSCF
|  3>
|  4> %pal
|  5>     nprocs 6
|  6> end
|  7>
|  8> %maxcore 8000
|  9>
| 10> %scf
| 11>     ConvForced true
| 12> end
| 13>
| 14> *xyz 0 1
| 15> O   0.923410000  -1.794470000  -2.768350000
| 16> H   1.359750000  -2.338250000  -3.430940000
| 17> H   1.303000000  -0.879480000  -2.865760000
| 18> O  -1.752130000  -0.741530000  -2.896280000
| 19> H  -2.036450000  -0.920500000  -1.984040000
| 20> H  -0.921210000  -1.242140000  -2.984230000
| 21> O   1.752130000   0.741530000  -2.896280000
| 22> H   2.036450000   0.920500000  -1.984040000
| 23> H   0.921210000   1.242140000  -2.984230000
| 24> O   0.741530000  -1.752130000   2.896280000
| 25> H   0.920500000  -2.036450000   1.984040000
| 26> H   1.242140000  -0.921210000   2.984230000
| 27> *
| 28>
| 29>                          ****END OF INPUT****

CARTESIAN COORDINATES (ANGSTROEM)
---------------------------------
  O      0.923410   -1.794470   -2.768350
  H      1.359750   -2.338250   -3.430940
  H      1.303000   -0.879480   -2.865760
  O     -1.752130   -0.741530   -2.896280
  H     -2.036450   -0.920500   -1.984040
  H     -0.921210   -1.242140   -2.984230
  O      1.752130    0.741530   -2.896280
  H      2.036450    0.920500   -1.984040
  H      0.921210    1.242140   -2.984230
  O      0.741530   -1.752130    2.896280
  H      0.920500   -2.036450    1.984040
  H      1.242140   -0.921210    2.984230

 Total Charge           Charge          ....    0
 Multiplicity           Mult            ....    1
 Number of Electrons    NEL             ....   40
 Basis Dimension        Dim             ....  172

ORBITAL ENERGIES
----------------

  NO   OCC          E(Eh)            E(eV)
   0   2.0000     -20.608484      -560.7854
   1   2.0000     -20.565213      -559.6079
   2   2.0000     -20.552390      -559.2590
   3   2.0000     -20.532439      -558.7161
   4   2.0000      -1.394197       -37.9380
   5   2.0000      -1.344497       -36.5856
   6   2.0000      -1.337153       -36.3858
   7   2.0000      -1.314035       -35.7567
   8   2.0000      -0.750851       -20.4317
   9   2.0000      -0.722200       -19.6521
  10   2.0000      -0.707207       -19.2441
  11   2.0000      -0.683332       -18.5944
  12   2.0000      -0.632779       -17.2188
  13   2.0000      -0.587943       -15.9987
  14   2.0000      -0.581793       -15.8314
  15   2.0000      -0.555934       -15.1277
  16   2.0000      -0.534894       -14.5552
  17   2.0000      -0.509295       -13.8586
  18   2.0000      -0.500446       -13.6178
  19   2.0000      -0.480234       -13.0678
  20   0.0000       0.097603         2.6559
  21   0.0000       0.125137         3.4051
  22   0.0000       0.152206         4.1417
  23   0.0000       0.168477         4.5845
  24   0.0000       0.185650         5.0518

MULLIKEN ATOMIC CHARGES
-----------------------
   0 O :   -0.738874
   1 H :    0.342125
   2 H :    0.376565
   3 O :   -0.714870
   4 H :    0.329139
   5 H :    0.361094
   6 O :   -0.683386
   7 H :    0.357411
   8 H :    0.370975
   9 O :   -0.673203
  10 H :    0.339232
  11 H :    0.333793
Sum of atomic charges:   -0.0000000

LOEWDIN ATOMIC CHARGES
----------------------
   0 O :   -0.340320
   1 H :    0.156063
   2 H :    0.144454
   3 O :   -0.352348
   4 H :    0.159841
   5 H :    0.146589
   6 O :   -0.269253
   7 H :    0.174598
   8 H :    0.180482
   9 O :   -0.331495
  10 H :    0.166220
  11 H :    0.165169

  Mayer bond orders larger than 0.100000
B(  0-O ,  1-H ) :   0.8480 B(  0-O ,  2-H ) :   0.7674 B(  3-O ,  4-H ) :   0.8579
B(  3-O ,  5-H ) :   0.8070 B(  6-O ,  7-H ) :   0.8378 B(  6-O ,  8-H ) :   0.8252
B(  9-O , 10-H ) :   0.8519 B(  9-O , 11-H ) :   0.8549

MP2 TOTAL ENERGY:     -305.272202948 Eh
FINAL SINGLE POINT ENERGY      -305.272202947796

DIPOLE MOMENT
-------------
                                X             Y             Z
Electronic contribution:      0.07908       0.10735      -0.03746
Nuclear contribution   :      1.24480       0.76395       0.05351
                        -----------------------------------------
Total Dipole Moment    :      1.32389       0.87130       0.01605
                        -----------------------------------------
Magnitude (a.u.)       :      1.58496
Magnitude (Debye)      :      4.02865

Rotational constants in cm-1:     0.093767     0.032982     0.028405
Rotational constants in MHz :  2811.061084   988.772613   851.558408

                             ****ORCA TERMINATED NORMALLY****
TOTAL RUN TIME: 0 days 0 hours 0 minutes 21 seconds 34 msec
