                         Program Version 4.2.0 -  RELEASE  -
|  1> # 12mecn.remya.etal.2.mol0,3,4
|  2> ! MP2 def2-TZVP EnGrad TightSCF
|  3>
|  4> %pal
|  5>     nprocs 6
|  6> end
|  7>
|  8> %maxcore 8000
|  9>
| 10> %scf
| 11>     ConvForced true
| 12> end
| 13>
| 14> *xyz 0 1
| 15> C  -0.869520000  -3.929380000   1.700199000
| 16> H  -0.057420000  -3.268850000   2.015352000
| 17> H  -0.697530000  -4.930670000   2.101524000
| 18> H  -1.821490000  -3.546590000   2.077146000
| 19> C  -0.916080000  -3.969960000   0.256749000
| 20> N  -0.955390000  -3.995980000  -0.909290000
| 21> C  -5.181310000   2.853865000  -1.626100000
| 22> H  -5.488260000   3.811434000  -2.053310000
| 23> H  -5.857590000   2.068112000  -1.968630000
| 24> H  -4.170750000   2.611402000  -1.966640000
| 25> C  -5.187260000   2.919160000  -0.181450000
| 26> N  -5.181700000   2.970641000   0.983640000
| 27> C  -1.509690000  -0.693960000  -1.610140000
| 28> H  -1.327010000  -1.692700000  -2.017370000
| 29> H  -0.742170000  -0.000650000  -1.964400000
| 30> H  -2.491920000  -0.334310000  -1.929350000
| 31> C  -1.473570000  -0.748120000  -0.167200000
| 32> N  -1.447490000  -0.793720000   0.998938000
| 33> *
| 34>
| 35>                          ****END OF INPUT****

CARTESIAN COORDINATES (ANGSTROEM)
---------------------------------
  C     -0.869520   -3.929380    1.700199
  H     -0.057420   -3.268850    2.015352
  H     -0.697530   -4.930670    2.101524
  H     -1.821490   -3.546590    2.077146
  C     -0.916080   -3.969960    0.256749
  N     -0.955390   -3.995980   -0.909290
  C     -5.181310    2.853865   -1.626100
  H     -5.488260    3.811434   -2.053310
  H     -5.857590    2.068112   -1.968630
  H     -4.170750    2.611402   -1.966640
  C     -5.187260    2.919160   -0.181450
  N     -5.181700    2.970641    0.983640
  C     -1.509690   -0.693960   -1.610140
  H     -1.327010   -1.692700   -2.017370
  H     -0.742170   -0.000650   -1.964400
  H     -2.491920   -0.334310   -1.929350
  C     -1.473570   -0.748120   -0.167200
  N     -1.447490   -0.793720    0.998938

 Total Charge           Charge          ....    0
 Multiplicity           Mult            ....    1
 Number of Electrons    NEL             ....   66
 Basis Dimension        Dim             ....  333

ORBITAL ENERGIES
----------------

  NO   OCC          E(Eh)            E(eV)
   0   2.0000     -15.574002      -423.7901
   1   2.0000     -15.571459      -423.7209
   2   2.0000     -15.570209      -423.6869
   3   2.0000     -11.288002      -307.1621
   4   2.0000     -11.282454      -307.0112
   5   2.0000     -11.282106      -307.0017
   6   2.0000     -11.280297      -306.9525
   7   2.0000     -11.276691      -306.8544
   8   2.0000     -11.272103      -306.7295
   9   2.0000      -1.217199       -33.1217
  10   2.0000      -1.215178       -33.0667
  11   2.0000      -1.212943       -33.0058
  12   2.0000      -1.046228       -28.4693
  13   2.0000      -1.039202       -28.2781
  14   2.0000      -1.034290       -28.1445
  15   2.0000      -0.703434       -19.1414
  16   2.0000      -0.695503       -18.9256
  17   2.0000      -0.691287       -18.8109
  18   2.0000      -0.635523       -17.2935
  19   2.0000      -0.633400       -17.2357
  20   2.0000      -0.631493       -17.1838
  21   2.0000      -0.626684       -17.0529
  22   2.0000      -0.620607       -16.8876
  23   2.0000      -0.617170       -16.7941
  24   2.0000      -0.558462       -15.1965
  25   2.0000      -0.556135       -15.1332
  26   2.0000      -0.555642       -15.1198
  27   2.0000      -0.463186       -12.6039
  28   2.0000      -0.458789       -12.4843
  29   2.0000      -0.458334       -12.4719
  30   2.0000      -0.457921       -12.4607
  31   2.0000      -0.456565       -12.4238
  32   2.0000      -0.451812       -12.2944
  33   0.0000       0.096845         2.6353
  34   0.0000       0.131941         3.5903
  35   0.0000       0.147469         4.0128
  36   0.0000       0.167477         4.5573
  37   0.0000       0.168815         4.5937

MULLIKEN ATOMIC CHARGES
-----------------------
   0 C :   -0.258876
   1 H :    0.176718
   2 H :    0.171341
   3 H :    0.179835
   4 C :   -0.119516
   5 N :   -0.148622
   6 C :   -0.285656
   7 H :    0.175854
   8 H :    0.173418
   9 H :    0.165162
  10 C :   -0.143629
  11 N :   -0.085210
  12 C :   -0.289132
  13 H :    0.207761
  14 H :    0.167515
  15 H :    0.155898
  16 C :   -0.111191
  17 N :   -0.131670
Sum of atomic charges:   -0.0000000

LOEWDIN ATOMIC CHARGES
----------------------
   0 C :   -0.283485
   1 H :    0.156951
   2 H :    0.149057
   3 H :    0.157642
   4 C :   -0.210023
   5 N :    0.027186
   6 C :   -0.285311
   7 H :    0.151947
   8 H :    0.151408
   9 H :    0.150111
  10 C :   -0.219725
  11 N :    0.051493
  12 C :   -0.283299
  13 H :    0.157453
  14 H :    0.151472
  15 H :    0.148448
  16 C :   -0.211657
  17 N :    0.040330

  Mayer bond orders larger than 0.100000
B(  0-C ,  1-H ) :   0.9123 B(  0-C ,  2-H ) :   0.9105 B(  0-C ,  3-H ) :   0.9116
B(  0-C ,  4-C ) :   0.9122 B(  4-C ,  5-N ) :   2.7804 B(  6-C ,  7-H ) :   0.9157
B(  6-C ,  8-H ) :   0.9176 B(  6-C ,  9-H ) :   0.9191 B(  6-C , 10-C ) :   0.9011
B( 10-C , 11-N ) :   2.8320 B( 12-C , 13-H ) :   0.9023 B( 12-C , 14-H ) :   0.9173
B( 12-C , 15-H ) :   0.9190 B( 12-C , 16-C ) :   0.8961 B( 16-C , 17-N ) :   2.7888

MP2 TOTAL ENERGY:     -397.458122075 Eh
FINAL SINGLE POINT ENERGY      -397.458122075427

DIPOLE MOMENT
-------------
                                X             Y             Z
Electronic contribution:     -0.04234      -0.07344       3.21083
Nuclear contribution   :      0.06037       0.09398      -4.64148
                        -----------------------------------------
Total Dipole Moment    :      0.01803       0.02053      -1.43065
                        -----------------------------------------
Magnitude (a.u.)       :      1.43092
Magnitude (Debye)      :      3.63710

Rotational constants in cm-1:     0.081116     0.011767     0.010852
Rotational constants in MHz :  2431.785550   352.754539   325.333805

                             ****ORCA TERMINATED NORMALLY****
TOTAL RUN TIME: 0 days 0 hours 3 minutes 3 seconds 414 msec
