                         Program Version 4.2.0 -  RELEASE  -
|  1> # 12h2o.su.etal.mol0,3,4,5,6,7,10,11
|  2> ! MP2 def2-TZVP EnGrad TightSCF
|  3>
|  4> %pal
|  5>     nprocs 6
|  6> end
|  7>
|  8> %maxcore 8000
|  9>
| 10> %scf
| 11>     ConvForced true
| 12> end
| 13>
| 14> *xyz 0 1
| 15> O   1.794470000   0.923410000   2.768350000
| 16> H   2.338250000   1.359750000   3.430940000
| 17> H   0.879480000   1.303000000   2.865760000
| 18> O  -1.752130000  -0.741530000  -2.896280000
| 19> H  -2.036450000  -0.920500000  -1.984040000
| 20> H  -0.921210000  -1.242140000  -2.984230000
| 21> O  -0.885520000   1.737840000   0.052730000
| 22> H  -1.032320000   2.090180000  -0.841890000
| 23> H  -1.284090000   0.839590000   0.017130000
| 24> O   0.885520000  -1.737840000   0.052730000
| 25> H   1.284090000  -0.839590000   0.017130000
| 26> H   1.032320000  -2.090180000  -0.841890000
| 27> O   1.737840000   0.885520000  -0.052730000
| 28> H   2.090180000   1.032320000   0.841890000
| 29> H   0.839590000   1.284090000  -0.017130000
| 30> O  -1.737840000  -0.885520000  -0.052730000
| 31> H  -2.090180000  -1.032320000   0.841890000
| 32> H  -0.839590000  -1.284090000  -0.017130000
| 33> O  -0.923410000   1.794470000  -2.768350000
| 34> H  -1.359750000   2.338250000  -3.430940000
| 35> H  -1.303000000   0.879480000  -2.865760000
| 36> O  -0.741530000   1.752130000   2.896280000
| 37> H  -0.920500000   2.036450000   1.984040000
| 38> H  -1.242140000   0.921210000   2.984230000
| 39> *
| 40>
| 41>                          ****END OF INPUT****

CARTESIAN COORDINATES (ANGSTROEM)
---------------------------------
  O      1.794470    0.923410    2.768350
  H      2.338250    1.359750    3.430940
  H      0.879480    1.303000    2.865760
  O     -1.752130   -0.741530   -2.896280
  H     -2.036450   -0.920500   -1.984040
  H     -0.921210   -1.242140   -2.984230
  O     -0.885520    1.737840    0.052730
  H     -1.032320    2.090180   -0.841890
  H     -1.284090    0.839590    0.017130
  O      0.885520   -1.737840    0.052730
  H      1.284090   -0.839590    0.017130
  H      1.032320   -2.090180   -0.841890
  O      1.737840    0.885520   -0.052730
  H      2.090180    1.032320    0.841890
  H      0.839590    1.284090   -0.017130
  O     -1.737840   -0.885520   -0.052730
  H     -2.090180   -1.032320    0.841890
  H     -0.839590   -1.284090   -0.017130
  O     -0.923410    1.794470   -2.768350
  H     -1.359750    2.338250   -3.430940
  H     -1.303000    0.879480   -2.865760
  O     -0.741530    1.752130    2.896280
  H     -0.920500    2.036450    1.984040
  H     -1.242140    0.921210    2.984230

 Total Charge           Charge          ....    0
 Multiplicity           Mult            ....    1
 Number of Electrons    NEL             ....   80
 Basis Dimension        Dim             ....  344

ORBITAL ENERGIES
----------------

  NO   OCC          E(Eh)            E(eV)
   0   2.0000     -20.598780      -560.5213
   1   2.0000     -20.588675      -560.2463
   2   2.0000     -20.579056      -559.9846
   3   2.0000     -20.565700      -559.6212
   4   2.0000     -20.558826      -559.4341
   5   2.0000     -20.546588      -559.1011
   6   2.0000     -20.536829      -558.8355
   7   2.0000     -20.524441      -558.4984
   8   2.0000      -1.392214       -37.8841
   9   2.0000      -1.375874       -37.4394
  10   2.0000      -1.369815       -37.2746
  11   2.0000      -1.350564       -36.7507
  12   2.0000      -1.350078       -36.7375
  13   2.0000      -1.328222       -36.1428
  14   2.0000      -1.322638       -35.9908
  15   2.0000      -1.307242       -35.5719
  16   2.0000      -0.754637       -20.5347
  17   2.0000      -0.736774       -20.0486
  18   2.0000      -0.733185       -19.9510
  19   2.0000      -0.719856       -19.5883
  20   2.0000      -0.715117       -19.4593
  21   2.0000      -0.713627       -19.4188
  22   2.0000      -0.705242       -19.1906
  23   2.0000      -0.686382       -18.6774
  24   2.0000      -0.650865       -17.7109
  25   2.0000      -0.622795       -16.9471
  26   2.0000      -0.610913       -16.6238
  27   2.0000      -0.596992       -16.2450
  28   2.0000      -0.595886       -16.2149
  29   2.0000      -0.576858       -15.6971
  30   2.0000      -0.567620       -15.4457
  31   2.0000      -0.550945       -14.9920
  32   2.0000      -0.536322       -14.5941
  33   2.0000      -0.522873       -14.2281
  34   2.0000      -0.513723       -13.9791
  35   2.0000      -0.512964       -13.9585
  36   2.0000      -0.501967       -13.6592
  37   2.0000      -0.496204       -13.5024
  38   2.0000      -0.485126       -13.2009
  39   2.0000      -0.474147       -12.9022
  40   0.0000       0.085028         2.3137
  41   0.0000       0.111466         3.0331
  42   0.0000       0.150961         4.1079
  43   0.0000       0.155154         4.2220
  44   0.0000       0.190163         5.1746

MULLIKEN ATOMIC CHARGES
-----------------------
   0 O :   -0.738792
   1 H :    0.335279
   2 H :    0.371970
   3 O :   -0.691154
   4 H :    0.389512
   5 H :    0.345425
   6 O :   -0.760009
   7 H :    0.390362
   8 H :    0.349274
   9 O :   -0.713600
  10 H :    0.384030
  11 H :    0.335437
  12 O :   -0.738562
  13 H :    0.376509
  14 H :    0.365376
  15 O :   -0.741068
  16 H :    0.356801
  17 H :    0.369705
  18 O :   -0.736017
  19 H :    0.337678
  20 H :    0.373462
  21 O :   -0.691670
  22 H :    0.393296
  23 H :    0.336754
Sum of atomic charges:   -0.0000000

LOEWDIN ATOMIC CHARGES
----------------------
   0 O :   -0.341884
   1 H :    0.153046
   2 H :    0.144183
   3 O :   -0.272704
   4 H :    0.158960
   5 H :    0.169716
   6 O :   -0.304706
   7 H :    0.156214
   8 H :    0.137384
   9 O :   -0.307130
  10 H :    0.148779
  11 H :    0.159651
  12 O :   -0.317556
  13 H :    0.149614
  14 H :    0.139661
  15 O :   -0.298303
  16 H :    0.169413
  17 H :    0.145909
  18 O :   -0.338871
  19 H :    0.154632
  20 H :    0.144552
  21 O :   -0.275055
  22 H :    0.159035
  23 H :    0.165460

  Mayer bond orders larger than 0.100000
B(  0-O ,  1-H ) :   0.8515 B(  0-O ,  2-H ) :   0.7618 B(  3-O ,  4-H ) :   0.8006
B(  3-O ,  5-H ) :   0.8433 B(  6-O ,  7-H ) :   0.7836 B(  6-O ,  8-H ) :   0.7776
B(  9-O , 10-H ) :   0.7397 B(  9-O , 11-H ) :   0.8495 B(  9-O , 17-H ) :   0.1344
B( 10-H , 12-O ) :   0.1290 B( 12-O , 13-H ) :   0.7991 B( 12-O , 14-H ) :   0.7831
B( 15-O , 16-H ) :   0.8368 B( 15-O , 17-H ) :   0.7373 B( 18-O , 19-H ) :   0.8503
B( 18-O , 20-H ) :   0.7615 B( 21-O , 22-H ) :   0.7908 B( 21-O , 23-H ) :   0.8489

MP2 TOTAL ENERGY:     -610.601083437 Eh
FINAL SINGLE POINT ENERGY      -610.601083436777

DIPOLE MOMENT
-------------
                                X             Y             Z
Electronic contribution:     -0.08255       0.00142      -0.05705
Nuclear contribution   :     -1.09882      -0.65046       0.00000
                        -----------------------------------------
Total Dipole Moment    :     -1.18137      -0.64904      -0.05705
                        -----------------------------------------
Magnitude (a.u.)       :      1.34913
Magnitude (Debye)      :      3.42921

Rotational constants in cm-1:     0.040710     0.019587     0.018164
Rotational constants in MHz :  1220.468556   587.195685   544.531573

                             ****ORCA TERMINATED NORMALLY****
TOTAL RUN TIME: 0 days 0 hours 3 minutes 23 seconds 840 msec
