                         Program Version 4.2.0 -  RELEASE  -
|  1> # 12meoh.boyd.etal.mol0,4,7
|  2> ! MP2 def2-TZVP EnGrad TightSCF
|  3>
|  4> %pal
|  5>     nprocs 6
|  6> end
|  7>
|  8> %maxcore 8000
|  9>
| 10> %scf
| 11>     ConvForced true
| 12> end
| 13>
| 14> *xyz 0 1
| 15> O  -1.776108874  -2.741384797  -1.019308298
| 16> H  -2.520094035  -2.452295987  -0.420778302
| 17> C  -2.174025166  -3.952700964  -1.647004581
| 18> H  -1.359803895  -4.272673416  -2.304149236
| 19> H  -3.075973971  -3.808692420  -2.256751112
| 20> H  -2.370225393  -4.752784761  -0.918966137
| 21> O  -1.358578914   1.232360421   1.189721000
| 22> H  -1.058250183   1.216459361   0.238591307
| 23> C  -0.389763452   1.957872567   1.943072362
| 24> H  -0.747220771   2.012806578   2.975200343
| 25> H  -0.260410585   2.982763209   1.565366540
| 26> H   0.585220638   1.453754179   1.934070793
| 27> O   4.310535586  -1.588322800   0.656128299
| 28> H   3.804372199  -1.630404735  -0.196849819
| 29> C   4.312298137  -2.894980854   1.222112691
| 30> H   4.713177833  -2.819907076   2.237066773
| 31> H   4.957796734  -3.574699304   0.648211180
| 32> H   3.302735989  -3.324433205   1.269756773
| 33> *
| 34>
| 35>                          ****END OF INPUT****

CARTESIAN COORDINATES (ANGSTROEM)
---------------------------------
  O     -1.776109   -2.741385   -1.019308
  H     -2.520094   -2.452296   -0.420778
  C     -2.174025   -3.952701   -1.647005
  H     -1.359804   -4.272673   -2.304149
  H     -3.075974   -3.808692   -2.256751
  H     -2.370225   -4.752785   -0.918966
  O     -1.358579    1.232360    1.189721
  H     -1.058250    1.216459    0.238591
  C     -0.389763    1.957873    1.943072
  H     -0.747221    2.012807    2.975200
  H     -0.260411    2.982763    1.565367
  H      0.585221    1.453754    1.934071
  O      4.310536   -1.588323    0.656128
  H      3.804372   -1.630405   -0.196850
  C      4.312298   -2.894981    1.222113
  H      4.713178   -2.819907    2.237067
  H      4.957797   -3.574699    0.648211
  H      3.302736   -3.324433    1.269757

 Total Charge           Charge          ....    0
 Multiplicity           Mult            ....    1
 Number of Electrons    NEL             ....   54
 Basis Dimension        Dim             ....  258

ORBITAL ENERGIES
----------------

  NO   OCC          E(Eh)            E(eV)
   0   2.0000     -20.558499      -559.4252
   1   2.0000     -20.554908      -559.3275
   2   2.0000     -20.553679      -559.2940
   3   2.0000     -11.272708      -306.7460
   4   2.0000     -11.268983      -306.6446
   5   2.0000     -11.267213      -306.5965
   6   2.0000      -1.347716       -36.6732
   7   2.0000      -1.344566       -36.5875
   8   2.0000      -1.341195       -36.4958
   9   2.0000      -0.920142       -25.0383
  10   2.0000      -0.916964       -24.9519
  11   2.0000      -0.914825       -24.8937
  12   2.0000      -0.682328       -18.5671
  13   2.0000      -0.679288       -18.4844
  14   2.0000      -0.676207       -18.4005
  15   2.0000      -0.618264       -16.8238
  16   2.0000      -0.614333       -16.7168
  17   2.0000      -0.612263       -16.6605
  18   2.0000      -0.592258       -16.1162
  19   2.0000      -0.588400       -16.0112
  20   2.0000      -0.586024       -15.9465
  21   2.0000      -0.501430       -13.6446
  22   2.0000      -0.498437       -13.5632
  23   2.0000      -0.496318       -13.5055
  24   2.0000      -0.449735       -12.2379
  25   2.0000      -0.446572       -12.1518
  26   2.0000      -0.445070       -12.1110
  27   0.0000       0.125579         3.4172
  28   0.0000       0.137892         3.7522
  29   0.0000       0.147122         4.0034
  30   0.0000       0.171126         4.6566
  31   0.0000       0.178901         4.8681

MULLIKEN ATOMIC CHARGES
-----------------------
   0 O :   -0.500741
   1 H :    0.327938
   2 C :   -0.173764
   3 H :    0.125783
   4 H :    0.110181
   5 H :    0.110367
   6 O :   -0.502598
   7 H :    0.324660
   8 C :   -0.175734
   9 H :    0.126884
  10 H :    0.108502
  11 H :    0.118342
  12 O :   -0.498735
  13 H :    0.322830
  14 C :   -0.174967
  15 H :    0.127779
  16 H :    0.107944
  17 H :    0.115328
Sum of atomic charges:   -0.0000000

LOEWDIN ATOMIC CHARGES
----------------------
   0 O :   -0.110632
   1 H :    0.195140
   2 C :   -0.384873
   3 H :    0.109219
   4 H :    0.095416
   5 H :    0.095542
   6 O :   -0.114917
   7 H :    0.192876
   8 C :   -0.380298
   9 H :    0.109556
  10 H :    0.095352
  11 H :    0.097529
  12 O :   -0.110316
  13 H :    0.190021
  14 C :   -0.381212
  15 H :    0.109557
  16 H :    0.094963
  17 H :    0.097077

  Mayer bond orders larger than 0.100000
B(  0-O ,  1-H ) :   0.8376 B(  0-O ,  2-C ) :   0.9285 B(  2-C ,  3-H ) :   0.9378
B(  2-C ,  4-H ) :   0.9398 B(  2-C ,  5-H ) :   0.9383 B(  6-O ,  7-H ) :   0.8397
B(  6-O ,  8-C ) :   0.9241 B(  8-C ,  9-H ) :   0.9376 B(  8-C , 10-H ) :   0.9388
B(  8-C , 11-H ) :   0.9386 B( 12-O , 13-H ) :   0.8424 B( 12-O , 14-C ) :   0.9256
B( 14-C , 15-H ) :   0.9378 B( 14-C , 16-H ) :   0.9382 B( 14-C , 17-H ) :   0.9400

MP2 TOTAL ENERGY:     -346.521408412 Eh
FINAL SINGLE POINT ENERGY      -346.521408412038

DIPOLE MOMENT
-------------
                                X             Y             Z
Electronic contribution:     -0.59111       2.27750      -0.67191
Nuclear contribution   :      0.23053      -2.86252       0.22370
                        -----------------------------------------
Total Dipole Moment    :     -0.36059      -0.58501      -0.44821
                        -----------------------------------------
Magnitude (a.u.)       :      0.82046
Magnitude (Debye)      :      2.08544

Rotational constants in cm-1:     0.028844     0.021243     0.012533
Rotational constants in MHz :   864.710556   636.856695   375.728465

                             ****ORCA TERMINATED NORMALLY****
TOTAL RUN TIME: 0 days 0 hours 0 minutes 47 seconds 428 msec
