                         Program Version 4.2.0 -  RELEASE  -
|  1> # 12meoh.boyd.etal.mol0,8,10
|  2> ! MP2 def2-TZVP EnGrad TightSCF
|  3>
|  4> %pal
|  5>     nprocs 6
|  6> end
|  7>
|  8> %maxcore 8000
|  9>
| 10> %scf
| 11>     ConvForced true
| 12> end
| 13>
| 14> *xyz 0 1
| 15> O  -1.776108874  -2.741384797  -1.019308298
| 16> H  -2.520094035  -2.452295987  -0.420778302
| 17> C  -2.174025166  -3.952700964  -1.647004581
| 18> H  -1.359803895  -4.272673416  -2.304149236
| 19> H  -3.075973971  -3.808692420  -2.256751112
| 20> H  -2.370225393  -4.752784761  -0.918966137
| 21> O   3.570084754   2.361662577  -0.202416728
| 22> H   3.393280933   1.755669977   0.560634073
| 23> C   4.368082883   1.644741793  -1.143112807
| 24> H   4.552851717   2.311801738  -1.989632421
| 25> H   3.862427494   0.740851663  -1.508095690
| 26> H   5.333949674   1.357289092  -0.706288100
| 27> O  -5.201143618   0.064582726  -0.172223772
| 28> H  -4.686891530   0.869258890   0.107806143
| 29> C  -6.513192168   0.171391798   0.359883449
| 30> H  -7.049381312  -0.749234190   0.111361174
| 31> H  -7.057741163   1.017801101  -0.081819420
| 32> H  -6.514770575   0.292264928   1.453058834
| 33> *
| 34>
| 35>                          ****END OF INPUT****

CARTESIAN COORDINATES (ANGSTROEM)
---------------------------------
  O     -1.776109   -2.741385   -1.019308
  H     -2.520094   -2.452296   -0.420778
  C     -2.174025   -3.952701   -1.647005
  H     -1.359804   -4.272673   -2.304149
  H     -3.075974   -3.808692   -2.256751
  H     -2.370225   -4.752785   -0.918966
  O      3.570085    2.361663   -0.202417
  H      3.393281    1.755670    0.560634
  C      4.368083    1.644742   -1.143113
  H      4.552852    2.311802   -1.989632
  H      3.862427    0.740852   -1.508096
  H      5.333950    1.357289   -0.706288
  O     -5.201144    0.064583   -0.172224
  H     -4.686892    0.869259    0.107806
  C     -6.513192    0.171392    0.359883
  H     -7.049381   -0.749234    0.111361
  H     -7.057741    1.017801   -0.081819
  H     -6.514771    0.292265    1.453059

 Total Charge           Charge          ....    0
 Multiplicity           Mult            ....    1
 Number of Electrons    NEL             ....   54
 Basis Dimension        Dim             ....  258

ORBITAL ENERGIES
----------------

  NO   OCC          E(Eh)            E(eV)
   0   2.0000     -20.563202      -559.5532
   1   2.0000     -20.553351      -559.2851
   2   2.0000     -20.549829      -559.1893
   3   2.0000     -11.275864      -306.8319
   4   2.0000     -11.267914      -306.6155
   5   2.0000     -11.265019      -306.5367
   6   2.0000      -1.353119       -36.8202
   7   2.0000      -1.342835       -36.5404
   8   2.0000      -1.339138       -36.4398
   9   2.0000      -0.923860       -25.1395
  10   2.0000      -0.916033       -24.9265
  11   2.0000      -0.912308       -24.8252
  12   2.0000      -0.687467       -18.7069
  13   2.0000      -0.677982       -18.4488
  14   2.0000      -0.673962       -18.3394
  15   2.0000      -0.621618       -16.9151
  16   2.0000      -0.613105       -16.6834
  17   2.0000      -0.610176       -16.6037
  18   2.0000      -0.596703       -16.2371
  19   2.0000      -0.585876       -15.9425
  20   2.0000      -0.584147       -15.8954
  21   2.0000      -0.505070       -13.7437
  22   2.0000      -0.497811       -13.5461
  23   2.0000      -0.493271       -13.4226
  24   2.0000      -0.453762       -12.3475
  25   2.0000      -0.445896       -12.1334
  26   2.0000      -0.441437       -12.0121
  27   0.0000       0.124267         3.3815
  28   0.0000       0.139398         3.7932
  29   0.0000       0.149891         4.0787
  30   0.0000       0.170746         4.6462
  31   0.0000       0.180121         4.9013

MULLIKEN ATOMIC CHARGES
-----------------------
   0 O :   -0.501561
   1 H :    0.327671
   2 C :   -0.171529
   3 H :    0.125261
   4 H :    0.112254
   5 H :    0.105698
   6 O :   -0.497095
   7 H :    0.320897
   8 C :   -0.174846
   9 H :    0.128475
  10 H :    0.114188
  11 H :    0.108380
  12 O :   -0.500793
  13 H :    0.325829
  14 C :   -0.173304
  15 H :    0.128293
  16 H :    0.111744
  17 H :    0.110437
Sum of atomic charges:    0.0000000

LOEWDIN ATOMIC CHARGES
----------------------
   0 O :   -0.110348
   1 H :    0.194582
   2 C :   -0.384848
   3 H :    0.108885
   4 H :    0.096112
   5 H :    0.094094
   6 O :   -0.110508
   7 H :    0.187718
   8 C :   -0.378886
   9 H :    0.110094
  10 H :    0.096544
  11 H :    0.095038
  12 O :   -0.109250
  13 H :    0.192804
  14 C :   -0.384336
  15 H :    0.110122
  16 H :    0.096418
  17 H :    0.095764

  Mayer bond orders larger than 0.100000
B(  0-O ,  1-H ) :   0.8367 B(  0-O ,  2-C ) :   0.9303 B(  2-C ,  3-H ) :   0.9378
B(  2-C ,  4-H ) :   0.9397 B(  2-C ,  5-H ) :   0.9386 B(  6-O ,  7-H ) :   0.8439
B(  6-O ,  8-C ) :   0.9247 B(  8-C ,  9-H ) :   0.9379 B(  8-C , 10-H ) :   0.9381
B(  8-C , 11-H ) :   0.9392 B( 12-O , 13-H ) :   0.8393 B( 12-O , 14-C ) :   0.9230
B( 14-C , 15-H ) :   0.9380 B( 14-C , 16-H ) :   0.9384 B( 14-C , 17-H ) :   0.9383

MP2 TOTAL ENERGY:     -346.521884201 Eh
FINAL SINGLE POINT ENERGY      -346.521884200943

DIPOLE MOMENT
-------------
                                X             Y             Z
Electronic contribution:      1.21848       2.29734       1.07534
Nuclear contribution   :     -1.87898      -2.69822      -0.48550
                        -----------------------------------------
Total Dipole Moment    :     -0.66049      -0.40089       0.58983
                        -----------------------------------------
Magnitude (a.u.)       :      0.97204
Magnitude (Debye)      :      2.47074

Rotational constants in cm-1:     0.040628     0.009772     0.007959
Rotational constants in MHz :  1217.995096   292.971624   238.616751

                             ****ORCA TERMINATED NORMALLY****
TOTAL RUN TIME: 0 days 0 hours 0 minutes 41 seconds 198 msec
