                         Program Version 4.2.0 -  RELEASE  -
|  1> # 12h2o.su.etal.mol1,5,7,10,11
|  2> ! MP2 def2-TZVP EnGrad TightSCF
|  3>
|  4> %pal
|  5>     nprocs 6
|  6> end
|  7>
|  8> %maxcore 8000
|  9>
| 10> %scf
| 11>     ConvForced true
| 12> end
| 13>
| 14> *xyz 0 1
| 15> O  -1.794470000  -0.923410000   2.768350000
| 16> H  -2.338250000  -1.359750000   3.430940000
| 17> H  -0.879480000  -1.303000000   2.865760000
| 18> O   0.885520000  -1.737840000   0.052730000
| 19> H   1.284090000  -0.839590000   0.017130000
| 20> H   1.032320000  -2.090180000  -0.841890000
| 21> O  -1.737840000  -0.885520000  -0.052730000
| 22> H  -2.090180000  -1.032320000   0.841890000
| 23> H  -0.839590000  -1.284090000  -0.017130000
| 24> O  -0.923410000   1.794470000  -2.768350000
| 25> H  -1.359750000   2.338250000  -3.430940000
| 26> H  -1.303000000   0.879480000  -2.865760000
| 27> O  -0.741530000   1.752130000   2.896280000
| 28> H  -0.920500000   2.036450000   1.984040000
| 29> H  -1.242140000   0.921210000   2.984230000
| 30> *
| 31>
| 32>                          ****END OF INPUT****

CARTESIAN COORDINATES (ANGSTROEM)
---------------------------------
  O     -1.794470   -0.923410    2.768350
  H     -2.338250   -1.359750    3.430940
  H     -0.879480   -1.303000    2.865760
  O      0.885520   -1.737840    0.052730
  H      1.284090   -0.839590    0.017130
  H      1.032320   -2.090180   -0.841890
  O     -1.737840   -0.885520   -0.052730
  H     -2.090180   -1.032320    0.841890
  H     -0.839590   -1.284090   -0.017130
  O     -0.923410    1.794470   -2.768350
  H     -1.359750    2.338250   -3.430940
  H     -1.303000    0.879480   -2.865760
  O     -0.741530    1.752130    2.896280
  H     -0.920500    2.036450    1.984040
  H     -1.242140    0.921210    2.984230

 Total Charge           Charge          ....    0
 Multiplicity           Mult            ....    1
 Number of Electrons    NEL             ....   50
 Basis Dimension        Dim             ....  215

ORBITAL ENERGIES
----------------

  NO   OCC          E(Eh)            E(eV)
   0   2.0000     -20.603414      -560.6474
   1   2.0000     -20.596868      -560.4693
   2   2.0000     -20.553008      -559.2758
   3   2.0000     -20.526708      -558.5601
   4   2.0000     -20.510115      -558.1086
   5   2.0000      -1.383637       -37.6507
   6   2.0000      -1.377387       -37.4806
   7   2.0000      -1.328401       -36.1476
   8   2.0000      -1.309222       -35.6257
   9   2.0000      -1.294595       -35.2277
  10   2.0000      -0.749219       -20.3873
  11   2.0000      -0.735531       -20.0148
  12   2.0000      -0.696634       -18.9564
  13   2.0000      -0.681767       -18.5518
  14   2.0000      -0.678939       -18.4749
  15   2.0000      -0.625934       -17.0325
  16   2.0000      -0.611840       -16.6490
  17   2.0000      -0.572397       -15.5757
  18   2.0000      -0.564985       -15.3740
  19   2.0000      -0.547236       -14.8911
  20   2.0000      -0.530980       -14.4487
  21   2.0000      -0.511512       -13.9190
  22   2.0000      -0.496253       -13.5037
  23   2.0000      -0.474616       -12.9150
  24   2.0000      -0.460538       -12.5319
  25   0.0000       0.095690         2.6039
  26   0.0000       0.120892         3.2897
  27   0.0000       0.141977         3.8634
  28   0.0000       0.170338         4.6351
  29   0.0000       0.188438         5.1277

MULLIKEN ATOMIC CHARGES
-----------------------
   0 O :   -0.710780
   1 H :    0.359792
   2 H :    0.372054
   3 O :   -0.689423
   4 H :    0.366326
   5 H :    0.358861
   6 O :   -0.730273
   7 H :    0.356447
   8 H :    0.336152
   9 O :   -0.688523
  10 H :    0.335394
  11 H :    0.350947
  12 O :   -0.711251
  13 H :    0.339746
  14 H :    0.354531
Sum of atomic charges:    0.0000000

LOEWDIN ATOMIC CHARGES
----------------------
   0 O :   -0.286281
   1 H :    0.165776
   2 H :    0.191946
   3 O :   -0.294400
   4 H :    0.183815
   5 H :    0.174069
   6 O :   -0.369034
   7 H :    0.142372
   8 H :    0.134333
   9 O :   -0.341761
  10 H :    0.156338
  11 H :    0.183167
  12 O :   -0.349715
  13 H :    0.164299
  14 H :    0.145076

  Mayer bond orders larger than 0.100000
B(  0-O ,  1-H ) :   0.8342 B(  0-O ,  2-H ) :   0.8196 B(  3-O ,  4-H ) :   0.8293
B(  3-O ,  5-H ) :   0.8375 B(  6-O ,  7-H ) :   0.8328 B(  6-O ,  8-H ) :   0.8128
B(  9-O , 10-H ) :   0.8550 B(  9-O , 11-H ) :   0.8386 B( 12-O , 13-H ) :   0.8507
B( 12-O , 14-H ) :   0.8260

MP2 TOTAL ENERGY:     -381.586764050 Eh
FINAL SINGLE POINT ENERGY      -381.586764049886

DIPOLE MOMENT
-------------
                                X             Y             Z
Electronic contribution:      0.14863      -0.00580       0.24210
Nuclear contribution   :     -0.02748      -1.44265      -0.68611
                        -----------------------------------------
Total Dipole Moment    :      0.12114      -1.44845      -0.44401
                        -----------------------------------------
Magnitude (a.u.)       :      1.51981
Magnitude (Debye)      :      3.86305

Rotational constants in cm-1:     0.062107     0.034076     0.027401
Rotational constants in MHz :  1861.928286  1021.577905   821.450568

                             ****ORCA TERMINATED NORMALLY****
TOTAL RUN TIME: 0 days 0 hours 0 minutes 32 seconds 738 msec
