                         Program Version 4.2.0 -  RELEASE  -
|  1> # 12meoh.boyd.etal.mol1,4,7
|  2> ! MP2 def2-TZVP EnGrad TightSCF
|  3>
|  4> %pal
|  5>     nprocs 6
|  6> end
|  7>
|  8> %maxcore 8000
|  9>
| 10> %scf
| 11>     ConvForced true
| 12> end
| 13>
| 14> *xyz 0 1
| 15> O   0.666045193  -2.600503172   0.138317521
| 16> H  -0.227115049  -2.712051982  -0.281868004
| 17> C   0.490021232  -1.851247678   1.341189459
| 18> H   1.466500502  -1.466176022   1.645844415
| 19> H   0.097564527  -2.488364683   2.146902740
| 20> H  -0.187588112  -1.000787499   1.200739571
| 21> O  -1.358578914   1.232360421   1.189721000
| 22> H  -1.058250183   1.216459361   0.238591307
| 23> C  -0.389763452   1.957872567   1.943072362
| 24> H  -0.747220771   2.012806578   2.975200343
| 25> H  -0.260410585   2.982763209   1.565366540
| 26> H   0.585220638   1.453754179   1.934070793
| 27> O   4.310535586  -1.588322800   0.656128299
| 28> H   3.804372199  -1.630404735  -0.196849819
| 29> C   4.312298137  -2.894980854   1.222112691
| 30> H   4.713177833  -2.819907076   2.237066773
| 31> H   4.957796734  -3.574699304   0.648211180
| 32> H   3.302735989  -3.324433205   1.269756773
| 33> *
| 34>
| 35>                          ****END OF INPUT****

CARTESIAN COORDINATES (ANGSTROEM)
---------------------------------
  O      0.666045   -2.600503    0.138318
  H     -0.227115   -2.712052   -0.281868
  C      0.490021   -1.851248    1.341189
  H      1.466501   -1.466176    1.645844
  H      0.097565   -2.488365    2.146903
  H     -0.187588   -1.000787    1.200740
  O     -1.358579    1.232360    1.189721
  H     -1.058250    1.216459    0.238591
  C     -0.389763    1.957873    1.943072
  H     -0.747221    2.012807    2.975200
  H     -0.260411    2.982763    1.565367
  H      0.585221    1.453754    1.934071
  O      4.310536   -1.588323    0.656128
  H      3.804372   -1.630405   -0.196850
  C      4.312298   -2.894981    1.222113
  H      4.713178   -2.819907    2.237067
  H      4.957797   -3.574699    0.648211
  H      3.302736   -3.324433    1.269757

 Total Charge           Charge          ....    0
 Multiplicity           Mult            ....    1
 Number of Electrons    NEL             ....   54
 Basis Dimension        Dim             ....  258

ORBITAL ENERGIES
----------------

  NO   OCC          E(Eh)            E(eV)
   0   2.0000     -20.566239      -559.6358
   1   2.0000     -20.559897      -559.4632
   2   2.0000     -20.550084      -559.1962
   3   2.0000     -11.276378      -306.8458
   4   2.0000     -11.265857      -306.5596
   5   2.0000     -11.262316      -306.4632
   6   2.0000      -1.353832       -36.8396
   7   2.0000      -1.347796       -36.6754
   8   2.0000      -1.339520       -36.4502
   9   2.0000      -0.924855       -25.1666
  10   2.0000      -0.917476       -24.9658
  11   2.0000      -0.910964       -24.7886
  12   2.0000      -0.687884       -18.7183
  13   2.0000      -0.683442       -18.5974
  14   2.0000      -0.672562       -18.3013
  15   2.0000      -0.627194       -17.0668
  16   2.0000      -0.611667       -16.6443
  17   2.0000      -0.610423       -16.6105
  18   2.0000      -0.596875       -16.2418
  19   2.0000      -0.588012       -16.0006
  20   2.0000      -0.583207       -15.8699
  21   2.0000      -0.507101       -13.7989
  22   2.0000      -0.500741       -13.6259
  23   2.0000      -0.492844       -13.4110
  24   2.0000      -0.457566       -12.4510
  25   2.0000      -0.447694       -12.1824
  26   2.0000      -0.441166       -12.0047
  27   0.0000       0.118237         3.2174
  28   0.0000       0.144354         3.9281
  29   0.0000       0.155936         4.2432
  30   0.0000       0.175128         4.7655
  31   0.0000       0.179456         4.8832

MULLIKEN ATOMIC CHARGES
-----------------------
   0 O :   -0.513683
   1 H :    0.323851
   2 C :   -0.196324
   3 H :    0.139914
   4 H :    0.110891
   5 H :    0.115450
   6 O :   -0.495832
   7 H :    0.326403
   8 C :   -0.181743
   9 H :    0.131714
  10 H :    0.118800
  11 H :    0.118583
  12 O :   -0.510534
  13 H :    0.329627
  14 C :   -0.183703
  15 H :    0.124085
  16 H :    0.112261
  17 H :    0.130240
Sum of atomic charges:    0.0000000

LOEWDIN ATOMIC CHARGES
----------------------
   0 O :   -0.118266
   1 H :    0.190306
   2 C :   -0.386241
   3 H :    0.108756
   4 H :    0.097316
   5 H :    0.099174
   6 O :   -0.108670
   7 H :    0.191623
   8 C :   -0.381490
   9 H :    0.111465
  10 H :    0.098603
  11 H :    0.096531
  12 O :   -0.111008
  13 H :    0.191843
  14 C :   -0.383056
  15 H :    0.107881
  16 H :    0.095975
  17 H :    0.099260

  Mayer bond orders larger than 0.100000
B(  0-O ,  1-H ) :   0.8420 B(  0-O ,  2-C ) :   0.8979 B(  2-C ,  3-H ) :   0.9317
B(  2-C ,  4-H ) :   0.9370 B(  2-C ,  5-H ) :   0.9350 B(  6-O ,  7-H ) :   0.8388
B(  6-O ,  8-C ) :   0.9064 B(  8-C ,  9-H ) :   0.9379 B(  8-C , 10-H ) :   0.9391
B(  8-C , 11-H ) :   0.9369 B( 12-O , 13-H ) :   0.8381 B( 12-O , 14-C ) :   0.9102
B( 14-C , 15-H ) :   0.9387 B( 14-C , 16-H ) :   0.9412 B( 14-C , 17-H ) :   0.9351

MP2 TOTAL ENERGY:     -346.526574037 Eh
FINAL SINGLE POINT ENERGY      -346.526574037205

DIPOLE MOMENT
-------------
                                X             Y             Z
Electronic contribution:     -0.94132      -0.08383      -2.87063
Nuclear contribution   :      0.49653       0.15178       2.54146
                        -----------------------------------------
Total Dipole Moment    :     -0.44479       0.06795      -0.32916
                        -----------------------------------------
Magnitude (a.u.)       :      0.55750
Magnitude (Debye)      :      1.41705

Rotational constants in cm-1:     0.102138     0.023793     0.020418
Rotational constants in MHz :  3062.014654   713.289665   612.112080

                             ****ORCA TERMINATED NORMALLY****
TOTAL RUN TIME: 0 days 0 hours 1 minutes 18 seconds 903 msec
