                         Program Version 4.2.0 -  RELEASE  -
|  1> ! MP2 def2-TZVP EnGrad TightSCF FrozenCore
|  2>
|  3> %pal
|  4>     nprocs 8
|  5> end
|  6>
|  7> %maxcore 8000
|  8>
|  9> %scf
| 10>     ConvForced true
| 11> end
| 12>
| 13> *xyz 0 1
| 14> O          0.00000        0.00000        0.00000
| 15> H          0.96500        0.00000        0.00000
| 16> H         -0.25145        0.00000       -0.95236
| 17> O         -1.49986        2.16806        0.77799
| 18> H         -0.89276        1.40897        0.61794
| 19> H         -2.05540        1.88777        1.51571
| 20> O         -2.44037        2.43735       -1.79073
| 21> H         -2.21329        2.41726       -0.83237
| 22> H         -2.29351        3.35258       -2.05944
| 23> O         -0.82910        0.36100       -2.59568
| 24> H         -1.41216        1.13978       -2.44151
| 25> H         -1.38502       -0.27386       -3.06420
| 26> *
| 27>
| 28>
| 29>                          ****END OF INPUT****

CARTESIAN COORDINATES (ANGSTROEM)
---------------------------------
  O      0.000000    0.000000    0.000000
  H      0.965000    0.000000    0.000000
  H     -0.251450    0.000000   -0.952360
  O     -1.499860    2.168060    0.777990
  H     -0.892760    1.408970    0.617940
  H     -2.055400    1.887770    1.515710
  O     -2.440370    2.437350   -1.790730
  H     -2.213290    2.417260   -0.832370
  H     -2.293510    3.352580   -2.059440
  O     -0.829100    0.361000   -2.595680
  H     -1.412160    1.139780   -2.441510
  H     -1.385020   -0.273860   -3.064200

 Total Charge           Charge          ....    0
 Multiplicity           Mult            ....    1
 Number of Electrons    NEL             ....   40
 Basis Dimension        Dim             ....  172

ORBITAL ENERGIES
----------------

  NO   OCC          E(Eh)            E(eV)
   0   2.0000     -20.555227      -559.3362
   1   2.0000     -20.555221      -559.3360
   2   2.0000     -20.555212      -559.3358
   3   2.0000     -20.555205      -559.3356
   4   2.0000      -1.357193       -36.9311
   5   2.0000      -1.341784       -36.5118
   6   2.0000      -1.341761       -36.5112
   7   2.0000      -1.326635       -36.0996
   8   2.0000      -0.725863       -19.7517
   9   2.0000      -0.711751       -19.3677
  10   2.0000      -0.711707       -19.3665
  11   2.0000      -0.702592       -19.1185
  12   2.0000      -0.621478       -16.9113
  13   2.0000      -0.584330       -15.9004
  14   2.0000      -0.584319       -15.9001
  15   2.0000      -0.548222       -14.9179
  16   2.0000      -0.504135       -13.7182
  17   2.0000      -0.503170       -13.6920
  18   2.0000      -0.503159       -13.6917
  19   2.0000      -0.502462       -13.6727
  20   0.0000       0.124228         3.3804
  21   0.0000       0.158594         4.3156
  22   0.0000       0.158607         4.3159
  23   0.0000       0.177245         4.8231
  24   0.0000       0.296061         8.0562

MULLIKEN ATOMIC CHARGES
-----------------------
   0 O :   -0.730322
   1 H :    0.345390
   2 H :    0.384961
   3 O :   -0.730357
   4 H :    0.384954
   5 H :    0.345389
   6 O :   -0.730357
   7 H :    0.384951
   8 H :    0.345400
   9 O :   -0.730354
  10 H :    0.384944
  11 H :    0.345402
Sum of atomic charges:   -0.0000000

LOEWDIN ATOMIC CHARGES
----------------------
   0 O :   -0.314041
   1 H :    0.161613
   2 H :    0.152453
   3 O :   -0.314178
   4 H :    0.152501
   5 H :    0.161666
   6 O :   -0.314190
   7 H :    0.152509
   8 H :    0.161671
   9 O :   -0.314182
  10 H :    0.152439
  11 H :    0.161739

  Mayer bond orders larger than 0.100000
B(  0-O ,  1-H ) :   0.8454 B(  0-O ,  2-H ) :   0.7645 B(  3-O ,  4-H ) :   0.7645
B(  3-O ,  5-H ) :   0.8454 B(  6-O ,  7-H ) :   0.7645 B(  6-O ,  8-H ) :   0.8454
B(  9-O , 10-H ) :   0.7645 B(  9-O , 11-H ) :   0.8454

MP2 TOTAL ENERGY:     -305.301691973 Eh
FINAL SINGLE POINT ENERGY      -305.301691972792

DIPOLE MOMENT
-------------
                                X             Y             Z
Electronic contribution:      0.00019      -0.00001      -0.00007
Nuclear contribution   :      0.00006      -0.00027       0.00051
                        -----------------------------------------
Total Dipole Moment    :      0.00025      -0.00027       0.00044
                        -----------------------------------------
Magnitude (a.u.)       :      0.00058
Magnitude (Debye)      :      0.00146

Rotational constants in cm-1:     0.119676     0.119634     0.060710
Rotational constants in MHz :  3587.792921  3586.549607  1820.054814

                             ****ORCA TERMINATED NORMALLY****
TOTAL RUN TIME: 0 days 0 hours 0 minutes 49 seconds 987 msec
