                         Program Version 3.0.3 - RELEASE   -
|  1> ! BP86 Def2-SVP TightSCF Opt D3BJ
|  2>
|  3> %pal nprocs 12 end
|  4>
|  5> %scf
|  6>         maxiter 800
|  7> end
|  8>
|  9> * xyz  0  1
| 10> O  3.25485269	0.95705451	-3.22318125
| 11> H  3.71202159	1.41409700	-3.92911368
| 12> H  2.64815113	0.36818470	-3.67193220
| 13> O  -2.31356970	0.59810890	-0.33838569
| 14> H  -3.12657429	0.78366328	0.13153448
| 15> H  -1.68730221	1.23561964	0.00454421
| 16> O  -0.43612135	-0.07251370	-2.29476721
| 17> H  -1.26169656	0.15510007	-1.86715828
| 18> H  0.19168933	0.56833056	-1.96099448
| 19> O  1.47599056	-0.81433812	-4.19990567
| 20> H  1.73913943	-1.65532219	-3.82610049
| 21> H  0.65621586	-0.59982351	-3.75472619
| 22> O  2.40065339	-2.97253797	-2.70181656
| 23> H  3.07324562	-2.40714976	-2.32209599
| 24> H  2.87297181	-3.76083932	-2.96963765
| 25> O  -4.26101582	1.17570977	1.54177457
| 26> H  -5.12281008	1.59221405	1.54994049
| 27> H  -3.67911862	1.82029324	1.94444025
| 28> O  0.36065099	0.09786891	2.38437456
| 29> H  -0.05934199	0.35171960	3.20620032
| 30> H  -0.22982812	-0.55239509	2.00394979
| 31> O  -3.14071730	-0.79843832	3.14989654
| 32> H  -2.63160615	-1.29467445	2.50896956
| 33> H  -3.68593243	-0.21425502	2.62292198
| 34> O  -1.39873267	0.84126915	4.38764945
| 35> H  -2.04326236	0.21900536	4.05060184
| 36> H  -1.45288381	0.75118932	5.33906162
| 37> O  1.48136514	1.50787220	-1.17250806
| 38> H  2.12545031	1.54645043	-1.87954261
| 39> H  1.82192869	0.84335263	-0.57362404
| 40> O  -2.39398225	2.77085155	2.64852076
| 41> H  -1.68269803	2.83217934	2.01091155
| 42> H  -2.02976385	2.25117072	3.36511594
| 43> O  -1.39654802	-1.53098974	1.08940145
| 44> H  -0.84482961	-2.04108315	0.49640621
| 45> H  -1.78580779	-0.85573099	0.53376282
| 46> O  -0.39457875	2.16931076	0.78708677
| 47> H  -0.04828293	1.50936429	1.38773784
| 48> H  0.27169084	2.24534246	0.10405247
| 49> O  4.06774475	-1.16131270	-1.60799717
| 50> H  3.66246536	-0.93924608	-0.76974489
| 51> H  3.95854468	-0.37519403	-2.14309027
| 52> O  2.22867632	-0.56629803	0.41680009
| 53> H  1.83633448	-0.35987751	1.26514572
| 54> H  1.64559517	-1.22308270	0.03616626
| 55> O  0.47171135	-2.20388936	-0.87362929
| 56> H  1.06027397	-2.68175344	-1.45798518
| 57> H  0.08615776	-1.52333656	-1.42537937
| 58> **                         ****END OF INPUT****
 Total Charge           Charge          ....    0
 Multiplicity           Mult            ....    1
 Number of Electrons    NEL             ....  160
Dispersion correction           -0.054926639
FINAL SINGLE POINT ENERGY     -1222.210593296475
Dispersion correction            ...
Dispersion correction           -0.054249183
FINAL SINGLE POINT ENERGY     -1222.241131998804
Dispersion correction            ...
Dispersion correction           -0.054435326
FINAL SINGLE POINT ENERGY     -1222.250627558114
Dispersion correction            ...
FINAL SINGLE POINT ENERGY     -1222.254752339193
FINAL SINGLE POINT ENERGY     -1222.258038359588
FINAL SINGLE POINT ENERGY     -1222.260852507366
FINAL SINGLE POINT ENERGY     -1222.263121031615
FINAL SINGLE POINT ENERGY     -1222.264778663270
FINAL SINGLE POINT ENERGY     -1222.265839529168
FINAL SINGLE POINT ENERGY     -1222.266379757499
FINAL SINGLE POINT ENERGY     -1222.267971365944
FINAL SINGLE POINT ENERGY     -1222.267991207645
FINAL SINGLE POINT ENERGY     -1222.268006179774
FINAL SINGLE POINT ENERGY     -1222.268016592933
FINAL SINGLE POINT ENERGY     -1222.268024018160
FINAL SINGLE POINT ENERGY     -1222.268031680417
FINAL SINGLE POINT ENERGY     -1222.268040488098
Dispersion correction            ...
Dispersion correction           -0.058782944
FINAL SINGLE POINT ENERGY     -1222.268049031296
Dispersion correction            ...
Dispersion correction           -0.058781230
FINAL SINGLE POINT ENERGY     -1222.268055562341
Dispersion correction            ...
                    ***********************HURRAY********************

CARTESIAN COORDINATES (ANGSTROEM)
---------------------------------
  O      3.069307    0.853997   -3.052739
  H      3.569637    1.357390   -3.720591
  H      2.411056    0.237346   -3.584059
  O     -2.207613    0.533820   -0.375330
  H     -3.058659    0.761286    0.100572
  H     -1.547974    1.205259    0.010676
  O     -0.430829   -0.099117   -2.265419
  H     -1.303720    0.131392   -1.843630
  H      0.216715    0.575608   -1.866213
  O      1.401540   -0.744474   -4.153757
  H      1.682672   -1.599812   -3.720257
  H      0.546173   -0.526820   -3.694459
  O      2.299488   -2.764341   -2.557466
  H      3.057637   -2.188300   -2.123140
  H      2.718773   -3.595160   -2.846242
  O     -3.993759    1.127441    1.503420
  H     -4.891563    1.506125    1.477407
  H     -3.381897    1.860928    1.932287
  O      0.404903    0.109972    2.262593
  H     -0.024555    0.335073    3.138784
  H     -0.241918   -0.566151    1.862063
  O     -3.058696   -0.855747    3.117800
  H     -2.516234   -1.358521    2.450996
  H     -3.583357   -0.223920    2.547424
  O     -1.370956    0.780724    4.127829
  H     -2.072438    0.078218    3.792437
  H     -1.377544    0.725123    5.101100
  O      1.362027    1.481580   -1.116185
  H      2.045304    1.539099   -1.846223
  H      1.742769    0.761240   -0.506386
  O     -2.340671    2.777833    2.548060
  H     -1.607470    2.825782    1.875973
  H     -1.953442    2.197892    3.264759
  O     -1.355894   -1.492585    1.103591
  H     -0.802224   -2.051136    0.491288
  H     -1.734008   -0.774090    0.490583
  O     -0.417566    2.126688    0.754668
  H     -0.035655    1.407427    1.364393
  H      0.278268    2.235417    0.048184
  O      4.012234   -1.179456   -1.502661
  H      3.584421   -0.939643   -0.636251
  H      3.851751   -0.368565   -2.065005
  O      2.192484   -0.527508    0.391845
  H      1.815059   -0.315788    1.289938
  H      1.537071   -1.201982    0.003922
  O      0.427312   -2.120195   -0.783322
  H      1.030544   -2.635811   -1.393942
  H      0.048012   -1.402297   -1.395664

 Multiplicity           Mult            ....    1
 Number of Electrons    NEL             ....  160
 Basis Dimension        Dim             ....  384

ORBITAL ENERGIES
----------------

  NO   OCC          E(Eh)            E(eV)
   0   2.0000     -18.790254      -511.3088
   1   2.0000     -18.790122      -511.3052
   2   2.0000     -18.790010      -511.3022
   3   2.0000     -18.789731      -511.2946
   4   2.0000     -18.776873      -510.9447
   5   2.0000     -18.776463      -510.9335
   6   2.0000     -18.776298      -510.9290
   7   2.0000     -18.775666      -510.9118
   8   2.0000     -18.775202      -510.8992
   9   2.0000     -18.774975      -510.8930
  10   2.0000     -18.774694      -510.8854
  11   2.0000     -18.774533      -510.8810
  12   2.0000     -18.768797      -510.7249
  13   2.0000     -18.768598      -510.7195
  14   2.0000     -18.768200      -510.7087
  15   2.0000     -18.768173      -510.7080
  16   2.0000      -0.932731       -25.3809
  17   2.0000      -0.926713       -25.2171
  18   2.0000      -0.916811       -24.9477
  19   2.0000      -0.915558       -24.9136
  20   2.0000      -0.914161       -24.8756
  21   2.0000      -0.907320       -24.6894
  22   2.0000      -0.906255       -24.6605
  23   2.0000      -0.903330       -24.5808
  24   2.0000      -0.895714       -24.3736
  25   2.0000      -0.890999       -24.2453
  26   2.0000      -0.889898       -24.2154
  27   2.0000      -0.885818       -24.1043
  28   2.0000      -0.884559       -24.0701
  29   2.0000      -0.883704       -24.0468
  30   2.0000      -0.875595       -23.8262
  31   2.0000      -0.865477       -23.5508
  32   2.0000      -0.491570       -13.3763
  33   2.0000      -0.489428       -13.3180
  34   2.0000      -0.488776       -13.3003
  35   2.0000      -0.487335       -13.2611
  36   2.0000      -0.481857       -13.1120
  37   2.0000      -0.478434       -13.0189
  38   2.0000      -0.477503       -12.9935
  39   2.0000      -0.475890       -12.9496
  40   2.0000      -0.466495       -12.6940
  41   2.0000      -0.464652       -12.6438
  42   2.0000      -0.460627       -12.5343
  43   2.0000      -0.459738       -12.5101
  44   2.0000      -0.459661       -12.5080
  45   2.0000      -0.453865       -12.3503
  46   2.0000      -0.452794       -12.3211
  47   2.0000      -0.451160       -12.2767
  48   2.0000      -0.411242       -11.1905
  49   2.0000      -0.399249       -10.8641
  50   2.0000      -0.376331       -10.2405
  51   2.0000      -0.372934       -10.1481
  52   2.0000      -0.370313       -10.0767
  53   2.0000      -0.360614        -9.8128
  54   2.0000      -0.359488        -9.7822
  55   2.0000      -0.351254        -9.5581
  56   2.0000      -0.342408        -9.3174
  57   2.0000      -0.339583        -9.2405
  58   2.0000      -0.336572        -9.1586
  59   2.0000      -0.332061        -9.0359
  60   2.0000      -0.317763        -8.6468
  61   2.0000      -0.317110        -8.6290
  62   2.0000      -0.303513        -8.2590
  63   2.0000      -0.286263        -7.7896
  64   2.0000      -0.275834        -7.5058
  65   2.0000      -0.275023        -7.4837
  66   2.0000      -0.274403        -7.4669
  67   2.0000      -0.271502        -7.3879
  68   2.0000      -0.268833        -7.3153
  69   2.0000      -0.266473        -7.2511
  70   2.0000      -0.264986        -7.2106
  71   2.0000      -0.262285        -7.1371
  72   2.0000      -0.262047        -7.1306
  73   2.0000      -0.262041        -7.1305
  74   2.0000      -0.259568        -7.0632
  75   2.0000      -0.256095        -6.9687
  76   2.0000      -0.254264        -6.9189
  77   2.0000      -0.253738        -6.9046
  78   2.0000      -0.253512        -6.8984
  79   2.0000      -0.253005        -6.8846
  80   0.0000       0.002821         0.0768
  81   0.0000       0.016844         0.4583
  82   0.0000       0.035529         0.9668
  83   0.0000       0.035829         0.9750
  84   0.0000       0.053510         1.4561

MULLIKEN ATOMIC CHARGES
-----------------------
   0 O :   -0.337690
   1 H :    0.184716
   2 H :    0.168279
   3 O :   -0.327477
   4 H :    0.166838
   5 H :    0.134940
   6 O :   -0.323232
   7 H :    0.184392
   8 H :    0.134693
   9 O :   -0.308854
  10 H :    0.151059
  11 H :    0.173198
  12 O :   -0.341695
  13 H :    0.169366
  14 H :    0.186332
  15 O :   -0.338654
  16 H :    0.186137
  17 H :    0.168908
  18 O :   -0.328550
  19 H :    0.169056
  20 H :    0.134270
  21 O :   -0.304574
  22 H :    0.174215
  23 H :    0.149613
  24 O :   -0.336303
  25 H :    0.164984
  26 H :    0.185737
  27 O :   -0.329855
  28 H :    0.169553
  29 H :    0.134295
  30 O :   -0.307380
  31 H :    0.175008
  32 H :    0.147399
  33 O :   -0.324024
  34 H :    0.186206
  35 H :    0.132403
  36 O :   -0.325540
  37 H :    0.131235
  38 H :    0.187475
  39 O :   -0.309322
  40 H :    0.172633
  41 H :    0.148921
  42 O :   -0.324754
  43 H :    0.186595
  44 H :    0.134754
  45 O :   -0.329357
  46 H :    0.170082
  47 H :    0.133970
Sum of atomic charges:   -0.0000000

LOEWDIN ATOMIC CHARGES
----------------------
   0 O :   -0.100573
   1 H :    0.086529
   2 H :    0.030658
   3 O :   -0.095026
   4 H :    0.042609
   5 H :    0.026571
   6 O :   -0.088992
   7 H :    0.056232
   8 H :    0.027422
   9 O :   -0.079139
  10 H :    0.040523
  11 H :    0.053534
  12 O :   -0.102191
  13 H :    0.031224
  14 H :    0.087089
  15 O :   -0.101367
  16 H :    0.087190
  17 H :    0.030402
  18 O :   -0.094862
  19 H :    0.043668
  20 H :    0.026438
  21 O :   -0.078256
  22 H :    0.054010
  23 H :    0.041033
  24 O :   -0.102200
  25 H :    0.029716
  26 H :    0.086824
  27 O :   -0.095747
  28 H :    0.043755
  29 H :    0.026689
  30 O :   -0.079606
  31 H :    0.053724
  32 H :    0.040631
  33 O :   -0.088913
  34 H :    0.057068
  35 H :    0.027300
  36 O :   -0.089766
  37 H :    0.026653
  38 H :    0.056647
  39 O :   -0.081318
  40 H :    0.052987
  41 H :    0.039945
  42 O :   -0.087861
  43 H :    0.056415
  44 H :    0.027588
  45 O :   -0.096031
  46 H :    0.043901
  47 H :    0.026870

  Mayer bond orders larger than 0.1
B(  0-O ,  1-H ) :   0.9757 B(  0-O ,  2-H ) :   0.7687 B(  0-O , 28-H ) :   0.1908
B(  0-O , 41-H ) :   0.1906 B(  2-H ,  9-O ) :   0.3049 B(  3-O ,  4-H ) :   0.8750
B(  3-O ,  5-H ) :   0.8269 B(  3-O ,  7-H ) :   0.1560 B(  3-O , 35-H ) :   0.2623
B(  4-H , 15-O ) :   0.1958 B(  5-H , 36-O ) :   0.2570 B(  6-O ,  7-H ) :   0.8929
B(  6-O ,  8-H ) :   0.8276 B(  6-O , 11-H ) :   0.1511 B(  6-O , 47-H ) :   0.2579
B(  8-H , 27-O ) :   0.2576 B(  9-O , 10-H ) :   0.8961 B(  9-O , 11-H ) :   0.9113
B( 10-H , 12-O ) :   0.1893 B( 12-O , 13-H ) :   0.7679 B( 12-O , 14-H ) :   0.9748
B( 12-O , 46-H ) :   0.1899 B( 13-H , 39-O ) :   0.3057 B( 15-O , 16-H ) :   0.9749
B( 15-O , 17-H ) :   0.7655 B( 15-O , 23-H ) :   0.1890 B( 17-H , 30-O ) :   0.3064
B( 18-O , 19-H ) :   0.8748 B( 18-O , 20-H ) :   0.8266 B( 18-O , 37-H ) :   0.2601
B( 18-O , 43-H ) :   0.1568 B( 19-H , 24-O ) :   0.1943 B( 20-H , 33-O ) :   0.2572
B( 21-O , 22-H ) :   0.9117 B( 21-O , 23-H ) :   0.8968 B( 21-O , 25-H ) :   0.3086
B( 22-H , 33-O ) :   0.1484 B( 24-O , 25-H ) :   0.7651 B( 24-O , 26-H ) :   0.9757
B( 24-O , 32-H ) :   0.1917 B( 27-O , 28-H ) :   0.8765 B( 27-O , 29-H ) :   0.8270
B( 27-O , 38-H ) :   0.1548 B( 29-H , 42-O ) :   0.2565 B( 30-O , 31-H ) :   0.9107
B( 30-O , 32-H ) :   0.8956 B( 31-H , 36-O ) :   0.1490 B( 33-O , 34-H ) :   0.8944
B( 33-O , 35-H ) :   0.8259 B( 34-H , 45-O ) :   0.1529 B( 36-O , 37-H ) :   0.8268
B( 36-O , 38-H ) :   0.8918 B( 39-O , 40-H ) :   0.9099 B( 39-O , 41-H ) :   0.8961
B( 40-H , 42-O ) :   0.1528 B( 42-O , 43-H ) :   0.8913 B( 42-O , 44-H ) :   0.8267
B( 44-H , 45-O ) :   0.2583 B( 45-O , 46-H ) :   0.8774 B( 45-O , 47-H ) :   0.8278

Dispersion correction           -0.058786530
FINAL SINGLE POINT ENERGY     -1222.268059914040

DIPOLE MOMENT
-------------
                                X             Y             Z
Electronic contribution:     -0.02066       0.00478       0.00922
Nuclear contribution   :      0.01380      -0.02052      -0.00427
                        -----------------------------------------
Total Dipole Moment    :     -0.00686      -0.01574       0.00495
                        -----------------------------------------
Magnitude (a.u.)       :      0.01787
Magnitude (Debye)      :      0.04543

                             ****ORCA TERMINATED NORMALLY****
TOTAL RUN TIME: 0 days 0 hours 30 minutes 42 seconds 887 msec
