                         Program Version 4.2.0 -  RELEASE  -
|  1> ! MP2 def2-TZVP EnGrad TightSCF FrozenCore
|  2>
|  3> %pal
|  4>     nprocs 12
|  5> end
|  6>
|  7> %maxcore 8000
|  8>
|  9> %scf
| 10>     ConvForced true
| 11> end
| 12>
| 13> *xyz 0 1
| 14> O    -0.2817305715     0.3554694563    -1.4634990306
| 15> H     0.6477544431     0.3375444105    -1.0786904407
| 16> C    -0.2003418221     0.4529895256    -2.8830889058
| 17> H    -1.2203798706     0.4623781237    -3.2763426009
| 18> H     0.3350977724    -0.4027494754    -3.3143431024
| 19> H     0.3046629038     1.3773395971    -3.1926291411
| 20> O    -1.2217511346    -1.7203313226     0.1075174659
| 21> H    -1.0019717526    -1.05518154      -0.5847669394
| 22> C    -2.3330942777    -1.2205295878     0.8569813559
| 23> H    -2.4015892396    -1.8121522904     1.7740476786
| 24> H    -3.2701139802    -1.3441273385     0.2958268174
| 25> H    -2.2047229529    -0.162906598      1.1154900337
| 26> O     1.2109942352    -1.8074038217     1.2895873819
| 27> H     0.2733200763    -1.821982835      0.9620093195
| 28> C     1.7640127802    -3.1044552355     1.1081670144
| 29> H     2.8104538548    -3.0658125966     1.4237714229
| 30> H     1.7271423042    -3.4332354672     0.0594307582
| 31> H     1.2435900615    -3.8498974736     1.7248736344
| 32> O     2.0615819805     0.2447157997    -0.2373372695
| 33> H     1.8607331499    -0.5307826795     0.3535308073
| 34> C     2.2200092596     1.3994947874     0.5936965536
| 35> H     2.6488688573     2.1925899286    -0.0262765819
| 36> H     2.9123753271     1.1923802259     1.4187887419
| 37> H     1.2608612937     1.7454363267     0.9995820913
| 38> O    -1.2502288289     2.0638570828     0.5606574018
| 39> H    -1.0057533302     1.5801244788    -0.2549156138
| 40> C    -1.9129879956     3.2584741275     0.1924269109
| 41> H    -2.1757382875     3.7852093971     1.1149101929
| 42> H    -2.8430944747     3.0721911035    -0.3682350874
| 43> H    -1.2780092683     3.9273354432    -0.4105671616
| 44> *
| 45>
| 46>                          ****END OF INPUT****

CARTESIAN COORDINATES (ANGSTROEM)
---------------------------------
  O     -0.281731    0.355469   -1.463499
  H      0.647754    0.337544   -1.078690
  C     -0.200342    0.452990   -2.883089
  H     -1.220380    0.462378   -3.276343
  H      0.335098   -0.402749   -3.314343
  H      0.304663    1.377340   -3.192629
  O     -1.221751   -1.720331    0.107517
  H     -1.001972   -1.055182   -0.584767
  C     -2.333094   -1.220530    0.856981
  H     -2.401589   -1.812152    1.774048
  H     -3.270114   -1.344127    0.295827
  H     -2.204723   -0.162907    1.115490
  O      1.210994   -1.807404    1.289587
  H      0.273320   -1.821983    0.962009
  C      1.764013   -3.104455    1.108167
  H      2.810454   -3.065813    1.423771
  H      1.727142   -3.433235    0.059431
  H      1.243590   -3.849897    1.724874
  O      2.061582    0.244716   -0.237337
  H      1.860733   -0.530783    0.353531
  C      2.220009    1.399495    0.593697
  H      2.648869    2.192590   -0.026277
  H      2.912375    1.192380    1.418789
  H      1.260861    1.745436    0.999582
  O     -1.250229    2.063857    0.560657
  H     -1.005753    1.580124   -0.254916
  C     -1.912988    3.258474    0.192427
  H     -2.175738    3.785209    1.114910
  H     -2.843094    3.072191   -0.368235
  H     -1.278009    3.927335   -0.410567

 Total Charge           Charge          ....    0
 Multiplicity           Mult            ....    1
 Number of Electrons    NEL             ....   90
 Basis Dimension        Dim             ....  430

ORBITAL ENERGIES
----------------

  NO   OCC          E(Eh)            E(eV)
   0   2.0000     -20.564079      -559.5770
   1   2.0000     -20.551863      -559.2446
   2   2.0000     -20.550130      -559.1975
   3   2.0000     -20.548522      -559.1537
   4   2.0000     -20.536581      -558.8288
   5   2.0000     -11.280961      -306.9706
   6   2.0000     -11.267752      -306.6111
   7   2.0000     -11.263267      -306.4891
   8   2.0000     -11.261982      -306.4541
   9   2.0000     -11.261824      -306.4498
  10   2.0000      -1.372625       -37.3510
  11   2.0000      -1.355872       -36.8952
  12   2.0000      -1.349044       -36.7094
  13   2.0000      -1.338004       -36.4089
  14   2.0000      -1.334183       -36.3050
  15   2.0000      -0.934693       -25.4343
  16   2.0000      -0.921355       -25.0713
  17   2.0000      -0.915340       -24.9077
  18   2.0000      -0.913513       -24.8580
  19   2.0000      -0.908618       -24.7247
  20   2.0000      -0.717370       -19.5206
  21   2.0000      -0.698298       -19.0017
  22   2.0000      -0.689182       -18.7536
  23   2.0000      -0.683786       -18.6068
  24   2.0000      -0.682982       -18.5849
  25   2.0000      -0.625575       -17.0228
  26   2.0000      -0.616021       -16.7628
  27   2.0000      -0.614081       -16.7100
  28   2.0000      -0.612432       -16.6651
  29   2.0000      -0.604060       -16.4373
  30   2.0000      -0.599082       -16.3018
  31   2.0000      -0.589472       -16.0404
  32   2.0000      -0.586985       -15.9727
  33   2.0000      -0.584839       -15.9143
  34   2.0000      -0.580096       -15.7852
  35   2.0000      -0.526053       -14.3146
  36   2.0000      -0.509224       -13.8567
  37   2.0000      -0.502109       -13.6631
  38   2.0000      -0.491217       -13.3667
  39   2.0000      -0.484448       -13.1825
  40   2.0000      -0.457794       -12.4572
  41   2.0000      -0.448692       -12.2095
  42   2.0000      -0.445601       -12.1254
  43   2.0000      -0.441466       -12.0129
  44   2.0000      -0.430151       -11.7050
  45   0.0000       0.124786         3.3956
  46   0.0000       0.151400         4.1198
  47   0.0000       0.161399         4.3919
  48   0.0000       0.167084         4.5466
  49   0.0000       0.174886         4.7589

MULLIKEN ATOMIC CHARGES
-----------------------
   0 O :   -0.614552
   1 H :    0.379976
   2 C :   -0.164271
   3 H :    0.132421
   4 H :    0.129511
   5 H :    0.125785
   6 O :   -0.552217
   7 H :    0.356903
   8 C :   -0.194560
   9 H :    0.124699
  10 H :    0.114397
  11 H :    0.154501
  12 O :   -0.558581
  13 H :    0.362847
  14 C :   -0.167505
  15 H :    0.127561
  16 H :    0.116983
  17 H :    0.120889
  18 O :   -0.554719
  19 H :    0.369011
  20 C :   -0.203591
  21 H :    0.121579
  22 H :    0.124177
  23 H :    0.151998
  24 O :   -0.517000
  25 H :    0.350445
  26 C :   -0.172205
  27 H :    0.125138
  28 H :    0.105675
  29 H :    0.104705
Sum of atomic charges:   -0.0000000

LOEWDIN ATOMIC CHARGES
----------------------
   0 O :   -0.096735
   1 H :    0.165402
   2 C :   -0.379645
   3 H :    0.109877
   4 H :    0.105408
   5 H :    0.104425
   6 O :   -0.090800
   7 H :    0.163282
   8 C :   -0.379456
   9 H :    0.107640
  10 H :    0.100597
  11 H :    0.105151
  12 O :   -0.087450
  13 H :    0.165556
  14 C :   -0.384486
  15 H :    0.108681
  16 H :    0.099524
  17 H :    0.103202
  18 O :   -0.089828
  19 H :    0.164902
  20 C :   -0.381768
  21 H :    0.106770
  22 H :    0.104443
  23 H :    0.103648
  24 O :   -0.091745
  25 H :    0.161151
  26 C :   -0.396116
  27 H :    0.108231
  28 H :    0.095109
  29 H :    0.095030

  Mayer bond orders larger than 0.100000
B(  0-O ,  1-H ) :   0.6910 B(  0-O ,  2-C ) :   0.8604 B(  1-H , 18-O ) :   0.1558
B(  2-C ,  3-H ) :   0.9425 B(  2-C ,  4-H ) :   0.9400 B(  2-C ,  5-H ) :   0.9378
B(  6-O ,  7-H ) :   0.7751 B(  6-O ,  8-C ) :   0.8682 B(  6-O , 13-H ) :   0.1218
B(  8-C ,  9-H ) :   0.9416 B(  8-C , 10-H ) :   0.9393 B(  8-C , 11-H ) :   0.9252
B( 12-O , 13-H ) :   0.7459 B( 12-O , 14-C ) :   0.8871 B( 12-O , 19-H ) :   0.1259
B( 14-C , 15-H ) :   0.9416 B( 14-C , 16-H ) :   0.9379 B( 14-C , 17-H ) :   0.9396
B( 18-O , 19-H ) :   0.7422 B( 18-O , 20-C ) :   0.8702 B( 20-C , 21-H ) :   0.9418
B( 20-C , 22-H ) :   0.9403 B( 20-C , 23-H ) :   0.9268 B( 24-O , 25-H ) :   0.7839
B( 24-O , 26-C ) :   0.9250 B( 26-C , 27-H ) :   0.9430 B( 26-C , 28-H ) :   0.9380
B( 26-C , 29-H ) :   0.9360

MP2 TOTAL ENERGY:     -577.602566260 Eh
FINAL SINGLE POINT ENERGY      -577.602566260296

DIPOLE MOMENT
-------------
                                X             Y             Z
Electronic contribution:      1.29934      -2.13906       0.64795
Nuclear contribution   :     -1.44363       2.30006      -1.32982
                        -----------------------------------------
Total Dipole Moment    :     -0.14430       0.16100      -0.68187
                        -----------------------------------------
Magnitude (a.u.)       :      0.71533
Magnitude (Debye)      :      1.81821

Rotational constants in cm-1:     0.030006     0.019234     0.016714
Rotational constants in MHz :   899.545628   576.632537   501.064398

                             ****ORCA TERMINATED NORMALLY****
TOTAL RUN TIME: 0 days 0 hours 10 minutes 46 seconds 300 msec
