                         Program Version 4.2.0 -  RELEASE  -
|  1> # 12mecn.remya.etal.2.mol1,2,7
|  2> ! MP2 def2-TZVP EnGrad TightSCF
|  3>
|  4> %pal
|  5>     nprocs 6
|  6> end
|  7>
|  8> %maxcore 8000
|  9>
| 10> %scf
| 11>     ConvForced true
| 12> end
| 13>
| 14> *xyz 0 1
| 15> C  -4.697980000  -0.249690000   1.746215000
| 16> H  -4.927570000   0.755530000   2.111799000
| 17> H  -3.709180000  -0.561560000   2.093253000
| 18> H  -5.432280000  -0.961520000   2.128066000
| 19> C  -4.714100000  -0.247110000   0.301670000
| 20> N  -4.729750000  -0.234960000  -0.865260000
| 21> C  -4.219070000  -3.477410000  -1.501740000
| 22> H  -3.251530000  -3.803540000  -1.893830000
| 23> H  -4.452920000  -2.481700000  -1.890840000
| 24> H  -4.992170000  -4.178130000  -1.824640000
| 25> C  -4.154550000  -3.418790000  -0.058340000
| 26> N  -4.091140000  -3.354840000   1.104432000
| 27> C   1.502241000   0.651296000   1.710523000
| 28> H   1.309219000   1.637164000   2.143202000
| 29> H   2.493408000   0.297996000   2.009069000
| 30> H   0.746597000  -0.059850000   2.055508000
| 31> C   1.447974000   0.738517000   0.269805000
| 32> N   1.405612000   0.808047000  -0.894380000
| 33> *
| 34>
| 35>                          ****END OF INPUT****

CARTESIAN COORDINATES (ANGSTROEM)
---------------------------------
  C     -4.697980   -0.249690    1.746215
  H     -4.927570    0.755530    2.111799
  H     -3.709180   -0.561560    2.093253
  H     -5.432280   -0.961520    2.128066
  C     -4.714100   -0.247110    0.301670
  N     -4.729750   -0.234960   -0.865260
  C     -4.219070   -3.477410   -1.501740
  H     -3.251530   -3.803540   -1.893830
  H     -4.452920   -2.481700   -1.890840
  H     -4.992170   -4.178130   -1.824640
  C     -4.154550   -3.418790   -0.058340
  N     -4.091140   -3.354840    1.104432
  C      1.502241    0.651296    1.710523
  H      1.309219    1.637164    2.143202
  H      2.493408    0.297996    2.009069
  H      0.746597   -0.059850    2.055508
  C      1.447974    0.738517    0.269805
  N      1.405612    0.808047   -0.894380

 Total Charge           Charge          ....    0
 Multiplicity           Mult            ....    1
 Number of Electrons    NEL             ....   66
 Basis Dimension        Dim             ....  333

ORBITAL ENERGIES
----------------

  NO   OCC          E(Eh)            E(eV)
   0   2.0000     -15.572627      -423.7527
   1   2.0000     -15.570969      -423.7076
   2   2.0000     -15.570444      -423.6933
   3   2.0000     -11.285507      -307.0943
   4   2.0000     -11.282935      -307.0243
   5   2.0000     -11.282276      -307.0063
   6   2.0000     -11.279396      -306.9280
   7   2.0000     -11.274467      -306.7939
   8   2.0000     -11.270612      -306.6890
   9   2.0000      -1.218122       -33.1468
  10   2.0000      -1.213823       -33.0298
  11   2.0000      -1.213245       -33.0141
  12   2.0000      -1.044503       -28.4224
  13   2.0000      -1.037107       -28.2211
  14   2.0000      -1.033205       -28.1149
  15   2.0000      -0.699039       -19.0218
  16   2.0000      -0.695195       -18.9172
  17   2.0000      -0.690818       -18.7981
  18   2.0000      -0.633651       -17.2425
  19   2.0000      -0.632217       -17.2035
  20   2.0000      -0.631720       -17.1900
  21   2.0000      -0.622396       -16.9363
  22   2.0000      -0.619341       -16.8531
  23   2.0000      -0.615937       -16.7605
  24   2.0000      -0.559011       -15.2115
  25   2.0000      -0.555602       -15.1187
  26   2.0000      -0.555062       -15.1040
  27   2.0000      -0.462759       -12.5923
  28   2.0000      -0.458883       -12.4868
  29   2.0000      -0.457053       -12.4370
  30   2.0000      -0.456835       -12.4311
  31   2.0000      -0.456622       -12.4253
  32   2.0000      -0.452646       -12.3171
  33   0.0000       0.107822         2.9340
  34   0.0000       0.130402         3.5484
  35   0.0000       0.144725         3.9382
  36   0.0000       0.165121         4.4932
  37   0.0000       0.171325         4.6620

MULLIKEN ATOMIC CHARGES
-----------------------
   0 C :   -0.257942
   1 H :    0.171607
   2 H :    0.170382
   3 H :    0.179269
   4 C :   -0.116322
   5 N :   -0.146294
   6 C :   -0.286581
   7 H :    0.168053
   8 H :    0.207029
   9 H :    0.165746
  10 C :   -0.113919
  11 N :   -0.141018
  12 C :   -0.278794
  13 H :    0.171588
  14 H :    0.172377
  15 H :    0.171717
  16 C :   -0.146093
  17 N :   -0.090807
Sum of atomic charges:    0.0000000

LOEWDIN ATOMIC CHARGES
----------------------
   0 C :   -0.285269
   1 H :    0.149891
   2 H :    0.155090
   3 H :    0.155799
   4 C :   -0.210222
   5 N :    0.032080
   6 C :   -0.281675
   7 H :    0.153083
   8 H :    0.157948
   9 H :    0.150059
  10 C :   -0.208878
  11 N :    0.032096
  12 C :   -0.283978
  13 H :    0.152305
  14 H :    0.153175
  15 H :    0.152580
  16 C :   -0.221023
  17 N :    0.046938

  Mayer bond orders larger than 0.100000
B(  0-C ,  1-H ) :   0.9103 B(  0-C ,  2-H ) :   0.9145 B(  0-C ,  3-H ) :   0.9125
B(  0-C ,  4-C ) :   0.9118 B(  4-C ,  5-N ) :   2.7684 B(  6-C ,  7-H ) :   0.9141
B(  6-C ,  8-H ) :   0.9013 B(  6-C ,  9-H ) :   0.9160 B(  6-C , 10-C ) :   0.9008
B( 10-C , 11-N ) :   2.7958 B( 12-C , 13-H ) :   0.9166 B( 12-C , 14-H ) :   0.9164
B( 12-C , 15-H ) :   0.9171 B( 12-C , 16-C ) :   0.9000 B( 16-C , 17-N ) :   2.8360

MP2 TOTAL ENERGY:     -397.458905644 Eh
FINAL SINGLE POINT ENERGY      -397.458905644497

DIPOLE MOMENT
-------------
                                X             Y             Z
Electronic contribution:     -0.03081       0.34964      -3.12839
Nuclear contribution   :      0.02962      -0.51516       4.61354
                        -----------------------------------------
Total Dipole Moment    :     -0.00119      -0.16552       1.48515
                        -----------------------------------------
Magnitude (a.u.)       :      1.49434
Magnitude (Debye)      :      3.79832

Rotational constants in cm-1:     0.045611     0.013005     0.012220
Rotational constants in MHz :  1367.391543   389.892438   366.347474

                             ****ORCA TERMINATED NORMALLY****
TOTAL RUN TIME: 0 days 0 hours 2 minutes 53 seconds 177 msec
