                         Program Version 4.2.0 -  RELEASE  -
|  1> # 12mecn.remya.etal.2.mol3,8
|  2> ! MP2 def2-TZVP EnGrad TightSCF
|  3>
|  4> %pal
|  5>     nprocs 6
|  6> end
|  7>
|  8> %maxcore 8000
|  9>
| 10> %scf
| 11>     ConvForced true
| 12> end
| 13>
| 14> *xyz 0 1
| 15> C  -5.181310000   2.853865000  -1.626100000
| 16> H  -5.488260000   3.811434000  -2.053310000
| 17> H  -5.857590000   2.068112000  -1.968630000
| 18> H  -4.170750000   2.611402000  -1.966640000
| 19> C  -5.187260000   2.919160000  -0.181450000
| 20> N  -5.181700000   2.970641000   0.983640000
| 21> C   1.912641000  -2.468050000  -1.750510000
| 22> H   2.876947000  -2.793500000  -2.151200000
| 23> H   1.688016000  -1.463720000  -2.122170000
| 24> H   1.123460000  -3.154780000  -2.069590000
| 25> C   1.977850000  -2.444240000  -0.306900000
| 26> N   2.036566000  -2.426130000   0.858249000
| 27> *
| 28>
| 29>                          ****END OF INPUT****

CARTESIAN COORDINATES (ANGSTROEM)
---------------------------------
  C     -5.181310    2.853865   -1.626100
  H     -5.488260    3.811434   -2.053310
  H     -5.857590    2.068112   -1.968630
  H     -4.170750    2.611402   -1.966640
  C     -5.187260    2.919160   -0.181450
  N     -5.181700    2.970641    0.983640
  C      1.912641   -2.468050   -1.750510
  H      2.876947   -2.793500   -2.151200
  H      1.688016   -1.463720   -2.122170
  H      1.123460   -3.154780   -2.069590
  C      1.977850   -2.444240   -0.306900
  N      2.036566   -2.426130    0.858249

 Total Charge           Charge          ....    0
 Multiplicity           Mult            ....    1
 Number of Electrons    NEL             ....   44
 Basis Dimension        Dim             ....  222

ORBITAL ENERGIES
----------------

  NO   OCC          E(Eh)            E(eV)
   0   2.0000     -15.573686      -423.7815
   1   2.0000     -15.573666      -423.7810
   2   2.0000     -11.286697      -307.1266
   3   2.0000     -11.286135      -307.1113
   4   2.0000     -11.280430      -306.9561
   5   2.0000     -11.280426      -306.9560
   6   2.0000      -1.215145       -33.0658
   7   2.0000      -1.214927       -33.0598
   8   2.0000      -1.045095       -28.4385
   9   2.0000      -1.044776       -28.4298
  10   2.0000      -0.702145       -19.1063
  11   2.0000      -0.700774       -19.0690
  12   2.0000      -0.634227       -17.2582
  13   2.0000      -0.633646       -17.2424
  14   2.0000      -0.632432       -17.2093
  15   2.0000      -0.631421       -17.1819
  16   2.0000      -0.556261       -15.1366
  17   2.0000      -0.556106       -15.1324
  18   2.0000      -0.458512       -12.4768
  19   2.0000      -0.458152       -12.4669
  20   2.0000      -0.458008       -12.4630
  21   2.0000      -0.457917       -12.4605
  22   0.0000       0.117377         3.1940
  23   0.0000       0.117790         3.2052
  24   0.0000       0.169848         4.6218
  25   0.0000       0.170314         4.6345
  26   0.0000       0.170335         4.6351

MULLIKEN ATOMIC CHARGES
-----------------------
   0 C :   -0.281008
   1 H :    0.172628
   2 H :    0.172022
   3 H :    0.170459
   4 C :   -0.145563
   5 N :   -0.088539
   6 C :   -0.279415
   7 H :    0.172551
   8 H :    0.170715
   9 H :    0.171782
  10 C :   -0.146009
  11 N :   -0.089624
Sum of atomic charges:    0.0000000

LOEWDIN ATOMIC CHARGES
----------------------
   0 C :   -0.284383
   1 H :    0.151437
   2 H :    0.151380
   3 H :    0.152482
   4 C :   -0.219122
   5 N :    0.048206
   6 C :   -0.284384
   7 H :    0.152761
   8 H :    0.152142
   9 H :    0.152232
  10 C :   -0.220356
  11 N :    0.047605

  Mayer bond orders larger than 0.100000
B(  0-C ,  1-H ) :   0.9162 B(  0-C ,  2-H ) :   0.9169 B(  0-C ,  3-H ) :   0.9172
B(  0-C ,  4-C ) :   0.9028 B(  4-C ,  5-N ) :   2.8357 B(  6-C ,  7-H ) :   0.9164
B(  6-C ,  8-H ) :   0.9171 B(  6-C ,  9-H ) :   0.9166 B(  6-C , 10-C ) :   0.9013
B( 10-C , 11-N ) :   2.8357

MP2 TOTAL ENERGY:     -264.965825090 Eh
FINAL SINGLE POINT ENERGY      -264.965825090452

DIPOLE MOMENT
-------------
                                X             Y             Z
Electronic contribution:      0.11666       0.19917       6.24952
Nuclear contribution   :     -0.18634      -0.29355      -9.28853
                        -----------------------------------------
Total Dipole Moment    :     -0.06968      -0.09438      -3.03901
                        -----------------------------------------
Magnitude (a.u.)       :      3.04127
Magnitude (Debye)      :      7.73029

Rotational constants in cm-1:     0.154307     0.010235     0.009634
Rotational constants in MHz :  4626.005788   306.840361   288.807077

                             ****ORCA TERMINATED NORMALLY****
TOTAL RUN TIME: 0 days 0 hours 0 minutes 33 seconds 899 msec
