                         Program Version 4.2.0 -  RELEASE  -
|  1> # 12meoh.boyd.etal.mol0,6,9
|  2> ! MP2 def2-TZVP EnGrad TightSCF
|  3>
|  4> %pal
|  5>     nprocs 6
|  6> end
|  7>
|  8> %maxcore 8000
|  9>
| 10> %scf
| 11>     ConvForced true
| 12> end
| 13>
| 14> *xyz 0 1
| 15> O  -1.776108874  -2.741384797  -1.019308298
| 16> H  -2.520094035  -2.452295987  -0.420778302
| 17> C  -2.174025166  -3.952700964  -1.647004581
| 18> H  -1.359803895  -4.272673416  -2.304149236
| 19> H  -3.075973971  -3.808692420  -2.256751112
| 20> H  -2.370225393  -4.752784761  -0.918966137
| 21> O   2.622209273  -1.703002590  -1.445859723
| 22> H   1.828551432  -1.986513781  -0.909754968
| 23> C   2.781117675  -2.615822239  -2.525472890
| 24> H   3.691063626  -2.339003544  -3.065143454
| 25> H   1.934727323  -2.559520367  -3.223226661
| 26> H   2.879948338  -3.653846211  -2.177750170
| 27> O   1.390610024   3.194080770  -1.536658882
| 28> H   2.162932299   2.881562730  -0.993525056
| 29> C   1.202977189   4.580367182  -1.302880219
| 30> H   0.374773115   4.915764831  -1.934164643
| 31> H   2.098649340   5.157710875  -1.570472348
| 32> H   0.950320401   4.800436015  -0.254328827
| 33> *
| 34>
| 35>                          ****END OF INPUT****

CARTESIAN COORDINATES (ANGSTROEM)
---------------------------------
  O     -1.776109   -2.741385   -1.019308
  H     -2.520094   -2.452296   -0.420778
  C     -2.174025   -3.952701   -1.647005
  H     -1.359804   -4.272673   -2.304149
  H     -3.075974   -3.808692   -2.256751
  H     -2.370225   -4.752785   -0.918966
  O      2.622209   -1.703003   -1.445860
  H      1.828551   -1.986514   -0.909755
  C      2.781118   -2.615822   -2.525473
  H      3.691064   -2.339004   -3.065143
  H      1.934727   -2.559520   -3.223227
  H      2.879948   -3.653846   -2.177750
  O      1.390610    3.194081   -1.536659
  H      2.162932    2.881563   -0.993525
  C      1.202977    4.580367   -1.302880
  H      0.374773    4.915765   -1.934165
  H      2.098649    5.157711   -1.570472
  H      0.950320    4.800436   -0.254329

 Total Charge           Charge          ....    0
 Multiplicity           Mult            ....    1
 Number of Electrons    NEL             ....   54
 Basis Dimension        Dim             ....  258

ORBITAL ENERGIES
----------------

  NO   OCC          E(Eh)            E(eV)
   0   2.0000     -20.563289      -559.5555
   1   2.0000     -20.548762      -559.1603
   2   2.0000     -20.545898      -559.0823
   3   2.0000     -11.275903      -306.8329
   4   2.0000     -11.264991      -306.5360
   5   2.0000     -11.262016      -306.4550
   6   2.0000      -1.352287       -36.7976
   7   2.0000      -1.339590       -36.4521
   8   2.0000      -1.334187       -36.3051
   9   2.0000      -0.923619       -25.1330
  10   2.0000      -0.912525       -24.8311
  11   2.0000      -0.909313       -24.7437
  12   2.0000      -0.686652       -18.6848
  13   2.0000      -0.674789       -18.3620
  14   2.0000      -0.669742       -18.2246
  15   2.0000      -0.621872       -16.9220
  16   2.0000      -0.609876       -16.5956
  17   2.0000      -0.606467       -16.5028
  18   2.0000      -0.596204       -16.2235
  19   2.0000      -0.584519       -15.9056
  20   2.0000      -0.580672       -15.8009
  21   2.0000      -0.505395       -13.7525
  22   2.0000      -0.491665       -13.3789
  23   2.0000      -0.489449       -13.3186
  24   2.0000      -0.453834       -12.3495
  25   2.0000      -0.440613       -11.9897
  26   2.0000      -0.437884       -11.9154
  27   0.0000       0.121033         3.2935
  28   0.0000       0.142578         3.8797
  29   0.0000       0.151916         4.1338
  30   0.0000       0.166535         4.5317
  31   0.0000       0.181745         4.9455

MULLIKEN ATOMIC CHARGES
-----------------------
   0 O :   -0.498648
   1 H :    0.324517
   2 C :   -0.175164
   3 H :    0.127398
   4 H :    0.112970
   5 H :    0.110685
   6 O :   -0.504657
   7 H :    0.329798
   8 C :   -0.168424
   9 H :    0.125392
  10 H :    0.111963
  11 H :    0.104378
  12 O :   -0.494030
  13 H :    0.325428
  14 C :   -0.171284
  15 H :    0.126708
  16 H :    0.107263
  17 H :    0.105704
Sum of atomic charges:   -0.0000000

LOEWDIN ATOMIC CHARGES
----------------------
   0 O :   -0.110574
   1 H :    0.194194
   2 C :   -0.384170
   3 H :    0.109523
   4 H :    0.096602
   5 H :    0.095559
   6 O :   -0.112539
   7 H :    0.195788
   8 C :   -0.382913
   9 H :    0.108685
  10 H :    0.096078
  11 H :    0.093904
  12 O :   -0.103614
  13 H :    0.192549
  14 C :   -0.387389
  15 H :    0.109574
  16 H :    0.094540
  17 H :    0.094203

  Mayer bond orders larger than 0.100000
B(  0-O ,  1-H ) :   0.8399 B(  0-O ,  2-C ) :   0.9241 B(  2-C ,  3-H ) :   0.9377
B(  2-C ,  4-H ) :   0.9396 B(  2-C ,  5-H ) :   0.9379 B(  6-O ,  7-H ) :   0.8358
B(  6-O ,  8-C ) :   0.9299 B(  8-C ,  9-H ) :   0.9381 B(  8-C , 10-H ) :   0.9392
B(  8-C , 11-H ) :   0.9392 B( 12-O , 13-H ) :   0.8393 B( 12-O , 14-C ) :   0.9331
B( 14-C , 15-H ) :   0.9378 B( 14-C , 16-H ) :   0.9400 B( 14-C , 17-H ) :   0.9372

MP2 TOTAL ENERGY:     -346.521442701 Eh
FINAL SINGLE POINT ENERGY      -346.521442701069

DIPOLE MOMENT
-------------
                                X             Y             Z
Electronic contribution:      0.63263       0.96662       1.64999
Nuclear contribution   :     -1.32528      -1.47319      -1.21542
                        -----------------------------------------
Total Dipole Moment    :     -0.69265      -0.50657       0.43457
                        -----------------------------------------
Magnitude (a.u.)       :      0.96189
Magnitude (Debye)      :      2.44493

Rotational constants in cm-1:     0.050679     0.015486     0.012155
Rotational constants in MHz :  1519.321401   464.249489   364.392115

                             ****ORCA TERMINATED NORMALLY****
TOTAL RUN TIME: 0 days 0 hours 0 minutes 45 seconds 965 msec
