                         Program Version 4.2.0 -  RELEASE  -
|  1> # 12h2o.su.etal.mol2,4,7,8,11
|  2> ! MP2 def2-TZVP EnGrad TightSCF
|  3>
|  4> %pal
|  5>     nprocs 6
|  6> end
|  7>
|  8> %maxcore 8000
|  9>
| 10> %scf
| 11>     ConvForced true
| 12> end
| 13>
| 14> *xyz 0 1
| 15> O   0.923410000  -1.794470000  -2.768350000
| 16> H   1.359750000  -2.338250000  -3.430940000
| 17> H   1.303000000  -0.879480000  -2.865760000
| 18> O  -0.885520000   1.737840000   0.052730000
| 19> H  -1.032320000   2.090180000  -0.841890000
| 20> H  -1.284090000   0.839590000   0.017130000
| 21> O  -1.737840000  -0.885520000  -0.052730000
| 22> H  -2.090180000  -1.032320000   0.841890000
| 23> H  -0.839590000  -1.284090000  -0.017130000
| 24> O   1.752130000   0.741530000  -2.896280000
| 25> H   2.036450000   0.920500000  -1.984040000
| 26> H   0.921210000   1.242140000  -2.984230000
| 27> O  -0.741530000   1.752130000   2.896280000
| 28> H  -0.920500000   2.036450000   1.984040000
| 29> H  -1.242140000   0.921210000   2.984230000
| 30> *
| 31>
| 32>                          ****END OF INPUT****

CARTESIAN COORDINATES (ANGSTROEM)
---------------------------------
  O      0.923410   -1.794470   -2.768350
  H      1.359750   -2.338250   -3.430940
  H      1.303000   -0.879480   -2.865760
  O     -0.885520    1.737840    0.052730
  H     -1.032320    2.090180   -0.841890
  H     -1.284090    0.839590    0.017130
  O     -1.737840   -0.885520   -0.052730
  H     -2.090180   -1.032320    0.841890
  H     -0.839590   -1.284090   -0.017130
  O      1.752130    0.741530   -2.896280
  H      2.036450    0.920500   -1.984040
  H      0.921210    1.242140   -2.984230
  O     -0.741530    1.752130    2.896280
  H     -0.920500    2.036450    1.984040
  H     -1.242140    0.921210    2.984230

 Total Charge           Charge          ....    0
 Multiplicity           Mult            ....    1
 Number of Electrons    NEL             ....   50
 Basis Dimension        Dim             ....  215

ORBITAL ENERGIES
----------------

  NO   OCC          E(Eh)            E(eV)
   0   2.0000     -20.603454      -560.6485
   1   2.0000     -20.602877      -560.6328
   2   2.0000     -20.565177      -559.6069
   3   2.0000     -20.535326      -558.7946
   4   2.0000     -20.528042      -558.5964
   5   2.0000      -1.388712       -37.7888
   6   2.0000      -1.384038       -37.6616
   7   2.0000      -1.348036       -36.6819
   8   2.0000      -1.316700       -35.8292
   9   2.0000      -1.310260       -35.6540
  10   2.0000      -0.746178       -20.3045
  11   2.0000      -0.740390       -20.1470
  12   2.0000      -0.721879       -19.6433
  13   2.0000      -0.700567       -19.0634
  14   2.0000      -0.686067       -18.6688
  15   2.0000      -0.626914       -17.0592
  16   2.0000      -0.624168       -16.9845
  17   2.0000      -0.595527       -16.2051
  18   2.0000      -0.566431       -15.4134
  19   2.0000      -0.553574       -15.0635
  20   2.0000      -0.535952       -14.5840
  21   2.0000      -0.523094       -14.2341
  22   2.0000      -0.512978       -13.9588
  23   2.0000      -0.481476       -13.1016
  24   2.0000      -0.478444       -13.0191
  25   0.0000       0.080841         2.1998
  26   0.0000       0.107348         2.9211
  27   0.0000       0.148164         4.0317
  28   0.0000       0.172452         4.6927
  29   0.0000       0.178594         4.8598

MULLIKEN ATOMIC CHARGES
-----------------------
   0 O :   -0.735789
   1 H :    0.329355
   2 H :    0.365244
   3 O :   -0.722501
   4 H :    0.331547
   5 H :    0.355375
   6 O :   -0.679190
   7 H :    0.348430
   8 H :    0.374788
   9 O :   -0.676270
  10 H :    0.364314
  11 H :    0.353497
  12 O :   -0.688254
  13 H :    0.373614
  14 H :    0.305841
Sum of atomic charges:    0.0000000

LOEWDIN ATOMIC CHARGES
----------------------
   0 O :   -0.373712
   1 H :    0.150932
   2 H :    0.141612
   3 O :   -0.340186
   4 H :    0.159101
   5 H :    0.143337
   6 O :   -0.285332
   7 H :    0.168644
   8 H :    0.186830
   9 O :   -0.268654
  10 H :    0.176825
  11 H :    0.173371
  12 O :   -0.338170
  13 H :    0.153937
  14 H :    0.151465

  Mayer bond orders larger than 0.100000
B(  0-O ,  1-H ) :   0.8583 B(  0-O ,  2-H ) :   0.7860 B(  3-O ,  4-H ) :   0.8528
B(  3-O ,  5-H ) :   0.7774 B(  6-O ,  7-H ) :   0.8417 B(  6-O ,  8-H ) :   0.8211
B(  9-O , 10-H ) :   0.8323 B(  9-O , 11-H ) :   0.8386 B( 12-O , 13-H ) :   0.8162
B( 12-O , 14-H ) :   0.8698

MP2 TOTAL ENERGY:     -381.589871207 Eh
FINAL SINGLE POINT ENERGY      -381.589871207055

DIPOLE MOMENT
-------------
                                X             Y             Z
Electronic contribution:      0.10696       0.11704      -0.10194
Nuclear contribution   :     -0.34103      -0.48867      -0.63259
                        -----------------------------------------
Total Dipole Moment    :     -0.23407      -0.37163      -0.73454
                        -----------------------------------------
Magnitude (a.u.)       :      0.85583
Magnitude (Debye)      :      2.17534

Rotational constants in cm-1:     0.094290     0.028225     0.023735
Rotational constants in MHz :  2826.728161   846.167009   711.553167

                             ****ORCA TERMINATED NORMALLY****
TOTAL RUN TIME: 0 days 0 hours 0 minutes 32 seconds 862 msec
