                         Program Version 4.2.0 -  RELEASE  -
|  1> # 12mecn.remya.etal.2.mol1,3,4
|  2> ! MP2 def2-TZVP EnGrad TightSCF
|  3>
|  4> %pal
|  5>     nprocs 6
|  6> end
|  7>
|  8> %maxcore 8000
|  9>
| 10> %scf
| 11>     ConvForced true
| 12> end
| 13>
| 14> *xyz 0 1
| 15> C  -4.697980000  -0.249690000   1.746215000
| 16> H  -4.927570000   0.755530000   2.111799000
| 17> H  -3.709180000  -0.561560000   2.093253000
| 18> H  -5.432280000  -0.961520000   2.128066000
| 19> C  -4.714100000  -0.247110000   0.301670000
| 20> N  -4.729750000  -0.234960000  -0.865260000
| 21> C  -5.181310000   2.853865000  -1.626100000
| 22> H  -5.488260000   3.811434000  -2.053310000
| 23> H  -5.857590000   2.068112000  -1.968630000
| 24> H  -4.170750000   2.611402000  -1.966640000
| 25> C  -5.187260000   2.919160000  -0.181450000
| 26> N  -5.181700000   2.970641000   0.983640000
| 27> C  -1.509690000  -0.693960000  -1.610140000
| 28> H  -1.327010000  -1.692700000  -2.017370000
| 29> H  -0.742170000  -0.000650000  -1.964400000
| 30> H  -2.491920000  -0.334310000  -1.929350000
| 31> C  -1.473570000  -0.748120000  -0.167200000
| 32> N  -1.447490000  -0.793720000   0.998938000
| 33> *
| 34>
| 35>                          ****END OF INPUT****

CARTESIAN COORDINATES (ANGSTROEM)
---------------------------------
  C     -4.697980   -0.249690    1.746215
  H     -4.927570    0.755530    2.111799
  H     -3.709180   -0.561560    2.093253
  H     -5.432280   -0.961520    2.128066
  C     -4.714100   -0.247110    0.301670
  N     -4.729750   -0.234960   -0.865260
  C     -5.181310    2.853865   -1.626100
  H     -5.488260    3.811434   -2.053310
  H     -5.857590    2.068112   -1.968630
  H     -4.170750    2.611402   -1.966640
  C     -5.187260    2.919160   -0.181450
  N     -5.181700    2.970641    0.983640
  C     -1.509690   -0.693960   -1.610140
  H     -1.327010   -1.692700   -2.017370
  H     -0.742170   -0.000650   -1.964400
  H     -2.491920   -0.334310   -1.929350
  C     -1.473570   -0.748120   -0.167200
  N     -1.447490   -0.793720    0.998938

 Total Charge           Charge          ....    0
 Multiplicity           Mult            ....    1
 Number of Electrons    NEL             ....   66
 Basis Dimension        Dim             ....  333

ORBITAL ENERGIES
----------------

  NO   OCC          E(Eh)            E(eV)
   0   2.0000     -15.571543      -423.7232
   1   2.0000     -15.571125      -423.7118
   2   2.0000     -15.569611      -423.6707
   3   2.0000     -11.285854      -307.1037
   4   2.0000     -11.282625      -307.0158
   5   2.0000     -11.282464      -307.0114
   6   2.0000     -11.275922      -306.8334
   7   2.0000     -11.274881      -306.8051
   8   2.0000     -11.259531      -306.3874
   9   2.0000      -1.220069       -33.1998
  10   2.0000      -1.215728       -33.0816
  11   2.0000      -1.213495       -33.0209
  12   2.0000      -1.038070       -28.2473
  13   2.0000      -1.037361       -28.2280
  14   2.0000      -1.026994       -27.9459
  15   2.0000      -0.696670       -18.9574
  16   2.0000      -0.694364       -18.8946
  17   2.0000      -0.685375       -18.6500
  18   2.0000      -0.630810       -17.1652
  19   2.0000      -0.630335       -17.1523
  20   2.0000      -0.626108       -17.0373
  21   2.0000      -0.622389       -16.9361
  22   2.0000      -0.612102       -16.6561
  23   2.0000      -0.608419       -16.5559
  24   2.0000      -0.561053       -15.2670
  25   2.0000      -0.556134       -15.1332
  26   2.0000      -0.555906       -15.1270
  27   2.0000      -0.463787       -12.6203
  28   2.0000      -0.458876       -12.4866
  29   2.0000      -0.458464       -12.4754
  30   2.0000      -0.457460       -12.4481
  31   2.0000      -0.456641       -12.4258
  32   2.0000      -0.453206       -12.3324
  33   0.0000       0.114909         3.1268
  34   0.0000       0.143957         3.9173
  35   0.0000       0.155393         4.2285
  36   0.0000       0.164814         4.4848
  37   0.0000       0.173236         4.7140

MULLIKEN ATOMIC CHARGES
-----------------------
   0 C :   -0.293676
   1 H :    0.200917
   2 H :    0.200363
   3 H :    0.160874
   4 C :   -0.064758
   5 N :   -0.203591
   6 C :   -0.264099
   7 H :    0.173805
   8 H :    0.185772
   9 H :    0.161819
  10 C :   -0.116411
  11 N :   -0.140376
  12 C :   -0.286595
  13 H :    0.169528
  14 H :    0.166836
  15 H :    0.196374
  16 C :   -0.104239
  17 N :   -0.142544
Sum of atomic charges:   -0.0000000

LOEWDIN ATOMIC CHARGES
----------------------
   0 C :   -0.280004
   1 H :    0.157375
   2 H :    0.157084
   3 H :    0.149596
   4 C :   -0.198615
   5 N :    0.019705
   6 C :   -0.286005
   7 H :    0.148993
   8 H :    0.155610
   9 H :    0.153011
  10 C :   -0.209953
  11 N :    0.035063
  12 C :   -0.284132
  13 H :    0.153378
  14 H :    0.150574
  15 H :    0.154010
  16 C :   -0.210368
  17 N :    0.034678

  Mayer bond orders larger than 0.100000
B(  0-C ,  1-H ) :   0.9015 B(  0-C ,  2-H ) :   0.9021 B(  0-C ,  3-H ) :   0.9141
B(  0-C ,  4-C ) :   0.8974 B(  4-C ,  5-N ) :   2.7160 B(  6-C ,  7-H ) :   0.9108
B(  6-C ,  8-H ) :   0.9110 B(  6-C ,  9-H ) :   0.9173 B(  6-C , 10-C ) :   0.9109
B( 10-C , 11-N ) :   2.7718 B( 12-C , 13-H ) :   0.9143 B( 12-C , 14-H ) :   0.9177
B( 12-C , 15-H ) :   0.9047 B( 12-C , 16-C ) :   0.8990 B( 16-C , 17-N ) :   2.7726

MP2 TOTAL ENERGY:     -397.467247143 Eh
FINAL SINGLE POINT ENERGY      -397.467247143039

DIPOLE MOMENT
-------------
                                X             Y             Z
Electronic contribution:     -0.00759       0.04987       3.18232
Nuclear contribution   :     -0.02277      -0.07202      -4.63777
                        -----------------------------------------
Total Dipole Moment    :     -0.03036      -0.02214      -1.45544
                        -----------------------------------------
Magnitude (a.u.)       :      1.45593
Magnitude (Debye)      :      3.70068

Rotational constants in cm-1:     0.059901     0.026021     0.022329
Rotational constants in MHz :  1795.788779   780.090089   669.415880

                             ****ORCA TERMINATED NORMALLY****
TOTAL RUN TIME: 0 days 0 hours 4 minutes 12 seconds 759 msec
