                         Program Version 4.2.0 -  RELEASE  -
|  1> # 12h2o.su.etal.mol1,3,4,6,7
|  2> ! MP2 def2-TZVP EnGrad TightSCF
|  3>
|  4> %pal
|  5>     nprocs 6
|  6> end
|  7>
|  8> %maxcore 8000
|  9>
| 10> %scf
| 11>     ConvForced true
| 12> end
| 13>
| 14> *xyz 0 1
| 15> O  -1.794470000  -0.923410000   2.768350000
| 16> H  -2.338250000  -1.359750000   3.430940000
| 17> H  -0.879480000  -1.303000000   2.865760000
| 18> O  -1.752130000  -0.741530000  -2.896280000
| 19> H  -2.036450000  -0.920500000  -1.984040000
| 20> H  -0.921210000  -1.242140000  -2.984230000
| 21> O  -0.885520000   1.737840000   0.052730000
| 22> H  -1.032320000   2.090180000  -0.841890000
| 23> H  -1.284090000   0.839590000   0.017130000
| 24> O   1.737840000   0.885520000  -0.052730000
| 25> H   2.090180000   1.032320000   0.841890000
| 26> H   0.839590000   1.284090000  -0.017130000
| 27> O  -1.737840000  -0.885520000  -0.052730000
| 28> H  -2.090180000  -1.032320000   0.841890000
| 29> H  -0.839590000  -1.284090000  -0.017130000
| 30> *
| 31>
| 32>                          ****END OF INPUT****

CARTESIAN COORDINATES (ANGSTROEM)
---------------------------------
  O     -1.794470   -0.923410    2.768350
  H     -2.338250   -1.359750    3.430940
  H     -0.879480   -1.303000    2.865760
  O     -1.752130   -0.741530   -2.896280
  H     -2.036450   -0.920500   -1.984040
  H     -0.921210   -1.242140   -2.984230
  O     -0.885520    1.737840    0.052730
  H     -1.032320    2.090180   -0.841890
  H     -1.284090    0.839590    0.017130
  O      1.737840    0.885520   -0.052730
  H      2.090180    1.032320    0.841890
  H      0.839590    1.284090   -0.017130
  O     -1.737840   -0.885520   -0.052730
  H     -2.090180   -1.032320    0.841890
  H     -0.839590   -1.284090   -0.017130

 Total Charge           Charge          ....    0
 Multiplicity           Mult            ....    1
 Number of Electrons    NEL             ....   50
 Basis Dimension        Dim             ....  215

ORBITAL ENERGIES
----------------

  NO   OCC          E(Eh)            E(eV)
   0   2.0000     -20.610682      -560.8452
   1   2.0000     -20.595505      -560.4322
   2   2.0000     -20.550932      -559.2193
   3   2.0000     -20.538058      -558.8690
   4   2.0000     -20.525423      -558.5252
   5   2.0000      -1.391322       -37.8598
   6   2.0000      -1.378882       -37.5213
   7   2.0000      -1.337094       -36.3842
   8   2.0000      -1.319969       -35.9182
   9   2.0000      -1.305384       -35.5213
  10   2.0000      -0.756436       -20.5837
  11   2.0000      -0.743455       -20.2305
  12   2.0000      -0.706493       -19.2247
  13   2.0000      -0.690432       -18.7876
  14   2.0000      -0.679431       -18.4883
  15   2.0000      -0.637734       -17.3536
  16   2.0000      -0.613449       -16.6928
  17   2.0000      -0.588555       -16.0154
  18   2.0000      -0.560691       -15.2572
  19   2.0000      -0.554695       -15.0940
  20   2.0000      -0.545934       -14.8556
  21   2.0000      -0.528760       -14.3883
  22   2.0000      -0.491832       -13.3834
  23   2.0000      -0.484367       -13.1803
  24   2.0000      -0.473813       -12.8931
  25   0.0000       0.082887         2.2555
  26   0.0000       0.127590         3.4719
  27   0.0000       0.154574         4.2062
  28   0.0000       0.167297         4.5524
  29   0.0000       0.187901         5.1131

MULLIKEN ATOMIC CHARGES
-----------------------
   0 O :   -0.694762
   1 H :    0.359025
   2 H :    0.356064
   3 O :   -0.695566
   4 H :    0.368212
   5 H :    0.325725
   6 O :   -0.715158
   7 H :    0.353129
   8 H :    0.374763
   9 O :   -0.723578
  10 H :    0.322505
  11 H :    0.355998
  12 O :   -0.727574
  13 H :    0.390627
  14 H :    0.350589
Sum of atomic charges:   -0.0000000

LOEWDIN ATOMIC CHARGES
----------------------
   0 O :   -0.308091
   1 H :    0.166982
   2 H :    0.186696
   3 O :   -0.338884
   4 H :    0.149603
   5 H :    0.160957
   6 O :   -0.309325
   7 H :    0.168590
   8 H :    0.145230
   9 O :   -0.367783
  10 H :    0.155212
  11 H :    0.140710
  12 O :   -0.282582
  13 H :    0.158208
  14 H :    0.174478

  Mayer bond orders larger than 0.100000
B(  0-O ,  1-H ) :   0.8381 B(  0-O ,  2-H ) :   0.8335 B(  3-O ,  4-H ) :   0.8231
B(  3-O ,  5-H ) :   0.8591 B(  6-O ,  7-H ) :   0.8394 B(  6-O ,  8-H ) :   0.7844
B(  6-O , 11-H ) :   0.1015 B(  9-O , 10-H ) :   0.8612 B(  9-O , 11-H ) :   0.7848
B( 12-O , 13-H ) :   0.7895 B( 12-O , 14-H ) :   0.8311

MP2 TOTAL ENERGY:     -381.598344475 Eh
FINAL SINGLE POINT ENERGY      -381.598344474733

DIPOLE MOMENT
-------------
                                X             Y             Z
Electronic contribution:     -0.47156       0.12996       0.03872
Nuclear contribution   :      0.31000      -1.69920       2.09298
                        -----------------------------------------
Total Dipole Moment    :     -0.16156      -1.56924       2.13170
                        -----------------------------------------
Magnitude (a.u.)       :      2.65193
Magnitude (Debye)      :      6.74068

Rotational constants in cm-1:     0.061222     0.048808     0.032642
Rotational constants in MHz :  1835.376722  1463.233601   978.581307

                             ****ORCA TERMINATED NORMALLY****
TOTAL RUN TIME: 0 days 0 hours 0 minutes 31 seconds 916 msec
