                         Program Version 4.2.0 -  RELEASE  -
|  1> ! MP2 def2-TZVP EnGrad TightSCF FrozenCore
|  2>
|  3> %pal
|  4>     nprocs 8
|  5> end
|  6>
|  7> %maxcore 8000
|  8>
|  9> %scf
| 10>     ConvForced true
| 11> end
| 12>
| 13> *xyz 0 1
| 14> O  -1.255930643  -1.929340235  -0.314275552
| 15> H  -1.796630643  -2.179540235  -1.073275552
| 16> H  -1.635730643  -1.072540235  -0.006475552
| 17> O  -2.212130643   0.494459765   0.494024448
| 18> H  -1.491830643   1.164759765   0.557024448
| 19> H  -2.693330643   0.565959765   1.326824448
| 20> O  -0.106530643   2.253359765   0.597324448
| 21> H   0.138569357   2.692659765   1.420624448
| 22> H   0.716569357   1.790059765   0.311024448
| 23> O   2.131969357   0.892159765  -0.169275552
| 24> H   1.923669357  -0.057640235  -0.336375552
| 25> H   2.580369357   1.187959765  -0.970975552
| 26> O   1.439769357  -1.701240235  -0.642875552
| 27> H   0.466269357  -1.825840235  -0.541575552
| 28> H   1.837369357  -2.415040235  -0.129975552
| 29> *
| 30>
| 31>
| 32>                          ****END OF INPUT****

CARTESIAN COORDINATES (ANGSTROEM)
---------------------------------
  O     -1.255931   -1.929340   -0.314276
  H     -1.796631   -2.179540   -1.073276
  H     -1.635731   -1.072540   -0.006476
  O     -2.212131    0.494460    0.494024
  H     -1.491831    1.164760    0.557024
  H     -2.693331    0.565960    1.326824
  O     -0.106531    2.253360    0.597324
  H      0.138569    2.692660    1.420624
  H      0.716569    1.790060    0.311024
  O      2.131969    0.892160   -0.169276
  H      1.923669   -0.057640   -0.336376
  H      2.580369    1.187960   -0.970976
  O      1.439769   -1.701240   -0.642876
  H      0.466269   -1.825840   -0.541576
  H      1.837369   -2.415040   -0.129976

 Total Charge           Charge          ....    0
 Multiplicity           Mult            ....    1
 Number of Electrons    NEL             ....   50
 Basis Dimension        Dim             ....  215

ORBITAL ENERGIES
----------------

  NO   OCC          E(Eh)            E(eV)
   0   2.0000     -20.553097      -559.2782
   1   2.0000     -20.551783      -559.2425
   2   2.0000     -20.551322      -559.2299
   3   2.0000     -20.551053      -559.2226
   4   2.0000     -20.550820      -559.2162
   5   2.0000      -1.354196       -36.8495
   6   2.0000      -1.343957       -36.5709
   7   2.0000      -1.343246       -36.5516
   8   2.0000      -1.326352       -36.0919
   9   2.0000      -1.325252       -36.0619
  10   2.0000      -0.716206       -19.4890
  11   2.0000      -0.712085       -19.3768
  12   2.0000      -0.710440       -19.3321
  13   2.0000      -0.709206       -19.2985
  14   2.0000      -0.707530       -19.2529
  15   2.0000      -0.615962       -16.7612
  16   2.0000      -0.612572       -16.6689
  17   2.0000      -0.570672       -15.5288
  18   2.0000      -0.567131       -15.4324
  19   2.0000      -0.540636       -14.7114
  20   2.0000      -0.505174       -13.7465
  21   2.0000      -0.501744       -13.6532
  22   2.0000      -0.500806       -13.6276
  23   2.0000      -0.497907       -13.5488
  24   2.0000      -0.496281       -13.5045
  25   0.0000       0.121240         3.2991
  26   0.0000       0.149191         4.0597
  27   0.0000       0.153655         4.1812
  28   0.0000       0.178425         4.8552
  29   0.0000       0.182100         4.9552

MULLIKEN ATOMIC CHARGES
-----------------------
   0 O :   -0.738899
   1 H :    0.345221
   2 H :    0.394946
   3 O :   -0.735846
   4 H :    0.397722
   5 H :    0.340191
   6 O :   -0.737707
   7 H :    0.340088
   8 H :    0.393763
   9 O :   -0.738376
  10 H :    0.394844
  11 H :    0.344931
  12 O :   -0.739503
  13 H :    0.394260
  14 H :    0.344365
Sum of atomic charges:    0.0000000

LOEWDIN ATOMIC CHARGES
----------------------
   0 O :   -0.312846
   1 H :    0.161223
   2 H :    0.152950
   3 O :   -0.311065
   4 H :    0.155098
   5 H :    0.158882
   6 O :   -0.315523
   7 H :    0.158662
   8 H :    0.152721
   9 O :   -0.313211
  10 H :    0.152672
  11 H :    0.161120
  12 O :   -0.313759
  13 H :    0.152445
  14 H :    0.160632

  Mayer bond orders larger than 0.100000
B(  0-O ,  1-H ) :   0.8458 B(  0-O ,  2-H ) :   0.7554 B(  3-O ,  4-H ) :   0.7584
B(  3-O ,  5-H ) :   0.8481 B(  6-O ,  7-H ) :   0.8492 B(  6-O ,  8-H ) :   0.7546
B(  9-O , 10-H ) :   0.7551 B(  9-O , 11-H ) :   0.8459 B( 12-O , 13-H ) :   0.7545
B( 12-O , 14-H ) :   0.8462

MP2 TOTAL ENERGY:     -381.630204219 Eh
FINAL SINGLE POINT ENERGY      -381.630204219199

DIPOLE MOMENT
-------------
                                X             Y             Z
Electronic contribution:     -0.01679       0.01250      -0.09741
Nuclear contribution   :      0.04245      -0.13984       0.52189
                        -----------------------------------------
Total Dipole Moment    :      0.02566      -0.12733       0.42448
                        -----------------------------------------
Magnitude (a.u.)       :      0.44391
Magnitude (Debye)      :      1.12834

Rotational constants in cm-1:     0.067626     0.067179     0.034097
Rotational constants in MHz :  2027.377560  2013.983338  1022.209004

                             ****ORCA TERMINATED NORMALLY****
TOTAL RUN TIME: 0 days 0 hours 0 minutes 35 seconds 126 msec
