                         Program Version 4.2.0 -  RELEASE  -
|  1> # 12h2o.su.etal.mol1,3,7
|  2> ! MP2 def2-TZVP EnGrad TightSCF
|  3>
|  4> %pal
|  5>     nprocs 6
|  6> end
|  7>
|  8> %maxcore 8000
|  9>
| 10> %scf
| 11>     ConvForced true
| 12> end
| 13>
| 14> *xyz 0 1
| 15> O  -1.794470000  -0.923410000   2.768350000
| 16> H  -2.338250000  -1.359750000   3.430940000
| 17> H  -0.879480000  -1.303000000   2.865760000
| 18> O  -1.752130000  -0.741530000  -2.896280000
| 19> H  -2.036450000  -0.920500000  -1.984040000
| 20> H  -0.921210000  -1.242140000  -2.984230000
| 21> O  -1.737840000  -0.885520000  -0.052730000
| 22> H  -2.090180000  -1.032320000   0.841890000
| 23> H  -0.839590000  -1.284090000  -0.017130000
| 24> *
| 25>
| 26>                          ****END OF INPUT****

CARTESIAN COORDINATES (ANGSTROEM)
---------------------------------
  O     -1.794470   -0.923410    2.768350
  H     -2.338250   -1.359750    3.430940
  H     -0.879480   -1.303000    2.865760
  O     -1.752130   -0.741530   -2.896280
  H     -2.036450   -0.920500   -1.984040
  H     -0.921210   -1.242140   -2.984230
  O     -1.737840   -0.885520   -0.052730
  H     -2.090180   -1.032320    0.841890
  H     -0.839590   -1.284090   -0.017130

 Total Charge           Charge          ....    0
 Multiplicity           Mult            ....    1
 Number of Electrons    NEL             ....   30
 Basis Dimension        Dim             ....  129

ORBITAL ENERGIES
----------------

  NO   OCC          E(Eh)            E(eV)
   0   2.0000     -20.601515      -560.5957
   1   2.0000     -20.559533      -559.4533
   2   2.0000     -20.521959      -558.4309
   3   2.0000      -1.379469       -37.5373
   4   2.0000      -1.340736       -36.4833
   5   2.0000      -1.303649       -35.4741
   6   2.0000      -0.746340       -20.3089
   7   2.0000      -0.710109       -19.3230
   8   2.0000      -0.671660       -18.2768
   9   2.0000      -0.618958       -16.8427
  10   2.0000      -0.585654       -15.9365
  11   2.0000      -0.547294       -14.8926
  12   2.0000      -0.532442       -14.4885
  13   2.0000      -0.504485       -13.7277
  14   2.0000      -0.468392       -12.7456
  15   0.0000       0.092184         2.5084
  16   0.0000       0.138351         3.7647
  17   0.0000       0.168245         4.5782
  18   0.0000       0.204644         5.5687
  19   0.0000       0.243976         6.6389

MULLIKEN ATOMIC CHARGES
-----------------------
   0 O :   -0.690362
   1 H :    0.354422
   2 H :    0.350699
   3 O :   -0.694475
   4 H :    0.371940
   5 H :    0.312805
   6 O :   -0.700774
   7 H :    0.375477
   8 H :    0.320267
Sum of atomic charges:   -0.0000000

LOEWDIN ATOMIC CHARGES
----------------------
   0 O :   -0.308486
   1 H :    0.164644
   2 H :    0.184111
   3 O :   -0.341413
   4 H :    0.152686
   5 H :    0.154910
   6 O :   -0.323624
   7 H :    0.153792
   8 H :    0.163380

  Mayer bond orders larger than 0.100000
B(  0-O ,  1-H ) :   0.8406 B(  0-O ,  2-H ) :   0.8371 B(  3-O ,  4-H ) :   0.8169
B(  3-O ,  5-H ) :   0.8666 B(  6-O ,  7-H ) :   0.8077 B(  6-O ,  8-H ) :   0.8556

MP2 TOTAL ENERGY:     -228.949249217 Eh
FINAL SINGLE POINT ENERGY      -228.949249216621

DIPOLE MOMENT
-------------
                                X             Y             Z
Electronic contribution:     -0.27975       0.32406       0.07548
Nuclear contribution   :      1.21834      -1.69875       2.09298
                        -----------------------------------------
Total Dipole Moment    :      0.93859      -1.37469       2.16846
                        -----------------------------------------
Magnitude (a.u.)       :      2.73367
Magnitude (Debye)      :      6.94843

Rotational constants in cm-1:     4.779929     0.057829     0.057312
Rotational constants in MHz : 143298.666482  1733.682940  1718.168667

                             ****ORCA TERMINATED NORMALLY****
TOTAL RUN TIME: 0 days 0 hours 0 minutes 9 seconds 989 msec
