                         Program Version 4.2.0 -  RELEASE  -
|  1> # 12h2o.su.etal.mol1,3,5,6,7,8,9
|  2> ! MP2 def2-TZVP EnGrad TightSCF
|  3>
|  4> %pal
|  5>     nprocs 6
|  6> end
|  7>
|  8> %maxcore 8000
|  9>
| 10> %scf
| 11>     ConvForced true
| 12> end
| 13>
| 14> *xyz 0 1
| 15> O  -1.794470000  -0.923410000   2.768350000
| 16> H  -2.338250000  -1.359750000   3.430940000
| 17> H  -0.879480000  -1.303000000   2.865760000
| 18> O  -1.752130000  -0.741530000  -2.896280000
| 19> H  -2.036450000  -0.920500000  -1.984040000
| 20> H  -0.921210000  -1.242140000  -2.984230000
| 21> O   0.885520000  -1.737840000   0.052730000
| 22> H   1.284090000  -0.839590000   0.017130000
| 23> H   1.032320000  -2.090180000  -0.841890000
| 24> O   1.737840000   0.885520000  -0.052730000
| 25> H   2.090180000   1.032320000   0.841890000
| 26> H   0.839590000   1.284090000  -0.017130000
| 27> O  -1.737840000  -0.885520000  -0.052730000
| 28> H  -2.090180000  -1.032320000   0.841890000
| 29> H  -0.839590000  -1.284090000  -0.017130000
| 30> O   1.752130000   0.741530000  -2.896280000
| 31> H   2.036450000   0.920500000  -1.984040000
| 32> H   0.921210000   1.242140000  -2.984230000
| 33> O   0.741530000  -1.752130000   2.896280000
| 34> H   0.920500000  -2.036450000   1.984040000
| 35> H   1.242140000  -0.921210000   2.984230000
| 36> *
| 37>
| 38>                          ****END OF INPUT****

CARTESIAN COORDINATES (ANGSTROEM)
---------------------------------
  O     -1.794470   -0.923410    2.768350
  H     -2.338250   -1.359750    3.430940
  H     -0.879480   -1.303000    2.865760
  O     -1.752130   -0.741530   -2.896280
  H     -2.036450   -0.920500   -1.984040
  H     -0.921210   -1.242140   -2.984230
  O      0.885520   -1.737840    0.052730
  H      1.284090   -0.839590    0.017130
  H      1.032320   -2.090180   -0.841890
  O      1.737840    0.885520   -0.052730
  H      2.090180    1.032320    0.841890
  H      0.839590    1.284090   -0.017130
  O     -1.737840   -0.885520   -0.052730
  H     -2.090180   -1.032320    0.841890
  H     -0.839590   -1.284090   -0.017130
  O      1.752130    0.741530   -2.896280
  H      2.036450    0.920500   -1.984040
  H      0.921210    1.242140   -2.984230
  O      0.741530   -1.752130    2.896280
  H      0.920500   -2.036450    1.984040
  H      1.242140   -0.921210    2.984230

 Total Charge           Charge          ....    0
 Multiplicity           Mult            ....    1
 Number of Electrons    NEL             ....   70
 Basis Dimension        Dim             ....  301

ORBITAL ENERGIES
----------------

  NO   OCC          E(Eh)            E(eV)
   0   2.0000     -20.642901      -561.7219
   1   2.0000     -20.602678      -560.6274
   2   2.0000     -20.596921      -560.4707
   3   2.0000     -20.551621      -559.2380
   4   2.0000     -20.547006      -559.1125
   5   2.0000     -20.526973      -558.5673
   6   2.0000     -20.523415      -558.4705
   7   2.0000      -1.426590       -38.8195
   8   2.0000      -1.393186       -37.9105
   9   2.0000      -1.382014       -37.6065
  10   2.0000      -1.333495       -36.2863
  11   2.0000      -1.332525       -36.2599
  12   2.0000      -1.314851       -35.7789
  13   2.0000      -1.302690       -35.4480
  14   2.0000      -0.783216       -21.3124
  15   2.0000      -0.761953       -20.7338
  16   2.0000      -0.745363       -20.2824
  17   2.0000      -0.716609       -19.4999
  18   2.0000      -0.709452       -19.3052
  19   2.0000      -0.696188       -18.9442
  20   2.0000      -0.672887       -18.3102
  21   2.0000      -0.663717       -18.0607
  22   2.0000      -0.643782       -17.5182
  23   2.0000      -0.615337       -16.7442
  24   2.0000      -0.593746       -16.1567
  25   2.0000      -0.582155       -15.8412
  26   2.0000      -0.567158       -15.4332
  27   2.0000      -0.563537       -15.3346
  28   2.0000      -0.546270       -14.8648
  29   2.0000      -0.528455       -14.3800
  30   2.0000      -0.526402       -14.3241
  31   2.0000      -0.498216       -13.5572
  32   2.0000      -0.494549       -13.4574
  33   2.0000      -0.478932       -13.0324
  34   2.0000      -0.468953       -12.7609
  35   0.0000       0.061731         1.6798
  36   0.0000       0.116267         3.1638
  37   0.0000       0.131826         3.5872
  38   0.0000       0.149401         4.0654
  39   0.0000       0.181084         4.9275

MULLIKEN ATOMIC CHARGES
-----------------------
   0 O :   -0.739316
   1 H :    0.337772
   2 H :    0.370007
   3 O :   -0.701163
   4 H :    0.376937
   5 H :    0.312605
   6 O :   -0.735495
   7 H :    0.367097
   8 H :    0.369922
   9 O :   -0.714826
  10 H :    0.364779
  11 H :    0.384210
  12 O :   -0.747923
  13 H :    0.374284
  14 H :    0.334600
  15 O :   -0.698531
  16 H :    0.362228
  17 H :    0.340531
  18 O :   -0.684819
  19 H :    0.391947
  20 H :    0.335155
Sum of atomic charges:    0.0000000

LOEWDIN ATOMIC CHARGES
----------------------
   0 O :   -0.342185
   1 H :    0.154090
   2 H :    0.143254
   3 O :   -0.342998
   4 H :    0.153393
   5 H :    0.151728
   6 O :   -0.294320
   7 H :    0.144790
   8 H :    0.175510
   9 O :   -0.273525
  10 H :    0.174909
  11 H :    0.190488
  12 O :   -0.350361
  13 H :    0.150489
  14 H :    0.132948
  15 O :   -0.335965
  16 H :    0.147939
  17 H :    0.165743
  18 O :   -0.270869
  19 H :    0.159834
  20 H :    0.165108

  Mayer bond orders larger than 0.100000
B(  0-O ,  1-H ) :   0.8502 B(  0-O ,  2-H ) :   0.7665 B(  3-O ,  4-H ) :   0.8079
B(  3-O ,  5-H ) :   0.8636 B(  6-O ,  7-H ) :   0.7735 B(  6-O ,  8-H ) :   0.8276
B(  9-O , 10-H ) :   0.8302 B(  9-O , 11-H ) :   0.8095 B( 12-O , 13-H ) :   0.8041
B( 12-O , 14-H ) :   0.8003 B( 15-O , 16-H ) :   0.8321 B( 15-O , 17-H ) :   0.8465
B( 18-O , 19-H ) :   0.7979 B( 18-O , 20-H ) :   0.8498

MP2 TOTAL ENERGY:     -534.247452596 Eh
FINAL SINGLE POINT ENERGY      -534.247452596148

DIPOLE MOMENT
-------------
                                X             Y             Z
Electronic contribution:      0.30679       0.06777      -0.01286
Nuclear contribution   :      1.32858       0.23021       2.09298
                        -----------------------------------------
Total Dipole Moment    :      1.63537       0.29799       2.08012
                        -----------------------------------------
Magnitude (a.u.)       :      2.66273
Magnitude (Debye)      :      6.76811

Rotational constants in cm-1:     0.045015     0.023744     0.017869
Rotational constants in MHz :  1349.520543   711.840747   535.685069

                             ****ORCA TERMINATED NORMALLY****
TOTAL RUN TIME: 0 days 0 hours 1 minutes 58 seconds 333 msec
