                         Program Version 4.2.0 -  RELEASE  -
|  1> # 12h2o.su.etal.mol0,1,3,4,9,10,11
|  2> ! MP2 def2-TZVP EnGrad TightSCF
|  3>
|  4> %pal
|  5>     nprocs 6
|  6> end
|  7>
|  8> %maxcore 8000
|  9>
| 10> %scf
| 11>     ConvForced true
| 12> end
| 13>
| 14> *xyz 0 1
| 15> O   1.794470000   0.923410000   2.768350000
| 16> H   2.338250000   1.359750000   3.430940000
| 17> H   0.879480000   1.303000000   2.865760000
| 18> O  -1.794470000  -0.923410000   2.768350000
| 19> H  -2.338250000  -1.359750000   3.430940000
| 20> H  -0.879480000  -1.303000000   2.865760000
| 21> O  -1.752130000  -0.741530000  -2.896280000
| 22> H  -2.036450000  -0.920500000  -1.984040000
| 23> H  -0.921210000  -1.242140000  -2.984230000
| 24> O  -0.885520000   1.737840000   0.052730000
| 25> H  -1.032320000   2.090180000  -0.841890000
| 26> H  -1.284090000   0.839590000   0.017130000
| 27> O   0.741530000  -1.752130000   2.896280000
| 28> H   0.920500000  -2.036450000   1.984040000
| 29> H   1.242140000  -0.921210000   2.984230000
| 30> O  -0.923410000   1.794470000  -2.768350000
| 31> H  -1.359750000   2.338250000  -3.430940000
| 32> H  -1.303000000   0.879480000  -2.865760000
| 33> O  -0.741530000   1.752130000   2.896280000
| 34> H  -0.920500000   2.036450000   1.984040000
| 35> H  -1.242140000   0.921210000   2.984230000
| 36> *
| 37>
| 38>                          ****END OF INPUT****

CARTESIAN COORDINATES (ANGSTROEM)
---------------------------------
  O      1.794470    0.923410    2.768350
  H      2.338250    1.359750    3.430940
  H      0.879480    1.303000    2.865760
  O     -1.794470   -0.923410    2.768350
  H     -2.338250   -1.359750    3.430940
  H     -0.879480   -1.303000    2.865760
  O     -1.752130   -0.741530   -2.896280
  H     -2.036450   -0.920500   -1.984040
  H     -0.921210   -1.242140   -2.984230
  O     -0.885520    1.737840    0.052730
  H     -1.032320    2.090180   -0.841890
  H     -1.284090    0.839590    0.017130
  O      0.741530   -1.752130    2.896280
  H      0.920500   -2.036450    1.984040
  H      1.242140   -0.921210    2.984230
  O     -0.923410    1.794470   -2.768350
  H     -1.359750    2.338250   -3.430940
  H     -1.303000    0.879480   -2.865760
  O     -0.741530    1.752130    2.896280
  H     -0.920500    2.036450    1.984040
  H     -1.242140    0.921210    2.984230

 Total Charge           Charge          ....    0
 Multiplicity           Mult            ....    1
 Number of Electrons    NEL             ....   70
 Basis Dimension        Dim             ....  301

ORBITAL ENERGIES
----------------

  NO   OCC          E(Eh)            E(eV)
   0   2.0000     -20.618002      -561.0444
   1   2.0000     -20.567288      -559.6644
   2   2.0000     -20.552945      -559.2741
   3   2.0000     -20.551475      -559.2341
   4   2.0000     -20.547655      -559.1301
   5   2.0000     -20.532166      -558.7086
   6   2.0000     -20.530829      -558.6723
   7   2.0000      -1.403438       -38.1895
   8   2.0000      -1.359630       -36.9974
   9   2.0000      -1.341553       -36.5055
  10   2.0000      -1.333829       -36.2953
  11   2.0000      -1.328966       -36.1630
  12   2.0000      -1.324690       -36.0467
  13   2.0000      -1.307296       -35.5733
  14   2.0000      -0.760510       -20.6945
  15   2.0000      -0.724143       -19.7049
  16   2.0000      -0.718594       -19.5539
  17   2.0000      -0.714381       -19.4393
  18   2.0000      -0.703405       -19.1406
  19   2.0000      -0.693186       -18.8625
  20   2.0000      -0.685533       -18.6543
  21   2.0000      -0.641032       -17.4434
  22   2.0000      -0.614045       -16.7090
  23   2.0000      -0.595482       -16.2039
  24   2.0000      -0.583100       -15.8670
  25   2.0000      -0.573250       -15.5989
  26   2.0000      -0.565880       -15.3984
  27   2.0000      -0.542769       -14.7695
  28   2.0000      -0.536669       -14.6035
  29   2.0000      -0.507887       -13.8203
  30   2.0000      -0.501528       -13.6473
  31   2.0000      -0.498116       -13.5544
  32   2.0000      -0.495748       -13.4900
  33   2.0000      -0.481663       -13.1067
  34   2.0000      -0.477251       -12.9866
  35   0.0000       0.081733         2.2241
  36   0.0000       0.128452         3.4954
  37   0.0000       0.153643         4.1808
  38   0.0000       0.156224         4.2511
  39   0.0000       0.164905         4.4873

MULLIKEN ATOMIC CHARGES
-----------------------
   0 O :   -0.744676
   1 H :    0.335568
   2 H :    0.385413
   3 O :   -0.747661
   4 H :    0.341085
   5 H :    0.377633
   6 O :   -0.675096
   7 H :    0.356930
   8 H :    0.366976
   9 O :   -0.707147
  10 H :    0.379167
  11 H :    0.317036
  12 O :   -0.707184
  13 H :    0.346623
  14 H :    0.380477
  15 O :   -0.732938
  16 H :    0.339440
  17 H :    0.368016
  18 O :   -0.728838
  19 H :    0.386616
  20 H :    0.362560
Sum of atomic charges:   -0.0000000

LOEWDIN ATOMIC CHARGES
----------------------
   0 O :   -0.342087
   1 H :    0.153020
   2 H :    0.146255
   3 O :   -0.345385
   4 H :    0.155378
   5 H :    0.144401
   6 O :   -0.266145
   7 H :    0.172749
   8 H :    0.180586
   9 O :   -0.324778
  10 H :    0.154725
  11 H :    0.159762
  12 O :   -0.284953
  13 H :    0.167994
  14 H :    0.155436
  15 O :   -0.337892
  16 H :    0.155257
  17 H :    0.142866
  18 O :   -0.291567
  19 H :    0.156993
  20 H :    0.147383

  Mayer bond orders larger than 0.100000
B(  0-O ,  1-H ) :   0.8512 B(  0-O ,  2-H ) :   0.7386 B(  2-H , 18-O ) :   0.1174
B(  3-O ,  4-H ) :   0.8487 B(  3-O ,  5-H ) :   0.7491 B(  5-H , 12-O ) :   0.1110
B(  6-O ,  7-H ) :   0.8372 B(  6-O ,  8-H ) :   0.8313 B(  9-O , 10-H ) :   0.7975
B(  9-O , 11-H ) :   0.8545 B( 12-O , 13-H ) :   0.8445 B( 12-O , 14-H ) :   0.7743
B( 15-O , 16-H ) :   0.8493 B( 15-O , 17-H ) :   0.7729 B( 18-O , 19-H ) :   0.8001
B( 18-O , 20-H ) :   0.7999

MP2 TOTAL ENERGY:     -534.260801002 Eh
FINAL SINGLE POINT ENERGY      -534.260801001596

DIPOLE MOMENT
-------------
                                X             Y             Z
Electronic contribution:      0.05459       0.02603      -0.30835
Nuclear contribution   :     -0.67812      -1.32903      -0.82779
                        -----------------------------------------
Total Dipole Moment    :     -0.62353      -1.30300      -1.13614
                        -----------------------------------------
Magnitude (a.u.)       :      1.83778
Magnitude (Debye)      :      4.67126

Rotational constants in cm-1:     0.045522     0.017145     0.015358
Rotational constants in MHz :  1364.702618   513.999382   460.420719

                             ****ORCA TERMINATED NORMALLY****
TOTAL RUN TIME: 0 days 0 hours 1 minutes 45 seconds 673 msec
