                         Program Version 4.2.0 -  RELEASE  -
|  1> # 12mecn.remya.etal.2.mol2,9,11
|  2> ! MP2 def2-TZVP EnGrad TightSCF
|  3>
|  4> %pal
|  5>     nprocs 6
|  6> end
|  7>
|  8> %maxcore 8000
|  9>
| 10> %scf
| 11>     ConvForced true
| 12> end
| 13>
| 14> *xyz 0 1
| 15> C  -4.219070000  -3.477410000  -1.501740000
| 16> H  -3.251530000  -3.803540000  -1.893830000
| 17> H  -4.452920000  -2.481700000  -1.890840000
| 18> H  -4.992170000  -4.178130000  -1.824640000
| 19> C  -4.154550000  -3.418790000  -0.058340000
| 20> N  -4.091140000  -3.354840000   1.104432000
| 21> C   0.923766000   4.000693000  -1.575910000
| 22> H   0.011949000   4.478423000  -1.939550000
| 23> H   0.947903000   2.966558000  -1.929960000
| 24> H   1.805950000   4.519548000  -1.956520000
| 25> C   0.942834000   3.994846000  -0.131200000
| 26> N   0.960035000   3.982544000   1.035639000
| 27> C   4.214163000   3.378139000   1.593627000
| 28> H   3.242643000   3.657109000   2.012358000
| 29> H   4.969258000   4.086643000   1.941290000
| 30> H   4.482966000   2.372549000   1.931698000
| 31> C   4.130759000   3.388436000   0.150192000
| 32> N   4.050180000   3.381449000  -1.013420000
| 33> *
| 34>
| 35>                          ****END OF INPUT****

CARTESIAN COORDINATES (ANGSTROEM)
---------------------------------
  C     -4.219070   -3.477410   -1.501740
  H     -3.251530   -3.803540   -1.893830
  H     -4.452920   -2.481700   -1.890840
  H     -4.992170   -4.178130   -1.824640
  C     -4.154550   -3.418790   -0.058340
  N     -4.091140   -3.354840    1.104432
  C      0.923766    4.000693   -1.575910
  H      0.011949    4.478423   -1.939550
  H      0.947903    2.966558   -1.929960
  H      1.805950    4.519548   -1.956520
  C      0.942834    3.994846   -0.131200
  N      0.960035    3.982544    1.035639
  C      4.214163    3.378139    1.593627
  H      3.242643    3.657109    2.012358
  H      4.969258    4.086643    1.941290
  H      4.482966    2.372549    1.931698
  C      4.130759    3.388436    0.150192
  N      4.050180    3.381449   -1.013420

 Total Charge           Charge          ....    0
 Multiplicity           Mult            ....    1
 Number of Electrons    NEL             ....   66
 Basis Dimension        Dim             ....  333

ORBITAL ENERGIES
----------------

  NO   OCC          E(Eh)            E(eV)
   0   2.0000     -15.573199      -423.7683
   1   2.0000     -15.571017      -423.7089
   2   2.0000     -15.570301      -423.6894
   3   2.0000     -11.285640      -307.0979
   4   2.0000     -11.282841      -307.0217
   5   2.0000     -11.282312      -307.0073
   6   2.0000     -11.280073      -306.9464
   7   2.0000     -11.272269      -306.7340
   8   2.0000     -11.271621      -306.7164
   9   2.0000      -1.217958       -33.1423
  10   2.0000      -1.214797       -33.0563
  11   2.0000      -1.213238       -33.0139
  12   2.0000      -1.044052       -28.4101
  13   2.0000      -1.036386       -28.2015
  14   2.0000      -1.033402       -28.1203
  15   2.0000      -0.700865       -19.0715
  16   2.0000      -0.695025       -18.9126
  17   2.0000      -0.690878       -18.7997
  18   2.0000      -0.632309       -17.2060
  19   2.0000      -0.631589       -17.1864
  20   2.0000      -0.631253       -17.1773
  21   2.0000      -0.622315       -16.9340
  22   2.0000      -0.619027       -16.8446
  23   2.0000      -0.615444       -16.7471
  24   2.0000      -0.558891       -15.2082
  25   2.0000      -0.555910       -15.1271
  26   2.0000      -0.555571       -15.1179
  27   2.0000      -0.462312       -12.5802
  28   2.0000      -0.458536       -12.4774
  29   2.0000      -0.457939       -12.4612
  30   2.0000      -0.457784       -12.4569
  31   2.0000      -0.456714       -12.4278
  32   2.0000      -0.453000       -12.3268
  33   0.0000       0.118543         3.2257
  34   0.0000       0.126728         3.4484
  35   0.0000       0.144453         3.9308
  36   0.0000       0.170869         4.6496
  37   0.0000       0.170984         4.6527

MULLIKEN ATOMIC CHARGES
-----------------------
   0 C :   -0.280620
   1 H :    0.172129
   2 H :    0.171721
   3 H :    0.172280
   4 C :   -0.145728
   5 N :   -0.089781
   6 C :   -0.268155
   7 H :    0.169858
   8 H :    0.169040
   9 H :    0.190796
  10 C :   -0.112955
  11 N :   -0.148242
  12 C :   -0.287443
  13 H :    0.206143
  14 H :    0.166566
  15 H :    0.166922
  16 C :   -0.109433
  17 N :   -0.143098
Sum of atomic charges:    0.0000000

LOEWDIN ATOMIC CHARGES
----------------------
   0 C :   -0.284233
   1 H :    0.152641
   2 H :    0.152882
   3 H :    0.151063
   4 C :   -0.219548
   5 N :    0.047195
   6 C :   -0.284203
   7 H :    0.148608
   8 H :    0.156053
   9 H :    0.156368
  10 C :   -0.209351
  11 N :    0.029947
  12 C :   -0.282204
  13 H :    0.157468
  14 H :    0.150042
  15 H :    0.153006
  16 C :   -0.208578
  17 N :    0.032844

  Mayer bond orders larger than 0.100000
B(  0-C ,  1-H ) :   0.9166 B(  0-C ,  2-H ) :   0.9167 B(  0-C ,  3-H ) :   0.9166
B(  0-C ,  4-C ) :   0.9022 B(  4-C ,  5-N ) :   2.8364 B(  6-C ,  7-H ) :   0.9124
B(  6-C ,  8-H ) :   0.9154 B(  6-C ,  9-H ) :   0.9077 B(  6-C , 10-C ) :   0.9086
B( 10-C , 11-N ) :   2.7717 B( 12-C , 13-H ) :   0.9019 B( 12-C , 14-H ) :   0.9162
B( 12-C , 15-H ) :   0.9146 B( 12-C , 16-C ) :   0.9008 B( 16-C , 17-N ) :   2.7863

MP2 TOTAL ENERGY:     -397.458961870 Eh
FINAL SINGLE POINT ENERGY      -397.458961870391

DIPOLE MOMENT
-------------
                                X             Y             Z
Electronic contribution:     -0.01029       0.16256       3.12477
Nuclear contribution   :      0.00613      -0.23053      -4.64353
                        -----------------------------------------
Total Dipole Moment    :     -0.00416      -0.06797      -1.51877
                        -----------------------------------------
Magnitude (a.u.)       :      1.52029
Magnitude (Debye)      :      3.86427

Rotational constants in cm-1:     0.052706     0.005999     0.005858
Rotational constants in MHz :  1580.077084   179.854763   175.632632

                             ****ORCA TERMINATED NORMALLY****
TOTAL RUN TIME: 0 days 0 hours 4 minutes 16 seconds 204 msec
