                         Program Version 4.2.0 -  RELEASE  -
|  1> # 12meoh.boyd.etal.mol1,4,10
|  2> ! MP2 def2-TZVP EnGrad TightSCF
|  3>
|  4> %pal
|  5>     nprocs 6
|  6> end
|  7>
|  8> %maxcore 8000
|  9>
| 10> %scf
| 11>     ConvForced true
| 12> end
| 13>
| 14> *xyz 0 1
| 15> O   0.666045193  -2.600503172   0.138317521
| 16> H  -0.227115049  -2.712051982  -0.281868004
| 17> C   0.490021232  -1.851247678   1.341189459
| 18> H   1.466500502  -1.466176022   1.645844415
| 19> H   0.097564527  -2.488364683   2.146902740
| 20> H  -0.187588112  -1.000787499   1.200739571
| 21> O  -1.358578914   1.232360421   1.189721000
| 22> H  -1.058250183   1.216459361   0.238591307
| 23> C  -0.389763452   1.957872567   1.943072362
| 24> H  -0.747220771   2.012806578   2.975200343
| 25> H  -0.260410585   2.982763209   1.565366540
| 26> H   0.585220638   1.453754179   1.934070793
| 27> O  -5.201143618   0.064582726  -0.172223772
| 28> H  -4.686891530   0.869258890   0.107806143
| 29> C  -6.513192168   0.171391798   0.359883449
| 30> H  -7.049381312  -0.749234190   0.111361174
| 31> H  -7.057741163   1.017801101  -0.081819420
| 32> H  -6.514770575   0.292264928   1.453058834
| 33> *
| 34>
| 35>                          ****END OF INPUT****

CARTESIAN COORDINATES (ANGSTROEM)
---------------------------------
  O      0.666045   -2.600503    0.138318
  H     -0.227115   -2.712052   -0.281868
  C      0.490021   -1.851248    1.341189
  H      1.466501   -1.466176    1.645844
  H      0.097565   -2.488365    2.146903
  H     -0.187588   -1.000787    1.200740
  O     -1.358579    1.232360    1.189721
  H     -1.058250    1.216459    0.238591
  C     -0.389763    1.957873    1.943072
  H     -0.747221    2.012807    2.975200
  H     -0.260411    2.982763    1.565367
  H      0.585221    1.453754    1.934071
  O     -5.201144    0.064583   -0.172224
  H     -4.686892    0.869259    0.107806
  C     -6.513192    0.171392    0.359883
  H     -7.049381   -0.749234    0.111361
  H     -7.057741    1.017801   -0.081819
  H     -6.514771    0.292265    1.453059

 Total Charge           Charge          ....    0
 Multiplicity           Mult            ....    1
 Number of Electrons    NEL             ....   54
 Basis Dimension        Dim             ....  258

ORBITAL ENERGIES
----------------

  NO   OCC          E(Eh)            E(eV)
   0   2.0000     -20.570253      -559.7450
   1   2.0000     -20.553643      -559.2931
   2   2.0000     -20.550623      -559.2109
   3   2.0000     -11.280619      -306.9612
   4   2.0000     -11.268680      -306.6364
   5   2.0000     -11.262439      -306.4665
   6   2.0000      -1.357761       -36.9466
   7   2.0000      -1.343884       -36.5690
   8   2.0000      -1.338803       -36.4307
   9   2.0000      -0.928990       -25.2791
  10   2.0000      -0.916263       -24.9328
  11   2.0000      -0.912424       -24.8283
  12   2.0000      -0.691717       -18.8226
  13   2.0000      -0.678781       -18.4706
  14   2.0000      -0.674199       -18.3459
  15   2.0000      -0.629497       -17.1295
  16   2.0000      -0.613712       -16.7000
  17   2.0000      -0.607272       -16.5247
  18   2.0000      -0.600820       -16.3491
  19   2.0000      -0.588364       -16.0102
  20   2.0000      -0.583564       -15.8796
  21   2.0000      -0.511088       -13.9074
  22   2.0000      -0.496808       -13.5188
  23   2.0000      -0.494580       -13.4582
  24   2.0000      -0.460214       -12.5231
  25   2.0000      -0.445154       -12.1133
  26   2.0000      -0.441284       -12.0079
  27   0.0000       0.116189         3.1617
  28   0.0000       0.144551         3.9334
  29   0.0000       0.150061         4.0834
  30   0.0000       0.165323         4.4987
  31   0.0000       0.184822         5.0293

MULLIKEN ATOMIC CHARGES
-----------------------
   0 O :   -0.504498
   1 H :    0.324342
   2 C :   -0.172041
   3 H :    0.118746
   4 H :    0.108188
   5 H :    0.109493
   6 O :   -0.498595
   7 H :    0.330773
   8 C :   -0.179883
   9 H :    0.132328
  10 H :    0.118967
  11 H :    0.114674
  12 O :   -0.501712
  13 H :    0.326525
  14 C :   -0.171989
  15 H :    0.127094
  16 H :    0.107122
  17 H :    0.110466
Sum of atomic charges:    0.0000000

LOEWDIN ATOMIC CHARGES
----------------------
   0 O :   -0.114592
   1 H :    0.190252
   2 C :   -0.382935
   3 H :    0.105915
   4 H :    0.096703
   5 H :    0.097702
   6 O :   -0.109470
   7 H :    0.193310
   8 C :   -0.381153
   9 H :    0.111548
  10 H :    0.098507
  11 H :    0.096054
  12 O :   -0.108410
  13 H :    0.192129
  14 C :   -0.385343
  15 H :    0.109548
  16 H :    0.094472
  17 H :    0.095762

  Mayer bond orders larger than 0.100000
B(  0-O ,  1-H ) :   0.8421 B(  0-O ,  2-C ) :   0.9183 B(  2-C ,  3-H ) :   0.9361
B(  2-C ,  4-H ) :   0.9361 B(  2-C ,  5-H ) :   0.9373 B(  6-O ,  7-H ) :   0.8357
B(  6-O ,  8-C ) :   0.9051 B(  8-C ,  9-H ) :   0.9385 B(  8-C , 10-H ) :   0.9388
B(  8-C , 11-H ) :   0.9366 B( 12-O , 13-H ) :   0.8369 B( 12-O , 14-C ) :   0.9306
B( 14-C , 15-H ) :   0.9378 B( 14-C , 16-H ) :   0.9397 B( 14-C , 17-H ) :   0.9384

MP2 TOTAL ENERGY:     -346.523462272 Eh
FINAL SINGLE POINT ENERGY      -346.523462272083

DIPOLE MOMENT
-------------
                                X             Y             Z
Electronic contribution:      0.68167      -2.06172      -2.99758
Nuclear contribution   :     -0.95957       3.21117       3.36440
                        -----------------------------------------
Total Dipole Moment    :     -0.27791       1.14946       0.36682
                        -----------------------------------------
Magnitude (a.u.)       :      1.23816
Magnitude (Debye)      :      3.14715

Rotational constants in cm-1:     0.063500     0.020701     0.016164
Rotational constants in MHz :  1903.668807   620.600060   484.586139

                             ****ORCA TERMINATED NORMALLY****
TOTAL RUN TIME: 0 days 0 hours 1 minutes 1 seconds 762 msec
