                         Program Version 4.2.0 -  RELEASE  -
|  1> # 12h2o.su.etal.mol2,4,5,7,8,11
|  2> ! MP2 def2-TZVP EnGrad TightSCF
|  3>
|  4> %pal
|  5>     nprocs 6
|  6> end
|  7>
|  8> %maxcore 8000
|  9>
| 10> %scf
| 11>     ConvForced true
| 12> end
| 13>
| 14> *xyz 0 1
| 15> O   0.923410000  -1.794470000  -2.768350000
| 16> H   1.359750000  -2.338250000  -3.430940000
| 17> H   1.303000000  -0.879480000  -2.865760000
| 18> O  -0.885520000   1.737840000   0.052730000
| 19> H  -1.032320000   2.090180000  -0.841890000
| 20> H  -1.284090000   0.839590000   0.017130000
| 21> O   0.885520000  -1.737840000   0.052730000
| 22> H   1.284090000  -0.839590000   0.017130000
| 23> H   1.032320000  -2.090180000  -0.841890000
| 24> O  -1.737840000  -0.885520000  -0.052730000
| 25> H  -2.090180000  -1.032320000   0.841890000
| 26> H  -0.839590000  -1.284090000  -0.017130000
| 27> O   1.752130000   0.741530000  -2.896280000
| 28> H   2.036450000   0.920500000  -1.984040000
| 29> H   0.921210000   1.242140000  -2.984230000
| 30> O  -0.741530000   1.752130000   2.896280000
| 31> H  -0.920500000   2.036450000   1.984040000
| 32> H  -1.242140000   0.921210000   2.984230000
| 33> *
| 34>
| 35>                          ****END OF INPUT****

CARTESIAN COORDINATES (ANGSTROEM)
---------------------------------
  O      0.923410   -1.794470   -2.768350
  H      1.359750   -2.338250   -3.430940
  H      1.303000   -0.879480   -2.865760
  O     -0.885520    1.737840    0.052730
  H     -1.032320    2.090180   -0.841890
  H     -1.284090    0.839590    0.017130
  O      0.885520   -1.737840    0.052730
  H      1.284090   -0.839590    0.017130
  H      1.032320   -2.090180   -0.841890
  O     -1.737840   -0.885520   -0.052730
  H     -2.090180   -1.032320    0.841890
  H     -0.839590   -1.284090   -0.017130
  O      1.752130    0.741530   -2.896280
  H      2.036450    0.920500   -1.984040
  H      0.921210    1.242140   -2.984230
  O     -0.741530    1.752130    2.896280
  H     -0.920500    2.036450    1.984040
  H     -1.242140    0.921210    2.984230

 Total Charge           Charge          ....    0
 Multiplicity           Mult            ....    1
 Number of Electrons    NEL             ....   60
 Basis Dimension        Dim             ....  258

ORBITAL ENERGIES
----------------

  NO   OCC          E(Eh)            E(eV)
   0   2.0000     -20.621029      -561.1267
   1   2.0000     -20.574076      -559.8491
   2   2.0000     -20.564566      -559.5903
   3   2.0000     -20.562239      -559.5270
   4   2.0000     -20.561097      -559.4959
   5   2.0000     -20.530261      -558.6568
   6   2.0000      -1.406521       -38.2734
   7   2.0000      -1.364591       -37.1324
   8   2.0000      -1.352788       -36.8112
   9   2.0000      -1.342956       -36.5437
  10   2.0000      -1.338041       -36.4099
  11   2.0000      -1.311693       -35.6930
  12   2.0000      -0.763573       -20.7779
  13   2.0000      -0.731547       -19.9064
  14   2.0000      -0.720643       -19.6097
  15   2.0000      -0.716584       -19.4992
  16   2.0000      -0.716029       -19.4841
  17   2.0000      -0.680982       -18.5305
  18   2.0000      -0.645936       -17.5768
  19   2.0000      -0.616813       -16.7843
  20   2.0000      -0.603836       -16.4312
  21   2.0000      -0.588938       -16.0258
  22   2.0000      -0.577119       -15.7042
  23   2.0000      -0.547521       -14.8988
  24   2.0000      -0.546788       -14.8789
  25   2.0000      -0.515895       -14.0382
  26   2.0000      -0.512637       -13.9496
  27   2.0000      -0.510242       -13.8844
  28   2.0000      -0.505293       -13.7497
  29   2.0000      -0.476555       -12.9677
  30   0.0000       0.072930         1.9845
  31   0.0000       0.120868         3.2890
  32   0.0000       0.129189         3.5154
  33   0.0000       0.147892         4.0244
  34   0.0000       0.186623         5.0783

MULLIKEN ATOMIC CHARGES
-----------------------
   0 O :   -0.736287
   1 H :    0.343221
   2 H :    0.368787
   3 O :   -0.728635
   4 H :    0.327829
   5 H :    0.354745
   6 O :   -0.698703
   7 H :    0.333552
   8 H :    0.385025
   9 O :   -0.710514
  10 H :    0.340321
  11 H :    0.382034
  12 O :   -0.674107
  13 H :    0.358899
  14 H :    0.362313
  15 O :   -0.692369
  16 H :    0.372387
  17 H :    0.311501
Sum of atomic charges:   -0.0000000

LOEWDIN ATOMIC CHARGES
----------------------
   0 O :   -0.338344
   1 H :    0.157098
   2 H :    0.143196
   3 O :   -0.343441
   4 H :    0.156697
   5 H :    0.142241
   6 O :   -0.295680
   7 H :    0.166114
   8 H :    0.155254
   9 O :   -0.307463
  10 H :    0.162403
  11 H :    0.148528
  12 O :   -0.264640
  13 H :    0.173152
  14 H :    0.177630
  15 O :   -0.339893
  16 H :    0.153294
  17 H :    0.153853

  Mayer bond orders larger than 0.100000
B(  0-O ,  1-H ) :   0.8473 B(  0-O ,  2-H ) :   0.7694 B(  3-O ,  4-H ) :   0.8547
B(  3-O ,  5-H ) :   0.7625 B(  5-H ,  9-O ) :   0.1131 B(  6-O ,  7-H ) :   0.8463
B(  6-O ,  8-H ) :   0.7892 B(  9-O , 10-H ) :   0.8469 B(  9-O , 11-H ) :   0.7639
B( 12-O , 13-H ) :   0.8351 B( 12-O , 14-H ) :   0.8327 B( 15-O , 16-H ) :   0.8175
B( 15-O , 17-H ) :   0.8668

MP2 TOTAL ENERGY:     -457.924369192 Eh
FINAL SINGLE POINT ENERGY      -457.924369191871

DIPOLE MOMENT
-------------
                                X             Y             Z
Electronic contribution:      0.27208      -0.09997      -0.21914
Nuclear contribution   :      0.11292      -0.03428      -1.40687
                        -----------------------------------------
Total Dipole Moment    :      0.38500      -0.13425      -1.62601
                        -----------------------------------------
Magnitude (a.u.)       :      1.67635
Magnitude (Debye)      :      4.26095

Rotational constants in cm-1:     0.066433     0.026012     0.022395
Rotational constants in MHz :  1991.601167   779.833839   671.379443

                             ****ORCA TERMINATED NORMALLY****
TOTAL RUN TIME: 0 days 0 hours 1 minutes 6 seconds 426 msec
