                         Program Version 3.0.3 - RELEASE   -
|  1> ! B3LYP Def2-TZVP def2-TZVP/J RIJCOSX TightSCF Grid4 D3BJ
|  2>
|  3> %pal nprocs 12 end
|  4>
|  5> %scf
|  6>         maxiter 400
|  7> end
|  8>
|  9> * xyz  0  1
| 10> O  1.916305	1.393465	0.445749
| 11> H  1.241190	1.198416	1.178690
| 12> H  2.589590	1.958961	0.846374
| 13> O  0.080334	0.773453	2.169258
| 14> H  -0.740471	1.034663	1.693845
| 15> H  0.046334	-0.208181	2.138032
| 16> O  0.018508	-1.859705	1.420534
| 17> H  0.786119	-1.701615	0.776213
| 18> H  0.225397	-2.675153	1.895696
| 19> O  -1.950243	1.138168	0.387910
| 20> H  -2.044177	0.176476	0.079054
| 21> H  -2.848884	1.483827	0.469692
| 22> O  1.868375	-1.254411	-0.304684
| 23> H  1.336279	-1.160367	-1.126678
| 24> H  2.112291	-0.330490	-0.073673
| 25> O  -0.015451	1.809748	-1.470107
| 26> H  0.758179	1.854349	-0.863849
| 27> H  -0.781961	1.773374	-0.855298
| 28> O  0.010261	-0.666807	-2.249896
| 29> H  0.003153	0.323812	-2.034072
| 30> H  0.071736	-0.731084	-3.211889
| 31> O  -1.955640	-1.350237	-0.407338
| 32> H  -1.366386	-1.265905	-1.189875
| 33> H  -1.360841	-1.714758	0.286311
| 34> **                         ****END OF INPUT****

CARTESIAN COORDINATES (ANGSTROEM)
---------------------------------
  O      1.916305    1.393465    0.445749
  H      1.241190    1.198416    1.178690
  H      2.589590    1.958961    0.846374
  O      0.080334    0.773453    2.169258
  H     -0.740471    1.034663    1.693845
  H      0.046334   -0.208181    2.138032
  O      0.018508   -1.859705    1.420534
  H      0.786119   -1.701615    0.776213
  H      0.225397   -2.675153    1.895696
  O     -1.950243    1.138168    0.387910
  H     -2.044177    0.176476    0.079054
  H     -2.848884    1.483827    0.469692
  O      1.868375   -1.254411   -0.304684
  H      1.336279   -1.160367   -1.126678
  H      2.112291   -0.330490   -0.073673
  O     -0.015451    1.809748   -1.470107
  H      0.758179    1.854349   -0.863849
  H     -0.781961    1.773374   -0.855298
  O      0.010261   -0.666807   -2.249896
  H      0.003153    0.323812   -2.034072
  H      0.071736   -0.731084   -3.211889
  O     -1.955640   -1.350237   -0.407338
  H     -1.366386   -1.265905   -1.189875
  H     -1.360841   -1.714758    0.286311

 Total Charge           Charge          ....    0
 Multiplicity           Mult            ....    1
 Number of Electrons    NEL             ....   80
 Basis Dimension        Dim             ....  344

ORBITAL ENERGIES
----------------

  NO   OCC          E(Eh)            E(eV)
   0   2.0000     -19.137952      -520.7702
   1   2.0000     -19.137516      -520.7583
   2   2.0000     -19.135385      -520.7003
   3   2.0000     -19.135258      -520.6969
   4   2.0000     -19.117850      -520.2231
   5   2.0000     -19.117234      -520.2064
   6   2.0000     -19.116850      -520.1959
   7   2.0000     -19.116309      -520.1812
   8   2.0000      -1.034908       -28.1613
   9   2.0000      -1.022591       -27.8261
  10   2.0000      -1.020435       -27.7674
  11   2.0000      -1.019665       -27.7465
  12   2.0000      -0.998702       -27.1761
  13   2.0000      -0.998135       -27.1606
  14   2.0000      -0.996383       -27.1130
  15   2.0000      -0.984764       -26.7968
  16   2.0000      -0.549313       -14.9476
  17   2.0000      -0.548150       -14.9159
  18   2.0000      -0.545402       -14.8411
  19   2.0000      -0.544073       -14.8050
  20   2.0000      -0.523959       -14.2577
  21   2.0000      -0.522681       -14.2229
  22   2.0000      -0.519158       -14.1270
  23   2.0000      -0.516298       -14.0492
  24   2.0000      -0.458580       -12.4786
  25   2.0000      -0.423032       -11.5113
  26   2.0000      -0.421734       -11.4760
  27   2.0000      -0.419534       -11.4161
  28   2.0000      -0.391488       -10.6529
  29   2.0000      -0.390715       -10.6319
  30   2.0000      -0.389473       -10.5981
  31   2.0000      -0.355915        -9.6849
  32   2.0000      -0.331393        -9.0177
  33   2.0000      -0.330550        -8.9947
  34   2.0000      -0.328962        -8.9515
  35   2.0000      -0.328044        -8.9265
  36   2.0000      -0.316456        -8.6112
  37   2.0000      -0.312697        -8.5089
  38   2.0000      -0.312054        -8.4914
  39   2.0000      -0.311398        -8.4736
  40   0.0000       0.003106         0.0845
  41   0.0000       0.034685         0.9438
  42   0.0000       0.035090         0.9549
  43   0.0000       0.035598         0.9687
  44   0.0000       0.111963         3.0467

MULLIKEN ATOMIC CHARGES
-----------------------
   0 O :   -0.726047
   1 H :    0.365763
   2 H :    0.329600
   3 O :   -0.683229
   4 H :    0.359685
   5 H :    0.354330
   6 O :   -0.724668
   7 H :    0.366377
   8 H :    0.330921
   9 O :   -0.725733
  10 H :    0.362673
  11 H :    0.331825
  12 O :   -0.686260
  13 H :    0.356879
  14 H :    0.356256
  15 O :   -0.680795
  16 H :    0.359360
  17 H :    0.351603
  18 O :   -0.726606
  19 H :    0.363971
  20 H :    0.330533
  21 O :   -0.679163
  22 H :    0.355260
  23 H :    0.357464
Sum of atomic charges:   -0.0000000

LOEWDIN ATOMIC CHARGES
----------------------
   0 O :   -0.303829
   1 H :    0.136471
   2 H :    0.156233
   3 O :   -0.274372
   4 H :    0.140462
   5 H :    0.140074
   6 O :   -0.297518
   7 H :    0.137949
   8 H :    0.156583
   9 O :   -0.298216
  10 H :    0.139835
  11 H :    0.156927
  12 O :   -0.275561
  13 H :    0.140688
  14 H :    0.141289
  15 O :   -0.274385
  16 H :    0.142017
  17 H :    0.140326
  18 O :   -0.303444
  19 H :    0.136452
  20 H :    0.156263
  21 O :   -0.276395
  22 H :    0.142503
  23 H :    0.139647

  Mayer bond orders larger than 0.1
B(  0-O ,  1-H ) :   0.7277 B(  0-O ,  2-H ) :   0.8915 B(  1-H ,  3-O ) :   0.1869
B(  3-O ,  4-H ) :   0.8264 B(  3-O ,  5-H ) :   0.8279 B(  6-O ,  7-H ) :   0.7292
B(  6-O ,  8-H ) :   0.8905 B(  7-H , 12-O ) :   0.1842 B(  9-O , 10-H ) :   0.7280
B(  9-O , 11-H ) :   0.8902 B( 10-H , 21-O ) :   0.1937 B( 12-O , 13-H ) :   0.8255
B( 12-O , 14-H ) :   0.8268 B( 15-O , 16-H ) :   0.8262 B( 15-O , 17-H ) :   0.8314
B( 15-O , 19-H ) :   0.1881 B( 18-O , 19-H ) :   0.7290 B( 18-O , 20-H ) :   0.8913
B( 21-O , 22-H ) :   0.8337 B( 21-O , 23-H ) :   0.8265

Dispersion correction           -0.025095295
FINAL SINGLE POINT ENERGY      -611.554124657862

DIPOLE MOMENT
-------------
                                X             Y             Z
Electronic contribution:     -0.02979      -0.01046       0.00867
Nuclear contribution   :      0.06879       0.04077       0.02141
                        -----------------------------------------
Total Dipole Moment    :      0.03901       0.03031       0.03008
                        -----------------------------------------
Magnitude (a.u.)       :      0.05783
Magnitude (Debye)      :      0.14700

                             ****ORCA TERMINATED NORMALLY****
TOTAL RUN TIME: 0 days 0 hours 1 minutes 3 seconds 156 msec
