                         Program Version 4.2.0 -  RELEASE  -
|  1> # 12mecn.remya.etal.2.mol1,9,10
|  2> ! MP2 def2-TZVP EnGrad TightSCF
|  3>
|  4> %pal
|  5>     nprocs 6
|  6> end
|  7>
|  8> %maxcore 8000
|  9>
| 10> %scf
| 11>     ConvForced true
| 12> end
| 13>
| 14> *xyz 0 1
| 15> C  -4.697980000  -0.249690000   1.746215000
| 16> H  -4.927570000   0.755530000   2.111799000
| 17> H  -3.709180000  -0.561560000   2.093253000
| 18> H  -5.432280000  -0.961520000   2.128066000
| 19> C  -4.714100000  -0.247110000   0.301670000
| 20> N  -4.729750000  -0.234960000  -0.865260000
| 21> C   0.923766000   4.000693000  -1.575910000
| 22> H   0.011949000   4.478423000  -1.939550000
| 23> H   0.947903000   2.966558000  -1.929960000
| 24> H   1.805950000   4.519548000  -1.956520000
| 25> C   0.942834000   3.994846000  -0.131200000
| 26> N   0.960035000   3.982544000   1.035639000
| 27> C   4.602033000   0.321019000  -1.784800000
| 28> H   4.827650000  -0.662160000  -2.207910000
| 29> H   5.320558000   1.057980000  -2.148500000
| 30> H   3.601982000   0.643751000  -2.087520000
| 31> C   4.654967000   0.244048000  -0.343060000
| 32> N   4.691648000   0.166590000   0.820757000
| 33> *
| 34>
| 35>                          ****END OF INPUT****

CARTESIAN COORDINATES (ANGSTROEM)
---------------------------------
  C     -4.697980   -0.249690    1.746215
  H     -4.927570    0.755530    2.111799
  H     -3.709180   -0.561560    2.093253
  H     -5.432280   -0.961520    2.128066
  C     -4.714100   -0.247110    0.301670
  N     -4.729750   -0.234960   -0.865260
  C      0.923766    4.000693   -1.575910
  H      0.011949    4.478423   -1.939550
  H      0.947903    2.966558   -1.929960
  H      1.805950    4.519548   -1.956520
  C      0.942834    3.994846   -0.131200
  N      0.960035    3.982544    1.035639
  C      4.602033    0.321019   -1.784800
  H      4.827650   -0.662160   -2.207910
  H      5.320558    1.057980   -2.148500
  H      3.601982    0.643751   -2.087520
  C      4.654967    0.244048   -0.343060
  N      4.691648    0.166590    0.820757

 Total Charge           Charge          ....    0
 Multiplicity           Mult            ....    1
 Number of Electrons    NEL             ....   66
 Basis Dimension        Dim             ....  333

ORBITAL ENERGIES
----------------

  NO   OCC          E(Eh)            E(eV)
   0   2.0000     -15.573800      -423.7846
   1   2.0000     -15.573739      -423.7830
   2   2.0000     -15.572997      -423.7628
   3   2.0000     -11.288046      -307.1633
   4   2.0000     -11.287094      -307.1374
   5   2.0000     -11.283083      -307.0283
   6   2.0000     -11.280468      -306.9571
   7   2.0000     -11.280248      -306.9511
   8   2.0000     -11.279951      -306.9431
   9   2.0000      -1.214626       -33.0517
  10   2.0000      -1.214517       -33.0487
  11   2.0000      -1.214459       -33.0471
  12   2.0000      -1.046625       -28.4801
  13   2.0000      -1.046202       -28.4686
  14   2.0000      -1.042875       -28.3781
  15   2.0000      -0.702332       -19.1114
  16   2.0000      -0.702091       -19.1049
  17   2.0000      -0.698896       -19.0179
  18   2.0000      -0.637375       -17.3439
  19   2.0000      -0.636064       -17.3082
  20   2.0000      -0.633323       -17.2336
  21   2.0000      -0.632503       -17.2113
  22   2.0000      -0.632059       -17.1992
  23   2.0000      -0.628370       -17.0988
  24   2.0000      -0.556239       -15.1360
  25   2.0000      -0.555929       -15.1276
  26   2.0000      -0.555610       -15.1189
  27   2.0000      -0.458487       -12.4761
  28   2.0000      -0.457870       -12.4593
  29   2.0000      -0.457753       -12.4561
  30   2.0000      -0.457678       -12.4541
  31   2.0000      -0.457238       -12.4421
  32   2.0000      -0.456969       -12.4348
  33   0.0000       0.093425         2.5422
  34   0.0000       0.121364         3.3025
  35   0.0000       0.133716         3.6386
  36   0.0000       0.155452         4.2301
  37   0.0000       0.166666         4.5352

MULLIKEN ATOMIC CHARGES
-----------------------
   0 C :   -0.277457
   1 H :    0.173542
   2 H :    0.175247
   3 H :    0.171422
   4 C :   -0.145710
   5 N :   -0.097044
   6 C :   -0.282657
   7 H :    0.176766
   8 H :    0.166424
   9 H :    0.171180
  10 C :   -0.143674
  11 N :   -0.088059
  12 C :   -0.278792
  13 H :    0.174734
  14 H :    0.172279
  15 H :    0.162729
  16 C :   -0.144615
  17 N :   -0.086316
Sum of atomic charges:   -0.0000000

LOEWDIN ATOMIC CHARGES
----------------------
   0 C :   -0.282574
   1 H :    0.153771
   2 H :    0.154165
   3 H :    0.151590
   4 C :   -0.219039
   5 N :    0.042086
   6 C :   -0.284566
   7 H :    0.152731
   8 H :    0.151114
   9 H :    0.151019
  10 C :   -0.220071
  11 N :    0.049743
  12 C :   -0.284677
  13 H :    0.153444
  14 H :    0.151123
  15 H :    0.149811
  16 C :   -0.220805
  17 N :    0.051134

  Mayer bond orders larger than 0.100000
B(  0-C ,  1-H ) :   0.9151 B(  0-C ,  2-H ) :   0.9154 B(  0-C ,  3-H ) :   0.9170
B(  0-C ,  4-C ) :   0.9017 B(  4-C ,  5-N ) :   2.8399 B(  6-C ,  7-H ) :   0.9152
B(  6-C ,  8-H ) :   0.9189 B(  6-C ,  9-H ) :   0.9177 B(  6-C , 10-C ) :   0.9005
B( 10-C , 11-N ) :   2.8325 B( 12-C , 13-H ) :   0.9159 B( 12-C , 14-H ) :   0.9178
B( 12-C , 15-H ) :   0.9192 B( 12-C , 16-C ) :   0.9007 B( 16-C , 17-N ) :   2.8314

MP2 TOTAL ENERGY:     -397.449000277 Eh
FINAL SINGLE POINT ENERGY      -397.449000276593

DIPOLE MOMENT
-------------
                                X             Y             Z
Electronic contribution:      0.11880      -0.14779       3.19123
Nuclear contribution   :     -0.16785       0.23501      -4.63245
                        -----------------------------------------
Total Dipole Moment    :     -0.04905       0.08722      -1.44123
                        -----------------------------------------
Magnitude (a.u.)       :      1.44470
Magnitude (Debye)      :      3.67213

Rotational constants in cm-1:     0.029314     0.008278     0.007337
Rotational constants in MHz :   878.819891   248.172720   219.962354

                             ****ORCA TERMINATED NORMALLY****
TOTAL RUN TIME: 0 days 0 hours 2 minutes 4 seconds 787 msec
