                         Program Version 4.2.0 -  RELEASE  -
|  1> # 12h2o.su.etal.mol0,2,3,4,6,9,10,11
|  2> ! MP2 def2-TZVP EnGrad TightSCF
|  3>
|  4> %pal
|  5>     nprocs 6
|  6> end
|  7>
|  8> %maxcore 8000
|  9>
| 10> %scf
| 11>     ConvForced true
| 12> end
| 13>
| 14> *xyz 0 1
| 15> O   1.794470000   0.923410000   2.768350000
| 16> H   2.338250000   1.359750000   3.430940000
| 17> H   0.879480000   1.303000000   2.865760000
| 18> O   0.923410000  -1.794470000  -2.768350000
| 19> H   1.359750000  -2.338250000  -3.430940000
| 20> H   1.303000000  -0.879480000  -2.865760000
| 21> O  -1.752130000  -0.741530000  -2.896280000
| 22> H  -2.036450000  -0.920500000  -1.984040000
| 23> H  -0.921210000  -1.242140000  -2.984230000
| 24> O  -0.885520000   1.737840000   0.052730000
| 25> H  -1.032320000   2.090180000  -0.841890000
| 26> H  -1.284090000   0.839590000   0.017130000
| 27> O   1.737840000   0.885520000  -0.052730000
| 28> H   2.090180000   1.032320000   0.841890000
| 29> H   0.839590000   1.284090000  -0.017130000
| 30> O   0.741530000  -1.752130000   2.896280000
| 31> H   0.920500000  -2.036450000   1.984040000
| 32> H   1.242140000  -0.921210000   2.984230000
| 33> O  -0.923410000   1.794470000  -2.768350000
| 34> H  -1.359750000   2.338250000  -3.430940000
| 35> H  -1.303000000   0.879480000  -2.865760000
| 36> O  -0.741530000   1.752130000   2.896280000
| 37> H  -0.920500000   2.036450000   1.984040000
| 38> H  -1.242140000   0.921210000   2.984230000
| 39> *
| 40>
| 41>                          ****END OF INPUT****

CARTESIAN COORDINATES (ANGSTROEM)
---------------------------------
  O      1.794470    0.923410    2.768350
  H      2.338250    1.359750    3.430940
  H      0.879480    1.303000    2.865760
  O      0.923410   -1.794470   -2.768350
  H      1.359750   -2.338250   -3.430940
  H      1.303000   -0.879480   -2.865760
  O     -1.752130   -0.741530   -2.896280
  H     -2.036450   -0.920500   -1.984040
  H     -0.921210   -1.242140   -2.984230
  O     -0.885520    1.737840    0.052730
  H     -1.032320    2.090180   -0.841890
  H     -1.284090    0.839590    0.017130
  O      1.737840    0.885520   -0.052730
  H      2.090180    1.032320    0.841890
  H      0.839590    1.284090   -0.017130
  O      0.741530   -1.752130    2.896280
  H      0.920500   -2.036450    1.984040
  H      1.242140   -0.921210    2.984230
  O     -0.923410    1.794470   -2.768350
  H     -1.359750    2.338250   -3.430940
  H     -1.303000    0.879480   -2.865760
  O     -0.741530    1.752130    2.896280
  H     -0.920500    2.036450    1.984040
  H     -1.242140    0.921210    2.984230

 Total Charge           Charge          ....    0
 Multiplicity           Mult            ....    1
 Number of Electrons    NEL             ....   80
 Basis Dimension        Dim             ....  344

ORBITAL ENERGIES
----------------

  NO   OCC          E(Eh)            E(eV)
   0   2.0000     -20.591860      -560.3330
   1   2.0000     -20.590649      -560.3000
   2   2.0000     -20.590160      -560.2867
   3   2.0000     -20.578683      -559.9744
   4   2.0000     -20.558401      -559.4225
   5   2.0000     -20.553083      -559.2778
   6   2.0000     -20.525627      -558.5307
   7   2.0000     -20.499707      -557.8254
   8   2.0000      -1.383010       -37.6336
   9   2.0000      -1.379345       -37.5339
  10   2.0000      -1.367106       -37.2008
  11   2.0000      -1.366294       -37.1788
  12   2.0000      -1.339941       -36.4616
  13   2.0000      -1.338448       -36.4210
  14   2.0000      -1.307569       -35.5808
  15   2.0000      -1.283960       -34.9383
  16   2.0000      -0.745381       -20.2828
  17   2.0000      -0.743487       -20.2313
  18   2.0000      -0.730619       -19.8812
  19   2.0000      -0.724696       -19.7200
  20   2.0000      -0.724471       -19.7139
  21   2.0000      -0.720279       -19.5998
  22   2.0000      -0.676909       -18.4196
  23   2.0000      -0.669394       -18.2151
  24   2.0000      -0.638934       -17.3863
  25   2.0000      -0.628146       -17.0927
  26   2.0000      -0.606785       -16.5115
  27   2.0000      -0.597885       -16.2693
  28   2.0000      -0.584092       -15.8939
  29   2.0000      -0.578379       -15.7385
  30   2.0000      -0.557979       -15.1834
  31   2.0000      -0.542016       -14.7490
  32   2.0000      -0.534211       -14.5366
  33   2.0000      -0.527383       -14.3508
  34   2.0000      -0.516146       -14.0451
  35   2.0000      -0.512790       -13.9537
  36   2.0000      -0.508321       -13.8321
  37   2.0000      -0.492674       -13.4063
  38   2.0000      -0.473651       -12.8887
  39   2.0000      -0.450455       -12.2575
  40   0.0000       0.083060         2.2602
  41   0.0000       0.120774         3.2864
  42   0.0000       0.136030         3.7016
  43   0.0000       0.147994         4.0271
  44   0.0000       0.165729         4.5097

MULLIKEN ATOMIC CHARGES
-----------------------
   0 O :   -0.747567
   1 H :    0.344572
   2 H :    0.383021
   3 O :   -0.706368
   4 H :    0.354035
   5 H :    0.380141
   6 O :   -0.696477
   7 H :    0.344060
   8 H :    0.382595
   9 O :   -0.723004
  10 H :    0.395169
  11 H :    0.333644
  12 O :   -0.740692
  13 H :    0.359301
  14 H :    0.345911
  15 O :   -0.720007
  16 H :    0.333342
  17 H :    0.362888
  18 O :   -0.739078
  19 H :    0.341750
  20 H :    0.369641
  21 O :   -0.700911
  22 H :    0.389882
  23 H :    0.354151
Sum of atomic charges:   -0.0000000

LOEWDIN ATOMIC CHARGES
----------------------
   0 O :   -0.312936
   1 H :    0.156389
   2 H :    0.146519
   3 O :   -0.311015
   4 H :    0.165002
   5 H :    0.195462
   6 O :   -0.278616
   7 H :    0.165683
   8 H :    0.157088
   9 O :   -0.285604
  10 H :    0.159867
  11 H :    0.167223
  12 O :   -0.372658
  13 H :    0.143012
  14 H :    0.134894
  15 O :   -0.353412
  16 H :    0.160875
  17 H :    0.146704
  18 O :   -0.339531
  19 H :    0.156377
  20 H :    0.142758
  21 O :   -0.274756
  22 H :    0.158475
  23 H :    0.172199

  Mayer bond orders larger than 0.100000
B(  0-O ,  1-H ) :   0.8433 B(  0-O ,  2-H ) :   0.7446 B(  3-O ,  4-H ) :   0.8404
B(  3-O ,  5-H ) :   0.8142 B(  6-O ,  7-H ) :   0.8460 B(  6-O ,  8-H ) :   0.7847
B(  6-O , 20-H ) :   0.1025 B(  9-O , 10-H ) :   0.7763 B(  9-O , 11-H ) :   0.8423
B( 12-O , 13-H ) :   0.8234 B( 12-O , 14-H ) :   0.8140 B( 15-O , 16-H ) :   0.8540
B( 15-O , 17-H ) :   0.8097 B( 18-O , 19-H ) :   0.8481 B( 18-O , 20-H ) :   0.7564
B( 21-O , 22-H ) :   0.7981 B( 21-O , 23-H ) :   0.8360

MP2 TOTAL ENERGY:     -610.579041773 Eh
FINAL SINGLE POINT ENERGY      -610.579041773447

DIPOLE MOMENT
-------------
                                X             Y             Z
Electronic contribution:     -0.13898      -0.01868      -0.13192
Nuclear contribution   :     -0.76235       0.11304      -1.31870
                        -----------------------------------------
Total Dipole Moment    :     -0.90133       0.09436      -1.45062
                        -----------------------------------------
Magnitude (a.u.)       :      1.71044
Magnitude (Debye)      :      4.34758

Rotational constants in cm-1:     0.034808     0.015722     0.013334
Rotational constants in MHz :  1043.503586   471.343936   399.733852

                             ****ORCA TERMINATED NORMALLY****
TOTAL RUN TIME: 0 days 0 hours 2 minutes 50 seconds 359 msec
