                         Program Version 4.2.0 -  RELEASE  -
|  1> # 12h2o.su.etal.mol0,1,3,4,6,8,9,10
|  2> ! MP2 def2-TZVP EnGrad TightSCF
|  3>
|  4> %pal
|  5>     nprocs 6
|  6> end
|  7>
|  8> %maxcore 8000
|  9>
| 10> %scf
| 11>     ConvForced true
| 12> end
| 13>
| 14> *xyz 0 1
| 15> O   1.794470000   0.923410000   2.768350000
| 16> H   2.338250000   1.359750000   3.430940000
| 17> H   0.879480000   1.303000000   2.865760000
| 18> O  -1.794470000  -0.923410000   2.768350000
| 19> H  -2.338250000  -1.359750000   3.430940000
| 20> H  -0.879480000  -1.303000000   2.865760000
| 21> O  -1.752130000  -0.741530000  -2.896280000
| 22> H  -2.036450000  -0.920500000  -1.984040000
| 23> H  -0.921210000  -1.242140000  -2.984230000
| 24> O  -0.885520000   1.737840000   0.052730000
| 25> H  -1.032320000   2.090180000  -0.841890000
| 26> H  -1.284090000   0.839590000   0.017130000
| 27> O   1.737840000   0.885520000  -0.052730000
| 28> H   2.090180000   1.032320000   0.841890000
| 29> H   0.839590000   1.284090000  -0.017130000
| 30> O   1.752130000   0.741530000  -2.896280000
| 31> H   2.036450000   0.920500000  -1.984040000
| 32> H   0.921210000   1.242140000  -2.984230000
| 33> O   0.741530000  -1.752130000   2.896280000
| 34> H   0.920500000  -2.036450000   1.984040000
| 35> H   1.242140000  -0.921210000   2.984230000
| 36> O  -0.923410000   1.794470000  -2.768350000
| 37> H  -1.359750000   2.338250000  -3.430940000
| 38> H  -1.303000000   0.879480000  -2.865760000
| 39> *
| 40>
| 41>                          ****END OF INPUT****

CARTESIAN COORDINATES (ANGSTROEM)
---------------------------------
  O      1.794470    0.923410    2.768350
  H      2.338250    1.359750    3.430940
  H      0.879480    1.303000    2.865760
  O     -1.794470   -0.923410    2.768350
  H     -2.338250   -1.359750    3.430940
  H     -0.879480   -1.303000    2.865760
  O     -1.752130   -0.741530   -2.896280
  H     -2.036450   -0.920500   -1.984040
  H     -0.921210   -1.242140   -2.984230
  O     -0.885520    1.737840    0.052730
  H     -1.032320    2.090180   -0.841890
  H     -1.284090    0.839590    0.017130
  O      1.737840    0.885520   -0.052730
  H      2.090180    1.032320    0.841890
  H      0.839590    1.284090   -0.017130
  O      1.752130    0.741530   -2.896280
  H      2.036450    0.920500   -1.984040
  H      0.921210    1.242140   -2.984230
  O      0.741530   -1.752130    2.896280
  H      0.920500   -2.036450    1.984040
  H      1.242140   -0.921210    2.984230
  O     -0.923410    1.794470   -2.768350
  H     -1.359750    2.338250   -3.430940
  H     -1.303000    0.879480   -2.865760

 Total Charge           Charge          ....    0
 Multiplicity           Mult            ....    1
 Number of Electrons    NEL             ....   80
 Basis Dimension        Dim             ....  344

ORBITAL ENERGIES
----------------

  NO   OCC          E(Eh)            E(eV)
   0   2.0000     -20.612857      -560.9044
   1   2.0000     -20.610819      -560.8489
   2   2.0000     -20.574911      -559.8718
   3   2.0000     -20.570405      -559.7492
   4   2.0000     -20.567795      -559.6782
   5   2.0000     -20.527839      -558.5909
   6   2.0000     -20.522667      -558.4502
   7   2.0000     -20.496611      -557.7411
   8   2.0000      -1.397163       -38.0187
   9   2.0000      -1.393534       -37.9200
  10   2.0000      -1.363404       -37.1001
  11   2.0000      -1.359888       -37.0044
  12   2.0000      -1.348175       -36.6857
  13   2.0000      -1.309511       -35.6336
  14   2.0000      -1.309422       -35.6312
  15   2.0000      -1.281301       -34.8660
  16   2.0000      -0.759109       -20.6564
  17   2.0000      -0.752904       -20.4876
  18   2.0000      -0.738667       -20.1001
  19   2.0000      -0.725503       -19.7419
  20   2.0000      -0.714391       -19.4396
  21   2.0000      -0.696750       -18.9595
  22   2.0000      -0.691479       -18.8161
  23   2.0000      -0.660425       -17.9711
  24   2.0000      -0.639799       -17.4098
  25   2.0000      -0.634373       -17.2622
  26   2.0000      -0.610228       -16.6051
  27   2.0000      -0.602879       -16.4052
  28   2.0000      -0.584951       -15.9173
  29   2.0000      -0.573684       -15.6107
  30   2.0000      -0.557101       -15.1595
  31   2.0000      -0.548315       -14.9204
  32   2.0000      -0.542919       -14.7736
  33   2.0000      -0.523288       -14.2394
  34   2.0000      -0.508454       -13.8357
  35   2.0000      -0.506373       -13.7791
  36   2.0000      -0.501700       -13.6519
  37   2.0000      -0.478730       -13.0269
  38   2.0000      -0.473846       -12.8940
  39   2.0000      -0.446719       -12.1559
  40   0.0000       0.085248         2.3197
  41   0.0000       0.105233         2.8635
  42   0.0000       0.142430         3.8757
  43   0.0000       0.151469         4.1217
  44   0.0000       0.165904         4.5145

MULLIKEN ATOMIC CHARGES
-----------------------
   0 O :   -0.722892
   1 H :    0.364329
   2 H :    0.384782
   3 O :   -0.741825
   4 H :    0.328165
   5 H :    0.364994
   6 O :   -0.684878
   7 H :    0.356213
   8 H :    0.378709
   9 O :   -0.696543
  10 H :    0.380585
  11 H :    0.338163
  12 O :   -0.745412
  13 H :    0.358806
  14 H :    0.346098
  15 O :   -0.737155
  16 H :    0.371456
  17 H :    0.342314
  18 O :   -0.701157
  19 H :    0.356165
  20 H :    0.375129
  21 O :   -0.748909
  22 H :    0.351919
  23 H :    0.380946
Sum of atomic charges:    0.0000000

LOEWDIN ATOMIC CHARGES
----------------------
   0 O :   -0.287931
   1 H :    0.168187
   2 H :    0.196804
   3 O :   -0.377830
   4 H :    0.150098
   5 H :    0.140818
   6 O :   -0.266527
   7 H :    0.172361
   8 H :    0.184249
   9 O :   -0.298195
  10 H :    0.152819
  11 H :    0.168154
  12 O :   -0.350071
  13 H :    0.143766
  14 H :    0.138650
  15 O :   -0.360991
  16 H :    0.150661
  17 H :    0.137862
  18 O :   -0.282002
  19 H :    0.172189
  20 H :    0.153294
  21 O :   -0.312104
  22 H :    0.159947
  23 H :    0.145794

  Mayer bond orders larger than 0.100000
B(  0-O ,  1-H ) :   0.8319 B(  0-O ,  2-H ) :   0.8094 B(  3-O ,  4-H ) :   0.8587
B(  3-O ,  5-H ) :   0.7734 B(  6-O ,  7-H ) :   0.8377 B(  6-O ,  8-H ) :   0.8190
B(  9-O , 10-H ) :   0.7970 B(  9-O , 11-H ) :   0.8417 B( 12-O , 13-H ) :   0.8271
B( 12-O , 14-H ) :   0.7815 B( 15-O , 16-H ) :   0.8158 B( 15-O , 17-H ) :   0.8316
B( 18-O , 19-H ) :   0.8373 B( 18-O , 20-H ) :   0.8018 B( 21-O , 22-H ) :   0.8397
B( 21-O , 23-H ) :   0.7511

MP2 TOTAL ENERGY:     -610.575086037 Eh
FINAL SINGLE POINT ENERGY      -610.575086036800

DIPOLE MOMENT
-------------
                                X             Y             Z
Electronic contribution:      0.10308      -0.08860      -0.10610
Nuclear contribution   :     -1.02183       0.14554       1.31870
                        -----------------------------------------
Total Dipole Moment    :     -0.91875       0.05693       1.21260
                        -----------------------------------------
Magnitude (a.u.)       :      1.52242
Magnitude (Debye)      :      3.86967

Rotational constants in cm-1:     0.034627     0.015737     0.013297
Rotational constants in MHz :  1038.094976   471.785577   398.646515

                             ****ORCA TERMINATED NORMALLY****
TOTAL RUN TIME: 0 days 0 hours 2 minutes 47 seconds 394 msec
