                         Program Version 4.2.0 -  RELEASE  -
|  1> ! MP2 def2-TZVP EnGrad TightSCF FrozenCore
|  2>
|  3> %pal
|  4>     nprocs 12
|  5> end
|  6>
|  7> %maxcore 8000
|  8>
|  9> %scf
| 10>     ConvForced true
| 11> end
| 12>
| 13> *xyz 0 1
| 14> O    -1.0566302651     1.1096657288    -0.5732136572
| 15> H    -0.1824831133     1.2237581578    -0.1044574129
| 16> C    -0.8073984136     1.2126682806    -1.9826593921
| 17> H    -1.7772176387     1.2157419249    -2.4870581721
| 18> H    -0.2184431859     0.3583275191    -2.334480217
| 19> H    -0.2785886237     2.1441964712    -2.2197394114
| 20> O    -1.7956784707    -1.5375028667    -0.2486148765
| 21> H    -1.6415243704    -0.5629207258    -0.2663568962
| 22> C    -1.5845553523    -1.9961851236     1.0895450501
| 23> H    -1.8823450243    -3.0483645442     1.1204117852
| 24> H    -2.2112003464    -1.4418775206     1.8009118836
| 25> H    -0.5308520224    -1.9173070569     1.3871223197
| 26> O    -1.3302773        3.3643562436     1.096574964
| 27> H    -1.5650228217     2.6558945451     0.4595291558
| 28> C    -1.6469420334     4.6223942209     0.5143075877
| 29> H    -1.349816757      5.3944770644     1.2289899875
| 30> H    -2.7251575906     4.7226710833     0.3269033368
| 31> H    -1.1085624041     4.7971285618    -0.4290023939
| 32> O     1.0361091647     1.9970362718     0.8064256895
| 33> H     0.4255334163     2.6999094368     1.1208932797
| 34> C     1.5886722992     1.3097642106     1.933871629
| 35> H     2.0079732224     0.3700775027     1.5684761674
| 36> H     0.8211785922     1.0832357888     2.6866734165
| 37> H     2.3785975425     1.9098306176     2.4055956193
| 38> O     0.4616657786    -2.0307486506    -1.6654883501
| 39> H    -0.4189363194    -1.9504828662    -1.2140412335
| 40> C     0.4456092926    -3.1755438847    -2.5050625704
| 41> H     1.4151373668    -3.2315400129    -3.0086385625
| 42> H    -0.3381628368    -3.1045739206    -3.2723856748
| 43> H     0.2940588874    -4.1075105706    -1.9402123402
| 44> O     1.9040333146    -1.8528007665     0.7152766028
| 45> H     1.5152137848    -1.8937541747    -0.1874429236
| 46> C     2.767917806     -2.9608935642     0.8691685909
| 47> H     3.1605657208    -2.9370251916     1.8907797872
| 48> H     3.6247374987    -2.9288184696     0.1768454847
| 49> H     2.251717655     -3.9243461403     0.7279746622
| 50> *
| 51>
| 52>                          ****END OF INPUT****

CARTESIAN COORDINATES (ANGSTROEM)
---------------------------------
  O     -1.056630    1.109666   -0.573214
  H     -0.182483    1.223758   -0.104457
  C     -0.807398    1.212668   -1.982659
  H     -1.777218    1.215742   -2.487058
  H     -0.218443    0.358328   -2.334480
  H     -0.278589    2.144196   -2.219739
  O     -1.795678   -1.537503   -0.248615
  H     -1.641524   -0.562921   -0.266357
  C     -1.584555   -1.996185    1.089545
  H     -1.882345   -3.048365    1.120412
  H     -2.211200   -1.441878    1.800912
  H     -0.530852   -1.917307    1.387122
  O     -1.330277    3.364356    1.096575
  H     -1.565023    2.655895    0.459529
  C     -1.646942    4.622394    0.514308
  H     -1.349817    5.394477    1.228990
  H     -2.725158    4.722671    0.326903
  H     -1.108562    4.797129   -0.429002
  O      1.036109    1.997036    0.806426
  H      0.425533    2.699909    1.120893
  C      1.588672    1.309764    1.933872
  H      2.007973    0.370078    1.568476
  H      0.821179    1.083236    2.686673
  H      2.378598    1.909831    2.405596
  O      0.461666   -2.030749   -1.665488
  H     -0.418936   -1.950483   -1.214041
  C      0.445609   -3.175544   -2.505063
  H      1.415137   -3.231540   -3.008639
  H     -0.338163   -3.104574   -3.272386
  H      0.294059   -4.107511   -1.940212
  O      1.904033   -1.852801    0.715277
  H      1.515214   -1.893754   -0.187443
  C      2.767918   -2.960894    0.869169
  H      3.160566   -2.937025    1.890780
  H      3.624737   -2.928818    0.176845
  H      2.251718   -3.924346    0.727975

 Total Charge           Charge          ....    0
 Multiplicity           Mult            ....    1
 Number of Electrons    NEL             ....  108
 Basis Dimension        Dim             ....  516

ORBITAL ENERGIES
----------------

  NO   OCC          E(Eh)            E(eV)
   0   2.0000     -20.562930      -559.5458
   1   2.0000     -20.559373      -559.4490
   2   2.0000     -20.553267      -559.2828
   3   2.0000     -20.549214      -559.1725
   4   2.0000     -20.546427      -559.0967
   5   2.0000     -20.528998      -558.6224
   6   2.0000     -11.276300      -306.8437
   7   2.0000     -11.271944      -306.7252
   8   2.0000     -11.269248      -306.6518
   9   2.0000     -11.261897      -306.4518
  10   2.0000     -11.258424      -306.3573
  11   2.0000     -11.258175      -306.3505
  12   2.0000      -1.372938       -37.3595
  13   2.0000      -1.358646       -36.9706
  14   2.0000      -1.352278       -36.7974
  15   2.0000      -1.345110       -36.6023
  16   2.0000      -1.338781       -36.4301
  17   2.0000      -1.328902       -36.1613
  18   2.0000      -0.932430       -25.3727
  19   2.0000      -0.922890       -25.1131
  20   2.0000      -0.921232       -25.0680
  21   2.0000      -0.914337       -24.8804
  22   2.0000      -0.912728       -24.8366
  23   2.0000      -0.903830       -24.5945
  24   2.0000      -0.709942       -19.3185
  25   2.0000      -0.697495       -18.9798
  26   2.0000      -0.694971       -18.9111
  27   2.0000      -0.689468       -18.7614
  28   2.0000      -0.683545       -18.6002
  29   2.0000      -0.677420       -18.4335
  30   2.0000      -0.624569       -16.9954
  31   2.0000      -0.619611       -16.8605
  32   2.0000      -0.614387       -16.7183
  33   2.0000      -0.612476       -16.6663
  34   2.0000      -0.608605       -16.5610
  35   2.0000      -0.600327       -16.3357
  36   2.0000      -0.598839       -16.2953
  37   2.0000      -0.592964       -16.1354
  38   2.0000      -0.589359       -16.0373
  39   2.0000      -0.586905       -15.9705
  40   2.0000      -0.584455       -15.9038
  41   2.0000      -0.571938       -15.5632
  42   2.0000      -0.519539       -14.1374
  43   2.0000      -0.512999       -13.9594
  44   2.0000      -0.510222       -13.8838
  45   2.0000      -0.495555       -13.4847
  46   2.0000      -0.490652       -13.3513
  47   2.0000      -0.481396       -13.0994
  48   2.0000      -0.459476       -12.5030
  49   2.0000      -0.450898       -12.2696
  50   2.0000      -0.446813       -12.1584
  51   2.0000      -0.444296       -12.0899
  52   2.0000      -0.438687       -11.9373
  53   2.0000      -0.425458       -11.5773
  54   0.0000       0.127730         3.4757
  55   0.0000       0.136995         3.7278
  56   0.0000       0.151099         4.1116
  57   0.0000       0.168731         4.5914
  58   0.0000       0.178065         4.8454

MULLIKEN ATOMIC CHARGES
-----------------------
   0 O :   -0.622736
   1 H :    0.387303
   2 C :   -0.193147
   3 H :    0.132655
   4 H :    0.155486
   5 H :    0.126800
   6 O :   -0.547270
   7 H :    0.375695
   8 C :   -0.217490
   9 H :    0.126510
  10 H :    0.121909
  11 H :    0.148934
  12 O :   -0.543550
  13 H :    0.358277
  14 C :   -0.177480
  15 H :    0.131716
  16 H :    0.121972
  17 H :    0.115243
  18 O :   -0.553613
  19 H :    0.358330
  20 C :   -0.190369
  21 H :    0.170117
  22 H :    0.114922
  23 H :    0.114145
  24 O :   -0.570014
  25 H :    0.372503
  26 C :   -0.172028
  27 H :    0.126962
  28 H :    0.121681
  29 H :    0.114731
  30 O :   -0.527361
  31 H :    0.358356
  32 C :   -0.170332
  33 H :    0.121633
  34 H :    0.107856
  35 H :    0.101653
Sum of atomic charges:   -0.0000000

LOEWDIN ATOMIC CHARGES
----------------------
   0 O :   -0.102140
   1 H :    0.168611
   2 C :   -0.378187
   3 H :    0.109795
   4 H :    0.106811
   5 H :    0.104013
   6 O :   -0.090462
   7 H :    0.166442
   8 C :   -0.385375
   9 H :    0.108321
  10 H :    0.102235
  11 H :    0.102196
  12 O :   -0.090677
  13 H :    0.168561
  14 C :   -0.381956
  15 H :    0.110485
  16 H :    0.102133
  17 H :    0.097924
  18 O :   -0.085310
  19 H :    0.167928
  20 C :   -0.375695
  21 H :    0.114863
  22 H :    0.100206
  23 H :    0.100024
  24 O :   -0.090924
  25 H :    0.164926
  26 C :   -0.389354
  27 H :    0.108642
  28 H :    0.102167
  29 H :    0.098048
  30 O :   -0.095477
  31 H :    0.163553
  32 C :   -0.399076
  33 H :    0.106279
  34 H :    0.096003
  35 H :    0.094468

  Mayer bond orders larger than 0.100000
B(  0-O ,  1-H ) :   0.7185 B(  0-O ,  2-C ) :   0.8404 B(  1-H , 18-O ) :   0.1208
B(  2-C ,  3-H ) :   0.9412 B(  2-C ,  4-H ) :   0.9304 B(  2-C ,  5-H ) :   0.9351
B(  6-O ,  7-H ) :   0.7752 B(  6-O ,  8-C ) :   0.8734 B(  6-O , 25-H ) :   0.1161
B(  8-C ,  9-H ) :   0.9433 B(  8-C , 10-H ) :   0.9409 B(  8-C , 11-H ) :   0.9220
B( 12-O , 13-H ) :   0.7909 B( 12-O , 14-C ) :   0.8954 B( 14-C , 15-H ) :   0.9419
B( 14-C , 16-H ) :   0.9390 B( 14-C , 17-H ) :   0.9350 B( 18-O , 19-H ) :   0.7834
B( 18-O , 20-C ) :   0.8677 B( 20-C , 21-H ) :   0.9258 B( 20-C , 22-H ) :   0.9411
B( 20-C , 23-H ) :   0.9376 B( 24-O , 25-H ) :   0.7331 B( 24-O , 26-C ) :   0.8895
B( 26-C , 27-H ) :   0.9425 B( 26-C , 28-H ) :   0.9404 B( 26-C , 29-H ) :   0.9370
B( 30-O , 31-H ) :   0.7751 B( 30-O , 32-C ) :   0.9271 B( 32-C , 33-H ) :   0.9440
B( 32-C , 34-H ) :   0.9395 B( 32-C , 35-H ) :   0.9331

MP2 TOTAL ENERGY:     -693.117081945 Eh
FINAL SINGLE POINT ENERGY      -693.117081945451

DIPOLE MOMENT
-------------
                                X             Y             Z
Electronic contribution:     -1.89819       2.75676       0.28145
Nuclear contribution   :      1.74512      -2.59192      -0.59150
                        -----------------------------------------
Total Dipole Moment    :     -0.15307       0.16484      -0.31005
                        -----------------------------------------
Magnitude (a.u.)       :      0.38306
Magnitude (Debye)      :      0.97366

Rotational constants in cm-1:     0.025301     0.011085     0.009455
Rotational constants in MHz :   758.516449   332.316162   283.445563

                             ****ORCA TERMINATED NORMALLY****
TOTAL RUN TIME: 0 days 0 hours 10 minutes 58 seconds 937 msec
