                         Program Version 4.2.0 -  RELEASE  -
|  1> # 12meoh.boyd.etal.mol1,7,9
|  2> ! MP2 def2-TZVP EnGrad TightSCF
|  3>
|  4> %pal
|  5>     nprocs 6
|  6> end
|  7>
|  8> %maxcore 8000
|  9>
| 10> %scf
| 11>     ConvForced true
| 12> end
| 13>
| 14> *xyz 0 1
| 15> O   0.666045193  -2.600503172   0.138317521
| 16> H  -0.227115049  -2.712051982  -0.281868004
| 17> C   0.490021232  -1.851247678   1.341189459
| 18> H   1.466500502  -1.466176022   1.645844415
| 19> H   0.097564527  -2.488364683   2.146902740
| 20> H  -0.187588112  -1.000787499   1.200739571
| 21> O   4.310535586  -1.588322800   0.656128299
| 22> H   3.804372199  -1.630404735  -0.196849819
| 23> C   4.312298137  -2.894980854   1.222112691
| 24> H   4.713177833  -2.819907076   2.237066773
| 25> H   4.957796734  -3.574699304   0.648211180
| 26> H   3.302735989  -3.324433205   1.269756773
| 27> O   1.390610024   3.194080770  -1.536658882
| 28> H   2.162932299   2.881562730  -0.993525056
| 29> C   1.202977189   4.580367182  -1.302880219
| 30> H   0.374773115   4.915764831  -1.934164643
| 31> H   2.098649340   5.157710875  -1.570472348
| 32> H   0.950320401   4.800436015  -0.254328827
| 33> *
| 34>
| 35>                          ****END OF INPUT****

CARTESIAN COORDINATES (ANGSTROEM)
---------------------------------
  O      0.666045   -2.600503    0.138318
  H     -0.227115   -2.712052   -0.281868
  C      0.490021   -1.851248    1.341189
  H      1.466501   -1.466176    1.645844
  H      0.097565   -2.488365    2.146903
  H     -0.187588   -1.000787    1.200740
  O      4.310536   -1.588323    0.656128
  H      3.804372   -1.630405   -0.196850
  C      4.312298   -2.894981    1.222113
  H      4.713178   -2.819907    2.237067
  H      4.957797   -3.574699    0.648211
  H      3.302736   -3.324433    1.269757
  O      1.390610    3.194081   -1.536659
  H      2.162932    2.881563   -0.993525
  C      1.202977    4.580367   -1.302880
  H      0.374773    4.915765   -1.934165
  H      2.098649    5.157711   -1.570472
  H      0.950320    4.800436   -0.254329

 Total Charge           Charge          ....    0
 Multiplicity           Mult            ....    1
 Number of Electrons    NEL             ....   54
 Basis Dimension        Dim             ....  258

ORBITAL ENERGIES
----------------

  NO   OCC          E(Eh)            E(eV)
   0   2.0000     -20.561802      -559.5151
   1   2.0000     -20.556148      -559.3612
   2   2.0000     -20.550055      -559.1954
   3   2.0000     -11.271941      -306.7251
   4   2.0000     -11.270479      -306.6853
   5   2.0000     -11.262599      -306.4709
   6   2.0000      -1.349730       -36.7280
   7   2.0000      -1.346881       -36.6505
   8   2.0000      -1.339544       -36.4508
   9   2.0000      -0.921430       -25.0734
  10   2.0000      -0.918392       -24.9907
  11   2.0000      -0.911218       -24.7955
  12   2.0000      -0.685900       -18.6643
  13   2.0000      -0.681545       -18.5458
  14   2.0000      -0.672834       -18.3087
  15   2.0000      -0.618868       -16.8402
  16   2.0000      -0.615919       -16.7600
  17   2.0000      -0.610854       -16.6222
  18   2.0000      -0.591213       -16.0877
  19   2.0000      -0.590350       -16.0642
  20   2.0000      -0.583396       -15.8750
  21   2.0000      -0.503917       -13.7123
  22   2.0000      -0.498179       -13.5561
  23   2.0000      -0.493047       -13.4165
  24   2.0000      -0.452800       -12.3213
  25   2.0000      -0.447376       -12.1737
  26   2.0000      -0.441281       -12.0079
  27   0.0000       0.123803         3.3689
  28   0.0000       0.138134         3.7588
  29   0.0000       0.162332         4.4173
  30   0.0000       0.173587         4.7235
  31   0.0000       0.175714         4.7814

MULLIKEN ATOMIC CHARGES
-----------------------
   0 O :   -0.507432
   1 H :    0.324848
   2 C :   -0.198080
   3 H :    0.145348
   4 H :    0.112160
   5 H :    0.121071
   6 O :   -0.512136
   7 H :    0.331535
   8 C :   -0.183035
   9 H :    0.123827
  10 H :    0.112831
  11 H :    0.129044
  12 O :   -0.499709
  13 H :    0.324945
  14 C :   -0.170636
  15 H :    0.127926
  16 H :    0.109587
  17 H :    0.107906
Sum of atomic charges:    0.0000000

LOEWDIN ATOMIC CHARGES
----------------------
   0 O :   -0.116229
   1 H :    0.191422
   2 C :   -0.381798
   3 H :    0.110527
   4 H :    0.096448
   5 H :    0.098553
   6 O :   -0.111411
   7 H :    0.192583
   8 C :   -0.382999
   9 H :    0.107745
  10 H :    0.096214
  11 H :    0.098930
  12 O :   -0.106511
  13 H :    0.191878
  14 C :   -0.385918
  15 H :    0.110043
  16 H :    0.095461
  17 H :    0.095062

  Mayer bond orders larger than 0.100000
B(  0-O ,  1-H ) :   0.8410 B(  0-O ,  2-C ) :   0.9105 B(  2-C ,  3-H ) :   0.9338
B(  2-C ,  4-H ) :   0.9385 B(  2-C ,  5-H ) :   0.9389 B(  6-O ,  7-H ) :   0.8370
B(  6-O ,  8-C ) :   0.9107 B(  8-C ,  9-H ) :   0.9386 B(  8-C , 10-H ) :   0.9414
B(  8-C , 11-H ) :   0.9351 B( 12-O , 13-H ) :   0.8400 B( 12-O , 14-C ) :   0.9280
B( 14-C , 15-H ) :   0.9376 B( 14-C , 16-H ) :   0.9403 B( 14-C , 17-H ) :   0.9375

MP2 TOTAL ENERGY:     -346.524812307 Eh
FINAL SINGLE POINT ENERGY      -346.524812307346

DIPOLE MOMENT
-------------
                                X             Y             Z
Electronic contribution:      0.51523      -0.99381      -2.47647
Nuclear contribution   :     -1.09105       1.05693       2.81606
                        -----------------------------------------
Total Dipole Moment    :     -0.57582       0.06312       0.33959
                        -----------------------------------------
Magnitude (a.u.)       :      0.67147
Magnitude (Debye)      :      1.70673

Rotational constants in cm-1:     0.067972     0.016869     0.014102
Rotational constants in MHz :  2037.760000   505.724475   422.772021

                             ****ORCA TERMINATED NORMALLY****
TOTAL RUN TIME: 0 days 0 hours 0 minutes 55 seconds 764 msec
