                         Program Version 4.2.0 -  RELEASE  -
|  1> ! MP2 def2-TZVP EnGrad TightSCF FrozenCore
|  2>
|  3> %pal
|  4>     nprocs 8
|  5> end
|  6>
|  7> %maxcore 8000
|  8>
|  9> %scf
| 10>     ConvForced true
| 11> end
| 12>
| 13> *xyz 0 1
| 14> O  -1.382005168   0.607803273   0.955104102
| 15> H  -1.514805168  -0.190496727   0.385704102
| 16> H  -2.108705168   0.593203273   1.589204102
| 17> O  -1.458205168  -1.614796727  -0.601295898
| 18> H  -0.507805168  -1.877996727  -0.631195898
| 19> H  -1.708205168  -1.512096727  -1.528095898
| 20> O   1.246194832  -1.984996727  -0.674895898
| 21> H   1.749194832  -2.673096727  -0.222995898
| 22> H   1.498094832  -1.143196727  -0.225295898
| 23> O   1.550194832   0.374603273   0.675204102
| 24> H   1.401894832   1.178703273   0.142704102
| 25> H   0.723694832   0.339603273   1.185604102
| 26> O   0.103894832   2.599803273  -0.402995898
| 27> H   0.109094832   3.466503273   0.021504102
| 28> H  -0.596105168   2.098003273   0.058804102
| 29> *
| 30>
| 31>
| 32>                          ****END OF INPUT****

CARTESIAN COORDINATES (ANGSTROEM)
---------------------------------
  O     -1.382005    0.607803    0.955104
  H     -1.514805   -0.190497    0.385704
  H     -2.108705    0.593203    1.589204
  O     -1.458205   -1.614797   -0.601296
  H     -0.507805   -1.877997   -0.631196
  H     -1.708205   -1.512097   -1.528096
  O      1.246195   -1.984997   -0.674896
  H      1.749195   -2.673097   -0.222996
  H      1.498095   -1.143197   -0.225296
  O      1.550195    0.374603    0.675204
  H      1.401895    1.178703    0.142704
  H      0.723695    0.339603    1.185604
  O      0.103895    2.599803   -0.402996
  H      0.109095    3.466503    0.021504
  H     -0.596105    2.098003    0.058804

 Total Charge           Charge          ....    0
 Multiplicity           Mult            ....    1
 Number of Electrons    NEL             ....   50
 Basis Dimension        Dim             ....  215

ORBITAL ENERGIES
----------------

  NO   OCC          E(Eh)            E(eV)
   0   2.0000     -20.566369      -559.6394
   1   2.0000     -20.558579      -559.4274
   2   2.0000     -20.555141      -559.3338
   3   2.0000     -20.553732      -559.2955
   4   2.0000     -20.550102      -559.1967
   5   2.0000      -1.361972       -37.0612
   6   2.0000      -1.347560       -36.6690
   7   2.0000      -1.345309       -36.6077
   8   2.0000      -1.335255       -36.3341
   9   2.0000      -1.327508       -36.1233
  10   2.0000      -0.729505       -19.8508
  11   2.0000      -0.720715       -19.6117
  12   2.0000      -0.713121       -19.4050
  13   2.0000      -0.707060       -19.2401
  14   2.0000      -0.693702       -18.8766
  15   2.0000      -0.624090       -16.9824
  16   2.0000      -0.600455       -16.3392
  17   2.0000      -0.587422       -15.9846
  18   2.0000      -0.574730       -15.6392
  19   2.0000      -0.549921       -14.9641
  20   2.0000      -0.516700       -14.0601
  21   2.0000      -0.507265       -13.8034
  22   2.0000      -0.503222       -13.6934
  23   2.0000      -0.501524       -13.6472
  24   2.0000      -0.494602       -13.4588
  25   0.0000       0.118061         3.2126
  26   0.0000       0.148263         4.0345
  27   0.0000       0.158567         4.3148
  28   0.0000       0.169800         4.6205
  29   0.0000       0.222867         6.0645

MULLIKEN ATOMIC CHARGES
-----------------------
   0 O :   -0.756645
   1 H :    0.394508
   2 H :    0.347981
   3 O :   -0.732762
   4 H :    0.390372
   5 H :    0.349312
   6 O :   -0.733917
   7 H :    0.343722
   8 H :    0.393258
   9 O :   -0.728406
  10 H :    0.385266
  11 H :    0.354028
  12 O :   -0.715034
  13 H :    0.338575
  14 H :    0.369744
Sum of atomic charges:   -0.0000000

LOEWDIN ATOMIC CHARGES
----------------------
   0 O :   -0.325544
   1 H :    0.152772
   2 H :    0.160775
   3 O :   -0.308280
   4 H :    0.153452
   5 H :    0.163547
   6 O :   -0.314608
   7 H :    0.160836
   8 H :    0.153246
   9 O :   -0.301725
  10 H :    0.161658
  11 H :    0.153150
  12 O :   -0.321453
  13 H :    0.159858
  14 H :    0.152317

  Mayer bond orders larger than 0.100000
B(  0-O ,  1-H ) :   0.7428 B(  0-O ,  2-H ) :   0.8441 B(  1-H ,  3-O ) :   0.1015
B(  3-O ,  4-H ) :   0.7566 B(  3-O ,  5-H ) :   0.8432 B(  6-O ,  7-H ) :   0.8455
B(  6-O ,  8-H ) :   0.7593 B(  9-O , 10-H ) :   0.7997 B(  9-O , 11-H ) :   0.8220
B( 12-O , 13-H ) :   0.8498 B( 12-O , 14-H ) :   0.7990

MP2 TOTAL ENERGY:     -381.628115686 Eh
FINAL SINGLE POINT ENERGY      -381.628115685508

DIPOLE MOMENT
-------------
                                X             Y             Z
Electronic contribution:      0.17310      -0.09396      -0.14983
Nuclear contribution   :     -0.89379       0.26161       0.72723
                        -----------------------------------------
Total Dipole Moment    :     -0.72069       0.16765       0.57740
                        -----------------------------------------
Magnitude (a.u.)       :      0.93856
Magnitude (Debye)      :      2.38562

Rotational constants in cm-1:     0.091951     0.056470     0.041363
Rotational constants in MHz :  2756.630512  1692.919150  1240.033403

                             ****ORCA TERMINATED NORMALLY****
TOTAL RUN TIME: 0 days 0 hours 0 minutes 38 seconds 689 msec
