                         Program Version 4.2.0 -  RELEASE  -
|  1> # 12h2o.su.etal.mol0,4,5,6,7,10
|  2> ! MP2 def2-TZVP EnGrad TightSCF
|  3>
|  4> %pal
|  5>     nprocs 6
|  6> end
|  7>
|  8> %maxcore 8000
|  9>
| 10> %scf
| 11>     ConvForced true
| 12> end
| 13>
| 14> *xyz 0 1
| 15> O   1.794470000   0.923410000   2.768350000
| 16> H   2.338250000   1.359750000   3.430940000
| 17> H   0.879480000   1.303000000   2.865760000
| 18> O  -0.885520000   1.737840000   0.052730000
| 19> H  -1.032320000   2.090180000  -0.841890000
| 20> H  -1.284090000   0.839590000   0.017130000
| 21> O   0.885520000  -1.737840000   0.052730000
| 22> H   1.284090000  -0.839590000   0.017130000
| 23> H   1.032320000  -2.090180000  -0.841890000
| 24> O   1.737840000   0.885520000  -0.052730000
| 25> H   2.090180000   1.032320000   0.841890000
| 26> H   0.839590000   1.284090000  -0.017130000
| 27> O  -1.737840000  -0.885520000  -0.052730000
| 28> H  -2.090180000  -1.032320000   0.841890000
| 29> H  -0.839590000  -1.284090000  -0.017130000
| 30> O  -0.923410000   1.794470000  -2.768350000
| 31> H  -1.359750000   2.338250000  -3.430940000
| 32> H  -1.303000000   0.879480000  -2.865760000
| 33> *
| 34>
| 35>                          ****END OF INPUT****

CARTESIAN COORDINATES (ANGSTROEM)
---------------------------------
  O      1.794470    0.923410    2.768350
  H      2.338250    1.359750    3.430940
  H      0.879480    1.303000    2.865760
  O     -0.885520    1.737840    0.052730
  H     -1.032320    2.090180   -0.841890
  H     -1.284090    0.839590    0.017130
  O      0.885520   -1.737840    0.052730
  H      1.284090   -0.839590    0.017130
  H      1.032320   -2.090180   -0.841890
  O      1.737840    0.885520   -0.052730
  H      2.090180    1.032320    0.841890
  H      0.839590    1.284090   -0.017130
  O     -1.737840   -0.885520   -0.052730
  H     -2.090180   -1.032320    0.841890
  H     -0.839590   -1.284090   -0.017130
  O     -0.923410    1.794470   -2.768350
  H     -1.359750    2.338250   -3.430940
  H     -1.303000    0.879480   -2.865760

 Total Charge           Charge          ....    0
 Multiplicity           Mult            ....    1
 Number of Electrons    NEL             ....   60
 Basis Dimension        Dim             ....  258

ORBITAL ENERGIES
----------------

  NO   OCC          E(Eh)            E(eV)
   0   2.0000     -20.583371      -560.1020
   1   2.0000     -20.579986      -560.0099
   2   2.0000     -20.556138      -559.3609
   3   2.0000     -20.546436      -559.0969
   4   2.0000     -20.529549      -558.6374
   5   2.0000     -20.519733      -558.3703
   6   2.0000      -1.361590       -37.0507
   7   2.0000      -1.358122       -36.9564
   8   2.0000      -1.348803       -36.7028
   9   2.0000      -1.329707       -36.1832
  10   2.0000      -1.320019       -35.9195
  11   2.0000      -1.301087       -35.4044
  12   2.0000      -0.728134       -19.8135
  13   2.0000      -0.724714       -19.7205
  14   2.0000      -0.708553       -19.2807
  15   2.0000      -0.697848       -18.9894
  16   2.0000      -0.691591       -18.8192
  17   2.0000      -0.681311       -18.5394
  18   2.0000      -0.612437       -16.6652
  19   2.0000      -0.600151       -16.3309
  20   2.0000      -0.594289       -16.1714
  21   2.0000      -0.573302       -15.6003
  22   2.0000      -0.567720       -15.4484
  23   2.0000      -0.548132       -14.9154
  24   2.0000      -0.521610       -14.1937
  25   2.0000      -0.515742       -14.0341
  26   2.0000      -0.497358       -13.5338
  27   2.0000      -0.492051       -13.3894
  28   2.0000      -0.476290       -12.9605
  29   2.0000      -0.468236       -12.7413
  30   0.0000       0.107940         2.9372
  31   0.0000       0.122848         3.3429
  32   0.0000       0.147298         4.0082
  33   0.0000       0.167701         4.5634
  34   0.0000       0.196025         5.3341

MULLIKEN ATOMIC CHARGES
-----------------------
   0 O :   -0.696743
   1 H :    0.348314
   2 H :    0.361041
   3 O :   -0.739276
   4 H :    0.374448
   5 H :    0.351221
   6 O :   -0.719569
   7 H :    0.377127
   8 H :    0.341109
   9 O :   -0.736253
  10 H :    0.369844
  11 H :    0.362044
  12 O :   -0.722899
  13 H :    0.347566
  14 H :    0.367786
  15 O :   -0.694672
  16 H :    0.348856
  17 H :    0.360057
Sum of atomic charges:    0.0000000

LOEWDIN ATOMIC CHARGES
----------------------
   0 O :   -0.311117
   1 H :    0.161639
   2 H :    0.187682
   3 O :   -0.323584
   4 H :    0.149206
   5 H :    0.137550
   6 O :   -0.312487
   7 H :    0.146661
   8 H :    0.162968
   9 O :   -0.319093
  10 H :    0.147205
  11 H :    0.140014
  12 O :   -0.317013
  13 H :    0.166111
  14 H :    0.144524
  15 O :   -0.309731
  16 H :    0.161977
  17 H :    0.187489

  Mayer bond orders larger than 0.100000
B(  0-O ,  1-H ) :   0.8440 B(  0-O ,  2-H ) :   0.8295 B(  3-O ,  4-H ) :   0.8103
B(  3-O ,  5-H ) :   0.7802 B(  3-O , 11-H ) :   0.1057 B(  5-H , 12-O ) :   0.1044
B(  6-O ,  7-H ) :   0.7505 B(  6-O ,  8-H ) :   0.8470 B(  6-O , 14-H ) :   0.1198
B(  7-H ,  9-O ) :   0.1223 B(  9-O , 10-H ) :   0.8134 B(  9-O , 11-H ) :   0.7715
B( 12-O , 13-H ) :   0.8443 B( 12-O , 14-H ) :   0.7592 B( 15-O , 16-H ) :   0.8437
B( 15-O , 17-H ) :   0.8303

MP2 TOTAL ENERGY:     -457.937618544 Eh
FINAL SINGLE POINT ENERGY      -457.937618543752

DIPOLE MOMENT
-------------
                                X             Y             Z
Electronic contribution:      0.22635       0.01619      -0.00723
Nuclear contribution   :     -0.98813       0.37017       0.00000
                        -----------------------------------------
Total Dipole Moment    :     -0.76178       0.38635      -0.00723
                        -----------------------------------------
Magnitude (a.u.)       :      0.85418
Magnitude (Debye)      :      2.17116

Rotational constants in cm-1:     0.058487     0.033648     0.028639
Rotational constants in MHz :  1753.391651  1008.730459   858.575175

                             ****ORCA TERMINATED NORMALLY****
TOTAL RUN TIME: 0 days 0 hours 1 minutes 13 seconds 165 msec
