                         Program Version 4.2.0 -  RELEASE  -
|  1> # 12h2o.su.etal.mol1,3,4,6,9,10,11
|  2> ! MP2 def2-TZVP EnGrad TightSCF
|  3>
|  4> %pal
|  5>     nprocs 6
|  6> end
|  7>
|  8> %maxcore 8000
|  9>
| 10> %scf
| 11>     ConvForced true
| 12> end
| 13>
| 14> *xyz 0 1
| 15> O  -1.794470000  -0.923410000   2.768350000
| 16> H  -2.338250000  -1.359750000   3.430940000
| 17> H  -0.879480000  -1.303000000   2.865760000
| 18> O  -1.752130000  -0.741530000  -2.896280000
| 19> H  -2.036450000  -0.920500000  -1.984040000
| 20> H  -0.921210000  -1.242140000  -2.984230000
| 21> O  -0.885520000   1.737840000   0.052730000
| 22> H  -1.032320000   2.090180000  -0.841890000
| 23> H  -1.284090000   0.839590000   0.017130000
| 24> O   1.737840000   0.885520000  -0.052730000
| 25> H   2.090180000   1.032320000   0.841890000
| 26> H   0.839590000   1.284090000  -0.017130000
| 27> O   0.741530000  -1.752130000   2.896280000
| 28> H   0.920500000  -2.036450000   1.984040000
| 29> H   1.242140000  -0.921210000   2.984230000
| 30> O  -0.923410000   1.794470000  -2.768350000
| 31> H  -1.359750000   2.338250000  -3.430940000
| 32> H  -1.303000000   0.879480000  -2.865760000
| 33> O  -0.741530000   1.752130000   2.896280000
| 34> H  -0.920500000   2.036450000   1.984040000
| 35> H  -1.242140000   0.921210000   2.984230000
| 36> *
| 37>
| 38>                          ****END OF INPUT****

CARTESIAN COORDINATES (ANGSTROEM)
---------------------------------
  O     -1.794470   -0.923410    2.768350
  H     -2.338250   -1.359750    3.430940
  H     -0.879480   -1.303000    2.865760
  O     -1.752130   -0.741530   -2.896280
  H     -2.036450   -0.920500   -1.984040
  H     -0.921210   -1.242140   -2.984230
  O     -0.885520    1.737840    0.052730
  H     -1.032320    2.090180   -0.841890
  H     -1.284090    0.839590    0.017130
  O      1.737840    0.885520   -0.052730
  H      2.090180    1.032320    0.841890
  H      0.839590    1.284090   -0.017130
  O      0.741530   -1.752130    2.896280
  H      0.920500   -2.036450    1.984040
  H      1.242140   -0.921210    2.984230
  O     -0.923410    1.794470   -2.768350
  H     -1.359750    2.338250   -3.430940
  H     -1.303000    0.879480   -2.865760
  O     -0.741530    1.752130    2.896280
  H     -0.920500    2.036450    1.984040
  H     -1.242140    0.921210    2.984230

 Total Charge           Charge          ....    0
 Multiplicity           Mult            ....    1
 Number of Electrons    NEL             ....   70
 Basis Dimension        Dim             ....  301

ORBITAL ENERGIES
----------------

  NO   OCC          E(Eh)            E(eV)
   0   2.0000     -20.619408      -561.0826
   1   2.0000     -20.602299      -560.6171
   2   2.0000     -20.578633      -559.9731
   3   2.0000     -20.557605      -559.4009
   4   2.0000     -20.552035      -559.2493
   5   2.0000     -20.528572      -558.6108
   6   2.0000     -20.507608      -558.0404
   7   2.0000      -1.404893       -38.2291
   8   2.0000      -1.388133       -37.7730
   9   2.0000      -1.366597       -37.1870
  10   2.0000      -1.339905       -36.4607
  11   2.0000      -1.336015       -36.3548
  12   2.0000      -1.309108       -35.6226
  13   2.0000      -1.292663       -35.1751
  14   2.0000      -0.761861       -20.7313
  15   2.0000      -0.744741       -20.2654
  16   2.0000      -0.729738       -19.8572
  17   2.0000      -0.725512       -19.7422
  18   2.0000      -0.720890       -19.6164
  19   2.0000      -0.684481       -18.6257
  20   2.0000      -0.670310       -18.2401
  21   2.0000      -0.643742       -17.5171
  22   2.0000      -0.628767       -17.1096
  23   2.0000      -0.611516       -16.6402
  24   2.0000      -0.588252       -16.0072
  25   2.0000      -0.582100       -15.8397
  26   2.0000      -0.562336       -15.3020
  27   2.0000      -0.545636       -14.8475
  28   2.0000      -0.537784       -14.6339
  29   2.0000      -0.528001       -14.3676
  30   2.0000      -0.511590       -13.9211
  31   2.0000      -0.506401       -13.7799
  32   2.0000      -0.496861       -13.5203
  33   2.0000      -0.476649       -12.9703
  34   2.0000      -0.457688       -12.4543
  35   0.0000       0.076355         2.0777
  36   0.0000       0.108763         2.9596
  37   0.0000       0.145683         3.9642
  38   0.0000       0.150676         4.1001
  39   0.0000       0.159655         4.3444

MULLIKEN ATOMIC CHARGES
-----------------------
   0 O :   -0.742983
   1 H :    0.341904
   2 H :    0.377950
   3 O :   -0.676119
   4 H :    0.355173
   5 H :    0.370985
   6 O :   -0.717904
   7 H :    0.390256
   8 H :    0.334155
   9 O :   -0.722021
  10 H :    0.322343
  11 H :    0.366689
  12 O :   -0.685283
  13 H :    0.359685
  14 H :    0.368100
  15 O :   -0.732542
  16 H :    0.342149
  17 H :    0.369794
  18 O :   -0.736279
  19 H :    0.365930
  20 H :    0.348019
Sum of atomic charges:   -0.0000000

LOEWDIN ATOMIC CHARGES
----------------------
   0 O :   -0.343308
   1 H :    0.155965
   2 H :    0.144626
   3 O :   -0.266001
   4 H :    0.171985
   5 H :    0.182426
   6 O :   -0.281564
   7 H :    0.157236
   8 H :    0.166541
   9 O :   -0.362767
  10 H :    0.153770
  11 H :    0.143390
  12 O :   -0.269213
  13 H :    0.174685
  14 H :    0.178359
  15 O :   -0.336138
  16 H :    0.156870
  17 H :    0.143468
  18 O :   -0.358193
  19 H :    0.146871
  20 H :    0.140992

  Mayer bond orders larger than 0.100000
B(  0-O ,  1-H ) :   0.8481 B(  0-O ,  2-H ) :   0.7642 B(  3-O ,  4-H ) :   0.8385
B(  3-O ,  5-H ) :   0.8285 B(  6-O ,  7-H ) :   0.7818 B(  6-O ,  8-H ) :   0.8409
B(  9-O , 10-H ) :   0.8597 B(  9-O , 11-H ) :   0.7927 B( 12-O , 13-H ) :   0.8347
B( 12-O , 14-H ) :   0.8256 B( 15-O , 16-H ) :   0.8480 B( 15-O , 17-H ) :   0.7706
B( 18-O , 19-H ) :   0.8264 B( 18-O , 20-H ) :   0.8190

MP2 TOTAL ENERGY:     -534.244972088 Eh
FINAL SINGLE POINT ENERGY      -534.244972088213

DIPOLE MOMENT
-------------
                                X             Y             Z
Electronic contribution:      0.05412      -0.16530      -0.32765
Nuclear contribution   :     -0.82354      -1.55423      -0.68611
                        -----------------------------------------
Total Dipole Moment    :     -0.76942      -1.71954      -1.01375
                        -----------------------------------------
Magnitude (a.u.)       :      2.13928
Magnitude (Debye)      :      5.43762

Rotational constants in cm-1:     0.042943     0.018429     0.017390
Rotational constants in MHz :  1287.385484   552.473789   521.325973

                             ****ORCA TERMINATED NORMALLY****
TOTAL RUN TIME: 0 days 0 hours 1 minutes 58 seconds 46 msec
