                         Program Version 4.2.0 -  RELEASE  -
|  1> # 12h2o.su.etal.mol3,4,7,9,11
|  2> ! MP2 def2-TZVP EnGrad TightSCF
|  3>
|  4> %pal
|  5>     nprocs 6
|  6> end
|  7>
|  8> %maxcore 8000
|  9>
| 10> %scf
| 11>     ConvForced true
| 12> end
| 13>
| 14> *xyz 0 1
| 15> O  -1.752130000  -0.741530000  -2.896280000
| 16> H  -2.036450000  -0.920500000  -1.984040000
| 17> H  -0.921210000  -1.242140000  -2.984230000
| 18> O  -0.885520000   1.737840000   0.052730000
| 19> H  -1.032320000   2.090180000  -0.841890000
| 20> H  -1.284090000   0.839590000   0.017130000
| 21> O  -1.737840000  -0.885520000  -0.052730000
| 22> H  -2.090180000  -1.032320000   0.841890000
| 23> H  -0.839590000  -1.284090000  -0.017130000
| 24> O   0.741530000  -1.752130000   2.896280000
| 25> H   0.920500000  -2.036450000   1.984040000
| 26> H   1.242140000  -0.921210000   2.984230000
| 27> O  -0.741530000   1.752130000   2.896280000
| 28> H  -0.920500000   2.036450000   1.984040000
| 29> H  -1.242140000   0.921210000   2.984230000
| 30> *
| 31>
| 32>                          ****END OF INPUT****

CARTESIAN COORDINATES (ANGSTROEM)
---------------------------------
  O     -1.752130   -0.741530   -2.896280
  H     -2.036450   -0.920500   -1.984040
  H     -0.921210   -1.242140   -2.984230
  O     -0.885520    1.737840    0.052730
  H     -1.032320    2.090180   -0.841890
  H     -1.284090    0.839590    0.017130
  O     -1.737840   -0.885520   -0.052730
  H     -2.090180   -1.032320    0.841890
  H     -0.839590   -1.284090   -0.017130
  O      0.741530   -1.752130    2.896280
  H      0.920500   -2.036450    1.984040
  H      1.242140   -0.921210    2.984230
  O     -0.741530    1.752130    2.896280
  H     -0.920500    2.036450    1.984040
  H     -1.242140    0.921210    2.984230

 Total Charge           Charge          ....    0
 Multiplicity           Mult            ....    1
 Number of Electrons    NEL             ....   50
 Basis Dimension        Dim             ....  215

ORBITAL ENERGIES
----------------

  NO   OCC          E(Eh)            E(eV)
   0   2.0000     -20.636378      -561.5444
   1   2.0000     -20.583288      -560.0997
   2   2.0000     -20.560426      -559.4776
   3   2.0000     -20.557892      -559.4087
   4   2.0000     -20.537234      -558.8466
   5   2.0000      -1.419162       -38.6174
   6   2.0000      -1.362167       -37.0665
   7   2.0000      -1.344655       -36.5899
   8   2.0000      -1.339728       -36.4558
   9   2.0000      -1.318251       -35.8714
  10   2.0000      -0.777576       -21.1589
  11   2.0000      -0.724924       -19.7262
  12   2.0000      -0.721909       -19.6441
  13   2.0000      -0.711662       -19.3653
  14   2.0000      -0.687534       -18.7088
  15   2.0000      -0.654240       -17.8028
  16   2.0000      -0.606557       -16.5053
  17   2.0000      -0.599642       -16.3171
  18   2.0000      -0.575145       -15.6505
  19   2.0000      -0.564759       -15.3679
  20   2.0000      -0.547631       -14.9018
  21   2.0000      -0.527200       -14.3459
  22   2.0000      -0.509248       -13.8573
  23   2.0000      -0.503639       -13.7047
  24   2.0000      -0.483062       -13.1448
  25   0.0000       0.063538         1.7289
  26   0.0000       0.123627         3.3641
  27   0.0000       0.128602         3.4994
  28   0.0000       0.157080         4.2744
  29   0.0000       0.173540         4.7223

MULLIKEN ATOMIC CHARGES
-----------------------
   0 O :   -0.687223
   1 H :    0.367615
   2 H :    0.322909
   3 O :   -0.725834
   4 H :    0.350078
   5 H :    0.349452
   6 O :   -0.702188
   7 H :    0.374490
   8 H :    0.354551
   9 O :   -0.677105
  10 H :    0.321350
  11 H :    0.358619
  12 O :   -0.694389
  13 H :    0.376116
  14 H :    0.311559
Sum of atomic charges:   -0.0000000

LOEWDIN ATOMIC CHARGES
----------------------
   0 O :   -0.333764
   1 H :    0.150319
   2 H :    0.160007
   3 O :   -0.339416
   4 H :    0.168360
   5 H :    0.140419
   6 O :   -0.272252
   7 H :    0.178590
   8 H :    0.177611
   9 O :   -0.328489
  10 H :    0.156519
  11 H :    0.174425
  12 O :   -0.338513
  13 H :    0.154586
  14 H :    0.151598

  Mayer bond orders larger than 0.100000
B(  0-O ,  1-H ) :   0.8269 B(  0-O ,  2-H ) :   0.8607 B(  3-O ,  4-H ) :   0.8420
B(  3-O ,  5-H ) :   0.7970 B(  6-O ,  7-H ) :   0.8236 B(  6-O ,  8-H ) :   0.8295
B(  9-O , 10-H ) :   0.8605 B(  9-O , 11-H ) :   0.8354 B( 12-O , 13-H ) :   0.8126
B( 12-O , 14-H ) :   0.8645

MP2 TOTAL ENERGY:     -381.586659329 Eh
FINAL SINGLE POINT ENERGY      -381.586659329356

DIPOLE MOMENT
-------------
                                X             Y             Z
Electronic contribution:     -0.13559       0.08447       0.09023
Nuclear contribution   :      0.45542      -1.47399      -0.68611
                        -----------------------------------------
Total Dipole Moment    :      0.31982      -1.38952      -0.59588
                        -----------------------------------------
Magnitude (a.u.)       :      1.54536
Magnitude (Debye)      :      3.92798

Rotational constants in cm-1:     0.077904     0.034649     0.025718
Rotational constants in MHz :  2335.510736  1038.752621   771.020422

                             ****ORCA TERMINATED NORMALLY****
TOTAL RUN TIME: 0 days 0 hours 0 minutes 30 seconds 463 msec
