                         Program Version 3.0.3 - RELEASE   -
|  1> ! B3LYP Def2-TZVP def2-TZVP/J RIJCOSX TightSCF Grid4 D3BJ
|  2>
|  3> %pal nprocs 12 end
|  4>
|  5> %scf
|  6>         maxiter 400
|  7> end
|  8>
|  9> * xyz  0  1
| 10> O  0.535765	2.160074	0.128320
| 11> H  -0.415213	1.914285	-0.332478
| 12> H  0.622931	3.130519	0.109060
| 13> O  -1.850951	-0.377899	1.171740
| 14> H  -0.983288	-0.022494	1.715635
| 15> H  -2.563922	-0.509904	1.822780
| 16> O  -1.603135	1.376444	-0.880310
| 17> H  -1.908180	0.793254	-0.129531
| 18> H  -1.224282	0.694500	-1.540533
| 19> O  1.723431	-1.331828	0.950746
| 20> H  0.974710	-1.854739	0.560945
| 21> H  2.003832	-0.774190	0.177699
| 22> O  -0.377724	-0.487068	-2.287618
| 23> H  -0.501838	-1.263759	-1.680824
| 24> H  0.552012	-0.210481	-2.075972
| 25> O  1.973761	0.414701	-1.155116
| 26> H  1.530825	1.203682	-0.685812
| 27> H  2.778843	0.761398	-1.579387
| 28> O  -0.628202	-2.239515	-0.181330
| 29> H  -1.217202	-1.621136	0.374300
| 30> H  -1.035498	-3.123207	-0.136246
| 31> O  0.251813	0.453782	2.222896
| 32> H  0.897910	-0.251976	1.863074
| 33> H  0.418597	1.226329	1.612747
| 34> **                         ****END OF INPUT****

CARTESIAN COORDINATES (ANGSTROEM)
---------------------------------
  O      0.535765    2.160074    0.128320
  H     -0.415213    1.914285   -0.332478
  H      0.622931    3.130519    0.109060
  O     -1.850951   -0.377899    1.171740
  H     -0.983288   -0.022494    1.715635
  H     -2.563922   -0.509904    1.822780
  O     -1.603135    1.376444   -0.880310
  H     -1.908180    0.793254   -0.129531
  H     -1.224282    0.694500   -1.540533
  O      1.723431   -1.331828    0.950746
  H      0.974710   -1.854739    0.560945
  H      2.003832   -0.774190    0.177699
  O     -0.377724   -0.487068   -2.287618
  H     -0.501838   -1.263759   -1.680824
  H      0.552012   -0.210481   -2.075972
  O      1.973761    0.414701   -1.155116
  H      1.530825    1.203682   -0.685812
  H      2.778843    0.761398   -1.579387
  O     -0.628202   -2.239515   -0.181330
  H     -1.217202   -1.621136    0.374300
  H     -1.035498   -3.123207   -0.136246
  O      0.251813    0.453782    2.222896
  H      0.897910   -0.251976    1.863074
  H      0.418597    1.226329    1.612747

 Total Charge           Charge          ....    0
 Multiplicity           Mult            ....    1
 Number of Electrons    NEL             ....   80
 Basis Dimension        Dim             ....  344

ORBITAL ENERGIES
----------------

  NO   OCC          E(Eh)            E(eV)
   0   2.0000     -19.145748      -520.9823
   1   2.0000     -19.145596      -520.9782
   2   2.0000     -19.137620      -520.7611
   3   2.0000     -19.137168      -520.7488
   4   2.0000     -19.118181      -520.2321
   5   2.0000     -19.118021      -520.2278
   6   2.0000     -19.111174      -520.0415
   7   2.0000     -19.110801      -520.0313
   8   2.0000      -1.037114       -28.2213
   9   2.0000      -1.028266       -27.9805
  10   2.0000      -1.017749       -27.6943
  11   2.0000      -1.010016       -27.4839
  12   2.0000      -0.999320       -27.1929
  13   2.0000      -0.993368       -27.0309
  14   2.0000      -0.982693       -26.7404
  15   2.0000      -0.972919       -26.4745
  16   2.0000      -0.561155       -15.2698
  17   2.0000      -0.559853       -15.2344
  18   2.0000      -0.536004       -14.5854
  19   2.0000      -0.533331       -14.5127
  20   2.0000      -0.519600       -14.1390
  21   2.0000      -0.511854       -13.9283
  22   2.0000      -0.509539       -13.8653
  23   2.0000      -0.508371       -13.8335
  24   2.0000      -0.466406       -12.6915
  25   2.0000      -0.433334       -11.7916
  26   2.0000      -0.427881       -11.6432
  27   2.0000      -0.408662       -11.1203
  28   2.0000      -0.401349       -10.9212
  29   2.0000      -0.392331       -10.6759
  30   2.0000      -0.384199       -10.4546
  31   2.0000      -0.356061        -9.6889
  32   2.0000      -0.337212        -9.1760
  33   2.0000      -0.335123        -9.1192
  34   2.0000      -0.331062        -9.0086
  35   2.0000      -0.326786        -8.8923
  36   2.0000      -0.314036        -8.5453
  37   2.0000      -0.311793        -8.4843
  38   2.0000      -0.300123        -8.1668
  39   2.0000      -0.298942        -8.1346
  40   0.0000      -0.003734        -0.1016
  41   0.0000       0.016750         0.4558
  42   0.0000       0.036840         1.0025
  43   0.0000       0.046851         1.2749
  44   0.0000       0.098508         2.6805

MULLIKEN ATOMIC CHARGES
-----------------------
   0 O :   -0.753561
   1 H :    0.367384
   2 H :    0.333662
   3 O :   -0.752574
   4 H :    0.366839
   5 H :    0.333685
   6 O :   -0.675641
   7 H :    0.357173
   8 H :    0.381836
   9 O :   -0.694368
  10 H :    0.350751
  11 H :    0.354039
  12 O :   -0.694470
  13 H :    0.354481
  14 H :    0.351036
  15 O :   -0.713784
  16 H :    0.360975
  17 H :    0.332039
  18 O :   -0.713729
  19 H :    0.360282
  20 H :    0.331985
  21 O :   -0.675879
  22 H :    0.381214
  23 H :    0.356626
Sum of atomic charges:   -0.0000000

LOEWDIN ATOMIC CHARGES
----------------------
   0 O :   -0.325235
   1 H :    0.137455
   2 H :    0.155503
   3 O :   -0.324363
   4 H :    0.137783
   5 H :    0.155575
   6 O :   -0.256583
   7 H :    0.143849
   8 H :    0.150142
   9 O :   -0.297857
  10 H :    0.144081
  11 H :    0.143742
  12 O :   -0.296853
  13 H :    0.144633
  14 H :    0.144078
  15 O :   -0.300238
  16 H :    0.142671
  17 H :    0.161674
  18 O :   -0.301179
  19 H :    0.142763
  20 H :    0.161807
  21 O :   -0.257920
  22 H :    0.150378
  23 H :    0.144095

  Mayer bond orders larger than 0.1
B(  0-O ,  1-H ) :   0.6320 B(  0-O ,  2-H ) :   0.8865 B(  0-O , 16-H ) :   0.1602
B(  0-O , 23-H ) :   0.1017 B(  1-H ,  6-O ) :   0.2941 B(  3-O ,  4-H ) :   0.6335
B(  3-O ,  5-H ) :   0.8865 B(  3-O ,  7-H ) :   0.1014 B(  3-O , 19-H ) :   0.1599
B(  4-H , 21-O ) :   0.2927 B(  6-O ,  7-H ) :   0.8179 B(  6-O ,  8-H ) :   0.7559
B(  8-H , 12-O ) :   0.1574 B(  9-O , 10-H ) :   0.8349 B(  9-O , 11-H ) :   0.8308
B(  9-O , 22-H ) :   0.1584 B( 12-O , 13-H ) :   0.8312 B( 12-O , 14-H ) :   0.8346
B( 15-O , 16-H ) :   0.7481 B( 15-O , 17-H ) :   0.8886 B( 18-O , 19-H ) :   0.7490
B( 18-O , 20-H ) :   0.8887 B( 21-O , 22-H ) :   0.7557 B( 21-O , 23-H ) :   0.8182

Dispersion correction           -0.025916135
FINAL SINGLE POINT ENERGY      -611.539732157053

DIPOLE MOMENT
-------------
                                X             Y             Z
Electronic contribution:      0.00400      -0.00843      -0.01423
Nuclear contribution   :     -0.09928       0.12877       0.11387
                        -----------------------------------------
Total Dipole Moment    :     -0.09528       0.12034       0.09964
                        -----------------------------------------
Magnitude (a.u.)       :      0.18300
Magnitude (Debye)      :      0.46515

                             ****ORCA TERMINATED NORMALLY****
TOTAL RUN TIME: 0 days 0 hours 1 minutes 3 seconds 930 msec
