                         Program Version 4.2.0 -  RELEASE  -
|  1> # 12h2o.su.etal.mol0,1,2,3,4,5,8,10
|  2> ! MP2 def2-TZVP EnGrad TightSCF
|  3>
|  4> %pal
|  5>     nprocs 6
|  6> end
|  7>
|  8> %maxcore 8000
|  9>
| 10> %scf
| 11>     ConvForced true
| 12> end
| 13>
| 14> *xyz 0 1
| 15> O   1.794470000   0.923410000   2.768350000
| 16> H   2.338250000   1.359750000   3.430940000
| 17> H   0.879480000   1.303000000   2.865760000
| 18> O  -1.794470000  -0.923410000   2.768350000
| 19> H  -2.338250000  -1.359750000   3.430940000
| 20> H  -0.879480000  -1.303000000   2.865760000
| 21> O   0.923410000  -1.794470000  -2.768350000
| 22> H   1.359750000  -2.338250000  -3.430940000
| 23> H   1.303000000  -0.879480000  -2.865760000
| 24> O  -1.752130000  -0.741530000  -2.896280000
| 25> H  -2.036450000  -0.920500000  -1.984040000
| 26> H  -0.921210000  -1.242140000  -2.984230000
| 27> O  -0.885520000   1.737840000   0.052730000
| 28> H  -1.032320000   2.090180000  -0.841890000
| 29> H  -1.284090000   0.839590000   0.017130000
| 30> O   0.885520000  -1.737840000   0.052730000
| 31> H   1.284090000  -0.839590000   0.017130000
| 32> H   1.032320000  -2.090180000  -0.841890000
| 33> O   1.752130000   0.741530000  -2.896280000
| 34> H   2.036450000   0.920500000  -1.984040000
| 35> H   0.921210000   1.242140000  -2.984230000
| 36> O  -0.923410000   1.794470000  -2.768350000
| 37> H  -1.359750000   2.338250000  -3.430940000
| 38> H  -1.303000000   0.879480000  -2.865760000
| 39> *
| 40>
| 41>                          ****END OF INPUT****

CARTESIAN COORDINATES (ANGSTROEM)
---------------------------------
  O      1.794470    0.923410    2.768350
  H      2.338250    1.359750    3.430940
  H      0.879480    1.303000    2.865760
  O     -1.794470   -0.923410    2.768350
  H     -2.338250   -1.359750    3.430940
  H     -0.879480   -1.303000    2.865760
  O      0.923410   -1.794470   -2.768350
  H      1.359750   -2.338250   -3.430940
  H      1.303000   -0.879480   -2.865760
  O     -1.752130   -0.741530   -2.896280
  H     -2.036450   -0.920500   -1.984040
  H     -0.921210   -1.242140   -2.984230
  O     -0.885520    1.737840    0.052730
  H     -1.032320    2.090180   -0.841890
  H     -1.284090    0.839590    0.017130
  O      0.885520   -1.737840    0.052730
  H      1.284090   -0.839590    0.017130
  H      1.032320   -2.090180   -0.841890
  O      1.752130    0.741530   -2.896280
  H      2.036450    0.920500   -1.984040
  H      0.921210    1.242140   -2.984230
  O     -0.923410    1.794470   -2.768350
  H     -1.359750    2.338250   -3.430940
  H     -1.303000    0.879480   -2.865760

 Total Charge           Charge          ....    0
 Multiplicity           Mult            ....    1
 Number of Electrons    NEL             ....   80
 Basis Dimension        Dim             ....  344

ORBITAL ENERGIES
----------------

  NO   OCC          E(Eh)            E(eV)
   0   2.0000     -20.581559      -560.0527
   1   2.0000     -20.581559      -560.0527
   2   2.0000     -20.573376      -559.8300
   3   2.0000     -20.573376      -559.8300
   4   2.0000     -20.550806      -559.2159
   5   2.0000     -20.550806      -559.2159
   6   2.0000     -20.531248      -558.6837
   7   2.0000     -20.531248      -558.6837
   8   2.0000      -1.381070       -37.5808
   9   2.0000      -1.370816       -37.3018
  10   2.0000      -1.359263       -36.9874
  11   2.0000      -1.349416       -36.7195
  12   2.0000      -1.326370       -36.0924
  13   2.0000      -1.325972       -36.0815
  14   2.0000      -1.310343       -35.6562
  15   2.0000      -1.309741       -35.6399
  16   2.0000      -0.742097       -20.1935
  17   2.0000      -0.741422       -20.1751
  18   2.0000      -0.731296       -19.8996
  19   2.0000      -0.725659       -19.7462
  20   2.0000      -0.695773       -18.9329
  21   2.0000      -0.692608       -18.8468
  22   2.0000      -0.681522       -18.5452
  23   2.0000      -0.678687       -18.4680
  24   2.0000      -0.638880       -17.3848
  25   2.0000      -0.612808       -16.6754
  26   2.0000      -0.602922       -16.4063
  27   2.0000      -0.581457       -15.8223
  28   2.0000      -0.563387       -15.3305
  29   2.0000      -0.562718       -15.3123
  30   2.0000      -0.558572       -15.1995
  31   2.0000      -0.553580       -15.0637
  32   2.0000      -0.525555       -14.3011
  33   2.0000      -0.523228       -14.2377
  34   2.0000      -0.516762       -14.0618
  35   2.0000      -0.515044       -14.0151
  36   2.0000      -0.495384       -13.4801
  37   2.0000      -0.493218       -13.4212
  38   2.0000      -0.479053       -13.0357
  39   2.0000      -0.474583       -12.9141
  40   0.0000       0.099352         2.7035
  41   0.0000       0.129298         3.5184
  42   0.0000       0.139108         3.7853
  43   0.0000       0.145835         3.9684
  44   0.0000       0.158755         4.3199

MULLIKEN ATOMIC CHARGES
-----------------------
   0 O :   -0.693756
   1 H :    0.333720
   2 H :    0.360411
   3 O :   -0.693756
   4 H :    0.333720
   5 H :    0.360411
   6 O :   -0.755891
   7 H :    0.352476
   8 H :    0.380649
   9 O :   -0.708246
  10 H :    0.358827
  11 H :    0.382767
  12 O :   -0.701786
  13 H :    0.361556
  14 H :    0.329273
  15 O :   -0.701786
  16 H :    0.329273
  17 H :    0.361556
  18 O :   -0.708246
  19 H :    0.358827
  20 H :    0.382767
  21 O :   -0.755891
  22 H :    0.352476
  23 H :    0.380649
Sum of atomic charges:   -0.0000000

LOEWDIN ATOMIC CHARGES
----------------------
   0 O :   -0.342041
   1 H :    0.155849
   2 H :    0.186218
   3 O :   -0.342041
   4 H :    0.155849
   5 H :    0.186218
   6 O :   -0.314895
   7 H :    0.160008
   8 H :    0.145353
   9 O :   -0.279574
  10 H :    0.171723
  11 H :    0.155508
  12 O :   -0.346486
  13 H :    0.145596
  14 H :    0.162743
  15 O :   -0.346486
  16 H :    0.162743
  17 H :    0.145596
  18 O :   -0.279574
  19 H :    0.171723
  20 H :    0.155508
  21 O :   -0.314895
  22 H :    0.160008
  23 H :    0.145353

  Mayer bond orders larger than 0.100000
B(  0-O ,  1-H ) :   0.8552 B(  0-O ,  2-H ) :   0.8307 B(  3-O ,  4-H ) :   0.8552
B(  3-O ,  5-H ) :   0.8307 B(  6-O ,  7-H ) :   0.8391 B(  6-O ,  8-H ) :   0.7344
B(  8-H , 18-O ) :   0.1124 B(  9-O , 10-H ) :   0.8350 B(  9-O , 11-H ) :   0.7849
B(  9-O , 23-H ) :   0.1124 B( 12-O , 13-H ) :   0.8199 B( 12-O , 14-H ) :   0.8492
B( 15-O , 16-H ) :   0.8492 B( 15-O , 17-H ) :   0.8199 B( 18-O , 19-H ) :   0.8350
B( 18-O , 20-H ) :   0.7849 B( 21-O , 22-H ) :   0.8391 B( 21-O , 23-H ) :   0.7344

MP2 TOTAL ENERGY:     -610.571353806 Eh
FINAL SINGLE POINT ENERGY      -610.571353806255

DIPOLE MOMENT
-------------
                                X             Y             Z
Electronic contribution:      0.00000      -0.00000      -0.29647
Nuclear contribution   :     -0.00000       0.00000      -0.17634
                        -----------------------------------------
Total Dipole Moment    :      0.00000      -0.00000      -0.47281
                        -----------------------------------------
Magnitude (a.u.)       :      0.47281
Magnitude (Debye)      :      1.20180

Rotational constants in cm-1:     0.029666     0.015778     0.015505
Rotational constants in MHz :   889.355408   473.015906   464.821910

                             ****ORCA TERMINATED NORMALLY****
TOTAL RUN TIME: 0 days 0 hours 2 minutes 43 seconds 809 msec
