                         Program Version 4.2.0 -  RELEASE  -
|  1> # 12meoh.boyd.etal.mol1,8,9
|  2> ! MP2 def2-TZVP EnGrad TightSCF
|  3>
|  4> %pal
|  5>     nprocs 6
|  6> end
|  7>
|  8> %maxcore 8000
|  9>
| 10> %scf
| 11>     ConvForced true
| 12> end
| 13>
| 14> *xyz 0 1
| 15> O   0.666045193  -2.600503172   0.138317521
| 16> H  -0.227115049  -2.712051982  -0.281868004
| 17> C   0.490021232  -1.851247678   1.341189459
| 18> H   1.466500502  -1.466176022   1.645844415
| 19> H   0.097564527  -2.488364683   2.146902740
| 20> H  -0.187588112  -1.000787499   1.200739571
| 21> O   3.570084754   2.361662577  -0.202416728
| 22> H   3.393280933   1.755669977   0.560634073
| 23> C   4.368082883   1.644741793  -1.143112807
| 24> H   4.552851717   2.311801738  -1.989632421
| 25> H   3.862427494   0.740851663  -1.508095690
| 26> H   5.333949674   1.357289092  -0.706288100
| 27> O   1.390610024   3.194080770  -1.536658882
| 28> H   2.162932299   2.881562730  -0.993525056
| 29> C   1.202977189   4.580367182  -1.302880219
| 30> H   0.374773115   4.915764831  -1.934164643
| 31> H   2.098649340   5.157710875  -1.570472348
| 32> H   0.950320401   4.800436015  -0.254328827
| 33> *
| 34>
| 35>                          ****END OF INPUT****

CARTESIAN COORDINATES (ANGSTROEM)
---------------------------------
  O      0.666045   -2.600503    0.138318
  H     -0.227115   -2.712052   -0.281868
  C      0.490021   -1.851248    1.341189
  H      1.466501   -1.466176    1.645844
  H      0.097565   -2.488365    2.146903
  H     -0.187588   -1.000787    1.200740
  O      3.570085    2.361663   -0.202417
  H      3.393281    1.755670    0.560634
  C      4.368083    1.644742   -1.143113
  H      4.552852    2.311802   -1.989632
  H      3.862427    0.740852   -1.508096
  H      5.333950    1.357289   -0.706288
  O      1.390610    3.194081   -1.536659
  H      2.162932    2.881563   -0.993525
  C      1.202977    4.580367   -1.302880
  H      0.374773    4.915765   -1.934165
  H      2.098649    5.157711   -1.570472
  H      0.950320    4.800436   -0.254329

 Total Charge           Charge          ....    0
 Multiplicity           Mult            ....    1
 Number of Electrons    NEL             ....   54
 Basis Dimension        Dim             ....  258

ORBITAL ENERGIES
----------------

  NO   OCC          E(Eh)            E(eV)
   0   2.0000     -20.588200      -560.2334
   1   2.0000     -20.559761      -559.4595
   2   2.0000     -20.513702      -558.2062
   3   2.0000     -11.286425      -307.1192
   4   2.0000     -11.275546      -306.8232
   5   2.0000     -11.247975      -306.0729
   6   2.0000      -1.381752       -37.5994
   7   2.0000      -1.347981       -36.6804
   8   2.0000      -1.311825       -35.6966
   9   2.0000      -0.938615       -25.5410
  10   2.0000      -0.923500       -25.1297
  11   2.0000      -0.894775       -24.3481
  12   2.0000      -0.715655       -19.4740
  13   2.0000      -0.683736       -18.6054
  14   2.0000      -0.671268       -18.2661
  15   2.0000      -0.630271       -17.1505
  16   2.0000      -0.619782       -16.8651
  17   2.0000      -0.608048       -16.5458
  18   2.0000      -0.593605       -16.1528
  19   2.0000      -0.589679       -16.0460
  20   2.0000      -0.562050       -15.2942
  21   2.0000      -0.526971       -14.3396
  22   2.0000      -0.504433       -13.7263
  23   2.0000      -0.486493       -13.2382
  24   2.0000      -0.454698       -12.3730
  25   2.0000      -0.452209       -12.3052
  26   2.0000      -0.415891       -11.3170
  27   0.0000       0.105720         2.8768
  28   0.0000       0.138642         3.7726
  29   0.0000       0.161461         4.3936
  30   0.0000       0.170532         4.6404
  31   0.0000       0.183413         4.9909

MULLIKEN ATOMIC CHARGES
-----------------------
   0 O :   -0.498169
   1 H :    0.325169
   2 C :   -0.174650
   3 H :    0.114680
   4 H :    0.112423
   5 H :    0.120569
   6 O :   -0.515571
   7 H :    0.340188
   8 C :   -0.195346
   9 H :    0.144264
  10 H :    0.140154
  11 H :    0.124617
  12 O :   -0.535225
  13 H :    0.343774
  14 C :   -0.156690
  15 H :    0.118306
  16 H :    0.096609
  17 H :    0.094897
Sum of atomic charges:    0.0000000

LOEWDIN ATOMIC CHARGES
----------------------
   0 O :   -0.112753
   1 H :    0.191397
   2 C :   -0.378636
   3 H :    0.105070
   4 H :    0.096633
   5 H :    0.098277
   6 O :   -0.077985
   7 H :    0.196055
   8 C :   -0.370735
   9 H :    0.116634
  10 H :    0.105864
  11 H :    0.103259
  12 O :   -0.121863
  13 H :    0.157910
  14 C :   -0.396855
  15 H :    0.104959
  16 H :    0.091781
  17 H :    0.090987

  Mayer bond orders larger than 0.100000
B(  0-O ,  1-H ) :   0.8414 B(  0-O ,  2-C ) :   0.9295 B(  2-C ,  3-H ) :   0.9393
B(  2-C ,  4-H ) :   0.9380 B(  2-C ,  5-H ) :   0.9406 B(  6-O ,  7-H ) :   0.8299
B(  6-O ,  8-C ) :   0.8652 B(  8-C ,  9-H ) :   0.9380 B(  8-C , 10-H ) :   0.9391
B(  8-C , 11-H ) :   0.9336 B( 12-O , 13-H ) :   0.7873 B( 12-O , 14-C ) :   0.9454
B( 14-C , 15-H ) :   0.9409 B( 14-C , 16-H ) :   0.9366 B( 14-C , 17-H ) :   0.9423

MP2 TOTAL ENERGY:     -346.530341063 Eh
FINAL SINGLE POINT ENERGY      -346.530341062969

DIPOLE MOMENT
-------------
                                X             Y             Z
Electronic contribution:     -0.21297      -1.93586      -0.71523
Nuclear contribution   :      0.51083       1.62988       1.52805
                        -----------------------------------------
Total Dipole Moment    :      0.29786      -0.30598       0.81282
                        -----------------------------------------
Magnitude (a.u.)       :      0.91817
Magnitude (Debye)      :      2.33379

Rotational constants in cm-1:     0.080089     0.021091     0.017970
Rotational constants in MHz :  2401.008646   632.287697   538.720209

                             ****ORCA TERMINATED NORMALLY****
TOTAL RUN TIME: 0 days 0 hours 1 minutes 51 seconds 164 msec
