                         Program Version 4.2.0 -  RELEASE  -
|  1> # 12h2o.su.etal.mol1,5,9
|  2> ! MP2 def2-TZVP EnGrad TightSCF
|  3>
|  4> %pal
|  5>     nprocs 6
|  6> end
|  7>
|  8> %maxcore 8000
|  9>
| 10> %scf
| 11>     ConvForced true
| 12> end
| 13>
| 14> *xyz 0 1
| 15> O  -1.794470000  -0.923410000   2.768350000
| 16> H  -2.338250000  -1.359750000   3.430940000
| 17> H  -0.879480000  -1.303000000   2.865760000
| 18> O   0.885520000  -1.737840000   0.052730000
| 19> H   1.284090000  -0.839590000   0.017130000
| 20> H   1.032320000  -2.090180000  -0.841890000
| 21> O   0.741530000  -1.752130000   2.896280000
| 22> H   0.920500000  -2.036450000   1.984040000
| 23> H   1.242140000  -0.921210000   2.984230000
| 24> *
| 25>
| 26>                          ****END OF INPUT****

CARTESIAN COORDINATES (ANGSTROEM)
---------------------------------
  O     -1.794470   -0.923410    2.768350
  H     -2.338250   -1.359750    3.430940
  H     -0.879480   -1.303000    2.865760
  O      0.885520   -1.737840    0.052730
  H      1.284090   -0.839590    0.017130
  H      1.032320   -2.090180   -0.841890
  O      0.741530   -1.752130    2.896280
  H      0.920500   -2.036450    1.984040
  H      1.242140   -0.921210    2.984230

 Total Charge           Charge          ....    0
 Multiplicity           Mult            ....    1
 Number of Electrons    NEL             ....   30
 Basis Dimension        Dim             ....  129

ORBITAL ENERGIES
----------------

  NO   OCC          E(Eh)            E(eV)
   0   2.0000     -20.595763      -560.4392
   1   2.0000     -20.568826      -559.7062
   2   2.0000     -20.503320      -557.9237
   3   2.0000      -1.375086       -37.4180
   4   2.0000      -1.355751       -36.8919
   5   2.0000      -1.285589       -34.9826
   6   2.0000      -0.738593       -20.0981
   7   2.0000      -0.716755       -19.5039
   8   2.0000      -0.674819       -18.3628
   9   2.0000      -0.622253       -16.9324
  10   2.0000      -0.586332       -15.9549
  11   2.0000      -0.539642       -14.6844
  12   2.0000      -0.537046       -14.6138
  13   2.0000      -0.494349       -13.4519
  14   2.0000      -0.453781       -12.3480
  15   0.0000       0.099024         2.6946
  16   0.0000       0.149716         4.0740
  17   0.0000       0.180308         4.9064
  18   0.0000       0.194812         5.3011
  19   0.0000       0.260075         7.0770

MULLIKEN ATOMIC CHARGES
-----------------------
   0 O :   -0.733470
   1 H :    0.319987
   2 H :    0.367402
   3 O :   -0.688577
   4 H :    0.345941
   5 H :    0.354664
   6 O :   -0.690539
   7 H :    0.384336
   8 H :    0.340257
Sum of atomic charges:    0.0000000

LOEWDIN ATOMIC CHARGES
----------------------
   0 O :   -0.373670
   1 H :    0.145916
   2 H :    0.142104
   3 O :   -0.315327
   4 H :    0.176025
   5 H :    0.173848
   6 O :   -0.275961
   7 H :    0.159293
   8 H :    0.167772

  Mayer bond orders larger than 0.100000
B(  0-O ,  1-H ) :   0.8635 B(  0-O ,  2-H ) :   0.7837 B(  3-O ,  4-H ) :   0.8421
B(  3-O ,  5-H ) :   0.8404 B(  6-O ,  7-H ) :   0.8030 B(  6-O ,  8-H ) :   0.8477

MP2 TOTAL ENERGY:     -228.952476809 Eh
FINAL SINGLE POINT ENERGY      -228.952476808948

DIPOLE MOMENT
-------------
                                X             Y             Z
Electronic contribution:      0.09173      -0.15790      -0.08483
Nuclear contribution   :      1.32858       0.23021      -0.82779
                        -----------------------------------------
Total Dipole Moment    :      1.42031       0.07231      -0.91262
                        -----------------------------------------
Magnitude (a.u.)       :      1.68979
Magnitude (Debye)      :      4.29509

Rotational constants in cm-1:     0.356200     0.115451     0.089267
Rotational constants in MHz : 10678.620378  3461.132484  2676.145752

                             ****ORCA TERMINATED NORMALLY****
TOTAL RUN TIME: 0 days 0 hours 0 minutes 21 seconds 58 msec
