                         Program Version 4.2.0 -  RELEASE  -
|  1> # 12h2o.su.etal.mol1,3,5,8,9,11
|  2> ! MP2 def2-TZVP EnGrad TightSCF
|  3>
|  4> %pal
|  5>     nprocs 6
|  6> end
|  7>
|  8> %maxcore 8000
|  9>
| 10> %scf
| 11>     ConvForced true
| 12> end
| 13>
| 14> *xyz 0 1
| 15> O  -1.794470000  -0.923410000   2.768350000
| 16> H  -2.338250000  -1.359750000   3.430940000
| 17> H  -0.879480000  -1.303000000   2.865760000
| 18> O  -1.752130000  -0.741530000  -2.896280000
| 19> H  -2.036450000  -0.920500000  -1.984040000
| 20> H  -0.921210000  -1.242140000  -2.984230000
| 21> O   0.885520000  -1.737840000   0.052730000
| 22> H   1.284090000  -0.839590000   0.017130000
| 23> H   1.032320000  -2.090180000  -0.841890000
| 24> O   1.752130000   0.741530000  -2.896280000
| 25> H   2.036450000   0.920500000  -1.984040000
| 26> H   0.921210000   1.242140000  -2.984230000
| 27> O   0.741530000  -1.752130000   2.896280000
| 28> H   0.920500000  -2.036450000   1.984040000
| 29> H   1.242140000  -0.921210000   2.984230000
| 30> O  -0.741530000   1.752130000   2.896280000
| 31> H  -0.920500000   2.036450000   1.984040000
| 32> H  -1.242140000   0.921210000   2.984230000
| 33> *
| 34>
| 35>                          ****END OF INPUT****

CARTESIAN COORDINATES (ANGSTROEM)
---------------------------------
  O     -1.794470   -0.923410    2.768350
  H     -2.338250   -1.359750    3.430940
  H     -0.879480   -1.303000    2.865760
  O     -1.752130   -0.741530   -2.896280
  H     -2.036450   -0.920500   -1.984040
  H     -0.921210   -1.242140   -2.984230
  O      0.885520   -1.737840    0.052730
  H      1.284090   -0.839590    0.017130
  H      1.032320   -2.090180   -0.841890
  O      1.752130    0.741530   -2.896280
  H      2.036450    0.920500   -1.984040
  H      0.921210    1.242140   -2.984230
  O      0.741530   -1.752130    2.896280
  H      0.920500   -2.036450    1.984040
  H      1.242140   -0.921210    2.984230
  O     -0.741530    1.752130    2.896280
  H     -0.920500    2.036450    1.984040
  H     -1.242140    0.921210    2.984230

 Total Charge           Charge          ....    0
 Multiplicity           Mult            ....    1
 Number of Electrons    NEL             ....   60
 Basis Dimension        Dim             ....  258

ORBITAL ENERGIES
----------------

  NO   OCC          E(Eh)            E(eV)
   0   2.0000     -20.612576      -560.8967
   1   2.0000     -20.586258      -560.1806
   2   2.0000     -20.580464      -560.0229
   3   2.0000     -20.570819      -559.7604
   4   2.0000     -20.541782      -558.9703
   5   2.0000     -20.533705      -558.7505
   6   2.0000      -1.391431       -37.8628
   7   2.0000      -1.368534       -37.2397
   8   2.0000      -1.365184       -37.1486
   9   2.0000      -1.349876       -36.7320
  10   2.0000      -1.327262       -36.1166
  11   2.0000      -1.313911       -35.7533
  12   2.0000      -0.754728       -20.5372
  13   2.0000      -0.729220       -19.8431
  14   2.0000      -0.727466       -19.7954
  15   2.0000      -0.712311       -19.3830
  16   2.0000      -0.710038       -19.3211
  17   2.0000      -0.683431       -18.5971
  18   2.0000      -0.638401       -17.3718
  19   2.0000      -0.605597       -16.4791
  20   2.0000      -0.602558       -16.3964
  21   2.0000      -0.587685       -15.9917
  22   2.0000      -0.575008       -15.6468
  23   2.0000      -0.555776       -15.1234
  24   2.0000      -0.550560       -14.9815
  25   2.0000      -0.530499       -14.4356
  26   2.0000      -0.515342       -14.0232
  27   2.0000      -0.514261       -13.9937
  28   2.0000      -0.491305       -13.3691
  29   2.0000      -0.481045       -13.0899
  30   0.0000       0.063382         1.7247
  31   0.0000       0.118805         3.2329
  32   0.0000       0.126968         3.4550
  33   0.0000       0.145604         3.9621
  34   0.0000       0.168052         4.5729

MULLIKEN ATOMIC CHARGES
-----------------------
   0 O :   -0.741815
   1 H :    0.338250
   2 H :    0.382839
   3 O :   -0.678385
   4 H :    0.345389
   5 H :    0.333145
   6 O :   -0.691016
   7 H :    0.339453
   8 H :    0.357342
   9 O :   -0.676410
  10 H :    0.325491
  11 H :    0.353797
  12 O :   -0.697897
  13 H :    0.386759
  14 H :    0.350871
  15 O :   -0.714388
  16 H :    0.322940
  17 H :    0.363634
Sum of atomic charges:   -0.0000000

LOEWDIN ATOMIC CHARGES
----------------------
   0 O :   -0.341306
   1 H :    0.154261
   2 H :    0.145675
   3 O :   -0.330149
   4 H :    0.168034
   5 H :    0.161741
   6 O :   -0.313309
   7 H :    0.171829
   8 H :    0.172606
   9 O :   -0.328156
  10 H :    0.158410
  11 H :    0.172201
  12 O :   -0.274167
  13 H :    0.159726
  14 H :    0.170896
  15 O :   -0.352812
  16 H :    0.156850
  17 H :    0.147670

  Mayer bond orders larger than 0.100000
B(  0-O ,  1-H ) :   0.8500 B(  0-O ,  2-H ) :   0.7584 B(  3-O ,  4-H ) :   0.8473
B(  3-O ,  5-H ) :   0.8521 B(  6-O ,  7-H ) :   0.8420 B(  6-O ,  8-H ) :   0.8370
B(  9-O , 10-H ) :   0.8582 B(  9-O , 11-H ) :   0.8391 B( 12-O , 13-H ) :   0.8034
B( 12-O , 14-H ) :   0.8382 B( 15-O , 16-H ) :   0.8613 B( 15-O , 17-H ) :   0.8018

MP2 TOTAL ENERGY:     -457.910165462 Eh
FINAL SINGLE POINT ENERGY      -457.910165462185

DIPOLE MOMENT
-------------
                                X             Y             Z
Electronic contribution:      0.08795      -0.29057      -0.18105
Nuclear contribution   :      0.76293      -0.22475      -0.14168
                        -----------------------------------------
Total Dipole Moment    :      0.85088      -0.51533      -0.32273
                        -----------------------------------------
Magnitude (a.u.)       :      1.04581
Magnitude (Debye)      :      2.65824

Rotational constants in cm-1:     0.045931     0.018794     0.018409
Rotational constants in MHz :  1376.975893   563.432162   551.900151

                             ****ORCA TERMINATED NORMALLY****
TOTAL RUN TIME: 0 days 0 hours 0 minutes 51 seconds 644 msec
