                         Program Version 4.2.0 -  RELEASE  -
|  1> # 12meoh.boyd.etal.mol3,4,6
|  2> ! MP2 def2-TZVP EnGrad TightSCF
|  3>
|  4> %pal
|  5>     nprocs 6
|  6> end
|  7>
|  8> %maxcore 8000
|  9>
| 10> %scf
| 11>     ConvForced true
| 12> end
| 13>
| 14> *xyz 0 1
| 15> O  -3.821405976  -2.118091637   0.596795346
| 16> H  -4.342989117  -1.344303030   0.251966383
| 17> C  -3.443883586  -1.809641231   1.934889393
| 18> H  -2.831494349  -2.637429600   2.305201764
| 19> H  -4.325601146  -1.719364371   2.585074667
| 20> H  -2.858527126  -0.882644791   1.996110694
| 21> O  -1.358578914   1.232360421   1.189721000
| 22> H  -1.058250183   1.216459361   0.238591307
| 23> C  -0.389763452   1.957872567   1.943072362
| 24> H  -0.747220771   2.012806578   2.975200343
| 25> H  -0.260410585   2.982763209   1.565366540
| 26> H   0.585220638   1.453754179   1.934070793
| 27> O   2.622209273  -1.703002590  -1.445859723
| 28> H   1.828551432  -1.986513781  -0.909754968
| 29> C   2.781117675  -2.615822239  -2.525472890
| 30> H   3.691063626  -2.339003544  -3.065143454
| 31> H   1.934727323  -2.559520367  -3.223226661
| 32> H   2.879948338  -3.653846211  -2.177750170
| 33> *
| 34>
| 35>                          ****END OF INPUT****

CARTESIAN COORDINATES (ANGSTROEM)
---------------------------------
  O     -3.821406   -2.118092    0.596795
  H     -4.342989   -1.344303    0.251966
  C     -3.443884   -1.809641    1.934889
  H     -2.831494   -2.637430    2.305202
  H     -4.325601   -1.719364    2.585075
  H     -2.858527   -0.882645    1.996111
  O     -1.358579    1.232360    1.189721
  H     -1.058250    1.216459    0.238591
  C     -0.389763    1.957873    1.943072
  H     -0.747221    2.012807    2.975200
  H     -0.260411    2.982763    1.565367
  H      0.585221    1.453754    1.934071
  O      2.622209   -1.703003   -1.445860
  H      1.828551   -1.986514   -0.909755
  C      2.781118   -2.615822   -2.525473
  H      3.691064   -2.339004   -3.065143
  H      1.934727   -2.559520   -3.223227
  H      2.879948   -3.653846   -2.177750

 Total Charge           Charge          ....    0
 Multiplicity           Mult            ....    1
 Number of Electrons    NEL             ....   54
 Basis Dimension        Dim             ....  258

ORBITAL ENERGIES
----------------

  NO   OCC          E(Eh)            E(eV)
   0   2.0000     -20.563945      -559.5734
   1   2.0000     -20.558559      -559.4268
   2   2.0000     -20.548779      -559.1607
   3   2.0000     -11.275672      -306.8266
   4   2.0000     -11.271720      -306.7191
   5   2.0000     -11.258274      -306.3532
   6   2.0000      -1.351473       -36.7755
   7   2.0000      -1.346672       -36.6448
   8   2.0000      -1.337611       -36.3983
   9   2.0000      -0.923678       -25.1346
  10   2.0000      -0.919566       -25.0227
  11   2.0000      -0.907469       -24.6935
  12   2.0000      -0.686125       -18.6704
  13   2.0000      -0.681405       -18.5420
  14   2.0000      -0.671041       -18.2600
  15   2.0000      -0.621590       -16.9143
  16   2.0000      -0.617320       -16.7981
  17   2.0000      -0.607188       -16.5224
  18   2.0000      -0.594296       -16.1716
  19   2.0000      -0.591785       -16.1033
  20   2.0000      -0.580343       -15.7919
  21   2.0000      -0.506544       -13.7838
  22   2.0000      -0.500325       -13.6145
  23   2.0000      -0.489683       -13.3250
  24   2.0000      -0.455088       -12.3836
  25   2.0000      -0.449556       -12.2330
  26   2.0000      -0.438391       -11.9292
  27   0.0000       0.113915         3.0998
  28   0.0000       0.142445         3.8761
  29   0.0000       0.152034         4.1371
  30   0.0000       0.172229         4.6866
  31   0.0000       0.178779         4.8648

MULLIKEN ATOMIC CHARGES
-----------------------
   0 O :   -0.505592
   1 H :    0.321061
   2 C :   -0.187960
   3 H :    0.119226
   4 H :    0.104373
   5 H :    0.139196
   6 O :   -0.499629
   7 H :    0.325007
   8 C :   -0.173410
   9 H :    0.129058
  10 H :    0.112337
  11 H :    0.116311
  12 O :   -0.502950
  13 H :    0.324215
  14 C :   -0.171328
  15 H :    0.128640
  16 H :    0.110152
  17 H :    0.111291
Sum of atomic charges:    0.0000000

LOEWDIN ATOMIC CHARGES
----------------------
   0 O :   -0.114352
   1 H :    0.190287
   2 C :   -0.385619
   3 H :    0.107198
   4 H :    0.093434
   5 H :    0.100145
   6 O :   -0.110898
   7 H :    0.193722
   8 C :   -0.379031
   9 H :    0.110125
  10 H :    0.097644
  11 H :    0.097332
  12 O :   -0.113154
  13 H :    0.193365
  14 C :   -0.381929
  15 H :    0.110024
  16 H :    0.095535
  17 H :    0.096173

  Mayer bond orders larger than 0.100000
B(  0-O ,  1-H ) :   0.8434 B(  0-O ,  2-C ) :   0.9160 B(  2-C ,  3-H ) :   0.9380
B(  2-C ,  4-H ) :   0.9408 B(  2-C ,  5-H ) :   0.9306 B(  6-O ,  7-H ) :   0.8379
B(  6-O ,  8-C ) :   0.9150 B(  8-C ,  9-H ) :   0.9389 B(  8-C , 10-H ) :   0.9355
B(  8-C , 11-H ) :   0.9382 B( 12-O , 13-H ) :   0.8399 B( 12-O , 14-C ) :   0.9242
B( 14-C , 15-H ) :   0.9373 B( 14-C , 16-H ) :   0.9392 B( 14-C , 17-H ) :   0.9394

MP2 TOTAL ENERGY:     -346.522821375 Eh
FINAL SINGLE POINT ENERGY      -346.522821374811

DIPOLE MOMENT
-------------
                                X             Y             Z
Electronic contribution:     -1.68337      -0.13636      -1.17795
Nuclear contribution   :      1.74801       0.56504       1.12269
                        -----------------------------------------
Total Dipole Moment    :      0.06464       0.42868      -0.05526
                        -----------------------------------------
Magnitude (a.u.)       :      0.43703
Magnitude (Debye)      :      1.11085

Rotational constants in cm-1:     0.047122     0.018628     0.013863
Rotational constants in MHz :  1412.673776   558.461970   415.604820

                             ****ORCA TERMINATED NORMALLY****
TOTAL RUN TIME: 0 days 0 hours 0 minutes 51 seconds 941 msec
