                         Program Version 4.2.0 -  RELEASE  -
|  1> # 12h2o.su.etal.mol1,2,4,5,6,7,8,9,10,11
|  2> ! MP2 def2-TZVP EnGrad TightSCF
|  3>
|  4> %pal
|  5>     nprocs 6
|  6> end
|  7>
|  8> %maxcore 8000
|  9>
| 10> %scf
| 11>     ConvForced true
| 12> end
| 13>
| 14> *xyz 0 1
| 15> O  -1.794470000  -0.923410000   2.768350000
| 16> H  -2.338250000  -1.359750000   3.430940000
| 17> H  -0.879480000  -1.303000000   2.865760000
| 18> O   0.923410000  -1.794470000  -2.768350000
| 19> H   1.359750000  -2.338250000  -3.430940000
| 20> H   1.303000000  -0.879480000  -2.865760000
| 21> O  -0.885520000   1.737840000   0.052730000
| 22> H  -1.032320000   2.090180000  -0.841890000
| 23> H  -1.284090000   0.839590000   0.017130000
| 24> O   0.885520000  -1.737840000   0.052730000
| 25> H   1.284090000  -0.839590000   0.017130000
| 26> H   1.032320000  -2.090180000  -0.841890000
| 27> O   1.737840000   0.885520000  -0.052730000
| 28> H   2.090180000   1.032320000   0.841890000
| 29> H   0.839590000   1.284090000  -0.017130000
| 30> O  -1.737840000  -0.885520000  -0.052730000
| 31> H  -2.090180000  -1.032320000   0.841890000
| 32> H  -0.839590000  -1.284090000  -0.017130000
| 33> O   1.752130000   0.741530000  -2.896280000
| 34> H   2.036450000   0.920500000  -1.984040000
| 35> H   0.921210000   1.242140000  -2.984230000
| 36> O   0.741530000  -1.752130000   2.896280000
| 37> H   0.920500000  -2.036450000   1.984040000
| 38> H   1.242140000  -0.921210000   2.984230000
| 39> O  -0.923410000   1.794470000  -2.768350000
| 40> H  -1.359750000   2.338250000  -3.430940000
| 41> H  -1.303000000   0.879480000  -2.865760000
| 42> O  -0.741530000   1.752130000   2.896280000
| 43> H  -0.920500000   2.036450000   1.984040000
| 44> H  -1.242140000   0.921210000   2.984230000
| 45> *
| 46>
| 47>                          ****END OF INPUT****

CARTESIAN COORDINATES (ANGSTROEM)
---------------------------------
  O     -1.794470   -0.923410    2.768350
  H     -2.338250   -1.359750    3.430940
  H     -0.879480   -1.303000    2.865760
  O      0.923410   -1.794470   -2.768350
  H      1.359750   -2.338250   -3.430940
  H      1.303000   -0.879480   -2.865760
  O     -0.885520    1.737840    0.052730
  H     -1.032320    2.090180   -0.841890
  H     -1.284090    0.839590    0.017130
  O      0.885520   -1.737840    0.052730
  H      1.284090   -0.839590    0.017130
  H      1.032320   -2.090180   -0.841890
  O      1.737840    0.885520   -0.052730
  H      2.090180    1.032320    0.841890
  H      0.839590    1.284090   -0.017130
  O     -1.737840   -0.885520   -0.052730
  H     -2.090180   -1.032320    0.841890
  H     -0.839590   -1.284090   -0.017130
  O      1.752130    0.741530   -2.896280
  H      2.036450    0.920500   -1.984040
  H      0.921210    1.242140   -2.984230
  O      0.741530   -1.752130    2.896280
  H      0.920500   -2.036450    1.984040
  H      1.242140   -0.921210    2.984230
  O     -0.923410    1.794470   -2.768350
  H     -1.359750    2.338250   -3.430940
  H     -1.303000    0.879480   -2.865760
  O     -0.741530    1.752130    2.896280
  H     -0.920500    2.036450    1.984040
  H     -1.242140    0.921210    2.984230

 Total Charge           Charge          ....    0
 Multiplicity           Mult            ....    1
 Number of Electrons    NEL             ....  100
 Basis Dimension        Dim             ....  430

ORBITAL ENERGIES
----------------

  NO   OCC          E(Eh)            E(eV)
   0   2.0000     -20.620880      -561.1227
   1   2.0000     -20.587244      -560.2074
   2   2.0000     -20.577269      -559.9360
   3   2.0000     -20.563564      -559.5630
   4   2.0000     -20.558905      -559.4363
   5   2.0000     -20.558832      -559.4343
   6   2.0000     -20.558681      -559.4301
   7   2.0000     -20.548148      -559.1435
   8   2.0000     -20.536252      -558.8198
   9   2.0000     -20.509317      -558.0869
  10   2.0000      -1.401662       -38.1412
  11   2.0000      -1.381009       -37.5792
  12   2.0000      -1.369946       -37.2781
  13   2.0000      -1.357187       -36.9309
  14   2.0000      -1.350063       -36.7371
  15   2.0000      -1.349899       -36.7326
  16   2.0000      -1.342862       -36.5411
  17   2.0000      -1.328283       -36.1444
  18   2.0000      -1.318968       -35.8909
  19   2.0000      -1.294189       -35.2167
  20   2.0000      -0.766943       -20.8696
  21   2.0000      -0.742259       -20.1979
  22   2.0000      -0.731757       -19.9121
  23   2.0000      -0.725376       -19.7385
  24   2.0000      -0.722307       -19.6550
  25   2.0000      -0.722174       -19.6514
  26   2.0000      -0.717185       -19.5156
  27   2.0000      -0.713177       -19.4065
  28   2.0000      -0.697919       -18.9913
  29   2.0000      -0.672058       -18.2876
  30   2.0000      -0.651773       -17.7356
  31   2.0000      -0.634251       -17.2588
  32   2.0000      -0.623290       -16.9606
  33   2.0000      -0.608958       -16.5706
  34   2.0000      -0.599728       -16.3194
  35   2.0000      -0.594310       -16.1720
  36   2.0000      -0.584663       -15.9095
  37   2.0000      -0.568967       -15.4824
  38   2.0000      -0.563183       -15.3250
  39   2.0000      -0.551270       -15.0008
  40   2.0000      -0.533419       -14.5151
  41   2.0000      -0.528770       -14.3886
  42   2.0000      -0.516827       -14.0636
  43   2.0000      -0.508432       -13.8351
  44   2.0000      -0.507181       -13.8011
  45   2.0000      -0.503896       -13.7117
  46   2.0000      -0.500863       -13.6292
  47   2.0000      -0.498113       -13.5543
  48   2.0000      -0.484909       -13.1950
  49   2.0000      -0.459460       -12.5025
  50   0.0000       0.093279         2.5383
  51   0.0000       0.111060         3.0221
  52   0.0000       0.146099         3.9756
  53   0.0000       0.147881         4.0240
  54   0.0000       0.182869         4.9761

MULLIKEN ATOMIC CHARGES
-----------------------
   0 O :   -0.753400
   1 H :    0.348152
   2 H :    0.386000
   3 O :   -0.745247
   4 H :    0.338501
   5 H :    0.372912
   6 O :   -0.753793
   7 H :    0.376518
   8 H :    0.365094
   9 O :   -0.762515
  10 H :    0.353256
  11 H :    0.389930
  12 O :   -0.745494
  13 H :    0.360461
  14 H :    0.378032
  15 O :   -0.740381
  16 H :    0.376034
  17 H :    0.369118
  18 O :   -0.715616
  19 H :    0.387219
  20 H :    0.365956
  21 O :   -0.700639
  22 H :    0.393079
  23 H :    0.348220
  24 O :   -0.729624
  25 H :    0.368604
  26 H :    0.388546
  27 O :   -0.737071
  28 H :    0.367369
  29 H :    0.350780
Sum of atomic charges:   -0.0000000

LOEWDIN ATOMIC CHARGES
----------------------
   0 O :   -0.314541
   1 H :    0.158082
   2 H :    0.147158
   3 O :   -0.343981
   4 H :    0.154625
   5 H :    0.143396
   6 O :   -0.300388
   7 H :    0.149205
   8 H :    0.142542
   9 O :   -0.305243
  10 H :    0.138666
  11 H :    0.155813
  12 O :   -0.296559
  13 H :    0.170382
  14 H :    0.147314
  15 O :   -0.319541
  16 H :    0.148868
  17 H :    0.140666
  18 O :   -0.284243
  19 H :    0.156803
  20 H :    0.149019
  21 O :   -0.274937
  22 H :    0.158865
  23 H :    0.169068
  24 O :   -0.289454
  25 H :    0.170278
  26 H :    0.198578
  27 O :   -0.359002
  28 H :    0.146967
  29 H :    0.141593

  Mayer bond orders larger than 0.100000
B(  0-O ,  1-H ) :   0.8416 B(  0-O ,  2-H ) :   0.7398 B(  2-H , 21-O ) :   0.1003
B(  3-O ,  4-H ) :   0.8498 B(  3-O ,  5-H ) :   0.7488 B(  5-H , 18-O ) :   0.1125
B(  6-O ,  7-H ) :   0.8089 B(  6-O ,  8-H ) :   0.7427 B(  6-O , 14-H ) :   0.1168
B(  8-H , 15-O ) :   0.1291 B(  9-O , 10-H ) :   0.7707 B(  9-O , 11-H ) :   0.7844
B( 12-O , 13-H ) :   0.8329 B( 12-O , 14-H ) :   0.7408 B( 15-O , 16-H ) :   0.8030
B( 15-O , 17-H ) :   0.7762 B( 18-O , 19-H ) :   0.8045 B( 18-O , 20-H ) :   0.8104
B( 21-O , 22-H ) :   0.7912 B( 21-O , 23-H ) :   0.8389 B( 24-O , 25-H ) :   0.8297
B( 24-O , 26-H ) :   0.8064 B( 27-O , 28-H ) :   0.8237 B( 27-O , 29-H ) :   0.8203

MP2 TOTAL ENERGY:     -763.265948031 Eh
FINAL SINGLE POINT ENERGY      -763.265948030859

DIPOLE MOMENT
-------------
                                X             Y             Z
Electronic contribution:      0.10202       0.10285      -0.20105
Nuclear contribution   :     -0.14599      -0.11349      -1.31870
                        -----------------------------------------
Total Dipole Moment    :     -0.04397      -0.01064      -1.51975
                        -----------------------------------------
Magnitude (a.u.)       :      1.52043
Magnitude (Debye)      :      3.86462

Rotational constants in cm-1:     0.026537     0.014635     0.012485
Rotational constants in MHz :   795.546484   438.731424   374.290512

                             ****ORCA TERMINATED NORMALLY****
TOTAL RUN TIME: 0 days 0 hours 7 minutes 56 seconds 552 msec
