                         Program Version 4.2.0 -  RELEASE  -
|  1> # 12h2o.su.etal.mol0,2,3,4,6,7,8,10,11
|  2> ! MP2 def2-TZVP EnGrad TightSCF
|  3>
|  4> %pal
|  5>     nprocs 6
|  6> end
|  7>
|  8> %maxcore 8000
|  9>
| 10> %scf
| 11>     ConvForced true
| 12> end
| 13>
| 14> *xyz 0 1
| 15> O   1.794470000   0.923410000   2.768350000
| 16> H   2.338250000   1.359750000   3.430940000
| 17> H   0.879480000   1.303000000   2.865760000
| 18> O   0.923410000  -1.794470000  -2.768350000
| 19> H   1.359750000  -2.338250000  -3.430940000
| 20> H   1.303000000  -0.879480000  -2.865760000
| 21> O  -1.752130000  -0.741530000  -2.896280000
| 22> H  -2.036450000  -0.920500000  -1.984040000
| 23> H  -0.921210000  -1.242140000  -2.984230000
| 24> O  -0.885520000   1.737840000   0.052730000
| 25> H  -1.032320000   2.090180000  -0.841890000
| 26> H  -1.284090000   0.839590000   0.017130000
| 27> O   1.737840000   0.885520000  -0.052730000
| 28> H   2.090180000   1.032320000   0.841890000
| 29> H   0.839590000   1.284090000  -0.017130000
| 30> O  -1.737840000  -0.885520000  -0.052730000
| 31> H  -2.090180000  -1.032320000   0.841890000
| 32> H  -0.839590000  -1.284090000  -0.017130000
| 33> O   1.752130000   0.741530000  -2.896280000
| 34> H   2.036450000   0.920500000  -1.984040000
| 35> H   0.921210000   1.242140000  -2.984230000
| 36> O  -0.923410000   1.794470000  -2.768350000
| 37> H  -1.359750000   2.338250000  -3.430940000
| 38> H  -1.303000000   0.879480000  -2.865760000
| 39> O  -0.741530000   1.752130000   2.896280000
| 40> H  -0.920500000   2.036450000   1.984040000
| 41> H  -1.242140000   0.921210000   2.984230000
| 42> *
| 43>
| 44>                          ****END OF INPUT****

CARTESIAN COORDINATES (ANGSTROEM)
---------------------------------
  O      1.794470    0.923410    2.768350
  H      2.338250    1.359750    3.430940
  H      0.879480    1.303000    2.865760
  O      0.923410   -1.794470   -2.768350
  H      1.359750   -2.338250   -3.430940
  H      1.303000   -0.879480   -2.865760
  O     -1.752130   -0.741530   -2.896280
  H     -2.036450   -0.920500   -1.984040
  H     -0.921210   -1.242140   -2.984230
  O     -0.885520    1.737840    0.052730
  H     -1.032320    2.090180   -0.841890
  H     -1.284090    0.839590    0.017130
  O      1.737840    0.885520   -0.052730
  H      2.090180    1.032320    0.841890
  H      0.839590    1.284090   -0.017130
  O     -1.737840   -0.885520   -0.052730
  H     -2.090180   -1.032320    0.841890
  H     -0.839590   -1.284090   -0.017130
  O      1.752130    0.741530   -2.896280
  H      2.036450    0.920500   -1.984040
  H      0.921210    1.242140   -2.984230
  O     -0.923410    1.794470   -2.768350
  H     -1.359750    2.338250   -3.430940
  H     -1.303000    0.879480   -2.865760
  O     -0.741530    1.752130    2.896280
  H     -0.920500    2.036450    1.984040
  H     -1.242140    0.921210    2.984230

 Total Charge           Charge          ....    0
 Multiplicity           Mult            ....    1
 Number of Electrons    NEL             ....   90
 Basis Dimension        Dim             ....  387

ORBITAL ENERGIES
----------------

  NO   OCC          E(Eh)            E(eV)
   0   2.0000     -20.630135      -561.3745
   1   2.0000     -20.585273      -560.1538
   2   2.0000     -20.568692      -559.7026
   3   2.0000     -20.567861      -559.6800
   4   2.0000     -20.558988      -559.4385
   5   2.0000     -20.538948      -558.8932
   6   2.0000     -20.537021      -558.8407
   7   2.0000     -20.533162      -558.7357
   8   2.0000     -20.516438      -558.2807
   9   2.0000      -1.413641       -38.4671
  10   2.0000      -1.376377       -37.4531
  11   2.0000      -1.365637       -37.1609
  12   2.0000      -1.356627       -36.9157
  13   2.0000      -1.341930       -36.5158
  14   2.0000      -1.332511       -36.2595
  15   2.0000      -1.323987       -36.0275
  16   2.0000      -1.312941       -35.7270
  17   2.0000      -1.299710       -35.3669
  18   2.0000      -0.770943       -20.9784
  19   2.0000      -0.741620       -20.1805
  20   2.0000      -0.732062       -19.9204
  21   2.0000      -0.729091       -19.8396
  22   2.0000      -0.720320       -19.6009
  23   2.0000      -0.708045       -19.2669
  24   2.0000      -0.698989       -19.0205
  25   2.0000      -0.693622       -18.8744
  26   2.0000      -0.680043       -18.5049
  27   2.0000      -0.659175       -17.9371
  28   2.0000      -0.630638       -17.1605
  29   2.0000      -0.617396       -16.8002
  30   2.0000      -0.602939       -16.4068
  31   2.0000      -0.586790       -15.9674
  32   2.0000      -0.578941       -15.7538
  33   2.0000      -0.573250       -15.5989
  34   2.0000      -0.564015       -15.3476
  35   2.0000      -0.553715       -15.0674
  36   2.0000      -0.536748       -14.6057
  37   2.0000      -0.518071       -14.0974
  38   2.0000      -0.513735       -13.9794
  39   2.0000      -0.508037       -13.8244
  40   2.0000      -0.505308       -13.7501
  41   2.0000      -0.487651       -13.2696
  42   2.0000      -0.486936       -13.2502
  43   2.0000      -0.479384       -13.0447
  44   2.0000      -0.467881       -12.7317
  45   0.0000       0.075002         2.0409
  46   0.0000       0.131646         3.5823
  47   0.0000       0.147122         4.0034
  48   0.0000       0.154670         4.2088
  49   0.0000       0.171497         4.6667

MULLIKEN ATOMIC CHARGES
-----------------------
   0 O :   -0.738490
   1 H :    0.335089
   2 H :    0.371052
   3 O :   -0.751557
   4 H :    0.338999
   5 H :    0.387209
   6 O :   -0.721800
   7 H :    0.378362
   8 H :    0.373358
   9 O :   -0.751141
  10 H :    0.389184
  11 H :    0.352020
  12 O :   -0.754634
  13 H :    0.371702
  14 H :    0.346099
  15 O :   -0.720843
  16 H :    0.362353
  17 H :    0.394377
  18 O :   -0.728840
  19 H :    0.390653
  20 H :    0.362067
  21 O :   -0.758972
  22 H :    0.351469
  23 H :    0.384113
  24 O :   -0.688325
  25 H :    0.393124
  26 H :    0.333372
Sum of atomic charges:   -0.0000000

LOEWDIN ATOMIC CHARGES
----------------------
   0 O :   -0.342228
   1 H :    0.152791
   2 H :    0.143646
   3 O :   -0.345244
   4 H :    0.154713
   5 H :    0.146456
   6 O :   -0.285467
   7 H :    0.153330
   8 H :    0.152038
   9 O :   -0.302492
  10 H :    0.155037
  11 H :    0.138898
  12 O :   -0.351689
  13 H :    0.149936
  14 H :    0.135668
  15 O :   -0.275833
  16 H :    0.174135
  17 H :    0.193600
  18 O :   -0.291157
  19 H :    0.158143
  20 H :    0.146404
  21 O :   -0.315984
  22 H :    0.159630
  23 H :    0.146277
  24 O :   -0.273840
  25 H :    0.159176
  26 H :    0.164058

  Mayer bond orders larger than 0.100000
B(  0-O ,  1-H ) :   0.8517 B(  0-O ,  2-H ) :   0.7647 B(  3-O ,  4-H ) :   0.8495
B(  3-O ,  5-H ) :   0.7346 B(  5-H , 18-O ) :   0.1208 B(  6-O ,  7-H ) :   0.8176
B(  6-O ,  8-H ) :   0.7808 B(  6-O , 23-H ) :   0.1242 B(  9-O , 10-H ) :   0.7888
B(  9-O , 11-H ) :   0.7838 B( 12-O , 13-H ) :   0.8057 B( 12-O , 14-H ) :   0.7893
B( 15-O , 16-H ) :   0.8322 B( 15-O , 17-H ) :   0.8020 B( 18-O , 19-H ) :   0.7904
B( 18-O , 20-H ) :   0.8078 B( 21-O , 22-H ) :   0.8402 B( 21-O , 23-H ) :   0.7263
B( 24-O , 25-H ) :   0.7918 B( 24-O , 26-H ) :   0.8509

MP2 TOTAL ENERGY:     -686.931628182 Eh
FINAL SINGLE POINT ENERGY      -686.931628182139

DIPOLE MOMENT
-------------
                                X             Y             Z
Electronic contribution:     -0.25025      -0.03801      -0.03726
Nuclear contribution   :     -1.32858      -0.23021       0.82779
                        -----------------------------------------
Total Dipole Moment    :     -1.57883      -0.26823       0.79054
                        -----------------------------------------
Magnitude (a.u.)       :      1.78594
Magnitude (Debye)      :      4.53951

Rotational constants in cm-1:     0.032066     0.015785     0.014058
Rotational constants in MHz :   961.310300   473.210906   421.458216

                             ****ORCA TERMINATED NORMALLY****
TOTAL RUN TIME: 0 days 0 hours 5 minutes 9 seconds 496 msec
