                         Program Version 4.2.0 -  RELEASE  -
|  1> # 12h2o.su.etal.mol1,4,5,6,7,8,10
|  2> ! MP2 def2-TZVP EnGrad TightSCF
|  3>
|  4> %pal
|  5>     nprocs 6
|  6> end
|  7>
|  8> %maxcore 8000
|  9>
| 10> %scf
| 11>     ConvForced true
| 12> end
| 13>
| 14> *xyz 0 1
| 15> O  -1.794470000  -0.923410000   2.768350000
| 16> H  -2.338250000  -1.359750000   3.430940000
| 17> H  -0.879480000  -1.303000000   2.865760000
| 18> O  -0.885520000   1.737840000   0.052730000
| 19> H  -1.032320000   2.090180000  -0.841890000
| 20> H  -1.284090000   0.839590000   0.017130000
| 21> O   0.885520000  -1.737840000   0.052730000
| 22> H   1.284090000  -0.839590000   0.017130000
| 23> H   1.032320000  -2.090180000  -0.841890000
| 24> O   1.737840000   0.885520000  -0.052730000
| 25> H   2.090180000   1.032320000   0.841890000
| 26> H   0.839590000   1.284090000  -0.017130000
| 27> O  -1.737840000  -0.885520000  -0.052730000
| 28> H  -2.090180000  -1.032320000   0.841890000
| 29> H  -0.839590000  -1.284090000  -0.017130000
| 30> O   1.752130000   0.741530000  -2.896280000
| 31> H   2.036450000   0.920500000  -1.984040000
| 32> H   0.921210000   1.242140000  -2.984230000
| 33> O  -0.923410000   1.794470000  -2.768350000
| 34> H  -1.359750000   2.338250000  -3.430940000
| 35> H  -1.303000000   0.879480000  -2.865760000
| 36> *
| 37>
| 38>                          ****END OF INPUT****

CARTESIAN COORDINATES (ANGSTROEM)
---------------------------------
  O     -1.794470   -0.923410    2.768350
  H     -2.338250   -1.359750    3.430940
  H     -0.879480   -1.303000    2.865760
  O     -0.885520    1.737840    0.052730
  H     -1.032320    2.090180   -0.841890
  H     -1.284090    0.839590    0.017130
  O      0.885520   -1.737840    0.052730
  H      1.284090   -0.839590    0.017130
  H      1.032320   -2.090180   -0.841890
  O      1.737840    0.885520   -0.052730
  H      2.090180    1.032320    0.841890
  H      0.839590    1.284090   -0.017130
  O     -1.737840   -0.885520   -0.052730
  H     -2.090180   -1.032320    0.841890
  H     -0.839590   -1.284090   -0.017130
  O      1.752130    0.741530   -2.896280
  H      2.036450    0.920500   -1.984040
  H      0.921210    1.242140   -2.984230
  O     -0.923410    1.794470   -2.768350
  H     -1.359750    2.338250   -3.430940
  H     -1.303000    0.879480   -2.865760

 Total Charge           Charge          ....    0
 Multiplicity           Mult            ....    1
 Number of Electrons    NEL             ....   70
 Basis Dimension        Dim             ....  301

ORBITAL ENERGIES
----------------

  NO   OCC          E(Eh)            E(eV)
   0   2.0000     -20.604721      -560.6830
   1   2.0000     -20.587286      -560.2085
   2   2.0000     -20.569741      -559.7311
   3   2.0000     -20.558747      -559.4319
   4   2.0000     -20.534864      -558.7820
   5   2.0000     -20.534040      -558.7596
   6   2.0000     -20.513137      -558.1908
   7   2.0000      -1.385173       -37.6925
   8   2.0000      -1.365741       -37.1637
   9   2.0000      -1.363314       -37.0977
  10   2.0000      -1.343187       -36.5500
  11   2.0000      -1.328528       -36.1511
  12   2.0000      -1.312611       -35.7180
  13   2.0000      -1.298227       -35.3266
  14   2.0000      -0.750550       -20.4235
  15   2.0000      -0.732087       -19.9211
  16   2.0000      -0.723117       -19.6770
  17   2.0000      -0.712413       -19.3857
  18   2.0000      -0.697357       -18.9761
  19   2.0000      -0.695653       -18.9297
  20   2.0000      -0.677461       -18.4347
  21   2.0000      -0.631103       -17.1732
  22   2.0000      -0.613423       -16.6921
  23   2.0000      -0.605082       -16.4651
  24   2.0000      -0.589755       -16.0480
  25   2.0000      -0.580575       -15.7982
  26   2.0000      -0.564626       -15.3643
  27   2.0000      -0.540657       -14.7120
  28   2.0000      -0.526300       -14.3213
  29   2.0000      -0.525109       -14.2889
  30   2.0000      -0.512095       -13.9348
  31   2.0000      -0.500455       -13.6181
  32   2.0000      -0.485559       -13.2127
  33   2.0000      -0.480244       -13.0681
  34   2.0000      -0.462860       -12.5951
  35   0.0000       0.101739         2.7685
  36   0.0000       0.114941         3.1277
  37   0.0000       0.141330         3.8458
  38   0.0000       0.164336         4.4718
  39   0.0000       0.189195         5.1483

MULLIKEN ATOMIC CHARGES
-----------------------
   0 O :   -0.696243
   1 H :    0.350306
   2 H :    0.360290
   3 O :   -0.731219
   4 H :    0.368739
   5 H :    0.366408
   6 O :   -0.725429
   7 H :    0.369672
   8 H :    0.356277
   9 O :   -0.740094
  10 H :    0.353170
  11 H :    0.371504
  12 O :   -0.740648
  13 H :    0.375591
  14 H :    0.353823
  15 O :   -0.725674
  16 H :    0.367199
  17 H :    0.343926
  18 O :   -0.717983
  19 H :    0.362410
  20 H :    0.377976
Sum of atomic charges:   -0.0000000

LOEWDIN ATOMIC CHARGES
----------------------
   0 O :   -0.310290
   1 H :    0.162651
   2 H :    0.187552
   3 O :   -0.316009
   4 H :    0.146040
   5 H :    0.141205
   6 O :   -0.314977
   7 H :    0.144011
   8 H :    0.169715
   9 O :   -0.297776
  10 H :    0.168157
  11 H :    0.146375
  12 O :   -0.323027
  13 H :    0.149659
  14 H :    0.138261
  15 O :   -0.353946
  16 H :    0.148554
  17 H :    0.140725
  18 O :   -0.288343
  19 H :    0.166963
  20 H :    0.194500

  Mayer bond orders larger than 0.100000
B(  0-O ,  1-H ) :   0.8430 B(  0-O ,  2-H ) :   0.8302 B(  3-O ,  4-H ) :   0.8169
B(  3-O ,  5-H ) :   0.7658 B(  3-O , 11-H ) :   0.1318 B(  5-H , 12-O ) :   0.1103
B(  6-O ,  7-H ) :   0.7704 B(  6-O ,  8-H ) :   0.8378 B(  6-O , 14-H ) :   0.1053
B(  9-O , 10-H ) :   0.8378 B(  9-O , 11-H ) :   0.7381 B( 12-O , 13-H ) :   0.8092
B( 12-O , 14-H ) :   0.7777 B( 15-O , 16-H ) :   0.8248 B( 15-O , 17-H ) :   0.8331
B( 18-O , 19-H ) :   0.8330 B( 18-O , 20-H ) :   0.8147

MP2 TOTAL ENERGY:     -534.264906170 Eh
FINAL SINGLE POINT ENERGY      -534.264906169601

DIPOLE MOMENT
-------------
                                X             Y             Z
Electronic contribution:     -0.10875       0.13968       0.05811
Nuclear contribution   :     -0.82514      -0.42247       0.68611
                        -----------------------------------------
Total Dipole Moment    :     -0.93389      -0.28279       0.74421
                        -----------------------------------------
Magnitude (a.u.)       :      1.22718
Magnitude (Debye)      :      3.11924

Rotational constants in cm-1:     0.051537     0.025015     0.021316
Rotational constants in MHz :  1545.043115   749.935216   639.032938

                             ****ORCA TERMINATED NORMALLY****
TOTAL RUN TIME: 0 days 0 hours 4 minutes 0 seconds 649 msec
