                         Program Version 4.2.0 -  RELEASE  -
|  1> # 12h2o.su.etal.mol0,1,2,5,6,9,10
|  2> ! MP2 def2-TZVP EnGrad TightSCF
|  3>
|  4> %pal
|  5>     nprocs 6
|  6> end
|  7>
|  8> %maxcore 8000
|  9>
| 10> %scf
| 11>     ConvForced true
| 12> end
| 13>
| 14> *xyz 0 1
| 15> O   1.794470000   0.923410000   2.768350000
| 16> H   2.338250000   1.359750000   3.430940000
| 17> H   0.879480000   1.303000000   2.865760000
| 18> O  -1.794470000  -0.923410000   2.768350000
| 19> H  -2.338250000  -1.359750000   3.430940000
| 20> H  -0.879480000  -1.303000000   2.865760000
| 21> O   0.923410000  -1.794470000  -2.768350000
| 22> H   1.359750000  -2.338250000  -3.430940000
| 23> H   1.303000000  -0.879480000  -2.865760000
| 24> O   0.885520000  -1.737840000   0.052730000
| 25> H   1.284090000  -0.839590000   0.017130000
| 26> H   1.032320000  -2.090180000  -0.841890000
| 27> O   1.737840000   0.885520000  -0.052730000
| 28> H   2.090180000   1.032320000   0.841890000
| 29> H   0.839590000   1.284090000  -0.017130000
| 30> O   0.741530000  -1.752130000   2.896280000
| 31> H   0.920500000  -2.036450000   1.984040000
| 32> H   1.242140000  -0.921210000   2.984230000
| 33> O  -0.923410000   1.794470000  -2.768350000
| 34> H  -1.359750000   2.338250000  -3.430940000
| 35> H  -1.303000000   0.879480000  -2.865760000
| 36> *
| 37>
| 38>                          ****END OF INPUT****

CARTESIAN COORDINATES (ANGSTROEM)
---------------------------------
  O      1.794470    0.923410    2.768350
  H      2.338250    1.359750    3.430940
  H      0.879480    1.303000    2.865760
  O     -1.794470   -0.923410    2.768350
  H     -2.338250   -1.359750    3.430940
  H     -0.879480   -1.303000    2.865760
  O      0.923410   -1.794470   -2.768350
  H      1.359750   -2.338250   -3.430940
  H      1.303000   -0.879480   -2.865760
  O      0.885520   -1.737840    0.052730
  H      1.284090   -0.839590    0.017130
  H      1.032320   -2.090180   -0.841890
  O      1.737840    0.885520   -0.052730
  H      2.090180    1.032320    0.841890
  H      0.839590    1.284090   -0.017130
  O      0.741530   -1.752130    2.896280
  H      0.920500   -2.036450    1.984040
  H      1.242140   -0.921210    2.984230
  O     -0.923410    1.794470   -2.768350
  H     -1.359750    2.338250   -3.430940
  H     -1.303000    0.879480   -2.865760

 Total Charge           Charge          ....    0
 Multiplicity           Mult            ....    1
 Number of Electrons    NEL             ....   70
 Basis Dimension        Dim             ....  301

ORBITAL ENERGIES
----------------

  NO   OCC          E(Eh)            E(eV)
   0   2.0000     -20.615216      -560.9686
   1   2.0000     -20.579899      -560.0075
   2   2.0000     -20.566330      -559.6383
   3   2.0000     -20.565398      -559.6129
   4   2.0000     -20.528456      -558.6077
   5   2.0000     -20.510191      -558.1107
   6   2.0000     -20.496421      -557.7360
   7   2.0000      -1.395716       -37.9794
   8   2.0000      -1.357862       -36.9493
   9   2.0000      -1.349130       -36.7117
  10   2.0000      -1.341621       -36.5074
  11   2.0000      -1.322379       -35.9837
  12   2.0000      -1.294928       -35.2368
  13   2.0000      -1.277636       -34.7662
  14   2.0000      -0.760935       -20.7061
  15   2.0000      -0.724672       -19.7193
  16   2.0000      -0.713789       -19.4232
  17   2.0000      -0.709526       -19.3072
  18   2.0000      -0.691336       -18.8122
  19   2.0000      -0.675923       -18.3928
  20   2.0000      -0.663638       -18.0585
  21   2.0000      -0.635849       -17.3023
  22   2.0000      -0.601203       -16.3596
  23   2.0000      -0.590940       -16.0803
  24   2.0000      -0.578681       -15.7467
  25   2.0000      -0.577800       -15.7227
  26   2.0000      -0.547930       -14.9099
  27   2.0000      -0.545109       -14.8332
  28   2.0000      -0.521444       -14.1892
  29   2.0000      -0.513184       -13.9644
  30   2.0000      -0.509625       -13.8676
  31   2.0000      -0.496798       -13.5186
  32   2.0000      -0.469395       -12.7729
  33   2.0000      -0.461041       -12.5456
  34   2.0000      -0.447124       -12.1669
  35   0.0000       0.095525         2.5994
  36   0.0000       0.110960         3.0194
  37   0.0000       0.138774         3.7762
  38   0.0000       0.162195         4.4135
  39   0.0000       0.183514         4.9937

MULLIKEN ATOMIC CHARGES
-----------------------
   0 O :   -0.721478
   1 H :    0.366272
   2 H :    0.378575
   3 O :   -0.742452
   4 H :    0.317743
   5 H :    0.370479
   6 O :   -0.699048
   7 H :    0.346508
   8 H :    0.364233
   9 O :   -0.741750
  10 H :    0.341977
  11 H :    0.363791
  12 O :   -0.699802
  13 H :    0.373877
  14 H :    0.357321
  15 O :   -0.718901
  16 H :    0.388463
  17 H :    0.351990
  18 O :   -0.692759
  19 H :    0.340553
  20 H :    0.354408
Sum of atomic charges:   -0.0000000

LOEWDIN ATOMIC CHARGES
----------------------
   0 O :   -0.287746
   1 H :    0.168885
   2 H :    0.195122
   3 O :   -0.379005
   4 H :    0.144668
   5 H :    0.141852
   6 O :   -0.312065
   7 H :    0.160995
   8 H :    0.187773
   9 O :   -0.348391
  10 H :    0.137661
  11 H :    0.147779
  12 O :   -0.299011
  13 H :    0.150757
  14 H :    0.177704
  15 O :   -0.290751
  16 H :    0.158151
  17 H :    0.143562
  18 O :   -0.341741
  19 H :    0.159079
  20 H :    0.184722

  Mayer bond orders larger than 0.100000
B(  0-O ,  1-H ) :   0.8310 B(  0-O ,  2-H ) :   0.8131 B(  3-O ,  4-H ) :   0.8644
B(  3-O ,  5-H ) :   0.7673 B(  5-H , 15-O ) :   0.1044 B(  6-O ,  7-H ) :   0.8447
B(  6-O ,  8-H ) :   0.8259 B(  9-O , 10-H ) :   0.7883 B(  9-O , 11-H ) :   0.8204
B( 12-O , 13-H ) :   0.8106 B( 12-O , 14-H ) :   0.8328 B( 15-O , 16-H ) :   0.7917
B( 15-O , 17-H ) :   0.8254 B( 18-O , 19-H ) :   0.8517 B( 18-O , 20-H ) :   0.8359

MP2 TOTAL ENERGY:     -534.241207451 Eh
FINAL SINGLE POINT ENERGY      -534.241207450722

DIPOLE MOMENT
-------------
                                X             Y             Z
Electronic contribution:      0.34775       0.06604      -0.15752
Nuclear contribution   :      0.56521       1.36331      -0.68611
                        -----------------------------------------
Total Dipole Moment    :      0.91295       1.42934      -0.84363
                        -----------------------------------------
Magnitude (a.u.)       :      1.89426
Magnitude (Debye)      :      4.81482

Rotational constants in cm-1:     0.037814     0.018534     0.017635
Rotational constants in MHz :  1133.625264   555.645253   528.683015

                             ****ORCA TERMINATED NORMALLY****
TOTAL RUN TIME: 0 days 0 hours 1 minutes 38 seconds 39 msec
