                         Program Version 4.2.0 -  RELEASE  -
|  1> # 12mecn.remya.etal.2.mol0,4,10
|  2> ! MP2 def2-TZVP EnGrad TightSCF
|  3>
|  4> %pal
|  5>     nprocs 6
|  6> end
|  7>
|  8> %maxcore 8000
|  9>
| 10> %scf
| 11>     ConvForced true
| 12> end
| 13>
| 14> *xyz 0 1
| 15> C  -0.869520000  -3.929380000   1.700199000
| 16> H  -0.057420000  -3.268850000   2.015352000
| 17> H  -0.697530000  -4.930670000   2.101524000
| 18> H  -1.821490000  -3.546590000   2.077146000
| 19> C  -0.916080000  -3.969960000   0.256749000
| 20> N  -0.955390000  -3.995980000  -0.909290000
| 21> C  -1.509690000  -0.693960000  -1.610140000
| 22> H  -1.327010000  -1.692700000  -2.017370000
| 23> H  -0.742170000  -0.000650000  -1.964400000
| 24> H  -2.491920000  -0.334310000  -1.929350000
| 25> C  -1.473570000  -0.748120000  -0.167200000
| 26> N  -1.447490000  -0.793720000   0.998938000
| 27> C   4.602033000   0.321019000  -1.784800000
| 28> H   4.827650000  -0.662160000  -2.207910000
| 29> H   5.320558000   1.057980000  -2.148500000
| 30> H   3.601982000   0.643751000  -2.087520000
| 31> C   4.654967000   0.244048000  -0.343060000
| 32> N   4.691648000   0.166590000   0.820757000
| 33> *
| 34>
| 35>                          ****END OF INPUT****

CARTESIAN COORDINATES (ANGSTROEM)
---------------------------------
  C     -0.869520   -3.929380    1.700199
  H     -0.057420   -3.268850    2.015352
  H     -0.697530   -4.930670    2.101524
  H     -1.821490   -3.546590    2.077146
  C     -0.916080   -3.969960    0.256749
  N     -0.955390   -3.995980   -0.909290
  C     -1.509690   -0.693960   -1.610140
  H     -1.327010   -1.692700   -2.017370
  H     -0.742170   -0.000650   -1.964400
  H     -2.491920   -0.334310   -1.929350
  C     -1.473570   -0.748120   -0.167200
  N     -1.447490   -0.793720    0.998938
  C      4.602033    0.321019   -1.784800
  H      4.827650   -0.662160   -2.207910
  H      5.320558    1.057980   -2.148500
  H      3.601982    0.643751   -2.087520
  C      4.654967    0.244048   -0.343060
  N      4.691648    0.166590    0.820757

 Total Charge           Charge          ....    0
 Multiplicity           Mult            ....    1
 Number of Electrons    NEL             ....   66
 Basis Dimension        Dim             ....  333

ORBITAL ENERGIES
----------------

  NO   OCC          E(Eh)            E(eV)
   0   2.0000     -15.573663      -423.7809
   1   2.0000     -15.570890      -423.7054
   2   2.0000     -15.569382      -423.6644
   3   2.0000     -11.286168      -307.1122
   4   2.0000     -11.281865      -306.9952
   5   2.0000     -11.281767      -306.9925
   6   2.0000     -11.280458      -306.9569
   7   2.0000     -11.274869      -306.8048
   8   2.0000     -11.270783      -306.6936
   9   2.0000      -1.216673       -33.1074
  10   2.0000      -1.214800       -33.0564
  11   2.0000      -1.212389       -32.9908
  12   2.0000      -1.045251       -28.4427
  13   2.0000      -1.037756       -28.2388
  14   2.0000      -1.033099       -28.1121
  15   2.0000      -0.701001       -19.0752
  16   2.0000      -0.694204       -18.8902
  17   2.0000      -0.690096       -18.7785
  18   2.0000      -0.635441       -17.2912
  19   2.0000      -0.631201       -17.1758
  20   2.0000      -0.630280       -17.1508
  21   2.0000      -0.625071       -17.0090
  22   2.0000      -0.619284       -16.8516
  23   2.0000      -0.615821       -16.7573
  24   2.0000      -0.557969       -15.1831
  25   2.0000      -0.556152       -15.1337
  26   2.0000      -0.555186       -15.1074
  27   2.0000      -0.462507       -12.5855
  28   2.0000      -0.458193       -12.4681
  29   2.0000      -0.457824       -12.4580
  30   2.0000      -0.457573       -12.4512
  31   2.0000      -0.455911       -12.4060
  32   2.0000      -0.451364       -12.2822
  33   0.0000       0.104761         2.8507
  34   0.0000       0.130627         3.5545
  35   0.0000       0.142557         3.8792
  36   0.0000       0.165384         4.5003
  37   0.0000       0.170640         4.6434

MULLIKEN ATOMIC CHARGES
-----------------------
   0 C :   -0.259416
   1 H :    0.181428
   2 H :    0.171122
   3 H :    0.177400
   4 C :   -0.119825
   5 N :   -0.149698
   6 C :   -0.285553
   7 H :    0.204737
   8 H :    0.160274
   9 H :    0.167452
  10 C :   -0.113854
  11 N :   -0.134074
  12 C :   -0.277487
  13 H :    0.173989
  14 H :    0.172380
  15 H :    0.167434
  16 C :   -0.145549
  17 N :   -0.090761
Sum of atomic charges:    0.0000000

LOEWDIN ATOMIC CHARGES
----------------------
   0 C :   -0.283302
   1 H :    0.158226
   2 H :    0.149116
   3 H :    0.156986
   4 C :   -0.209832
   5 N :    0.026161
   6 C :   -0.282722
   7 H :    0.156747
   8 H :    0.149748
   9 H :    0.152494
  10 C :   -0.211371
  11 N :    0.037747
  12 C :   -0.283800
  13 H :    0.153383
  14 H :    0.151520
  15 H :    0.151788
  16 C :   -0.220023
  17 N :    0.047134

  Mayer bond orders larger than 0.100000
B(  0-C ,  1-H ) :   0.9113 B(  0-C ,  2-H ) :   0.9103 B(  0-C ,  3-H ) :   0.9120
B(  0-C ,  4-C ) :   0.9123 B(  4-C ,  5-N ) :   2.7818 B(  6-C ,  7-H ) :   0.9031
B(  6-C ,  8-H ) :   0.9179 B(  6-C ,  9-H ) :   0.9159 B(  6-C , 10-C ) :   0.8978
B( 10-C , 11-N ) :   2.7924 B( 12-C , 13-H ) :   0.9157 B( 12-C , 14-H ) :   0.9171
B( 12-C , 15-H ) :   0.9177 B( 12-C , 16-C ) :   0.9017 B( 16-C , 17-N ) :   2.8357

MP2 TOTAL ENERGY:     -397.458809922 Eh
FINAL SINGLE POINT ENERGY      -397.458809922354

DIPOLE MOMENT
-------------
                                X             Y             Z
Electronic contribution:      0.11170      -0.41410       3.15583
Nuclear contribution   :     -0.14665       0.59868      -4.61705
                        -----------------------------------------
Total Dipole Moment    :     -0.03496       0.18458      -1.46122
                        -----------------------------------------
Magnitude (a.u.)       :      1.47325
Magnitude (Debye)      :      3.74470

Rotational constants in cm-1:     0.044953     0.013096     0.012119
Rotational constants in MHz :  1347.663081   392.604833   363.327342

                             ****ORCA TERMINATED NORMALLY****
TOTAL RUN TIME: 0 days 0 hours 5 minutes 11 seconds 619 msec
