                         Program Version 4.2.0 -  RELEASE  -
|  1> # 12meoh.boyd.etal.mol2,8
|  2> ! MP2 def2-TZVP EnGrad TightSCF
|  3>
|  4> %pal
|  5>     nprocs 6
|  6> end
|  7>
|  8> %maxcore 8000
|  9>
| 10> %scf
| 11>     ConvForced true
| 12> end
| 13>
| 14> *xyz 0 1
| 15> O  -3.839777402   2.233595098   0.660436763
| 16> H  -2.958345897   1.907036203   0.973588449
| 17> C  -3.600368059   3.168790682  -0.390480452
| 18> H  -4.551709193   3.344148967  -0.901254863
| 19> H  -2.868237594   2.789240199  -1.113617525
| 20> H  -3.243594915   4.128998607   0.009549480
| 21> O   3.570084754   2.361662577  -0.202416728
| 22> H   3.393280933   1.755669977   0.560634073
| 23> C   4.368082883   1.644741793  -1.143112807
| 24> H   4.552851717   2.311801738  -1.989632421
| 25> H   3.862427494   0.740851663  -1.508095690
| 26> H   5.333949674   1.357289092  -0.706288100
| 27> *
| 28>
| 29>                          ****END OF INPUT****

CARTESIAN COORDINATES (ANGSTROEM)
---------------------------------
  O     -3.839777    2.233595    0.660437
  H     -2.958346    1.907036    0.973588
  C     -3.600368    3.168791   -0.390480
  H     -4.551709    3.344149   -0.901255
  H     -2.868238    2.789240   -1.113618
  H     -3.243595    4.128999    0.009549
  O      3.570085    2.361663   -0.202417
  H      3.393281    1.755670    0.560634
  C      4.368083    1.644742   -1.143113
  H      4.552852    2.311802   -1.989632
  H      3.862427    0.740852   -1.508096
  H      5.333950    1.357289   -0.706288

 Total Charge           Charge          ....    0
 Multiplicity           Mult            ....    1
 Number of Electrons    NEL             ....   36
 Basis Dimension        Dim             ....  172

ORBITAL ENERGIES
----------------

  NO   OCC          E(Eh)            E(eV)
   0   2.0000     -20.560519      -559.4802
   1   2.0000     -20.555318      -559.3386
   2   2.0000     -11.274784      -306.8025
   3   2.0000     -11.269919      -306.6701
   4   2.0000      -1.349996       -36.7353
   5   2.0000      -1.344770       -36.5930
   6   2.0000      -0.922933       -25.1143
   7   2.0000      -0.917812       -24.9749
   8   2.0000      -0.685053       -18.6412
   9   2.0000      -0.679909       -18.5013
  10   2.0000      -0.620151       -16.8752
  11   2.0000      -0.614907       -16.7325
  12   2.0000      -0.592801       -16.1309
  13   2.0000      -0.588238       -16.0068
  14   2.0000      -0.504743       -13.7348
  15   2.0000      -0.499888       -13.6026
  16   2.0000      -0.452998       -12.3267
  17   2.0000      -0.447489       -12.1768
  18   0.0000       0.131578         3.5804
  19   0.0000       0.136891         3.7250
  20   0.0000       0.173406         4.7186
  21   0.0000       0.178196         4.8490
  22   0.0000       0.226447         6.1619

MULLIKEN ATOMIC CHARGES
-----------------------
   0 O :   -0.497009
   1 H :    0.320865
   2 C :   -0.175144
   3 H :    0.128338
   4 H :    0.112119
   5 H :    0.110832
   6 O :   -0.496827
   7 H :    0.320229
   8 C :   -0.174559
   9 H :    0.130376
  10 H :    0.109850
  11 H :    0.110931
Sum of atomic charges:    0.0000000

LOEWDIN ATOMIC CHARGES
----------------------
   0 O :   -0.111348
   1 H :    0.187916
   2 C :   -0.378432
   3 H :    0.109520
   4 H :    0.096205
   5 H :    0.096138
   6 O :   -0.110498
   7 H :    0.187334
   8 C :   -0.378732
   9 H :    0.110697
  10 H :    0.095304
  11 H :    0.095895

  Mayer bond orders larger than 0.100000
B(  0-O ,  1-H ) :   0.8442 B(  0-O ,  2-C ) :   0.9257 B(  2-C ,  3-H ) :   0.9380
B(  2-C ,  4-H ) :   0.9412 B(  2-C ,  5-H ) :   0.9378 B(  6-O ,  7-H ) :   0.8442
B(  6-O ,  8-C ) :   0.9240 B(  8-C ,  9-H ) :   0.9378 B(  8-C , 10-H ) :   0.9381
B(  8-C , 11-H ) :   0.9395

MP2 TOTAL ENERGY:     -231.013593575 Eh
FINAL SINGLE POINT ENERGY      -231.013593574955

DIPOLE MOMENT
-------------
                                X             Y             Z
Electronic contribution:     -1.43450      -0.14286       2.35746
Nuclear contribution   :      2.30484      -0.34596      -2.52100
                        -----------------------------------------
Total Dipole Moment    :      0.87033      -0.48882      -0.16355
                        -----------------------------------------
Magnitude (a.u.)       :      1.01152
Magnitude (Debye)      :      2.57108

Rotational constants in cm-1:     0.498037     0.017194     0.017014
Rotational constants in MHz : 14930.781335   515.466847   510.072984

                             ****ORCA TERMINATED NORMALLY****
TOTAL RUN TIME: 0 days 0 hours 0 minutes 16 seconds 559 msec
