                         Program Version 4.2.0 -  RELEASE  -
|  1> # 12h2o.su.etal.mol0,3,6,8,11
|  2> ! MP2 def2-TZVP EnGrad TightSCF
|  3>
|  4> %pal
|  5>     nprocs 6
|  6> end
|  7>
|  8> %maxcore 8000
|  9>
| 10> %scf
| 11>     ConvForced true
| 12> end
| 13>
| 14> *xyz 0 1
| 15> O   1.794470000   0.923410000   2.768350000
| 16> H   2.338250000   1.359750000   3.430940000
| 17> H   0.879480000   1.303000000   2.865760000
| 18> O  -1.752130000  -0.741530000  -2.896280000
| 19> H  -2.036450000  -0.920500000  -1.984040000
| 20> H  -0.921210000  -1.242140000  -2.984230000
| 21> O   1.737840000   0.885520000  -0.052730000
| 22> H   2.090180000   1.032320000   0.841890000
| 23> H   0.839590000   1.284090000  -0.017130000
| 24> O   1.752130000   0.741530000  -2.896280000
| 25> H   2.036450000   0.920500000  -1.984040000
| 26> H   0.921210000   1.242140000  -2.984230000
| 27> O  -0.741530000   1.752130000   2.896280000
| 28> H  -0.920500000   2.036450000   1.984040000
| 29> H  -1.242140000   0.921210000   2.984230000
| 30> *
| 31>
| 32>                          ****END OF INPUT****

CARTESIAN COORDINATES (ANGSTROEM)
---------------------------------
  O      1.794470    0.923410    2.768350
  H      2.338250    1.359750    3.430940
  H      0.879480    1.303000    2.865760
  O     -1.752130   -0.741530   -2.896280
  H     -2.036450   -0.920500   -1.984040
  H     -0.921210   -1.242140   -2.984230
  O      1.737840    0.885520   -0.052730
  H      2.090180    1.032320    0.841890
  H      0.839590    1.284090   -0.017130
  O      1.752130    0.741530   -2.896280
  H      2.036450    0.920500   -1.984040
  H      0.921210    1.242140   -2.984230
  O     -0.741530    1.752130    2.896280
  H     -0.920500    2.036450    1.984040
  H     -1.242140    0.921210    2.984230

 Total Charge           Charge          ....    0
 Multiplicity           Mult            ....    1
 Number of Electrons    NEL             ....   50
 Basis Dimension        Dim             ....  215

ORBITAL ENERGIES
----------------

  NO   OCC          E(Eh)            E(eV)
   0   2.0000     -20.625402      -561.2457
   1   2.0000     -20.561964      -559.5195
   2   2.0000     -20.561064      -559.4950
   3   2.0000     -20.559262      -559.4460
   4   2.0000     -20.524968      -558.5128
   5   2.0000      -1.410781       -38.3893
   6   2.0000      -1.348750       -36.7013
   7   2.0000      -1.341122       -36.4938
   8   2.0000      -1.337410       -36.3928
   9   2.0000      -1.306488       -35.5514
  10   2.0000      -0.767894       -20.8955
  11   2.0000      -0.730622       -19.8812
  12   2.0000      -0.710755       -19.3406
  13   2.0000      -0.703794       -19.1512
  14   2.0000      -0.674212       -18.3462
  15   2.0000      -0.648058       -17.6346
  16   2.0000      -0.601473       -16.3669
  17   2.0000      -0.583733       -15.8842
  18   2.0000      -0.579031       -15.7562
  19   2.0000      -0.550069       -14.9681
  20   2.0000      -0.541572       -14.7369
  21   2.0000      -0.508711       -13.8427
  22   2.0000      -0.506419       -13.7804
  23   2.0000      -0.504782       -13.7358
  24   2.0000      -0.471117       -12.8198
  25   0.0000       0.070976         1.9313
  26   0.0000       0.121206         3.2982
  27   0.0000       0.146014         3.9732
  28   0.0000       0.148633         4.0445
  29   0.0000       0.176883         4.8132

MULLIKEN ATOMIC CHARGES
-----------------------
   0 O :   -0.734000
   1 H :    0.341434
   2 H :    0.367542
   3 O :   -0.682396
   4 H :    0.328475
   5 H :    0.352721
   6 O :   -0.700056
   7 H :    0.381208
   8 H :    0.304152
   9 O :   -0.701844
  10 H :    0.373265
  11 H :    0.320872
  12 O :   -0.672068
  13 H :    0.352992
  14 H :    0.367703
Sum of atomic charges:   -0.0000000

LOEWDIN ATOMIC CHARGES
----------------------
   0 O :   -0.338108
   1 H :    0.156186
   2 H :    0.142647
   3 O :   -0.333398
   4 H :    0.161328
   5 H :    0.171372
   6 O :   -0.324161
   7 H :    0.155195
   8 H :    0.155257
   9 O :   -0.342097
  10 H :    0.152776
  11 H :    0.155998
  12 O :   -0.265029
  13 H :    0.171104
  14 H :    0.180930

  Mayer bond orders larger than 0.100000
B(  0-O ,  1-H ) :   0.8483 B(  0-O ,  2-H ) :   0.7733 B(  3-O ,  4-H ) :   0.8580
B(  3-O ,  5-H ) :   0.8397 B(  6-O ,  7-H ) :   0.7957 B(  6-O ,  8-H ) :   0.8624
B(  9-O , 10-H ) :   0.8153 B(  9-O , 11-H ) :   0.8593 B( 12-O , 13-H ) :   0.8396
B( 12-O , 14-H ) :   0.8308

MP2 TOTAL ENERGY:     -381.588322601 Eh
FINAL SINGLE POINT ENERGY      -381.588322601391

DIPOLE MOMENT
-------------
                                X             Y             Z
Electronic contribution:      0.00897      -0.08403       0.11357
Nuclear contribution   :     -1.32903       0.67812       2.09298
                        -----------------------------------------
Total Dipole Moment    :     -1.32006       0.59409       2.20655
                        -----------------------------------------
Magnitude (a.u.)       :      2.63901
Magnitude (Debye)      :      6.70783

Rotational constants in cm-1:     0.075362     0.025957     0.020308
Rotational constants in MHz :  2259.289970   778.177331   608.809773

                             ****ORCA TERMINATED NORMALLY****
TOTAL RUN TIME: 0 days 0 hours 0 minutes 30 seconds 268 msec
