                         Program Version 4.2.0 -  RELEASE  -
|  1> # 12h2o.su.etal.mol1,4,5,6,10,11
|  2> ! MP2 def2-TZVP EnGrad TightSCF
|  3>
|  4> %pal
|  5>     nprocs 6
|  6> end
|  7>
|  8> %maxcore 8000
|  9>
| 10> %scf
| 11>     ConvForced true
| 12> end
| 13>
| 14> *xyz 0 1
| 15> O  -1.794470000  -0.923410000   2.768350000
| 16> H  -2.338250000  -1.359750000   3.430940000
| 17> H  -0.879480000  -1.303000000   2.865760000
| 18> O  -0.885520000   1.737840000   0.052730000
| 19> H  -1.032320000   2.090180000  -0.841890000
| 20> H  -1.284090000   0.839590000   0.017130000
| 21> O   0.885520000  -1.737840000   0.052730000
| 22> H   1.284090000  -0.839590000   0.017130000
| 23> H   1.032320000  -2.090180000  -0.841890000
| 24> O   1.737840000   0.885520000  -0.052730000
| 25> H   2.090180000   1.032320000   0.841890000
| 26> H   0.839590000   1.284090000  -0.017130000
| 27> O  -0.923410000   1.794470000  -2.768350000
| 28> H  -1.359750000   2.338250000  -3.430940000
| 29> H  -1.303000000   0.879480000  -2.865760000
| 30> O  -0.741530000   1.752130000   2.896280000
| 31> H  -0.920500000   2.036450000   1.984040000
| 32> H  -1.242140000   0.921210000   2.984230000
| 33> *
| 34>
| 35>                          ****END OF INPUT****

CARTESIAN COORDINATES (ANGSTROEM)
---------------------------------
  O     -1.794470   -0.923410    2.768350
  H     -2.338250   -1.359750    3.430940
  H     -0.879480   -1.303000    2.865760
  O     -0.885520    1.737840    0.052730
  H     -1.032320    2.090180   -0.841890
  H     -1.284090    0.839590    0.017130
  O      0.885520   -1.737840    0.052730
  H      1.284090   -0.839590    0.017130
  H      1.032320   -2.090180   -0.841890
  O      1.737840    0.885520   -0.052730
  H      2.090180    1.032320    0.841890
  H      0.839590    1.284090   -0.017130
  O     -0.923410    1.794470   -2.768350
  H     -1.359750    2.338250   -3.430940
  H     -1.303000    0.879480   -2.865760
  O     -0.741530    1.752130    2.896280
  H     -0.920500    2.036450    1.984040
  H     -1.242140    0.921210    2.984230

 Total Charge           Charge          ....    0
 Multiplicity           Mult            ....    1
 Number of Electrons    NEL             ....   60
 Basis Dimension        Dim             ....  258

ORBITAL ENERGIES
----------------

  NO   OCC          E(Eh)            E(eV)
   0   2.0000     -20.604991      -560.6903
   1   2.0000     -20.582489      -560.0780
   2   2.0000     -20.578904      -559.9804
   3   2.0000     -20.547119      -559.1155
   4   2.0000     -20.526450      -558.5531
   5   2.0000     -20.506705      -558.0158
   6   2.0000      -1.384254       -37.6675
   7   2.0000      -1.367655       -37.2158
   8   2.0000      -1.356583       -36.9145
   9   2.0000      -1.333274       -36.2802
  10   2.0000      -1.306021       -35.5386
  11   2.0000      -1.292005       -35.1573
  12   2.0000      -0.750214       -20.4144
  13   2.0000      -0.730924       -19.8895
  14   2.0000      -0.723575       -19.6895
  15   2.0000      -0.701685       -19.0938
  16   2.0000      -0.680401       -18.5147
  17   2.0000      -0.670348       -18.2411
  18   2.0000      -0.628967       -17.1151
  19   2.0000      -0.607354       -16.5269
  20   2.0000      -0.593988       -16.1632
  21   2.0000      -0.581646       -15.8274
  22   2.0000      -0.554118       -15.0783
  23   2.0000      -0.548592       -14.9280
  24   2.0000      -0.534838       -14.5537
  25   2.0000      -0.519516       -14.1368
  26   2.0000      -0.509458       -13.8630
  27   2.0000      -0.489017       -13.3068
  28   2.0000      -0.474799       -12.9199
  29   2.0000      -0.456645       -12.4259
  30   0.0000       0.089485         2.4350
  31   0.0000       0.120052         3.2668
  32   0.0000       0.148454         4.0396
  33   0.0000       0.167128         4.5478
  34   0.0000       0.178118         4.8468

MULLIKEN ATOMIC CHARGES
-----------------------
   0 O :   -0.701510
   1 H :    0.349691
   2 H :    0.371149
   3 O :   -0.728494
   4 H :    0.386276
   5 H :    0.358529
   6 O :   -0.726079
   7 H :    0.355935
   8 H :    0.324339
   9 O :   -0.717035
  10 H :    0.351245
  11 H :    0.376773
  12 O :   -0.694189
  13 H :    0.357510
  14 H :    0.355739
  15 O :   -0.727915
  16 H :    0.363244
  17 H :    0.344792
Sum of atomic charges:   -0.0000000

LOEWDIN ATOMIC CHARGES
----------------------
   0 O :   -0.313376
   1 H :    0.162236
   2 H :    0.191949
   3 O :   -0.281934
   4 H :    0.156384
   5 H :    0.176767
   6 O :   -0.368935
   7 H :    0.140796
   8 H :    0.156428
   9 O :   -0.310287
  10 H :    0.167599
  11 H :    0.145988
  12 O :   -0.308354
  13 H :    0.166210
  14 H :    0.186484
  15 O :   -0.355923
  16 H :    0.146245
  17 H :    0.141723

  Mayer bond orders larger than 0.100000
B(  0-O ,  1-H ) :   0.8433 B(  0-O ,  2-H ) :   0.8215 B(  3-O ,  4-H ) :   0.7933
B(  3-O ,  5-H ) :   0.8262 B(  6-O ,  7-H ) :   0.7818 B(  6-O ,  8-H ) :   0.8603
B(  7-H ,  9-O ) :   0.1048 B(  9-O , 10-H ) :   0.8402 B(  9-O , 11-H ) :   0.7793
B( 12-O , 13-H ) :   0.8390 B( 12-O , 14-H ) :   0.8337 B( 15-O , 16-H ) :   0.8295
B( 15-O , 17-H ) :   0.8264

MP2 TOTAL ENERGY:     -457.921803539 Eh
FINAL SINGLE POINT ENERGY      -457.921803539403

DIPOLE MOMENT
-------------
                                X             Y             Z
Electronic contribution:     -0.00026       0.37779      -0.11625
Nuclear contribution   :     -1.39022      -0.98915      -1.46039
                        -----------------------------------------
Total Dipole Moment    :     -1.39048      -0.61136      -1.57664
                        -----------------------------------------
Magnitude (a.u.)       :      2.18929
Magnitude (Debye)      :      5.56472

Rotational constants in cm-1:     0.049875     0.029962     0.025063
Rotational constants in MHz :  1495.215430   898.225331   751.363593

                             ****ORCA TERMINATED NORMALLY****
TOTAL RUN TIME: 0 days 0 hours 0 minutes 56 seconds 218 msec
