                         Program Version 4.2.0 -  RELEASE  -
|  1> ! MP2 def2-TZVP EnGrad TightSCF FrozenCore
|  2>
|  3> %pal
|  4>     nprocs 12
|  5> end
|  6>
|  7> %maxcore 8000
|  8>
|  9> %scf
| 10>     ConvForced true
| 11> end
| 12>
| 13> *xyz 0 1
| 14> O    -1.6584812041     1.7575680864     0.1689220698
| 15> H    -0.7084045044     1.8245281304     0.4194642965
| 16> C    -1.7742294992     2.0880842219    -1.2164991715
| 17> H    -2.771033412      1.780852075     -1.5444118882
| 18> H    -1.0191823752     1.5733054488    -1.8223552966
| 19> H    -1.6800760816     3.1723091962    -1.3705121208
| 20> O    -2.0421164864    -0.7820854727     1.0345398462
| 21> H    -1.9972007864     0.1265531843     0.6374540728
| 22> C    -3.2133533382    -0.8649193769     1.8372862043
| 23> H    -3.2249469362    -1.8534161729     2.3046090953
| 24> H    -4.12253723      -0.7585838994     1.2299771143
| 25> H    -3.2295775451    -0.1021665592     2.6285885543
| 26> O     1.0241374121     1.4201984336     0.7790474416
| 27> H     0.8805279759     0.5657500772     1.2980286317
| 28> C     1.8554149693     2.2914522839     1.544658135
| 29> H     1.9454582408     3.2343517333     0.9987797074
| 30> H     2.8580590821     1.8668316998     1.6833194296
| 31> H     1.4171571775     2.4932862456     2.529786794
| 32> O     0.8782974976    -2.248273799     -1.6967544052
| 33> H     1.01609248      -1.2780689847    -1.7462603589
| 34> C    -0.495768949     -2.4933171586    -1.9424604268
| 35> H    -0.6431984467    -3.5784364978    -1.9258869758
| 36> H    -0.8161125948    -2.1256080275    -2.9309917478
| 37> H    -1.150623236     -2.0485998959    -1.1774232019
| 38> O     0.4516628799    -0.7826100705     2.0952957496
| 39> H    -0.4892705588    -0.8909561467     1.7966259221
| 40> C     1.178459335     -1.9625738038     1.7252587684
| 41> H     2.218263143     -1.809653283      2.0291395366
| 42> H     1.1381528903    -2.1518908506     0.6453208487
| 43> H     0.7894799913    -2.8362936735     2.2640696844
| 44> O     1.2934172654     0.5330709887    -1.8342507242
| 45> H     1.3147852439     0.88889637      -0.9168035425
| 46> C     2.4938023141     0.900128795     -2.5004664562
| 47> H     2.4594327268     0.4605044039    -3.5005853512
| 48> H     3.3886584769     0.5193118727    -1.9872194348
| 49> H     2.5848083702     1.9911184526    -2.6037759107
| 50> *
| 51>
| 52>                          ****END OF INPUT****

CARTESIAN COORDINATES (ANGSTROEM)
---------------------------------
  O     -1.658481    1.757568    0.168922
  H     -0.708405    1.824528    0.419464
  C     -1.774229    2.088084   -1.216499
  H     -2.771033    1.780852   -1.544412
  H     -1.019182    1.573305   -1.822355
  H     -1.680076    3.172309   -1.370512
  O     -2.042116   -0.782085    1.034540
  H     -1.997201    0.126553    0.637454
  C     -3.213353   -0.864919    1.837286
  H     -3.224947   -1.853416    2.304609
  H     -4.122537   -0.758584    1.229977
  H     -3.229578   -0.102167    2.628589
  O      1.024137    1.420198    0.779047
  H      0.880528    0.565750    1.298029
  C      1.855415    2.291452    1.544658
  H      1.945458    3.234352    0.998780
  H      2.858059    1.866832    1.683319
  H      1.417157    2.493286    2.529787
  O      0.878297   -2.248274   -1.696754
  H      1.016092   -1.278069   -1.746260
  C     -0.495769   -2.493317   -1.942460
  H     -0.643198   -3.578436   -1.925887
  H     -0.816113   -2.125608   -2.930992
  H     -1.150623   -2.048600   -1.177423
  O      0.451663   -0.782610    2.095296
  H     -0.489271   -0.890956    1.796626
  C      1.178459   -1.962574    1.725259
  H      2.218263   -1.809653    2.029140
  H      1.138153   -2.151891    0.645321
  H      0.789480   -2.836294    2.264070
  O      1.293417    0.533071   -1.834251
  H      1.314785    0.888896   -0.916804
  C      2.493802    0.900129   -2.500466
  H      2.459433    0.460504   -3.500585
  H      3.388658    0.519312   -1.987219
  H      2.584808    1.991118   -2.603776

 Total Charge           Charge          ....    0
 Multiplicity           Mult            ....    1
 Number of Electrons    NEL             ....  108
 Basis Dimension        Dim             ....  516

ORBITAL ENERGIES
----------------

  NO   OCC          E(Eh)            E(eV)
   0   2.0000     -20.568728      -559.7035
   1   2.0000     -20.557000      -559.3844
   2   2.0000     -20.553761      -559.2963
   3   2.0000     -20.552723      -559.2680
   4   2.0000     -20.551857      -559.2445
   5   2.0000     -20.518245      -558.3298
   6   2.0000     -11.284638      -307.0706
   7   2.0000     -11.272991      -306.7537
   8   2.0000     -11.270587      -306.6883
   9   2.0000     -11.267992      -306.6176
  10   2.0000     -11.259553      -306.3880
  11   2.0000     -11.244148      -305.9688
  12   2.0000      -1.377152       -37.4742
  13   2.0000      -1.360550       -37.0224
  14   2.0000      -1.354151       -36.8483
  15   2.0000      -1.351591       -36.7787
  16   2.0000      -1.337891       -36.4059
  17   2.0000      -1.318756       -35.8852
  18   2.0000      -0.939043       -25.5527
  19   2.0000      -0.926138       -25.2015
  20   2.0000      -0.922461       -25.1014
  21   2.0000      -0.918887       -25.0042
  22   2.0000      -0.911926       -24.8148
  23   2.0000      -0.892547       -24.2874
  24   2.0000      -0.723537       -19.6884
  25   2.0000      -0.704071       -19.1587
  26   2.0000      -0.697353       -18.9759
  27   2.0000      -0.691824       -18.8255
  28   2.0000      -0.685401       -18.6507
  29   2.0000      -0.665243       -18.1022
  30   2.0000      -0.629751       -17.1364
  31   2.0000      -0.621360       -16.9081
  32   2.0000      -0.617699       -16.8085
  33   2.0000      -0.614809       -16.7298
  34   2.0000      -0.613526       -16.6949
  35   2.0000      -0.605266       -16.4701
  36   2.0000      -0.595461       -16.2033
  37   2.0000      -0.591127       -16.0854
  38   2.0000      -0.590917       -16.0797
  39   2.0000      -0.586340       -15.9551
  40   2.0000      -0.585146       -15.9226
  41   2.0000      -0.562189       -15.2979
  42   2.0000      -0.531518       -14.4633
  43   2.0000      -0.515752       -14.0343
  44   2.0000      -0.505049       -13.7431
  45   2.0000      -0.503783       -13.7086
  46   2.0000      -0.486601       -13.2411
  47   2.0000      -0.475517       -12.9395
  48   2.0000      -0.461015       -12.5449
  49   2.0000      -0.451989       -12.2992
  50   2.0000      -0.448638       -12.2080
  51   2.0000      -0.447823       -12.1859
  52   2.0000      -0.442084       -12.0297
  53   2.0000      -0.414349       -11.2750
  54   0.0000       0.118759         3.2316
  55   0.0000       0.143605         3.9077
  56   0.0000       0.155813         4.2399
  57   0.0000       0.161954         4.4070
  58   0.0000       0.169616         4.6155

MULLIKEN ATOMIC CHARGES
-----------------------
   0 O :   -0.548899
   1 H :    0.356017
   2 C :   -0.194614
   3 H :    0.126079
   4 H :    0.150940
   5 H :    0.117400
   6 O :   -0.560921
   7 H :    0.366336
   8 C :   -0.168601
   9 H :    0.128876
  10 H :    0.119769
  11 H :    0.121428
  12 O :   -0.621067
  13 H :    0.386367
  14 C :   -0.169023
  15 H :    0.132754
  16 H :    0.127789
  17 H :    0.136418
  18 O :   -0.532261
  19 H :    0.349481
  20 C :   -0.177990
  21 H :    0.116399
  22 H :    0.103056
  23 H :    0.120584
  24 O :   -0.558112
  25 H :    0.367720
  26 C :   -0.197948
  27 H :    0.120382
  28 H :    0.158178
  29 H :    0.118527
  30 O :   -0.554122
  31 H :    0.362814
  32 C :   -0.175697
  33 H :    0.136710
  34 H :    0.119431
  35 H :    0.115796
Sum of atomic charges:   -0.0000000

LOEWDIN ATOMIC CHARGES
----------------------
   0 O :   -0.088951
   1 H :    0.163719
   2 C :   -0.380253
   3 H :    0.108186
   4 H :    0.103388
   5 H :    0.101447
   6 O :   -0.086622
   7 H :    0.165037
   8 C :   -0.383292
   9 H :    0.109071
  10 H :    0.102824
  11 H :    0.101178
  12 O :   -0.097113
  13 H :    0.165183
  14 C :   -0.378505
  15 H :    0.109801
  16 H :    0.104890
  17 H :    0.107788
  18 O :   -0.104159
  19 H :    0.160950
  20 C :   -0.402877
  21 H :    0.105144
  22 H :    0.094926
  23 H :    0.095121
  24 O :   -0.087454
  25 H :    0.165729
  26 C :   -0.376693
  27 H :    0.106565
  28 H :    0.107795
  29 H :    0.103601
  30 O :   -0.086608
  31 H :    0.162589
  32 C :   -0.385287
  33 H :    0.112177
  34 H :    0.100517
  35 H :    0.100188

  Mayer bond orders larger than 0.100000
B(  0-O ,  1-H ) :   0.7752 B(  0-O ,  2-C ) :   0.8704 B(  0-O ,  7-H ) :   0.1201
B(  2-C ,  3-H ) :   0.9417 B(  2-C ,  4-H ) :   0.9269 B(  2-C ,  5-H ) :   0.9397
B(  6-O ,  7-H ) :   0.7405 B(  6-O ,  8-C ) :   0.8840 B(  6-O , 25-H ) :   0.1183
B(  8-C ,  9-H ) :   0.9426 B(  8-C , 10-H ) :   0.9387 B(  8-C , 11-H ) :   0.9368
B( 12-O , 13-H ) :   0.6813 B( 12-O , 14-C ) :   0.8534 B( 13-H , 24-O ) :   0.1647
B( 14-C , 15-H ) :   0.9422 B( 14-C , 16-H ) :   0.9379 B( 14-C , 17-H ) :   0.9394
B( 18-O , 19-H ) :   0.7913 B( 18-O , 20-C ) :   0.9130 B( 20-C , 21-H ) :   0.9435
B( 20-C , 22-H ) :   0.9384 B( 20-C , 23-H ) :   0.9306 B( 24-O , 25-H ) :   0.7476
B( 24-O , 26-C ) :   0.8536 B( 26-C , 27-H ) :   0.9442 B( 26-C , 28-H ) :   0.9157
B( 26-C , 29-H ) :   0.9414 B( 30-O , 31-H ) :   0.7622 B( 30-O , 32-C ) :   0.8830
B( 32-C , 33-H ) :   0.9428 B( 32-C , 34-H ) :   0.9382 B( 32-C , 35-H ) :   0.9363

MP2 TOTAL ENERGY:     -693.125410293 Eh
FINAL SINGLE POINT ENERGY      -693.125410293095

DIPOLE MOMENT
-------------
                                X             Y             Z
Electronic contribution:     -0.05798      -0.05397       1.44010
Nuclear contribution   :      0.16656       1.12078      -1.11036
                        -----------------------------------------
Total Dipole Moment    :      0.10858       1.06681       0.32974
                        -----------------------------------------
Magnitude (a.u.)       :      1.12187
Magnitude (Debye)      :      2.85157

Rotational constants in cm-1:     0.018018     0.015356     0.013677
Rotational constants in MHz :   540.160700   460.357503   410.035032

                             ****ORCA TERMINATED NORMALLY****
TOTAL RUN TIME: 0 days 0 hours 12 minutes 53 seconds 652 msec
