                         Program Version 4.2.0 -  RELEASE  -
|  1> # 12mecn.remya.etal.2.mol5,6,9
|  2> ! MP2 def2-TZVP EnGrad TightSCF
|  3>
|  4> %pal
|  5>     nprocs 6
|  6> end
|  7>
|  8> %maxcore 8000
|  9>
| 10> %scf
| 11>     ConvForced true
| 12> end
| 13>
| 14> *xyz 0 1
| 15> C  -1.955700000   2.515080000   1.698463000
| 16> H  -2.923830000   2.883163000   2.049269000
| 17> H  -1.154850000   3.171830000   2.050990000
| 18> H  -1.790380000   1.506115000   2.087896000
| 19> C  -1.948230000   2.482156000   0.253672000
| 20> N  -1.937550000   2.462523000  -0.913150000
| 21> C   5.300864000  -2.920090000   1.401103000
| 22> H   5.986071000  -2.139770000   1.737487000
| 23> H   5.636642000  -3.888750000   1.778233000
| 24> H   4.307359000  -2.697240000   1.799307000
| 25> C   5.234791000  -2.933140000  -0.043290000
| 26> N   5.170868000  -2.941760000  -1.207750000
| 27> C   0.923766000   4.000693000  -1.575910000
| 28> H   0.011949000   4.478423000  -1.939550000
| 29> H   0.947903000   2.966558000  -1.929960000
| 30> H   1.805950000   4.519548000  -1.956520000
| 31> C   0.942834000   3.994846000  -0.131200000
| 32> N   0.960035000   3.982544000   1.035639000
| 33> *
| 34>
| 35>                          ****END OF INPUT****

CARTESIAN COORDINATES (ANGSTROEM)
---------------------------------
  C     -1.955700    2.515080    1.698463
  H     -2.923830    2.883163    2.049269
  H     -1.154850    3.171830    2.050990
  H     -1.790380    1.506115    2.087896
  C     -1.948230    2.482156    0.253672
  N     -1.937550    2.462523   -0.913150
  C      5.300864   -2.920090    1.401103
  H      5.986071   -2.139770    1.737487
  H      5.636642   -3.888750    1.778233
  H      4.307359   -2.697240    1.799307
  C      5.234791   -2.933140   -0.043290
  N      5.170868   -2.941760   -1.207750
  C      0.923766    4.000693   -1.575910
  H      0.011949    4.478423   -1.939550
  H      0.947903    2.966558   -1.929960
  H      1.805950    4.519548   -1.956520
  C      0.942834    3.994846   -0.131200
  N      0.960035    3.982544    1.035639

 Total Charge           Charge          ....    0
 Multiplicity           Mult            ....    1
 Number of Electrons    NEL             ....   66
 Basis Dimension        Dim             ....  333

ORBITAL ENERGIES
----------------

  NO   OCC          E(Eh)            E(eV)
   0   2.0000     -15.573301      -423.7711
   1   2.0000     -15.571831      -423.7311
   2   2.0000     -15.570695      -423.7002
   3   2.0000     -11.284761      -307.0740
   4   2.0000     -11.284185      -307.0583
   5   2.0000     -11.281745      -306.9919
   6   2.0000     -11.280333      -306.9535
   7   2.0000     -11.273112      -306.7570
   8   2.0000     -11.272118      -306.7299
   9   2.0000      -1.218150       -33.1475
  10   2.0000      -1.214958       -33.0607
  11   2.0000      -1.213535       -33.0220
  12   2.0000      -1.043867       -28.4051
  13   2.0000      -1.036916       -28.2159
  14   2.0000      -1.034078       -28.1387
  15   2.0000      -0.701247       -19.0819
  16   2.0000      -0.695090       -18.9144
  17   2.0000      -0.690698       -18.7949
  18   2.0000      -0.632811       -17.2197
  19   2.0000      -0.631201       -17.1759
  20   2.0000      -0.630055       -17.1447
  21   2.0000      -0.623078       -16.9548
  22   2.0000      -0.619734       -16.8638
  23   2.0000      -0.616349       -16.7717
  24   2.0000      -0.559328       -15.2201
  25   2.0000      -0.556225       -15.1357
  26   2.0000      -0.555963       -15.1285
  27   2.0000      -0.462343       -12.5810
  28   2.0000      -0.458859       -12.4862
  29   2.0000      -0.458330       -12.4718
  30   2.0000      -0.457724       -12.4553
  31   2.0000      -0.457101       -12.4384
  32   2.0000      -0.453621       -12.3437
  33   0.0000       0.119221         3.2442
  34   0.0000       0.125482         3.4145
  35   0.0000       0.144908         3.9431
  36   0.0000       0.171070         4.6551
  37   0.0000       0.171235         4.6595

MULLIKEN ATOMIC CHARGES
-----------------------
   0 C :   -0.284988
   1 H :    0.166777
   2 H :    0.203796
   3 H :    0.165322
   4 C :   -0.119704
   5 N :   -0.133650
   6 C :   -0.280232
   7 H :    0.172630
   8 H :    0.172257
   9 H :    0.172164
  10 C :   -0.145765
  11 N :   -0.091053
  12 C :   -0.260438
  13 H :    0.179859
  14 H :    0.178381
  15 H :    0.172131
  16 C :   -0.115460
  17 N :   -0.152025
Sum of atomic charges:    0.0000000

LOEWDIN ATOMIC CHARGES
----------------------
   0 C :   -0.283387
   1 H :    0.150781
   2 H :    0.156668
   3 H :    0.152409
   4 C :   -0.211998
   5 N :    0.034449
   6 C :   -0.283717
   7 H :    0.151766
   8 H :    0.151358
   9 H :    0.153160
  10 C :   -0.218791
  11 N :    0.046225
  12 C :   -0.282340
  13 H :    0.155968
  14 H :    0.158365
  15 H :    0.149951
  16 C :   -0.208473
  17 N :    0.027607

  Mayer bond orders larger than 0.100000
B(  0-C ,  1-H ) :   0.9167 B(  0-C ,  2-H ) :   0.9021 B(  0-C ,  3-H ) :   0.9153
B(  0-C ,  4-C ) :   0.8994 B(  4-C ,  5-N ) :   2.7983 B(  6-C ,  7-H ) :   0.9167
B(  6-C ,  8-H ) :   0.9162 B(  6-C ,  9-H ) :   0.9167 B(  6-C , 10-C ) :   0.9028
B( 10-C , 11-N ) :   2.8373 B( 12-C , 13-H ) :   0.9112 B( 12-C , 14-H ) :   0.9130
B( 12-C , 15-H ) :   0.9104 B( 12-C , 16-C ) :   0.9118 B( 16-C , 17-N ) :   2.7722

MP2 TOTAL ENERGY:     -397.459214777 Eh
FINAL SINGLE POINT ENERGY      -397.459214777179

DIPOLE MOMENT
-------------
                                X             Y             Z
Electronic contribution:     -0.05633      -0.08223      -3.15121
Nuclear contribution   :      0.12232       0.14228       4.64886
                        -----------------------------------------
Total Dipole Moment    :      0.06599       0.06005       1.49766
                        -----------------------------------------
Magnitude (a.u.)       :      1.50031
Magnitude (Debye)      :      3.81349

Rotational constants in cm-1:     0.044999     0.007999     0.007665
Rotational constants in MHz :  1349.035019   239.812664   229.786157

                             ****ORCA TERMINATED NORMALLY****
TOTAL RUN TIME: 0 days 0 hours 2 minutes 59 seconds 888 msec
