                         Program Version 4.2.0 -  RELEASE  -
|  1> # 12h2o.su.etal.mol0,1,3,5,7,10
|  2> ! MP2 def2-TZVP EnGrad TightSCF
|  3>
|  4> %pal
|  5>     nprocs 6
|  6> end
|  7>
|  8> %maxcore 8000
|  9>
| 10> %scf
| 11>     ConvForced true
| 12> end
| 13>
| 14> *xyz 0 1
| 15> O   1.794470000   0.923410000   2.768350000
| 16> H   2.338250000   1.359750000   3.430940000
| 17> H   0.879480000   1.303000000   2.865760000
| 18> O  -1.794470000  -0.923410000   2.768350000
| 19> H  -2.338250000  -1.359750000   3.430940000
| 20> H  -0.879480000  -1.303000000   2.865760000
| 21> O  -1.752130000  -0.741530000  -2.896280000
| 22> H  -2.036450000  -0.920500000  -1.984040000
| 23> H  -0.921210000  -1.242140000  -2.984230000
| 24> O   0.885520000  -1.737840000   0.052730000
| 25> H   1.284090000  -0.839590000   0.017130000
| 26> H   1.032320000  -2.090180000  -0.841890000
| 27> O  -1.737840000  -0.885520000  -0.052730000
| 28> H  -2.090180000  -1.032320000   0.841890000
| 29> H  -0.839590000  -1.284090000  -0.017130000
| 30> O  -0.923410000   1.794470000  -2.768350000
| 31> H  -1.359750000   2.338250000  -3.430940000
| 32> H  -1.303000000   0.879480000  -2.865760000
| 33> *
| 34>
| 35>                          ****END OF INPUT****

CARTESIAN COORDINATES (ANGSTROEM)
---------------------------------
  O      1.794470    0.923410    2.768350
  H      2.338250    1.359750    3.430940
  H      0.879480    1.303000    2.865760
  O     -1.794470   -0.923410    2.768350
  H     -2.338250   -1.359750    3.430940
  H     -0.879480   -1.303000    2.865760
  O     -1.752130   -0.741530   -2.896280
  H     -2.036450   -0.920500   -1.984040
  H     -0.921210   -1.242140   -2.984230
  O      0.885520   -1.737840    0.052730
  H      1.284090   -0.839590    0.017130
  H      1.032320   -2.090180   -0.841890
  O     -1.737840   -0.885520   -0.052730
  H     -2.090180   -1.032320    0.841890
  H     -0.839590   -1.284090   -0.017130
  O     -0.923410    1.794470   -2.768350
  H     -1.359750    2.338250   -3.430940
  H     -1.303000    0.879480   -2.865760

 Total Charge           Charge          ....    0
 Multiplicity           Mult            ....    1
 Number of Electrons    NEL             ....   60
 Basis Dimension        Dim             ....  258

ORBITAL ENERGIES
----------------

  NO   OCC          E(Eh)            E(eV)
   0   2.0000     -20.596174      -560.4504
   1   2.0000     -20.587340      -560.2100
   2   2.0000     -20.570225      -559.7443
   3   2.0000     -20.556553      -559.3722
   4   2.0000     -20.524880      -558.5104
   5   2.0000     -20.497732      -557.7716
   6   2.0000      -1.376912       -37.4677
   7   2.0000      -1.365161       -37.1479
   8   2.0000      -1.346060       -36.6282
   9   2.0000      -1.345506       -36.6131
  10   2.0000      -1.309846       -35.6427
  11   2.0000      -1.279841       -34.8262
  12   2.0000      -0.734720       -19.9928
  13   2.0000      -0.731755       -19.9121
  14   2.0000      -0.713612       -19.4184
  15   2.0000      -0.708172       -19.2704
  16   2.0000      -0.690262       -18.7830
  17   2.0000      -0.667980       -18.1767
  18   2.0000      -0.622081       -16.9277
  19   2.0000      -0.602865       -16.4048
  20   2.0000      -0.589364       -16.0374
  21   2.0000      -0.582638       -15.8544
  22   2.0000      -0.563057       -15.3216
  23   2.0000      -0.531254       -14.4562
  24   2.0000      -0.529678       -14.4133
  25   2.0000      -0.515494       -14.0273
  26   2.0000      -0.513427       -13.9711
  27   2.0000      -0.486542       -13.2395
  28   2.0000      -0.475707       -12.9446
  29   2.0000      -0.448216       -12.1966
  30   0.0000       0.090834         2.4717
  31   0.0000       0.113235         3.0813
  32   0.0000       0.134220         3.6523
  33   0.0000       0.172818         4.7026
  34   0.0000       0.183842         5.0026

MULLIKEN ATOMIC CHARGES
-----------------------
   0 O :   -0.694601
   1 H :    0.342708
   2 H :    0.354231
   3 O :   -0.699417
   4 H :    0.348867
   5 H :    0.363300
   6 O :   -0.691289
   7 H :    0.390932
   8 H :    0.325705
   9 O :   -0.685973
  10 H :    0.379112
  11 H :    0.347848
  12 O :   -0.738631
  13 H :    0.368981
  14 H :    0.336282
  15 O :   -0.735914
  16 H :    0.318308
  17 H :    0.369552
Sum of atomic charges:   -0.0000000

LOEWDIN ATOMIC CHARGES
----------------------
   0 O :   -0.342440
   1 H :    0.160077
   2 H :    0.184595
   3 O :   -0.311735
   4 H :    0.162188
   5 H :    0.187493
   6 O :   -0.278680
   7 H :    0.160067
   8 H :    0.160339
   9 O :   -0.290562
  10 H :    0.188405
  11 H :    0.168243
  12 O :   -0.346527
  13 H :    0.149916
  14 H :    0.136202
  15 O :   -0.375233
  16 H :    0.145059
  17 H :    0.142594

  Mayer bond orders larger than 0.100000
B(  0-O ,  1-H ) :   0.8506 B(  0-O ,  2-H ) :   0.8361 B(  3-O ,  4-H ) :   0.8434
B(  3-O ,  5-H ) :   0.8266 B(  6-O ,  7-H ) :   0.7875 B(  6-O ,  8-H ) :   0.8553
B(  9-O , 10-H ) :   0.8193 B(  9-O , 11-H ) :   0.8431 B( 12-O , 13-H ) :   0.8166
B( 12-O , 14-H ) :   0.7952 B( 15-O , 16-H ) :   0.8644 B( 15-O , 17-H ) :   0.7798

MP2 TOTAL ENERGY:     -457.911816675 Eh
FINAL SINGLE POINT ENERGY      -457.911816674574

DIPOLE MOMENT
-------------
                                X             Y             Z
Electronic contribution:      0.01762      -0.17570       0.28808
Nuclear contribution   :      0.68416      -0.87419       1.31870
                        -----------------------------------------
Total Dipole Moment    :      0.70178      -1.04989       1.60678
                        -----------------------------------------
Magnitude (a.u.)       :      2.04365
Magnitude (Debye)      :      5.19455

Rotational constants in cm-1:     0.050390     0.022743     0.019948
Rotational constants in MHz :  1510.663340   681.809553   598.017875

                             ****ORCA TERMINATED NORMALLY****
TOTAL RUN TIME: 0 days 0 hours 1 minutes 27 seconds 209 msec
