                         Program Version 4.2.0 -  RELEASE  -
|  1> # 12meoh.boyd.etal.mol0,3,7
|  2> ! MP2 def2-TZVP EnGrad TightSCF
|  3>
|  4> %pal
|  5>     nprocs 6
|  6> end
|  7>
|  8> %maxcore 8000
|  9>
| 10> %scf
| 11>     ConvForced true
| 12> end
| 13>
| 14> *xyz 0 1
| 15> O  -1.776108874  -2.741384797  -1.019308298
| 16> H  -2.520094035  -2.452295987  -0.420778302
| 17> C  -2.174025166  -3.952700964  -1.647004581
| 18> H  -1.359803895  -4.272673416  -2.304149236
| 19> H  -3.075973971  -3.808692420  -2.256751112
| 20> H  -2.370225393  -4.752784761  -0.918966137
| 21> O  -3.821405976  -2.118091637   0.596795346
| 22> H  -4.342989117  -1.344303030   0.251966383
| 23> C  -3.443883586  -1.809641231   1.934889393
| 24> H  -2.831494349  -2.637429600   2.305201764
| 25> H  -4.325601146  -1.719364371   2.585074667
| 26> H  -2.858527126  -0.882644791   1.996110694
| 27> O   4.310535586  -1.588322800   0.656128299
| 28> H   3.804372199  -1.630404735  -0.196849819
| 29> C   4.312298137  -2.894980854   1.222112691
| 30> H   4.713177833  -2.819907076   2.237066773
| 31> H   4.957796734  -3.574699304   0.648211180
| 32> H   3.302735989  -3.324433205   1.269756773
| 33> *
| 34>
| 35>                          ****END OF INPUT****

CARTESIAN COORDINATES (ANGSTROEM)
---------------------------------
  O     -1.776109   -2.741385   -1.019308
  H     -2.520094   -2.452296   -0.420778
  C     -2.174025   -3.952701   -1.647005
  H     -1.359804   -4.272673   -2.304149
  H     -3.075974   -3.808692   -2.256751
  H     -2.370225   -4.752785   -0.918966
  O     -3.821406   -2.118092    0.596795
  H     -4.342989   -1.344303    0.251966
  C     -3.443884   -1.809641    1.934889
  H     -2.831494   -2.637430    2.305202
  H     -4.325601   -1.719364    2.585075
  H     -2.858527   -0.882645    1.996111
  O      4.310536   -1.588323    0.656128
  H      3.804372   -1.630405   -0.196850
  C      4.312298   -2.894981    1.222113
  H      4.713178   -2.819907    2.237067
  H      4.957797   -3.574699    0.648211
  H      3.302736   -3.324433    1.269757

 Total Charge           Charge          ....    0
 Multiplicity           Mult            ....    1
 Number of Electrons    NEL             ....   54
 Basis Dimension        Dim             ....  258

ORBITAL ENERGIES
----------------

  NO   OCC          E(Eh)            E(eV)
   0   2.0000     -20.593549      -560.3790
   1   2.0000     -20.550903      -559.2185
   2   2.0000     -20.515372      -558.2517
   3   2.0000     -11.292205      -307.2765
   4   2.0000     -11.265815      -306.5584
   5   2.0000     -11.249665      -306.1189
   6   2.0000      -1.386808       -37.7370
   7   2.0000      -1.340652       -36.4810
   8   2.0000      -1.312348       -35.7108
   9   2.0000      -0.943834       -25.6830
  10   2.0000      -0.913658       -24.8619
  11   2.0000      -0.895933       -24.3796
  12   2.0000      -0.718767       -19.5586
  13   2.0000      -0.675560       -18.3829
  14   2.0000      -0.675548       -18.3826
  15   2.0000      -0.637058       -17.3352
  16   2.0000      -0.611281       -16.6338
  17   2.0000      -0.610923       -16.6241
  18   2.0000      -0.591567       -16.0974
  19   2.0000      -0.584862       -15.9149
  20   2.0000      -0.562891       -15.3170
  21   2.0000      -0.531030       -14.4501
  22   2.0000      -0.494918       -13.4674
  23   2.0000      -0.490988       -13.3605
  24   2.0000      -0.457554       -12.4507
  25   2.0000      -0.442889       -12.0516
  26   2.0000      -0.417754       -11.3677
  27   0.0000       0.116423         3.1680
  28   0.0000       0.142709         3.8833
  29   0.0000       0.160412         4.3650
  30   0.0000       0.171762         4.6739
  31   0.0000       0.181986         4.9521

MULLIKEN ATOMIC CHARGES
-----------------------
   0 O :   -0.538445
   1 H :    0.340819
   2 C :   -0.155160
   3 H :    0.117451
   4 H :    0.095789
   5 H :    0.096582
   6 O :   -0.513382
   7 H :    0.342473
   8 C :   -0.188873
   9 H :    0.144654
  10 H :    0.126107
  11 H :    0.132007
  12 O :   -0.498862
  13 H :    0.324684
  14 C :   -0.174781
  15 H :    0.125983
  16 H :    0.107604
  17 H :    0.115351
Sum of atomic charges:   -0.0000000

LOEWDIN ATOMIC CHARGES
----------------------
   0 O :   -0.128306
   1 H :    0.157631
   2 C :   -0.396171
   3 H :    0.104395
   4 H :    0.091282
   5 H :    0.091719
   6 O :   -0.073325
   7 H :    0.200236
   8 C :   -0.372198
   9 H :    0.116870
  10 H :    0.104257
  11 H :    0.103621
  12 O :   -0.110025
  13 H :    0.190960
  14 C :   -0.381725
  15 H :    0.108869
  16 H :    0.094878
  17 H :    0.097031

  Mayer bond orders larger than 0.100000
B(  0-O ,  1-H ) :   0.7883 B(  0-O ,  2-C ) :   0.9406 B(  1-H ,  6-O ) :   0.1020
B(  2-C ,  3-H ) :   0.9410 B(  2-C ,  4-H ) :   0.9437 B(  2-C ,  5-H ) :   0.9361
B(  6-O ,  7-H ) :   0.8275 B(  6-O ,  8-C ) :   0.8672 B(  8-C ,  9-H ) :   0.9385
B(  8-C , 10-H ) :   0.9338 B(  8-C , 11-H ) :   0.9391 B( 12-O , 13-H ) :   0.8414
B( 12-O , 14-C ) :   0.9277 B( 14-C , 15-H ) :   0.9378 B( 14-C , 16-H ) :   0.9383
B( 14-C , 17-H ) :   0.9401

MP2 TOTAL ENERGY:     -346.529857443 Eh
FINAL SINGLE POINT ENERGY      -346.529857443481

DIPOLE MOMENT
-------------
                                X             Y             Z
Electronic contribution:      0.06962       2.88485      -1.20468
Nuclear contribution   :     -1.41522      -2.96836       1.69033
                        -----------------------------------------
Total Dipole Moment    :     -1.34561      -0.08350       0.48565
                        -----------------------------------------
Magnitude (a.u.)       :      1.43300
Magnitude (Debye)      :      3.64239

Rotational constants in cm-1:     0.079953     0.014387     0.012726
Rotational constants in MHz :  2396.923893   431.307001   381.505294

                             ****ORCA TERMINATED NORMALLY****
TOTAL RUN TIME: 0 days 0 hours 1 minutes 0 seconds 289 msec
