                         Program Version 4.2.0 -  RELEASE  -
|  1> # 12h2o.su.etal.mol0,1,3,5,8,10
|  2> ! MP2 def2-TZVP EnGrad TightSCF
|  3>
|  4> %pal
|  5>     nprocs 6
|  6> end
|  7>
|  8> %maxcore 8000
|  9>
| 10> %scf
| 11>     ConvForced true
| 12> end
| 13>
| 14> *xyz 0 1
| 15> O   1.794470000   0.923410000   2.768350000
| 16> H   2.338250000   1.359750000   3.430940000
| 17> H   0.879480000   1.303000000   2.865760000
| 18> O  -1.794470000  -0.923410000   2.768350000
| 19> H  -2.338250000  -1.359750000   3.430940000
| 20> H  -0.879480000  -1.303000000   2.865760000
| 21> O  -1.752130000  -0.741530000  -2.896280000
| 22> H  -2.036450000  -0.920500000  -1.984040000
| 23> H  -0.921210000  -1.242140000  -2.984230000
| 24> O   0.885520000  -1.737840000   0.052730000
| 25> H   1.284090000  -0.839590000   0.017130000
| 26> H   1.032320000  -2.090180000  -0.841890000
| 27> O   1.752130000   0.741530000  -2.896280000
| 28> H   2.036450000   0.920500000  -1.984040000
| 29> H   0.921210000   1.242140000  -2.984230000
| 30> O  -0.923410000   1.794470000  -2.768350000
| 31> H  -1.359750000   2.338250000  -3.430940000
| 32> H  -1.303000000   0.879480000  -2.865760000
| 33> *
| 34>
| 35>                          ****END OF INPUT****

CARTESIAN COORDINATES (ANGSTROEM)
---------------------------------
  O      1.794470    0.923410    2.768350
  H      2.338250    1.359750    3.430940
  H      0.879480    1.303000    2.865760
  O     -1.794470   -0.923410    2.768350
  H     -2.338250   -1.359750    3.430940
  H     -0.879480   -1.303000    2.865760
  O     -1.752130   -0.741530   -2.896280
  H     -2.036450   -0.920500   -1.984040
  H     -0.921210   -1.242140   -2.984230
  O      0.885520   -1.737840    0.052730
  H      1.284090   -0.839590    0.017130
  H      1.032320   -2.090180   -0.841890
  O      1.752130    0.741530   -2.896280
  H      2.036450    0.920500   -1.984040
  H      0.921210    1.242140   -2.984230
  O     -0.923410    1.794470   -2.768350
  H     -1.359750    2.338250   -3.430940
  H     -1.303000    0.879480   -2.865760

 Total Charge           Charge          ....    0
 Multiplicity           Mult            ....    1
 Number of Electrons    NEL             ....   60
 Basis Dimension        Dim             ....  258

ORBITAL ENERGIES
----------------

  NO   OCC          E(Eh)            E(eV)
   0   2.0000     -20.597389      -560.4835
   1   2.0000     -20.567652      -559.6743
   2   2.0000     -20.563568      -559.5631
   3   2.0000     -20.558347      -559.4211
   4   2.0000     -20.544665      -559.0488
   5   2.0000     -20.536210      -558.8187
   6   2.0000      -1.383182       -37.6383
   7   2.0000      -1.342948       -36.5435
   8   2.0000      -1.339278       -36.4436
   9   2.0000      -1.333708       -36.2920
  10   2.0000      -1.330442       -36.2032
  11   2.0000      -1.316379       -35.8205
  12   2.0000      -0.739797       -20.1309
  13   2.0000      -0.714241       -19.4355
  14   2.0000      -0.711482       -19.3604
  15   2.0000      -0.702047       -19.1037
  16   2.0000      -0.700708       -19.0672
  17   2.0000      -0.685892       -18.6641
  18   2.0000      -0.623016       -16.9531
  19   2.0000      -0.581598       -15.8261
  20   2.0000      -0.579767       -15.7763
  21   2.0000      -0.579235       -15.7618
  22   2.0000      -0.570372       -15.5206
  23   2.0000      -0.555299       -15.1105
  24   2.0000      -0.526104       -14.3160
  25   2.0000      -0.511183       -13.9100
  26   2.0000      -0.506405       -13.7800
  27   2.0000      -0.501536       -13.6475
  28   2.0000      -0.493959       -13.4413
  29   2.0000      -0.483147       -13.1471
  30   0.0000       0.091769         2.4972
  31   0.0000       0.117145         3.1877
  32   0.0000       0.141411         3.8480
  33   0.0000       0.152821         4.1585
  34   0.0000       0.155779         4.2390

MULLIKEN ATOMIC CHARGES
-----------------------
   0 O :   -0.692056
   1 H :    0.341165
   2 H :    0.352576
   3 O :   -0.693580
   4 H :    0.335717
   5 H :    0.357028
   6 O :   -0.686548
   7 H :    0.369722
   8 H :    0.360189
   9 O :   -0.678983
  10 H :    0.346312
  11 H :    0.331429
  12 O :   -0.713381
  13 H :    0.323902
  14 H :    0.364500
  15 O :   -0.736641
  16 H :    0.339680
  17 H :    0.378969
Sum of atomic charges:   -0.0000000

LOEWDIN ATOMIC CHARGES
----------------------
   0 O :   -0.341419
   1 H :    0.159304
   2 H :    0.183918
   3 O :   -0.342720
   4 H :    0.156662
   5 H :    0.184797
   6 O :   -0.269421
   7 H :    0.179154
   8 H :    0.174805
   9 O :   -0.334910
  10 H :    0.173155
  11 H :    0.160767
  12 O :   -0.349709
  13 H :    0.155719
  14 H :    0.148396
  15 O :   -0.338858
  16 H :    0.155103
  17 H :    0.145256

  Mayer bond orders larger than 0.100000
B(  0-O ,  1-H ) :   0.8513 B(  0-O ,  2-H ) :   0.8369 B(  3-O ,  4-H ) :   0.8544
B(  3-O ,  5-H ) :   0.8333 B(  6-O ,  7-H ) :   0.8290 B(  6-O ,  8-H ) :   0.8317
B(  9-O , 10-H ) :   0.8412 B(  9-O , 11-H ) :   0.8543 B( 12-O , 13-H ) :   0.8592
B( 12-O , 14-H ) :   0.8011 B( 15-O , 16-H ) :   0.8492 B( 15-O , 17-H ) :   0.7652

MP2 TOTAL ENERGY:     -457.904801402 Eh
FINAL SINGLE POINT ENERGY      -457.904801402317

DIPOLE MOMENT
-------------
                                X             Y             Z
Electronic contribution:     -0.24218      -0.23242      -0.16845
Nuclear contribution   :     -0.22520       0.14541       1.23053
                        -----------------------------------------
Total Dipole Moment    :     -0.46739      -0.08700       1.06207
                        -----------------------------------------
Magnitude (a.u.)       :      1.16362
Magnitude (Debye)      :      2.95770

Rotational constants in cm-1:     0.041485     0.019987     0.016930
Rotational constants in MHz :  1243.686306   599.200005   507.535426

                             ****ORCA TERMINATED NORMALLY****
TOTAL RUN TIME: 0 days 0 hours 0 minutes 48 seconds 733 msec
