                         Program Version 4.2.0 -  RELEASE  -
|  1> # 12h2o.su.etal.mol1,2,5,6,8,9
|  2> ! MP2 def2-TZVP EnGrad TightSCF
|  3>
|  4> %pal
|  5>     nprocs 6
|  6> end
|  7>
|  8> %maxcore 8000
|  9>
| 10> %scf
| 11>     ConvForced true
| 12> end
| 13>
| 14> *xyz 0 1
| 15> O  -1.794470000  -0.923410000   2.768350000
| 16> H  -2.338250000  -1.359750000   3.430940000
| 17> H  -0.879480000  -1.303000000   2.865760000
| 18> O   0.923410000  -1.794470000  -2.768350000
| 19> H   1.359750000  -2.338250000  -3.430940000
| 20> H   1.303000000  -0.879480000  -2.865760000
| 21> O   0.885520000  -1.737840000   0.052730000
| 22> H   1.284090000  -0.839590000   0.017130000
| 23> H   1.032320000  -2.090180000  -0.841890000
| 24> O   1.737840000   0.885520000  -0.052730000
| 25> H   2.090180000   1.032320000   0.841890000
| 26> H   0.839590000   1.284090000  -0.017130000
| 27> O   1.752130000   0.741530000  -2.896280000
| 28> H   2.036450000   0.920500000  -1.984040000
| 29> H   0.921210000   1.242140000  -2.984230000
| 30> O   0.741530000  -1.752130000   2.896280000
| 31> H   0.920500000  -2.036450000   1.984040000
| 32> H   1.242140000  -0.921210000   2.984230000
| 33> *
| 34>
| 35>                          ****END OF INPUT****

CARTESIAN COORDINATES (ANGSTROEM)
---------------------------------
  O     -1.794470   -0.923410    2.768350
  H     -2.338250   -1.359750    3.430940
  H     -0.879480   -1.303000    2.865760
  O      0.923410   -1.794470   -2.768350
  H      1.359750   -2.338250   -3.430940
  H      1.303000   -0.879480   -2.865760
  O      0.885520   -1.737840    0.052730
  H      1.284090   -0.839590    0.017130
  H      1.032320   -2.090180   -0.841890
  O      1.737840    0.885520   -0.052730
  H      2.090180    1.032320    0.841890
  H      0.839590    1.284090   -0.017130
  O      1.752130    0.741530   -2.896280
  H      2.036450    0.920500   -1.984040
  H      0.921210    1.242140   -2.984230
  O      0.741530   -1.752130    2.896280
  H      0.920500   -2.036450    1.984040
  H      1.242140   -0.921210    2.984230

 Total Charge           Charge          ....    0
 Multiplicity           Mult            ....    1
 Number of Electrons    NEL             ....   60
 Basis Dimension        Dim             ....  258

ORBITAL ENERGIES
----------------

  NO   OCC          E(Eh)            E(eV)
   0   2.0000     -20.635874      -561.5307
   1   2.0000     -20.592679      -560.3553
   2   2.0000     -20.562539      -559.5351
   3   2.0000     -20.541296      -558.9571
   4   2.0000     -20.528599      -558.6116
   5   2.0000     -20.502743      -557.9080
   6   2.0000      -1.419099       -38.6156
   7   2.0000      -1.380777       -37.5728
   8   2.0000      -1.352063       -36.7915
   9   2.0000      -1.327391       -36.1201
  10   2.0000      -1.311945       -35.6998
  11   2.0000      -1.284876       -34.9632
  12   2.0000      -0.778374       -21.1806
  13   2.0000      -0.743053       -20.2195
  14   2.0000      -0.714423       -19.4404
  15   2.0000      -0.710396       -19.3309
  16   2.0000      -0.698350       -19.0031
  17   2.0000      -0.673249       -18.3200
  18   2.0000      -0.661407       -17.9978
  19   2.0000      -0.613848       -16.7036
  20   2.0000      -0.605699       -16.4819
  21   2.0000      -0.586410       -15.9570
  22   2.0000      -0.565925       -15.3996
  23   2.0000      -0.544238       -14.8095
  24   2.0000      -0.532399       -14.4873
  25   2.0000      -0.523114       -14.2346
  26   2.0000      -0.492380       -13.3983
  27   2.0000      -0.488975       -13.3057
  28   2.0000      -0.479235       -13.0406
  29   2.0000      -0.453241       -12.3333
  30   0.0000       0.072283         1.9669
  31   0.0000       0.118985         3.2377
  32   0.0000       0.153610         4.1799
  33   0.0000       0.171013         4.6535
  34   0.0000       0.173524         4.7218

MULLIKEN ATOMIC CHARGES
-----------------------
   0 O :   -0.738151
   1 H :    0.320777
   2 H :    0.369681
   3 O :   -0.733741
   4 H :    0.335018
   5 H :    0.369531
   6 O :   -0.737065
   7 H :    0.330535
   8 H :    0.376751
   9 O :   -0.711202
  10 H :    0.368980
  11 H :    0.376950
  12 O :   -0.689346
  13 H :    0.384445
  14 H :    0.351212
  15 O :   -0.688862
  16 H :    0.392703
  17 H :    0.321785
Sum of atomic charges:   -0.0000000

LOEWDIN ATOMIC CHARGES
----------------------
   0 O :   -0.376032
   1 H :    0.146193
   2 H :    0.142435
   3 O :   -0.339285
   4 H :    0.153083
   5 H :    0.143497
   6 O :   -0.344607
   7 H :    0.133292
   8 H :    0.152696
   9 O :   -0.277321
  10 H :    0.177441
  11 H :    0.188289
  12 O :   -0.271840
  13 H :    0.157821
  14 H :    0.172963
  15 O :   -0.277616
  16 H :    0.160410
  17 H :    0.158580

  Mayer bond orders larger than 0.100000
B(  0-O ,  1-H ) :   0.8632 B(  0-O ,  2-H ) :   0.7801 B(  3-O ,  4-H ) :   0.8516
B(  3-O ,  5-H ) :   0.7675 B(  6-O ,  7-H ) :   0.8126 B(  6-O ,  8-H ) :   0.8015
B(  9-O , 10-H ) :   0.8289 B(  9-O , 11-H ) :   0.8194 B( 12-O , 13-H ) :   0.8081
B( 12-O , 14-H ) :   0.8410 B( 15-O , 16-H ) :   0.7857 B( 15-O , 17-H ) :   0.8577

MP2 TOTAL ENERGY:     -457.921994163 Eh
FINAL SINGLE POINT ENERGY      -457.921994163479

DIPOLE MOMENT
-------------
                                X             Y             Z
Electronic contribution:      0.25220       0.11330      -0.34828
Nuclear contribution   :      1.09837       1.55880       0.00000
                        -----------------------------------------
Total Dipole Moment    :      1.35057       1.67210      -0.34828
                        -----------------------------------------
Magnitude (a.u.)       :      2.17744
Magnitude (Debye)      :      5.53461

Rotational constants in cm-1:     0.079600     0.022643     0.020801
Rotational constants in MHz :  2386.337532   678.825449   623.593404

                             ****ORCA TERMINATED NORMALLY****
TOTAL RUN TIME: 0 days 0 hours 1 minutes 6 seconds 545 msec
