                         Program Version 4.2.0 -  RELEASE  -
|  1> # 12h2o.su.etal.mol4,5,7,10
|  2> ! MP2 def2-TZVP EnGrad TightSCF
|  3>
|  4> %pal
|  5>     nprocs 6
|  6> end
|  7>
|  8> %maxcore 8000
|  9>
| 10> %scf
| 11>     ConvForced true
| 12> end
| 13>
| 14> *xyz 0 1
| 15> O  -0.885520000   1.737840000   0.052730000
| 16> H  -1.032320000   2.090180000  -0.841890000
| 17> H  -1.284090000   0.839590000   0.017130000
| 18> O   0.885520000  -1.737840000   0.052730000
| 19> H   1.284090000  -0.839590000   0.017130000
| 20> H   1.032320000  -2.090180000  -0.841890000
| 21> O  -1.737840000  -0.885520000  -0.052730000
| 22> H  -2.090180000  -1.032320000   0.841890000
| 23> H  -0.839590000  -1.284090000  -0.017130000
| 24> O  -0.923410000   1.794470000  -2.768350000
| 25> H  -1.359750000   2.338250000  -3.430940000
| 26> H  -1.303000000   0.879480000  -2.865760000
| 27> *
| 28>
| 29>                          ****END OF INPUT****

CARTESIAN COORDINATES (ANGSTROEM)
---------------------------------
  O     -0.885520    1.737840    0.052730
  H     -1.032320    2.090180   -0.841890
  H     -1.284090    0.839590    0.017130
  O      0.885520   -1.737840    0.052730
  H      1.284090   -0.839590    0.017130
  H      1.032320   -2.090180   -0.841890
  O     -1.737840   -0.885520   -0.052730
  H     -2.090180   -1.032320    0.841890
  H     -0.839590   -1.284090   -0.017130
  O     -0.923410    1.794470   -2.768350
  H     -1.359750    2.338250   -3.430940
  H     -1.303000    0.879480   -2.865760

 Total Charge           Charge          ....    0
 Multiplicity           Mult            ....    1
 Number of Electrons    NEL             ....   40
 Basis Dimension        Dim             ....  172

ORBITAL ENERGIES
----------------

  NO   OCC          E(Eh)            E(eV)
   0   2.0000     -20.599105      -560.5302
   1   2.0000     -20.580637      -560.0276
   2   2.0000     -20.557961      -559.4106
   3   2.0000     -20.494684      -557.6887
   4   2.0000      -1.380400       -37.5626
   5   2.0000      -1.358538       -36.9677
   6   2.0000      -1.342998       -36.5448
   7   2.0000      -1.279049       -34.8047
   8   2.0000      -0.737025       -20.0555
   9   2.0000      -0.725490       -19.7416
  10   2.0000      -0.713263       -19.4089
  11   2.0000      -0.662725       -18.0337
  12   2.0000      -0.622470       -16.9383
  13   2.0000      -0.598739       -16.2925
  14   2.0000      -0.586028       -15.9466
  15   2.0000      -0.546320       -14.8661
  16   2.0000      -0.531468       -14.4620
  17   2.0000      -0.512470       -13.9450
  18   2.0000      -0.488140       -13.2830
  19   2.0000      -0.445792       -12.1306
  20   0.0000       0.100453         2.7335
  21   0.0000       0.129259         3.5173
  22   0.0000       0.162490         4.4216
  23   0.0000       0.186170         5.0659
  24   0.0000       0.199378         5.4253

MULLIKEN ATOMIC CHARGES
-----------------------
   0 O :   -0.739246
   1 H :    0.357492
   2 H :    0.336700
   3 O :   -0.688992
   4 H :    0.371575
   5 H :    0.355883
   6 O :   -0.716170
   7 H :    0.351148
   8 H :    0.364537
   9 O :   -0.694513
  10 H :    0.346981
  11 H :    0.354605
Sum of atomic charges:   -0.0000000

LOEWDIN ATOMIC CHARGES
----------------------
   0 O :   -0.374568
   1 H :    0.142772
   2 H :    0.132841
   3 O :   -0.289307
   4 H :    0.185436
   5 H :    0.172614
   6 O :   -0.315404
   7 H :    0.168262
   8 H :    0.143976
   9 O :   -0.312056
  10 H :    0.160768
  11 H :    0.184667

  Mayer bond orders larger than 0.100000
B(  0-O ,  1-H ) :   0.8306 B(  0-O ,  2-H ) :   0.8068 B(  3-O ,  4-H ) :   0.8221
B(  3-O ,  5-H ) :   0.8387 B(  6-O ,  7-H ) :   0.8425 B(  6-O ,  8-H ) :   0.7829
B(  9-O , 10-H ) :   0.8445 B(  9-O , 11-H ) :   0.8338

MP2 TOTAL ENERGY:     -305.275959672 Eh
FINAL SINGLE POINT ENERGY      -305.275959671911

DIPOLE MOMENT
-------------
                                X             Y             Z
Electronic contribution:      0.23482      -0.15803       0.08852
Nuclear contribution   :     -0.22475      -0.76293      -1.40687
                        -----------------------------------------
Total Dipole Moment    :      0.01007      -0.92096      -1.31835
                        -----------------------------------------
Magnitude (a.u.)       :      1.60820
Magnitude (Debye)      :      4.08772

Rotational constants in cm-1:     0.150390     0.059057     0.053929
Rotational constants in MHz :  4508.586602  1770.472244  1616.759456

                             ****ORCA TERMINATED NORMALLY****
TOTAL RUN TIME: 0 days 0 hours 0 minutes 19 seconds 751 msec
