                         Program Version 4.2.0 -  RELEASE  -
|  1> # 12h2o.su.etal.mol1,2,7,8
|  2> ! MP2 def2-TZVP EnGrad TightSCF
|  3>
|  4> %pal
|  5>     nprocs 6
|  6> end
|  7>
|  8> %maxcore 8000
|  9>
| 10> %scf
| 11>     ConvForced true
| 12> end
| 13>
| 14> *xyz 0 1
| 15> O  -1.794470000  -0.923410000   2.768350000
| 16> H  -2.338250000  -1.359750000   3.430940000
| 17> H  -0.879480000  -1.303000000   2.865760000
| 18> O   0.923410000  -1.794470000  -2.768350000
| 19> H   1.359750000  -2.338250000  -3.430940000
| 20> H   1.303000000  -0.879480000  -2.865760000
| 21> O  -1.737840000  -0.885520000  -0.052730000
| 22> H  -2.090180000  -1.032320000   0.841890000
| 23> H  -0.839590000  -1.284090000  -0.017130000
| 24> O   1.752130000   0.741530000  -2.896280000
| 25> H   2.036450000   0.920500000  -1.984040000
| 26> H   0.921210000   1.242140000  -2.984230000
| 27> *
| 28>
| 29>                          ****END OF INPUT****

CARTESIAN COORDINATES (ANGSTROEM)
---------------------------------
  O     -1.794470   -0.923410    2.768350
  H     -2.338250   -1.359750    3.430940
  H     -0.879480   -1.303000    2.865760
  O      0.923410   -1.794470   -2.768350
  H      1.359750   -2.338250   -3.430940
  H      1.303000   -0.879480   -2.865760
  O     -1.737840   -0.885520   -0.052730
  H     -2.090180   -1.032320    0.841890
  H     -0.839590   -1.284090   -0.017130
  O      1.752130    0.741530   -2.896280
  H      2.036450    0.920500   -1.984040
  H      0.921210    1.242140   -2.984230

 Total Charge           Charge          ....    0
 Multiplicity           Mult            ....    1
 Number of Electrons    NEL             ....   40
 Basis Dimension        Dim             ....  172

ORBITAL ENERGIES
----------------

  NO   OCC          E(Eh)            E(eV)
   0   2.0000     -20.593947      -560.3898
   1   2.0000     -20.588874      -560.2518
   2   2.0000     -20.521560      -558.4200
   3   2.0000     -20.515022      -558.2421
   4   2.0000      -1.379215       -37.5304
   5   2.0000      -1.366673       -37.1891
   6   2.0000      -1.300674       -35.3932
   7   2.0000      -1.297289       -35.3010
   8   2.0000      -0.736778       -20.0487
   9   2.0000      -0.733662       -19.9640
  10   2.0000      -0.688229       -18.7277
  11   2.0000      -0.670858       -18.2550
  12   2.0000      -0.614246       -16.7145
  13   2.0000      -0.602227       -16.3874
  14   2.0000      -0.554851       -15.0983
  15   2.0000      -0.552572       -15.0362
  16   2.0000      -0.518940       -14.1211
  17   2.0000      -0.511301       -13.9132
  18   2.0000      -0.467310       -12.7162
  19   2.0000      -0.465210       -12.6590
  20   0.0000       0.104195         2.8353
  21   0.0000       0.115350         3.1388
  22   0.0000       0.170871         4.6496
  23   0.0000       0.178567         4.8591
  24   0.0000       0.188809         5.1377

MULLIKEN ATOMIC CHARGES
-----------------------
   0 O :   -0.689844
   1 H :    0.350175
   2 H :    0.348944
   3 O :   -0.727093
   4 H :    0.323175
   5 H :    0.363283
   6 O :   -0.696216
   7 H :    0.360462
   8 H :    0.323651
   9 O :   -0.679219
  10 H :    0.356848
  11 H :    0.365833
Sum of atomic charges:   -0.0000000

LOEWDIN ATOMIC CHARGES
----------------------
   0 O :   -0.309705
   1 H :    0.162347
   2 H :    0.183109
   3 O :   -0.370126
   4 H :    0.148151
   5 H :    0.141563
   6 O :   -0.348154
   7 H :    0.146673
   8 H :    0.163384
   9 O :   -0.271358
  10 H :    0.174328
  11 H :    0.179789

  Mayer bond orders larger than 0.100000
B(  0-O ,  1-H ) :   0.8427 B(  0-O ,  2-H ) :   0.8379 B(  3-O ,  4-H ) :   0.8613
B(  3-O ,  5-H ) :   0.7887 B(  6-O ,  7-H ) :   0.8252 B(  6-O ,  8-H ) :   0.8556
B(  9-O , 10-H ) :   0.8381 B(  9-O , 11-H ) :   0.8321

MP2 TOTAL ENERGY:     -305.263991920 Eh
FINAL SINGLE POINT ENERGY      -305.263991920247

DIPOLE MOMENT
-------------
                                X             Y             Z
Electronic contribution:     -0.12774       0.36125      -0.08847
Nuclear contribution   :      0.98755      -0.25846       1.46039
                        -----------------------------------------
Total Dipole Moment    :      0.85982       0.10279       1.37191
                        -----------------------------------------
Magnitude (a.u.)       :      1.62234
Magnitude (Debye)      :      4.12367

Rotational constants in cm-1:     0.197720     0.029255     0.027185
Rotational constants in MHz :  5927.491736   877.043069   814.993159

                             ****ORCA TERMINATED NORMALLY****
TOTAL RUN TIME: 0 days 0 hours 0 minutes 24 seconds 920 msec
