                         Program Version 4.2.0 -  RELEASE  -
|  1> # 12h2o.su.etal.mol1,3,5,10
|  2> ! MP2 def2-TZVP EnGrad TightSCF
|  3>
|  4> %pal
|  5>     nprocs 6
|  6> end
|  7>
|  8> %maxcore 8000
|  9>
| 10> %scf
| 11>     ConvForced true
| 12> end
| 13>
| 14> *xyz 0 1
| 15> O  -1.794470000  -0.923410000   2.768350000
| 16> H  -2.338250000  -1.359750000   3.430940000
| 17> H  -0.879480000  -1.303000000   2.865760000
| 18> O  -1.752130000  -0.741530000  -2.896280000
| 19> H  -2.036450000  -0.920500000  -1.984040000
| 20> H  -0.921210000  -1.242140000  -2.984230000
| 21> O   0.885520000  -1.737840000   0.052730000
| 22> H   1.284090000  -0.839590000   0.017130000
| 23> H   1.032320000  -2.090180000  -0.841890000
| 24> O  -0.923410000   1.794470000  -2.768350000
| 25> H  -1.359750000   2.338250000  -3.430940000
| 26> H  -1.303000000   0.879480000  -2.865760000
| 27> *
| 28>
| 29>                          ****END OF INPUT****

CARTESIAN COORDINATES (ANGSTROEM)
---------------------------------
  O     -1.794470   -0.923410    2.768350
  H     -2.338250   -1.359750    3.430940
  H     -0.879480   -1.303000    2.865760
  O     -1.752130   -0.741530   -2.896280
  H     -2.036450   -0.920500   -1.984040
  H     -0.921210   -1.242140   -2.984230
  O      0.885520   -1.737840    0.052730
  H      1.284090   -0.839590    0.017130
  H      1.032320   -2.090180   -0.841890
  O     -0.923410    1.794470   -2.768350
  H     -1.359750    2.338250   -3.430940
  H     -1.303000    0.879480   -2.865760

 Total Charge           Charge          ....    0
 Multiplicity           Mult            ....    1
 Number of Electrons    NEL             ....   40
 Basis Dimension        Dim             ....  172

ORBITAL ENERGIES
----------------

  NO   OCC          E(Eh)            E(eV)
   0   2.0000     -20.596333      -560.4547
   1   2.0000     -20.576461      -559.9140
   2   2.0000     -20.555396      -559.3408
   3   2.0000     -20.516464      -558.2814
   4   2.0000      -1.381564       -37.5943
   5   2.0000      -1.352273       -36.7972
   6   2.0000      -1.330761       -36.2118
   7   2.0000      -1.298883       -35.3444
   8   2.0000      -0.739103       -20.1120
   9   2.0000      -0.714425       -19.4405
  10   2.0000      -0.698946       -19.0193
  11   2.0000      -0.689994       -18.7757
  12   2.0000      -0.616503       -16.7759
  13   2.0000      -0.591791       -16.1034
  14   2.0000      -0.566928       -15.4269
  15   2.0000      -0.556879       -15.1534
  16   2.0000      -0.518955       -14.1215
  17   2.0000      -0.513274       -13.9669
  18   2.0000      -0.498598       -13.5675
  19   2.0000      -0.466811       -12.7026
  20   0.0000       0.086772         2.3612
  21   0.0000       0.132739         3.6120
  22   0.0000       0.153013         4.1637
  23   0.0000       0.169389         4.6093
  24   0.0000       0.183479         4.9927

MULLIKEN ATOMIC CHARGES
-----------------------
   0 O :   -0.684999
   1 H :    0.335031
   2 H :    0.348783
   3 O :   -0.676746
   4 H :    0.369098
   5 H :    0.347898
   6 O :   -0.676559
   7 H :    0.351391
   8 H :    0.329002
   9 O :   -0.732097
  10 H :    0.325462
  11 H :    0.363736
Sum of atomic charges:    0.0000000

LOEWDIN ATOMIC CHARGES
----------------------
   0 O :   -0.340047
   1 H :    0.156141
   2 H :    0.182511
   3 O :   -0.269411
   4 H :    0.178879
   5 H :    0.170877
   6 O :   -0.335592
   7 H :    0.178386
   8 H :    0.160809
   9 O :   -0.372554
  10 H :    0.148657
  11 H :    0.141343

  Mayer bond orders larger than 0.100000
B(  0-O ,  1-H ) :   0.8551 B(  0-O ,  2-H ) :   0.8407 B(  3-O ,  4-H ) :   0.8295
B(  3-O ,  5-H ) :   0.8421 B(  6-O ,  7-H ) :   0.8422 B(  6-O ,  8-H ) :   0.8566
B(  9-O , 10-H ) :   0.8607 B(  9-O , 11-H ) :   0.7897

MP2 TOTAL ENERGY:     -305.260122893 Eh
FINAL SINGLE POINT ENERGY      -305.260122892791

DIPOLE MOMENT
-------------
                                X             Y             Z
Electronic contribution:     -0.16644      -0.11789       0.05427
Nuclear contribution   :      0.53875      -1.09939      -0.08817
                        -----------------------------------------
Total Dipole Moment    :      0.37231      -1.21728      -0.03390
                        -----------------------------------------
Magnitude (a.u.)       :      1.27339
Magnitude (Debye)      :      3.23671

Rotational constants in cm-1:     0.100315     0.033781     0.030320
Rotational constants in MHz :  3007.368552  1012.723851   908.971928

                             ****ORCA TERMINATED NORMALLY****
TOTAL RUN TIME: 0 days 0 hours 0 minutes 14 seconds 267 msec
