                         Program Version 4.2.0 -  RELEASE  -
|  1> # 12meoh.boyd.etal.mol4,6,9
|  2> ! MP2 def2-TZVP EnGrad TightSCF
|  3>
|  4> %pal
|  5>     nprocs 6
|  6> end
|  7>
|  8> %maxcore 8000
|  9>
| 10> %scf
| 11>     ConvForced true
| 12> end
| 13>
| 14> *xyz 0 1
| 15> O  -1.358578914   1.232360421   1.189721000
| 16> H  -1.058250183   1.216459361   0.238591307
| 17> C  -0.389763452   1.957872567   1.943072362
| 18> H  -0.747220771   2.012806578   2.975200343
| 19> H  -0.260410585   2.982763209   1.565366540
| 20> H   0.585220638   1.453754179   1.934070793
| 21> O   2.622209273  -1.703002590  -1.445859723
| 22> H   1.828551432  -1.986513781  -0.909754968
| 23> C   2.781117675  -2.615822239  -2.525472890
| 24> H   3.691063626  -2.339003544  -3.065143454
| 25> H   1.934727323  -2.559520367  -3.223226661
| 26> H   2.879948338  -3.653846211  -2.177750170
| 27> O   1.390610024   3.194080770  -1.536658882
| 28> H   2.162932299   2.881562730  -0.993525056
| 29> C   1.202977189   4.580367182  -1.302880219
| 30> H   0.374773115   4.915764831  -1.934164643
| 31> H   2.098649340   5.157710875  -1.570472348
| 32> H   0.950320401   4.800436015  -0.254328827
| 33> *
| 34>
| 35>                          ****END OF INPUT****

CARTESIAN COORDINATES (ANGSTROEM)
---------------------------------
  O     -1.358579    1.232360    1.189721
  H     -1.058250    1.216459    0.238591
  C     -0.389763    1.957873    1.943072
  H     -0.747221    2.012807    2.975200
  H     -0.260411    2.982763    1.565367
  H      0.585221    1.453754    1.934071
  O      2.622209   -1.703003   -1.445860
  H      1.828551   -1.986514   -0.909755
  C      2.781118   -2.615822   -2.525473
  H      3.691064   -2.339004   -3.065143
  H      1.934727   -2.559520   -3.223227
  H      2.879948   -3.653846   -2.177750
  O      1.390610    3.194081   -1.536659
  H      2.162932    2.881563   -0.993525
  C      1.202977    4.580367   -1.302880
  H      0.374773    4.915765   -1.934165
  H      2.098649    5.157711   -1.570472
  H      0.950320    4.800436   -0.254329

 Total Charge           Charge          ....    0
 Multiplicity           Mult            ....    1
 Number of Electrons    NEL             ....   54
 Basis Dimension        Dim             ....  258

ORBITAL ENERGIES
----------------

  NO   OCC          E(Eh)            E(eV)
   0   2.0000     -20.562418      -559.5318
   1   2.0000     -20.558571      -559.4272
   2   2.0000     -20.552479      -559.2614
   3   2.0000     -11.275167      -306.8129
   4   2.0000     -11.271751      -306.7199
   5   2.0000     -11.268620      -306.6347
   6   2.0000      -1.352798       -36.8115
   7   2.0000      -1.346636       -36.6438
   8   2.0000      -1.340156       -36.4675
   9   2.0000      -0.923348       -25.1256
  10   2.0000      -0.919574       -25.0229
  11   2.0000      -0.915754       -24.9189
  12   2.0000      -0.687152       -18.6984
  13   2.0000      -0.681457       -18.5434
  14   2.0000      -0.675851       -18.3909
  15   2.0000      -0.621736       -16.9183
  16   2.0000      -0.617235       -16.7958
  17   2.0000      -0.612489       -16.6667
  18   2.0000      -0.596437       -16.2299
  19   2.0000      -0.591787       -16.1033
  20   2.0000      -0.585863       -15.9421
  21   2.0000      -0.503472       -13.7002
  22   2.0000      -0.500398       -13.6165
  23   2.0000      -0.496343       -13.5062
  24   2.0000      -0.453072       -12.3287
  25   2.0000      -0.449484       -12.2311
  26   2.0000      -0.444918       -12.1068
  27   0.0000       0.109973         2.9925
  28   0.0000       0.136629         3.7179
  29   0.0000       0.160833         4.3765
  30   0.0000       0.170719         4.6455
  31   0.0000       0.179771         4.8918

MULLIKEN ATOMIC CHARGES
-----------------------
   0 O :   -0.505797
   1 H :    0.329620
   2 C :   -0.167823
   3 H :    0.129071
   4 H :    0.105208
   5 H :    0.105678
   6 O :   -0.502193
   7 H :    0.323589
   8 C :   -0.171232
   9 H :    0.128681
  10 H :    0.111406
  11 H :    0.109968
  12 O :   -0.501217
  13 H :    0.327834
  14 C :   -0.173804
  15 H :    0.131170
  16 H :    0.115949
  17 H :    0.103891
Sum of atomic charges:   -0.0000000

LOEWDIN ATOMIC CHARGES
----------------------
   0 O :   -0.113634
   1 H :    0.194310
   2 C :   -0.381666
   3 H :    0.109297
   4 H :    0.094644
   5 H :    0.094305
   6 O :   -0.112987
   7 H :    0.193181
   8 C :   -0.381786
   9 H :    0.110172
  10 H :    0.095958
  11 H :    0.095609
  12 O :   -0.105200
  13 H :    0.193018
  14 C :   -0.386111
  15 H :    0.111195
  16 H :    0.096995
  17 H :    0.092701

  Mayer bond orders larger than 0.100000
B(  0-O ,  1-H ) :   0.8365 B(  0-O ,  2-C ) :   0.9281 B(  2-C ,  3-H ) :   0.9370
B(  2-C ,  4-H ) :   0.9395 B(  2-C ,  5-H ) :   0.9406 B(  6-O ,  7-H ) :   0.8402
B(  6-O ,  8-C ) :   0.9242 B(  8-C ,  9-H ) :   0.9375 B(  8-C , 10-H ) :   0.9392
B(  8-C , 11-H ) :   0.9390 B( 12-O , 13-H ) :   0.8374 B( 12-O , 14-C ) :   0.9232
B( 14-C , 15-H ) :   0.9379 B( 14-C , 16-H ) :   0.9415 B( 14-C , 17-H ) :   0.9350

MP2 TOTAL ENERGY:     -346.522785675 Eh
FINAL SINGLE POINT ENERGY      -346.522785674930

DIPOLE MOMENT
-------------
                                X             Y             Z
Electronic contribution:     -1.22812      -1.46042       0.04795
Nuclear contribution   :      1.80618       1.57603      -0.06934
                        -----------------------------------------
Total Dipole Moment    :      0.57806       0.11561      -0.02139
                        -----------------------------------------
Magnitude (a.u.)       :      0.58990
Magnitude (Debye)      :      1.49940

Rotational constants in cm-1:     0.050695     0.021444     0.015735
Rotational constants in MHz :  1519.783050   642.889701   471.734543

                             ****ORCA TERMINATED NORMALLY****
TOTAL RUN TIME: 0 days 0 hours 0 minutes 55 seconds 403 msec
