                         Program Version 4.2.0 -  RELEASE  -
|  1> # 12meoh.boyd.etal.mol3,5,11
|  2> ! MP2 def2-TZVP EnGrad TightSCF
|  3>
|  4> %pal
|  5>     nprocs 6
|  6> end
|  7>
|  8> %maxcore 8000
|  9>
| 10> %scf
| 11>     ConvForced true
| 12> end
| 13>
| 14> *xyz 0 1
| 15> O  -3.821405976  -2.118091637   0.596795346
| 16> H  -4.342989117  -1.344303030   0.251966383
| 17> C  -3.443883586  -1.809641231   1.934889393
| 18> H  -2.831494349  -2.637429600   2.305201764
| 19> H  -4.325601146  -1.719364371   2.585074667
| 20> H  -2.858527126  -0.882644791   1.996110694
| 21> O  -0.662721750   1.449094618  -1.383082065
| 22> H   0.064188300   2.119867608  -1.465650660
| 23> C  -0.353319239   0.341218776  -2.229326771
| 24> H  -1.072358530  -0.454743281  -2.019906495
| 25> H   0.657636746  -0.044472139  -2.042736771
| 26> H  -0.434616607   0.624733901  -3.287793021
| 27> O   3.252955559   0.588596242   1.858934315
| 28> H   3.621209177  -0.251605199   1.476063364
| 29> C   4.040824528   0.944288422   2.989639460
| 30> H   3.670521436   1.902573549   3.363847391
| 31> H   5.103749934   1.055868619   2.734277559
| 32> H   3.948540682   0.200279590   3.792908518
| 33> *
| 34>
| 35>                          ****END OF INPUT****

CARTESIAN COORDINATES (ANGSTROEM)
---------------------------------
  O     -3.821406   -2.118092    0.596795
  H     -4.342989   -1.344303    0.251966
  C     -3.443884   -1.809641    1.934889
  H     -2.831494   -2.637430    2.305202
  H     -4.325601   -1.719364    2.585075
  H     -2.858527   -0.882645    1.996111
  O     -0.662722    1.449095   -1.383082
  H      0.064188    2.119868   -1.465651
  C     -0.353319    0.341219   -2.229327
  H     -1.072359   -0.454743   -2.019906
  H      0.657637   -0.044472   -2.042737
  H     -0.434617    0.624734   -3.287793
  O      3.252956    0.588596    1.858934
  H      3.621209   -0.251605    1.476063
  C      4.040825    0.944288    2.989639
  H      3.670521    1.902574    3.363847
  H      5.103750    1.055869    2.734278
  H      3.948541    0.200280    3.792909

 Total Charge           Charge          ....    0
 Multiplicity           Mult            ....    1
 Number of Electrons    NEL             ....   54
 Basis Dimension        Dim             ....  258

ORBITAL ENERGIES
----------------

  NO   OCC          E(Eh)            E(eV)
   0   2.0000     -20.558737      -559.4317
   1   2.0000     -20.551311      -559.2296
   2   2.0000     -20.550128      -559.1974
   3   2.0000     -11.272834      -306.7494
   4   2.0000     -11.265356      -306.5459
   5   2.0000     -11.264460      -306.5215
   6   2.0000      -1.348006       -36.6811
   7   2.0000      -1.340223       -36.4693
   8   2.0000      -1.338353       -36.4184
   9   2.0000      -0.920941       -25.0601
  10   2.0000      -0.913491       -24.8574
  11   2.0000      -0.912168       -24.8214
  12   2.0000      -0.682939       -18.5837
  13   2.0000      -0.674465       -18.3531
  14   2.0000      -0.674073       -18.3425
  15   2.0000      -0.618260       -16.8237
  16   2.0000      -0.610468       -16.6117
  17   2.0000      -0.610075       -16.6010
  18   2.0000      -0.592206       -16.1148
  19   2.0000      -0.583818       -15.8865
  20   2.0000      -0.583479       -15.8773
  21   2.0000      -0.501390       -13.6435
  22   2.0000      -0.494098       -13.4451
  23   2.0000      -0.493830       -13.4378
  24   2.0000      -0.450491       -12.2585
  25   2.0000      -0.442897       -12.0518
  26   2.0000      -0.442560       -12.0427
  27   0.0000       0.125952         3.4273
  28   0.0000       0.136237         3.7072
  29   0.0000       0.149547         4.0694
  30   0.0000       0.174024         4.7354
  31   0.0000       0.178602         4.8600

MULLIKEN ATOMIC CHARGES
-----------------------
   0 O :   -0.498917
   1 H :    0.323251
   2 C :   -0.177101
   3 H :    0.125234
   4 H :    0.106890
   5 H :    0.121934
   6 O :   -0.501136
   7 H :    0.323083
   8 C :   -0.175183
   9 H :    0.135744
  10 H :    0.109462
  11 H :    0.106596
  12 O :   -0.497160
  13 H :    0.321448
  14 C :   -0.172890
  15 H :    0.129590
  16 H :    0.109051
  17 H :    0.110105
Sum of atomic charges:   -0.0000000

LOEWDIN ATOMIC CHARGES
----------------------
   0 O :   -0.111442
   1 H :    0.191495
   2 C :   -0.381775
   3 H :    0.109244
   4 H :    0.094590
   5 H :    0.098576
   6 O :   -0.113717
   7 H :    0.189398
   8 C :   -0.377597
   9 H :    0.111045
  10 H :    0.095725
  11 H :    0.094376
  12 O :   -0.109304
  13 H :    0.189885
  14 C :   -0.381723
  15 H :    0.110392
  16 H :    0.095206
  17 H :    0.095624

  Mayer bond orders larger than 0.100000
B(  0-O ,  1-H ) :   0.8417 B(  0-O ,  2-C ) :   0.9233 B(  2-C ,  3-H ) :   0.9379
B(  2-C ,  4-H ) :   0.9387 B(  2-C ,  5-H ) :   0.9383 B(  6-O ,  7-H ) :   0.8419
B(  6-O ,  8-C ) :   0.9245 B(  8-C ,  9-H ) :   0.9364 B(  8-C , 10-H ) :   0.9402
B(  8-C , 11-H ) :   0.9383 B( 12-O , 13-H ) :   0.8423 B( 12-O , 14-C ) :   0.9260
B( 14-C , 15-H ) :   0.9376 B( 14-C , 16-H ) :   0.9387 B( 14-C , 17-H ) :   0.9390

MP2 TOTAL ENERGY:     -346.521050648 Eh
FINAL SINGLE POINT ENERGY      -346.521050648144

DIPOLE MOMENT
-------------
                                X             Y             Z
Electronic contribution:     -1.96322       0.47788      -1.95075
Nuclear contribution   :      2.93757      -0.28286       2.13368
                        -----------------------------------------
Total Dipole Moment    :      0.97435       0.19503       0.18293
                        -----------------------------------------
Magnitude (a.u.)       :      1.01037
Magnitude (Debye)      :      2.56817

Rotational constants in cm-1:     0.044654     0.016113     0.012310
Rotational constants in MHz :  1338.685597   483.046858   369.040403

                             ****ORCA TERMINATED NORMALLY****
TOTAL RUN TIME: 0 days 0 hours 0 minutes 49 seconds 549 msec
