                         Program Version 4.2.0 -  RELEASE  -
|  1> # 12h2o.su.etal.mol2,5,6,7
|  2> ! MP2 def2-TZVP EnGrad TightSCF
|  3>
|  4> %pal
|  5>     nprocs 6
|  6> end
|  7>
|  8> %maxcore 8000
|  9>
| 10> %scf
| 11>     ConvForced true
| 12> end
| 13>
| 14> *xyz 0 1
| 15> O   0.923410000  -1.794470000  -2.768350000
| 16> H   1.359750000  -2.338250000  -3.430940000
| 17> H   1.303000000  -0.879480000  -2.865760000
| 18> O   0.885520000  -1.737840000   0.052730000
| 19> H   1.284090000  -0.839590000   0.017130000
| 20> H   1.032320000  -2.090180000  -0.841890000
| 21> O   1.737840000   0.885520000  -0.052730000
| 22> H   2.090180000   1.032320000   0.841890000
| 23> H   0.839590000   1.284090000  -0.017130000
| 24> O  -1.737840000  -0.885520000  -0.052730000
| 25> H  -2.090180000  -1.032320000   0.841890000
| 26> H  -0.839590000  -1.284090000  -0.017130000
| 27> *
| 28>
| 29>                          ****END OF INPUT****

CARTESIAN COORDINATES (ANGSTROEM)
---------------------------------
  O      0.923410   -1.794470   -2.768350
  H      1.359750   -2.338250   -3.430940
  H      1.303000   -0.879480   -2.865760
  O      0.885520   -1.737840    0.052730
  H      1.284090   -0.839590    0.017130
  H      1.032320   -2.090180   -0.841890
  O      1.737840    0.885520   -0.052730
  H      2.090180    1.032320    0.841890
  H      0.839590    1.284090   -0.017130
  O     -1.737840   -0.885520   -0.052730
  H     -2.090180   -1.032320    0.841890
  H     -0.839590   -1.284090   -0.017130

 Total Charge           Charge          ....    0
 Multiplicity           Mult            ....    1
 Number of Electrons    NEL             ....   40
 Basis Dimension        Dim             ....  172

ORBITAL ENERGIES
----------------

  NO   OCC          E(Eh)            E(eV)
   0   2.0000     -20.599758      -560.5479
   1   2.0000     -20.582996      -560.0918
   2   2.0000     -20.529888      -558.6466
   3   2.0000     -20.512234      -558.1663
   4   2.0000      -1.380629       -37.5688
   5   2.0000      -1.360993       -37.0345
   6   2.0000      -1.319760       -35.9125
   7   2.0000      -1.291872       -35.1536
   8   2.0000      -0.738259       -20.0890
   9   2.0000      -0.727660       -19.8006
  10   2.0000      -0.695386       -18.9224
  11   2.0000      -0.666040       -18.1239
  12   2.0000      -0.623484       -16.9659
  13   2.0000      -0.601795       -16.3757
  14   2.0000      -0.571151       -15.5418
  15   2.0000      -0.543603       -14.7922
  16   2.0000      -0.529347       -14.4043
  17   2.0000      -0.515571       -14.0294
  18   2.0000      -0.474548       -12.9131
  19   2.0000      -0.460517       -12.5313
  20   0.0000       0.102137         2.7793
  21   0.0000       0.128972         3.5095
  22   0.0000       0.171803         4.6750
  23   0.0000       0.187127         5.0920
  24   0.0000       0.203423         5.5354

MULLIKEN ATOMIC CHARGES
-----------------------
   0 O :   -0.691302
   1 H :    0.348612
   2 H :    0.357314
   3 O :   -0.727016
   4 H :    0.347677
   5 H :    0.374237
   6 O :   -0.693098
   7 H :    0.359857
   8 H :    0.367873
   9 O :   -0.725378
  10 H :    0.319733
  11 H :    0.361490
Sum of atomic charges:    0.0000000

LOEWDIN ATOMIC CHARGES
----------------------
   0 O :   -0.308335
   1 H :    0.161949
   2 H :    0.186348
   3 O :   -0.318607
   4 H :    0.137353
   5 H :    0.149220
   6 O :   -0.293035
   7 H :    0.174549
   8 H :    0.183352
   9 O :   -0.368157
  10 H :    0.154018
  11 H :    0.141345

  Mayer bond orders larger than 0.100000
B(  0-O ,  1-H ) :   0.8438 B(  0-O ,  2-H ) :   0.8326 B(  3-O ,  4-H ) :   0.7988
B(  3-O ,  5-H ) :   0.8103 B(  6-O ,  7-H ) :   0.8368 B(  6-O ,  8-H ) :   0.8251
B(  9-O , 10-H ) :   0.8623 B(  9-O , 11-H ) :   0.7826

MP2 TOTAL ENERGY:     -305.277539630 Eh
FINAL SINGLE POINT ENERGY      -305.277539630166

DIPOLE MOMENT
-------------
                                X             Y             Z
Electronic contribution:      0.16153       0.00397      -0.23340
Nuclear contribution   :      1.13309       0.76337       0.14168
                        -----------------------------------------
Total Dipole Moment    :      1.29462       0.76735      -0.09171
                        -----------------------------------------
Magnitude (a.u.)       :      1.50774
Magnitude (Debye)      :      3.83237

Rotational constants in cm-1:     0.097598     0.092289     0.059220
Rotational constants in MHz :  2925.910405  2766.740760  1775.364197

                             ****ORCA TERMINATED NORMALLY****
TOTAL RUN TIME: 0 days 0 hours 0 minutes 20 seconds 821 msec
