                         Program Version 4.2.0 -  RELEASE  -
|  1> # 12h2o.su.etal.mol1,4,6,8,10,11
|  2> ! MP2 def2-TZVP EnGrad TightSCF
|  3>
|  4> %pal
|  5>     nprocs 6
|  6> end
|  7>
|  8> %maxcore 8000
|  9>
| 10> %scf
| 11>     ConvForced true
| 12> end
| 13>
| 14> *xyz 0 1
| 15> O  -1.794470000  -0.923410000   2.768350000
| 16> H  -2.338250000  -1.359750000   3.430940000
| 17> H  -0.879480000  -1.303000000   2.865760000
| 18> O  -0.885520000   1.737840000   0.052730000
| 19> H  -1.032320000   2.090180000  -0.841890000
| 20> H  -1.284090000   0.839590000   0.017130000
| 21> O   1.737840000   0.885520000  -0.052730000
| 22> H   2.090180000   1.032320000   0.841890000
| 23> H   0.839590000   1.284090000  -0.017130000
| 24> O   1.752130000   0.741530000  -2.896280000
| 25> H   2.036450000   0.920500000  -1.984040000
| 26> H   0.921210000   1.242140000  -2.984230000
| 27> O  -0.923410000   1.794470000  -2.768350000
| 28> H  -1.359750000   2.338250000  -3.430940000
| 29> H  -1.303000000   0.879480000  -2.865760000
| 30> O  -0.741530000   1.752130000   2.896280000
| 31> H  -0.920500000   2.036450000   1.984040000
| 32> H  -1.242140000   0.921210000   2.984230000
| 33> *
| 34>
| 35>                          ****END OF INPUT****

CARTESIAN COORDINATES (ANGSTROEM)
---------------------------------
  O     -1.794470   -0.923410    2.768350
  H     -2.338250   -1.359750    3.430940
  H     -0.879480   -1.303000    2.865760
  O     -0.885520    1.737840    0.052730
  H     -1.032320    2.090180   -0.841890
  H     -1.284090    0.839590    0.017130
  O      1.737840    0.885520   -0.052730
  H      2.090180    1.032320    0.841890
  H      0.839590    1.284090   -0.017130
  O      1.752130    0.741530   -2.896280
  H      2.036450    0.920500   -1.984040
  H      0.921210    1.242140   -2.984230
  O     -0.923410    1.794470   -2.768350
  H     -1.359750    2.338250   -3.430940
  H     -1.303000    0.879480   -2.865760
  O     -0.741530    1.752130    2.896280
  H     -0.920500    2.036450    1.984040
  H     -1.242140    0.921210    2.984230

 Total Charge           Charge          ....    0
 Multiplicity           Mult            ....    1
 Number of Electrons    NEL             ....   60
 Basis Dimension        Dim             ....  258

ORBITAL ENERGIES
----------------

  NO   OCC          E(Eh)            E(eV)
   0   2.0000     -20.622900      -561.1776
   1   2.0000     -20.596031      -560.4465
   2   2.0000     -20.591912      -560.3344
   3   2.0000     -20.538224      -558.8735
   4   2.0000     -20.514912      -558.2391
   5   2.0000     -20.503448      -557.9272
   6   2.0000      -1.403733       -38.1975
   7   2.0000      -1.377414       -37.4813
   8   2.0000      -1.373587       -37.3772
   9   2.0000      -1.321951       -35.9721
  10   2.0000      -1.300258       -35.3818
  11   2.0000      -1.288423       -35.0598
  12   2.0000      -0.768943       -20.9240
  13   2.0000      -0.741510       -20.1775
  14   2.0000      -0.740618       -20.1532
  15   2.0000      -0.696945       -18.9648
  16   2.0000      -0.679420       -18.4880
  17   2.0000      -0.670869       -18.2553
  18   2.0000      -0.644535       -17.5387
  19   2.0000      -0.618217       -16.8225
  20   2.0000      -0.604255       -16.4426
  21   2.0000      -0.586448       -15.9580
  22   2.0000      -0.562851       -15.3160
  23   2.0000      -0.546040       -14.8585
  24   2.0000      -0.529397       -14.4056
  25   2.0000      -0.521636       -14.1944
  26   2.0000      -0.516717       -14.0606
  27   2.0000      -0.486738       -13.2448
  28   2.0000      -0.464653       -12.6438
  29   2.0000      -0.453118       -12.3300
  30   0.0000       0.084491         2.2991
  31   0.0000       0.105397         2.8680
  32   0.0000       0.147805         4.0220
  33   0.0000       0.161833         4.4037
  34   0.0000       0.184000         5.0069

MULLIKEN ATOMIC CHARGES
-----------------------
   0 O :   -0.700910
   1 H :    0.356063
   2 H :    0.364043
   3 O :   -0.717978
   4 H :    0.385682
   5 H :    0.354795
   6 O :   -0.729142
   7 H :    0.341548
   8 H :    0.356690
   9 O :   -0.723704
  10 H :    0.372006
  11 H :    0.333849
  12 O :   -0.713998
  13 H :    0.368754
  14 H :    0.369666
  15 O :   -0.724918
  16 H :    0.364419
  17 H :    0.343137
Sum of atomic charges:    0.0000000

LOEWDIN ATOMIC CHARGES
----------------------
   0 O :   -0.313574
   1 H :    0.165022
   2 H :    0.189597
   3 O :   -0.280559
   4 H :    0.155324
   5 H :    0.176423
   6 O :   -0.341823
   7 H :    0.164084
   8 H :    0.142470
   9 O :   -0.354964
  10 H :    0.152288
  11 H :    0.136500
  12 O :   -0.286631
  13 H :    0.170010
  14 H :    0.191766
  15 O :   -0.353833
  16 H :    0.146839
  17 H :    0.141060

  Mayer bond orders larger than 0.100000
B(  0-O ,  1-H ) :   0.8398 B(  0-O ,  2-H ) :   0.8281 B(  3-O ,  4-H ) :   0.7967
B(  3-O ,  5-H ) :   0.8318 B(  6-O ,  7-H ) :   0.8462 B(  6-O ,  8-H ) :   0.7873
B(  9-O , 10-H ) :   0.8173 B(  9-O , 11-H ) :   0.8451 B( 12-O , 13-H ) :   0.8295
B( 12-O , 14-H ) :   0.8213 B( 15-O , 16-H ) :   0.8290 B( 15-O , 17-H ) :   0.8295

MP2 TOTAL ENERGY:     -457.918919042 Eh
FINAL SINGLE POINT ENERGY      -457.918919041611

DIPOLE MOMENT
-------------
                                X             Y             Z
Electronic contribution:     -0.06373       0.11236      -0.12190
Nuclear contribution   :     -2.29913      -0.87789       0.00000
                        -----------------------------------------
Total Dipole Moment    :     -2.36286      -0.76553      -0.12190
                        -----------------------------------------
Magnitude (a.u.)       :      2.48676
Magnitude (Debye)      :      6.32085

Rotational constants in cm-1:     0.073298     0.022627     0.020893
Rotational constants in MHz :  2197.413362   678.345019   626.366735

                             ****ORCA TERMINATED NORMALLY****
TOTAL RUN TIME: 0 days 0 hours 0 minutes 57 seconds 384 msec
