                         Program Version 4.2.0 -  RELEASE  -
|  1> ! MP2 def2-TZVP EnGrad TightSCF FrozenCore
|  2>
|  3> %pal
|  4>     nprocs 8
|  5> end
|  6>
|  7> %maxcore 8000
|  8>
|  9> %scf
| 10>     ConvForced true
| 11> end
| 12>
| 13> *xyz 0 1
| 14> O   0.059595236  -2.073611296  -0.309397414
| 15> H  -0.057004764  -1.864511296   0.638502586
| 16> H   0.013195236  -3.035511296  -0.372097414
| 17> O  -0.157504764  -0.436211296   1.910402586
| 18> H   0.604195236   0.001488704   1.451802586
| 19> H   0.013995236  -0.347411296   2.855402586
| 20> O   1.762695236   0.372988704   0.190602586
| 21> H   1.650895236  -0.449511296  -0.311697414
| 22> H   1.338595236   1.047388704  -0.383597414
| 23> O   0.120895236   2.031388704  -1.338197414
| 24> H  -0.665804764   1.487788704  -1.108497414
| 25> H   0.120895236   2.080388704  -2.301797414
| 26> O  -1.787504764   0.200188704  -0.468297414
| 27> H  -1.641104764   0.205788704   0.492802586
| 28> H  -1.348904764  -0.629911296  -0.724497414
| 29> *
| 30>
| 31>
| 32>                          ****END OF INPUT****

CARTESIAN COORDINATES (ANGSTROEM)
---------------------------------
  O      0.059595   -2.073611   -0.309397
  H     -0.057005   -1.864511    0.638503
  H      0.013195   -3.035511   -0.372097
  O     -0.157505   -0.436211    1.910403
  H      0.604195    0.001489    1.451803
  H      0.013995   -0.347411    2.855403
  O      1.762695    0.372989    0.190603
  H      1.650895   -0.449511   -0.311697
  H      1.338595    1.047389   -0.383597
  O      0.120895    2.031389   -1.338197
  H     -0.665805    1.487789   -1.108497
  H      0.120895    2.080389   -2.301797
  O     -1.787505    0.200189   -0.468297
  H     -1.641105    0.205789    0.492803
  H     -1.348905   -0.629911   -0.724497

 Total Charge           Charge          ....    0
 Multiplicity           Mult            ....    1
 Number of Electrons    NEL             ....   50
 Basis Dimension        Dim             ....  215

ORBITAL ENERGIES
----------------

  NO   OCC          E(Eh)            E(eV)
   0   2.0000     -20.577288      -559.9365
   1   2.0000     -20.568061      -559.6854
   2   2.0000     -20.554665      -559.3209
   3   2.0000     -20.552269      -559.2557
   4   2.0000     -20.549349      -559.1762
   5   2.0000      -1.369770       -37.2733
   6   2.0000      -1.353345       -36.8264
   7   2.0000      -1.346694       -36.6454
   8   2.0000      -1.338015       -36.4092
   9   2.0000      -1.326893       -36.1066
  10   2.0000      -0.748324       -20.3629
  11   2.0000      -0.718762       -19.5585
  12   2.0000      -0.713377       -19.4120
  13   2.0000      -0.698847       -19.0166
  14   2.0000      -0.697049       -18.9677
  15   2.0000      -0.617314       -16.7980
  16   2.0000      -0.608902       -16.5691
  17   2.0000      -0.586313       -15.9544
  18   2.0000      -0.583987       -15.8911
  19   2.0000      -0.558302       -15.1922
  20   2.0000      -0.524501       -14.2724
  21   2.0000      -0.518187       -14.1006
  22   2.0000      -0.503978       -13.7139
  23   2.0000      -0.495454       -13.4820
  24   2.0000      -0.494798       -13.4641
  25   0.0000       0.115412         3.1405
  26   0.0000       0.149128         4.0580
  27   0.0000       0.150687         4.1004
  28   0.0000       0.213580         5.8118
  29   0.0000       0.215668         5.8686

MULLIKEN ATOMIC CHARGES
-----------------------
   0 O :   -0.722482
   1 H :    0.369290
   2 H :    0.344576
   3 O :   -0.751772
   4 H :    0.388924
   5 H :    0.347043
   6 O :   -0.733603
   7 H :    0.353611
   8 H :    0.395271
   9 O :   -0.729507
  10 H :    0.383167
  11 H :    0.341130
  12 O :   -0.720271
  13 H :    0.368776
  14 H :    0.365847
Sum of atomic charges:   -0.0000000

LOEWDIN ATOMIC CHARGES
----------------------
   0 O :   -0.319819
   1 H :    0.155889
   2 H :    0.163747
   3 O :   -0.330379
   4 H :    0.153050
   5 H :    0.161805
   6 O :   -0.301983
   7 H :    0.154423
   8 H :    0.155064
   9 O :   -0.317463
  10 H :    0.151861
  11 H :    0.159822
  12 O :   -0.299638
  13 H :    0.159285
  14 H :    0.154336

  Mayer bond orders larger than 0.100000
B(  0-O ,  1-H ) :   0.7885 B(  0-O ,  2-H ) :   0.8445 B(  3-O ,  4-H ) :   0.7432
B(  3-O ,  5-H ) :   0.8437 B(  4-H ,  6-O ) :   0.1025 B(  6-O ,  7-H ) :   0.8286
B(  6-O ,  8-H ) :   0.7736 B(  9-O , 10-H ) :   0.7729 B(  9-O , 11-H ) :   0.8476
B( 12-O , 13-H ) :   0.8184 B( 12-O , 14-H ) :   0.8152

MP2 TOTAL ENERGY:     -381.627291997 Eh
FINAL SINGLE POINT ENERGY      -381.627291997007

DIPOLE MOMENT
-------------
                                X             Y             Z
Electronic contribution:     -0.01824       0.23021      -0.04141
Nuclear contribution   :      0.02713      -1.40960       0.22149
                        -----------------------------------------
Total Dipole Moment    :      0.00890      -1.17940       0.18008
                        -----------------------------------------
Magnitude (a.u.)       :      1.19310
Magnitude (Debye)      :      3.03262

Rotational constants in cm-1:     0.089584     0.062886     0.053868
Rotational constants in MHz :  2685.659504  1885.280384  1614.916714

                             ****ORCA TERMINATED NORMALLY****
TOTAL RUN TIME: 0 days 0 hours 0 minutes 41 seconds 519 msec
