                         Program Version 4.2.0 -  RELEASE  -
|  1> # 12mecn.remya.etal.2.mol1,7
|  2> ! MP2 def2-TZVP EnGrad TightSCF
|  3>
|  4> %pal
|  5>     nprocs 6
|  6> end
|  7>
|  8> %maxcore 8000
|  9>
| 10> %scf
| 11>     ConvForced true
| 12> end
| 13>
| 14> *xyz 0 1
| 15> C  -4.697980000  -0.249690000   1.746215000
| 16> H  -4.927570000   0.755530000   2.111799000
| 17> H  -3.709180000  -0.561560000   2.093253000
| 18> H  -5.432280000  -0.961520000   2.128066000
| 19> C  -4.714100000  -0.247110000   0.301670000
| 20> N  -4.729750000  -0.234960000  -0.865260000
| 21> C   1.502241000   0.651296000   1.710523000
| 22> H   1.309219000   1.637164000   2.143202000
| 23> H   2.493408000   0.297996000   2.009069000
| 24> H   0.746597000  -0.059850000   2.055508000
| 25> C   1.447974000   0.738517000   0.269805000
| 26> N   1.405612000   0.808047000  -0.894380000
| 27> *
| 28>
| 29>                          ****END OF INPUT****

CARTESIAN COORDINATES (ANGSTROEM)
---------------------------------
  C     -4.697980   -0.249690    1.746215
  H     -4.927570    0.755530    2.111799
  H     -3.709180   -0.561560    2.093253
  H     -5.432280   -0.961520    2.128066
  C     -4.714100   -0.247110    0.301670
  N     -4.729750   -0.234960   -0.865260
  C      1.502241    0.651296    1.710523
  H      1.309219    1.637164    2.143202
  H      2.493408    0.297996    2.009069
  H      0.746597   -0.059850    2.055508
  C      1.447974    0.738517    0.269805
  N      1.405612    0.808047   -0.894380

 Total Charge           Charge          ....    0
 Multiplicity           Mult            ....    1
 Number of Electrons    NEL             ....   44
 Basis Dimension        Dim             ....  222

ORBITAL ENERGIES
----------------

  NO   OCC          E(Eh)            E(eV)
   0   2.0000     -15.573442      -423.7749
   1   2.0000     -15.573405      -423.7739
   2   2.0000     -11.287634      -307.1521
   3   2.0000     -11.287144      -307.1388
   4   2.0000     -11.279791      -306.9387
   5   2.0000     -11.279771      -306.9382
   6   2.0000      -1.214394       -33.0453
   7   2.0000      -1.214184       -33.0396
   8   2.0000      -1.046239       -28.4696
   9   2.0000      -1.045899       -28.4604
  10   2.0000      -0.701663       -19.0932
  11   2.0000      -0.700687       -19.0667
  12   2.0000      -0.636174       -17.3112
  13   2.0000      -0.635559       -17.2944
  14   2.0000      -0.634302       -17.2602
  15   2.0000      -0.632154       -17.2018
  16   2.0000      -0.555401       -15.1132
  17   2.0000      -0.555371       -15.1124
  18   2.0000      -0.457663       -12.4536
  19   2.0000      -0.457629       -12.4527
  20   2.0000      -0.457404       -12.4466
  21   2.0000      -0.457049       -12.4369
  22   0.0000       0.101073         2.7503
  23   0.0000       0.125531         3.4159
  24   0.0000       0.158940         4.3250
  25   0.0000       0.169296         4.6068
  26   0.0000       0.170681         4.6445

MULLIKEN ATOMIC CHARGES
-----------------------
   0 C :   -0.278705
   1 H :    0.172573
   2 H :    0.165708
   3 H :    0.172901
   4 C :   -0.145475
   5 N :   -0.087001
   6 C :   -0.278218
   7 H :    0.171944
   8 H :    0.173044
   9 H :    0.166713
  10 C :   -0.146434
  11 N :   -0.087050
Sum of atomic charges:    0.0000000

LOEWDIN ATOMIC CHARGES
----------------------
   0 C :   -0.284739
   1 H :    0.152738
   2 H :    0.150801
   3 H :    0.151642
   4 C :   -0.220565
   5 N :    0.050125
   6 C :   -0.284649
   7 H :    0.152194
   8 H :    0.153203
   9 H :    0.151008
  10 C :   -0.221627
  11 N :    0.049869

  Mayer bond orders larger than 0.100000
B(  0-C ,  1-H ) :   0.9164 B(  0-C ,  2-H ) :   0.9184 B(  0-C ,  3-H ) :   0.9171
B(  0-C ,  4-C ) :   0.9015 B(  4-C ,  5-N ) :   2.8332 B(  6-C ,  7-H ) :   0.9169
B(  6-C ,  8-H ) :   0.9166 B(  6-C ,  9-H ) :   0.9183 B(  6-C , 10-C ) :   0.9001
B( 10-C , 11-N ) :   2.8336

MP2 TOTAL ENERGY:     -264.964983769 Eh
FINAL SINGLE POINT ENERGY      -264.964983768566

DIPOLE MOMENT
-------------
                                X             Y             Z
Electronic contribution:     -0.16377       0.22015      -6.25658
Nuclear contribution   :      0.23949      -0.32248       9.25707
                        -----------------------------------------
Total Dipole Moment    :      0.07572      -0.10233       3.00049
                        -----------------------------------------
Magnitude (a.u.)       :      3.00318
Magnitude (Debye)      :      7.63349

Rotational constants in cm-1:     0.154356     0.020896     0.018539
Rotational constants in MHz :  4627.483902   626.440900   555.799162

                             ****ORCA TERMINATED NORMALLY****
TOTAL RUN TIME: 0 days 0 hours 0 minutes 47 seconds 939 msec
