                         Program Version 4.2.0 -  RELEASE  -
|  1> # 12h2o.su.etal.mol0,1,3,5,7,9,10,11
|  2> ! MP2 def2-TZVP EnGrad TightSCF
|  3>
|  4> %pal
|  5>     nprocs 6
|  6> end
|  7>
|  8> %maxcore 8000
|  9>
| 10> %scf
| 11>     ConvForced true
| 12> end
| 13>
| 14> *xyz 0 1
| 15> O   1.794470000   0.923410000   2.768350000
| 16> H   2.338250000   1.359750000   3.430940000
| 17> H   0.879480000   1.303000000   2.865760000
| 18> O  -1.794470000  -0.923410000   2.768350000
| 19> H  -2.338250000  -1.359750000   3.430940000
| 20> H  -0.879480000  -1.303000000   2.865760000
| 21> O  -1.752130000  -0.741530000  -2.896280000
| 22> H  -2.036450000  -0.920500000  -1.984040000
| 23> H  -0.921210000  -1.242140000  -2.984230000
| 24> O   0.885520000  -1.737840000   0.052730000
| 25> H   1.284090000  -0.839590000   0.017130000
| 26> H   1.032320000  -2.090180000  -0.841890000
| 27> O  -1.737840000  -0.885520000  -0.052730000
| 28> H  -2.090180000  -1.032320000   0.841890000
| 29> H  -0.839590000  -1.284090000  -0.017130000
| 30> O   0.741530000  -1.752130000   2.896280000
| 31> H   0.920500000  -2.036450000   1.984040000
| 32> H   1.242140000  -0.921210000   2.984230000
| 33> O  -0.923410000   1.794470000  -2.768350000
| 34> H  -1.359750000   2.338250000  -3.430940000
| 35> H  -1.303000000   0.879480000  -2.865760000
| 36> O  -0.741530000   1.752130000   2.896280000
| 37> H  -0.920500000   2.036450000   1.984040000
| 38> H  -1.242140000   0.921210000   2.984230000
| 39> *
| 40>
| 41>                          ****END OF INPUT****

CARTESIAN COORDINATES (ANGSTROEM)
---------------------------------
  O      1.794470    0.923410    2.768350
  H      2.338250    1.359750    3.430940
  H      0.879480    1.303000    2.865760
  O     -1.794470   -0.923410    2.768350
  H     -2.338250   -1.359750    3.430940
  H     -0.879480   -1.303000    2.865760
  O     -1.752130   -0.741530   -2.896280
  H     -2.036450   -0.920500   -1.984040
  H     -0.921210   -1.242140   -2.984230
  O      0.885520   -1.737840    0.052730
  H      1.284090   -0.839590    0.017130
  H      1.032320   -2.090180   -0.841890
  O     -1.737840   -0.885520   -0.052730
  H     -2.090180   -1.032320    0.841890
  H     -0.839590   -1.284090   -0.017130
  O      0.741530   -1.752130    2.896280
  H      0.920500   -2.036450    1.984040
  H      1.242140   -0.921210    2.984230
  O     -0.923410    1.794470   -2.768350
  H     -1.359750    2.338250   -3.430940
  H     -1.303000    0.879480   -2.865760
  O     -0.741530    1.752130    2.896280
  H     -0.920500    2.036450    1.984040
  H     -1.242140    0.921210    2.984230

 Total Charge           Charge          ....    0
 Multiplicity           Mult            ....    1
 Number of Electrons    NEL             ....   80
 Basis Dimension        Dim             ....  344

ORBITAL ENERGIES
----------------

  NO   OCC          E(Eh)            E(eV)
   0   2.0000     -20.626068      -561.2638
   1   2.0000     -20.569763      -559.7317
   2   2.0000     -20.569078      -559.7131
   3   2.0000     -20.566114      -559.6324
   4   2.0000     -20.562518      -559.5346
   5   2.0000     -20.552998      -559.2755
   6   2.0000     -20.539081      -558.8968
   7   2.0000     -20.507297      -558.0319
   8   2.0000      -1.409242       -38.3474
   9   2.0000      -1.368892       -37.2495
  10   2.0000      -1.357768       -36.9468
  11   2.0000      -1.355780       -36.8927
  12   2.0000      -1.347025       -36.6544
  13   2.0000      -1.331814       -36.2405
  14   2.0000      -1.323440       -36.0126
  15   2.0000      -1.289391       -35.0861
  16   2.0000      -0.767538       -20.8858
  17   2.0000      -0.735584       -20.0162
  18   2.0000      -0.726036       -19.7564
  19   2.0000      -0.719068       -19.5668
  20   2.0000      -0.718482       -19.5509
  21   2.0000      -0.713478       -19.4147
  22   2.0000      -0.704581       -19.1726
  23   2.0000      -0.677578       -18.4378
  24   2.0000      -0.654421       -17.8077
  25   2.0000      -0.622717       -16.9450
  26   2.0000      -0.610631       -16.6161
  27   2.0000      -0.597917       -16.2701
  28   2.0000      -0.589989       -16.0544
  29   2.0000      -0.579734       -15.7754
  30   2.0000      -0.558987       -15.2108
  31   2.0000      -0.547664       -14.9027
  32   2.0000      -0.537241       -14.6191
  33   2.0000      -0.515361       -14.0237
  34   2.0000      -0.510710       -13.8971
  35   2.0000      -0.509231       -13.8569
  36   2.0000      -0.502574       -13.6757
  37   2.0000      -0.496635       -13.5141
  38   2.0000      -0.489064       -13.3081
  39   2.0000      -0.457889       -12.4598
  40   0.0000       0.080376         2.1871
  41   0.0000       0.122998         3.3469
  42   0.0000       0.145578         3.9614
  43   0.0000       0.161991         4.4080
  44   0.0000       0.167308         4.5527

MULLIKEN ATOMIC CHARGES
-----------------------
   0 O :   -0.749606
   1 H :    0.344818
   2 H :    0.381443
   3 O :   -0.758047
   4 H :    0.351023
   5 H :    0.383912
   6 O :   -0.688986
   7 H :    0.391570
   8 H :    0.325139
   9 O :   -0.714903
  10 H :    0.386952
  11 H :    0.363533
  12 O :   -0.741602
  13 H :    0.373414
  14 H :    0.337691
  15 O :   -0.722021
  16 H :    0.381248
  17 H :    0.371956
  18 O :   -0.739396
  19 H :    0.321849
  20 H :    0.369594
  21 O :   -0.712641
  22 H :    0.364565
  23 H :    0.378495
Sum of atomic charges:    0.0000000

LOEWDIN ATOMIC CHARGES
----------------------
   0 O :   -0.344268
   1 H :    0.157510
   2 H :    0.145349
   3 O :   -0.315690
   4 H :    0.159379
   5 H :    0.146079
   6 O :   -0.277250
   7 H :    0.160053
   8 H :    0.160179
   9 O :   -0.276900
  10 H :    0.191395
  11 H :    0.174803
  12 O :   -0.345517
  13 H :    0.149976
  14 H :    0.135613
  15 O :   -0.285071
  16 H :    0.154662
  17 H :    0.151236
  18 O :   -0.376602
  19 H :    0.146653
  20 H :    0.142375
  21 O :   -0.283147
  22 H :    0.175521
  23 H :    0.153663

  Mayer bond orders larger than 0.100000
B(  0-O ,  1-H ) :   0.8465 B(  0-O ,  2-H ) :   0.7459 B(  2-H , 21-O ) :   0.1111
B(  3-O ,  4-H ) :   0.8402 B(  3-O ,  5-H ) :   0.7275 B(  5-H , 15-O ) :   0.1225
B(  6-O ,  7-H ) :   0.7886 B(  6-O ,  8-H ) :   0.8558 B(  9-O , 10-H ) :   0.8108
B(  9-O , 11-H ) :   0.8317 B( 12-O , 13-H ) :   0.8081 B( 12-O , 14-H ) :   0.8017
B( 15-O , 16-H ) :   0.8141 B( 15-O , 17-H ) :   0.7864 B( 18-O , 19-H ) :   0.8626
B( 18-O , 20-H ) :   0.7795 B( 21-O , 22-H ) :   0.8320 B( 21-O , 23-H ) :   0.7899

MP2 TOTAL ENERGY:     -610.589939889 Eh
FINAL SINGLE POINT ENERGY      -610.589939888731

DIPOLE MOMENT
-------------
                                X             Y             Z
Electronic contribution:      0.00541      -0.17885       0.33722
Nuclear contribution   :      0.68416      -0.87419      -0.05351
                        -----------------------------------------
Total Dipole Moment    :      0.68956      -1.05304       0.28371
                        -----------------------------------------
Magnitude (a.u.)       :      1.29030
Magnitude (Debye)      :      3.27969

Rotational constants in cm-1:     0.035927     0.016035     0.014941
Rotational constants in MHz :  1077.062181   480.722602   447.930237

                             ****ORCA TERMINATED NORMALLY****
TOTAL RUN TIME: 0 days 0 hours 3 minutes 4 seconds 846 msec
