                         Program Version 4.2.0 -  RELEASE  -
|  1> # 12h2o.su.etal.mol1,5,11
|  2> ! MP2 def2-TZVP EnGrad TightSCF
|  3>
|  4> %pal
|  5>     nprocs 6
|  6> end
|  7>
|  8> %maxcore 8000
|  9>
| 10> %scf
| 11>     ConvForced true
| 12> end
| 13>
| 14> *xyz 0 1
| 15> O  -1.794470000  -0.923410000   2.768350000
| 16> H  -2.338250000  -1.359750000   3.430940000
| 17> H  -0.879480000  -1.303000000   2.865760000
| 18> O   0.885520000  -1.737840000   0.052730000
| 19> H   1.284090000  -0.839590000   0.017130000
| 20> H   1.032320000  -2.090180000  -0.841890000
| 21> O  -0.741530000   1.752130000   2.896280000
| 22> H  -0.920500000   2.036450000   1.984040000
| 23> H  -1.242140000   0.921210000   2.984230000
| 24> *
| 25>
| 26>                          ****END OF INPUT****

CARTESIAN COORDINATES (ANGSTROEM)
---------------------------------
  O     -1.794470   -0.923410    2.768350
  H     -2.338250   -1.359750    3.430940
  H     -0.879480   -1.303000    2.865760
  O      0.885520   -1.737840    0.052730
  H      1.284090   -0.839590    0.017130
  H      1.032320   -2.090180   -0.841890
  O     -0.741530    1.752130    2.896280
  H     -0.920500    2.036450    1.984040
  H     -1.242140    0.921210    2.984230

 Total Charge           Charge          ....    0
 Multiplicity           Mult            ....    1
 Number of Electrons    NEL             ....   30
 Basis Dimension        Dim             ....  129

ORBITAL ENERGIES
----------------

  NO   OCC          E(Eh)            E(eV)
   0   2.0000     -20.579713      -560.0025
   1   2.0000     -20.568725      -559.7035
   2   2.0000     -20.528402      -558.6062
   3   2.0000      -1.357453       -36.9382
   4   2.0000      -1.344725       -36.5918
   5   2.0000      -1.310699       -35.6659
   6   2.0000      -0.724556       -19.7162
   7   2.0000      -0.706832       -19.2339
   8   2.0000      -0.679624       -18.4935
   9   2.0000      -0.597596       -16.2614
  10   2.0000      -0.584696       -15.9104
  11   2.0000      -0.552069       -15.0226
  12   2.0000      -0.517347       -14.0777
  13   2.0000      -0.511460       -13.9175
  14   2.0000      -0.476130       -12.9561
  15   0.0000       0.107573         2.9272
  16   0.0000       0.134836         3.6691
  17   0.0000       0.167407         4.5554
  18   0.0000       0.201020         5.4700
  19   0.0000       0.208690         5.6787

MULLIKEN ATOMIC CHARGES
-----------------------
   0 O :   -0.695216
   1 H :    0.349008
   2 H :    0.367198
   3 O :   -0.679468
   4 H :    0.341408
   5 H :    0.339127
   6 O :   -0.706833
   7 H :    0.327318
   8 H :    0.357458
Sum of atomic charges:    0.0000000

LOEWDIN ATOMIC CHARGES
----------------------
   0 O :   -0.310233
   1 H :    0.162089
   2 H :    0.190395
   3 O :   -0.338805
   4 H :    0.173677
   5 H :    0.166449
   6 O :   -0.350051
   7 H :    0.159370
   8 H :    0.147110

  Mayer bond orders larger than 0.100000
B(  0-O ,  1-H ) :   0.8435 B(  0-O ,  2-H ) :   0.8250 B(  3-O ,  4-H ) :   0.8481
B(  3-O ,  5-H ) :   0.8520 B(  6-O ,  7-H ) :   0.8594 B(  6-O ,  8-H ) :   0.8164

MP2 TOTAL ENERGY:     -228.948234248 Eh
FINAL SINGLE POINT ENERGY      -228.948234248212

DIPOLE MOMENT
-------------
                                X             Y             Z
Electronic contribution:     -0.09276      -0.10973       0.12210
Nuclear contribution   :      0.19727      -0.67972      -0.82779
                        -----------------------------------------
Total Dipole Moment    :      0.10451      -0.78945      -0.70569
                        -----------------------------------------
Magnitude (a.u.)       :      1.06403
Magnitude (Debye)      :      2.70455

Rotational constants in cm-1:     0.245836     0.077127     0.059302
Rotational constants in MHz :  7369.965282  2312.220703  1777.815538

                             ****ORCA TERMINATED NORMALLY****
TOTAL RUN TIME: 0 days 0 hours 0 minutes 9 seconds 410 msec
