                         Program Version 4.2.0 -  RELEASE  -
|  1> # 12h2o.su.etal.mol1,2,4,5,8,10
|  2> ! MP2 def2-TZVP EnGrad TightSCF
|  3>
|  4> %pal
|  5>     nprocs 6
|  6> end
|  7>
|  8> %maxcore 8000
|  9>
| 10> %scf
| 11>     ConvForced true
| 12> end
| 13>
| 14> *xyz 0 1
| 15> O  -1.794470000  -0.923410000   2.768350000
| 16> H  -2.338250000  -1.359750000   3.430940000
| 17> H  -0.879480000  -1.303000000   2.865760000
| 18> O   0.923410000  -1.794470000  -2.768350000
| 19> H   1.359750000  -2.338250000  -3.430940000
| 20> H   1.303000000  -0.879480000  -2.865760000
| 21> O  -0.885520000   1.737840000   0.052730000
| 22> H  -1.032320000   2.090180000  -0.841890000
| 23> H  -1.284090000   0.839590000   0.017130000
| 24> O   0.885520000  -1.737840000   0.052730000
| 25> H   1.284090000  -0.839590000   0.017130000
| 26> H   1.032320000  -2.090180000  -0.841890000
| 27> O   1.752130000   0.741530000  -2.896280000
| 28> H   2.036450000   0.920500000  -1.984040000
| 29> H   0.921210000   1.242140000  -2.984230000
| 30> O  -0.923410000   1.794470000  -2.768350000
| 31> H  -1.359750000   2.338250000  -3.430940000
| 32> H  -1.303000000   0.879480000  -2.865760000
| 33> *
| 34>
| 35>                          ****END OF INPUT****

CARTESIAN COORDINATES (ANGSTROEM)
---------------------------------
  O     -1.794470   -0.923410    2.768350
  H     -2.338250   -1.359750    3.430940
  H     -0.879480   -1.303000    2.865760
  O      0.923410   -1.794470   -2.768350
  H      1.359750   -2.338250   -3.430940
  H      1.303000   -0.879480   -2.865760
  O     -0.885520    1.737840    0.052730
  H     -1.032320    2.090180   -0.841890
  H     -1.284090    0.839590    0.017130
  O      0.885520   -1.737840    0.052730
  H      1.284090   -0.839590    0.017130
  H      1.032320   -2.090180   -0.841890
  O      1.752130    0.741530   -2.896280
  H      2.036450    0.920500   -1.984040
  H      0.921210    1.242140   -2.984230
  O     -0.923410    1.794470   -2.768350
  H     -1.359750    2.338250   -3.430940
  H     -1.303000    0.879480   -2.865760

 Total Charge           Charge          ....    0
 Multiplicity           Mult            ....    1
 Number of Electrons    NEL             ....   60
 Basis Dimension        Dim             ....  258

ORBITAL ENERGIES
----------------

  NO   OCC          E(Eh)            E(eV)
   0   2.0000     -20.622499      -561.1667
   1   2.0000     -20.585432      -560.1581
   2   2.0000     -20.547117      -559.1155
   3   2.0000     -20.544493      -559.0441
   4   2.0000     -20.533451      -558.7436
   5   2.0000     -20.527840      -558.5909
   6   2.0000      -1.403155       -38.1818
   7   2.0000      -1.374264       -37.3956
   8   2.0000      -1.331635       -36.2356
   9   2.0000      -1.319843       -35.9148
  10   2.0000      -1.312602       -35.7177
  11   2.0000      -1.305905       -35.5355
  12   2.0000      -0.768833       -20.9210
  13   2.0000      -0.735829       -20.0229
  14   2.0000      -0.715345       -19.4655
  15   2.0000      -0.688398       -18.7323
  16   2.0000      -0.685844       -18.6628
  17   2.0000      -0.674943       -18.3661
  18   2.0000      -0.641117       -17.4457
  19   2.0000      -0.615093       -16.7375
  20   2.0000      -0.582822       -15.8594
  21   2.0000      -0.569404       -15.4943
  22   2.0000      -0.556325       -15.1384
  23   2.0000      -0.549465       -14.9517
  24   2.0000      -0.539539       -14.6816
  25   2.0000      -0.520785       -14.1713
  26   2.0000      -0.494276       -13.4499
  27   2.0000      -0.487677       -13.2704
  28   2.0000      -0.479743       -13.0545
  29   2.0000      -0.472503       -12.8575
  30   0.0000       0.087427         2.3790
  31   0.0000       0.125479         3.4145
  32   0.0000       0.143547         3.9061
  33   0.0000       0.156315         4.2535
  34   0.0000       0.170666         4.6441

MULLIKEN ATOMIC CHARGES
-----------------------
   0 O :   -0.685221
   1 H :    0.331932
   2 H :    0.353555
   3 O :   -0.740614
   4 H :    0.337135
   5 H :    0.365681
   6 O :   -0.699900
   7 H :    0.353918
   8 H :    0.341713
   9 O :   -0.698558
  10 H :    0.313995
  11 H :    0.368537
  12 O :   -0.698035
  13 H :    0.354655
  14 H :    0.377944
  15 O :   -0.721302
  16 H :    0.367416
  17 H :    0.377149
Sum of atomic charges:   -0.0000000

LOEWDIN ATOMIC CHARGES
----------------------
   0 O :   -0.339543
   1 H :    0.154909
   2 H :    0.184539
   3 O :   -0.343649
   4 H :    0.153560
   5 H :    0.141566
   6 O :   -0.345030
   7 H :    0.143096
   8 H :    0.169758
   9 O :   -0.348130
  10 H :    0.156881
  11 H :    0.149373
  12 O :   -0.278230
  13 H :    0.170254
  14 H :    0.154366
  15 O :   -0.287678
  16 H :    0.169550
  17 H :    0.194408

  Mayer bond orders larger than 0.100000
B(  0-O ,  1-H ) :   0.8565 B(  0-O ,  2-H ) :   0.8372 B(  3-O ,  4-H ) :   0.8503
B(  3-O ,  5-H ) :   0.7608 B(  6-O ,  7-H ) :   0.8324 B(  6-O ,  8-H ) :   0.8422
B(  9-O , 10-H ) :   0.8602 B(  9-O , 11-H ) :   0.8111 B( 12-O , 13-H ) :   0.8377
B( 12-O , 14-H ) :   0.8000 B( 15-O , 16-H ) :   0.8297 B( 15-O , 17-H ) :   0.8145

MP2 TOTAL ENERGY:     -457.912644792 Eh
FINAL SINGLE POINT ENERGY      -457.912644791950

DIPOLE MOMENT
-------------
                                X             Y             Z
Electronic contribution:     -0.10429       0.38085      -0.10514
Nuclear contribution   :     -0.14599      -0.11349      -1.49504
                        -----------------------------------------
Total Dipole Moment    :     -0.25028       0.26736      -1.60018
                        -----------------------------------------
Magnitude (a.u.)       :      1.64156
Magnitude (Debye)      :      4.17251

Rotational constants in cm-1:     0.050473     0.027106     0.019576
Rotational constants in MHz :  1513.152268   812.618967   586.882783

                             ****ORCA TERMINATED NORMALLY****
TOTAL RUN TIME: 0 days 0 hours 1 minutes 15 seconds 351 msec
