                         Program Version 4.2.0 -  RELEASE  -
|  1> # 12mecn.remya.etal.2.mol2,8
|  2> ! MP2 def2-TZVP EnGrad TightSCF
|  3>
|  4> %pal
|  5>     nprocs 6
|  6> end
|  7>
|  8> %maxcore 8000
|  9>
| 10> %scf
| 11>     ConvForced true
| 12> end
| 13>
| 14> *xyz 0 1
| 15> C  -4.219070000  -3.477410000  -1.501740000
| 16> H  -3.251530000  -3.803540000  -1.893830000
| 17> H  -4.452920000  -2.481700000  -1.890840000
| 18> H  -4.992170000  -4.178130000  -1.824640000
| 19> C  -4.154550000  -3.418790000  -0.058340000
| 20> N  -4.091140000  -3.354840000   1.104432000
| 21> C   1.912641000  -2.468050000  -1.750510000
| 22> H   2.876947000  -2.793500000  -2.151200000
| 23> H   1.688016000  -1.463720000  -2.122170000
| 24> H   1.123460000  -3.154780000  -2.069590000
| 25> C   1.977850000  -2.444240000  -0.306900000
| 26> N   2.036566000  -2.426130000   0.858249000
| 27> *
| 28>
| 29>                          ****END OF INPUT****

CARTESIAN COORDINATES (ANGSTROEM)
---------------------------------
  C     -4.219070   -3.477410   -1.501740
  H     -3.251530   -3.803540   -1.893830
  H     -4.452920   -2.481700   -1.890840
  H     -4.992170   -4.178130   -1.824640
  C     -4.154550   -3.418790   -0.058340
  N     -4.091140   -3.354840    1.104432
  C      1.912641   -2.468050   -1.750510
  H      2.876947   -2.793500   -2.151200
  H      1.688016   -1.463720   -2.122170
  H      1.123460   -3.154780   -2.069590
  C      1.977850   -2.444240   -0.306900
  N      2.036566   -2.426130    0.858249

 Total Charge           Charge          ....    0
 Multiplicity           Mult            ....    1
 Number of Electrons    NEL             ....   44
 Basis Dimension        Dim             ....  222

ORBITAL ENERGIES
----------------

  NO   OCC          E(Eh)            E(eV)
   0   2.0000     -15.573659      -423.7808
   1   2.0000     -15.573367      -423.7729
   2   2.0000     -11.287697      -307.1539
   3   2.0000     -11.287621      -307.1518
   4   2.0000     -11.280037      -306.9454
   5   2.0000     -11.279740      -306.9373
   6   2.0000      -1.214956       -33.0606
   7   2.0000      -1.214377       -33.0449
   8   2.0000      -1.045658       -28.4538
   9   2.0000      -1.045639       -28.4533
  10   2.0000      -0.702331       -19.1114
  11   2.0000      -0.701244       -19.0818
  12   2.0000      -0.635163       -17.2837
  13   2.0000      -0.634310       -17.2605
  14   2.0000      -0.633364       -17.2347
  15   2.0000      -0.633124       -17.2282
  16   2.0000      -0.555817       -15.1245
  17   2.0000      -0.555395       -15.1131
  18   2.0000      -0.458159       -12.4671
  19   2.0000      -0.458026       -12.4635
  20   2.0000      -0.457609       -12.4522
  21   2.0000      -0.457421       -12.4471
  22   0.0000       0.100283         2.7288
  23   0.0000       0.125718         3.4210
  24   0.0000       0.158282         4.3071
  25   0.0000       0.169066         4.6005
  26   0.0000       0.170532         4.6404

MULLIKEN ATOMIC CHARGES
-----------------------
   0 C :   -0.280458
   1 H :    0.166068
   2 H :    0.172374
   3 H :    0.173166
   4 C :   -0.145688
   5 N :   -0.085460
   6 C :   -0.279495
   7 H :    0.173164
   8 H :    0.172080
   9 H :    0.166388
  10 C :   -0.145618
  11 N :   -0.086522
Sum of atomic charges:   -0.0000000

LOEWDIN ATOMIC CHARGES
----------------------
   0 C :   -0.285040
   1 H :    0.150684
   2 H :    0.152744
   3 H :    0.151180
   4 C :   -0.220262
   5 N :    0.050695
   6 C :   -0.285014
   7 H :    0.152840
   8 H :    0.152264
   9 H :    0.150521
  10 C :   -0.220824
  11 N :    0.050212

  Mayer bond orders larger than 0.100000
B(  0-C ,  1-H ) :   0.9182 B(  0-C ,  2-H ) :   0.9170 B(  0-C ,  3-H ) :   0.9166
B(  0-C ,  4-C ) :   0.9021 B(  4-C ,  5-N ) :   2.8334 B(  6-C ,  7-H ) :   0.9165
B(  6-C ,  8-H ) :   0.9172 B(  6-C ,  9-H ) :   0.9181 B(  6-C , 10-C ) :   0.9011
B( 10-C , 11-N ) :   2.8335

MP2 TOTAL ENERGY:     -264.965096413 Eh
FINAL SINGLE POINT ENERGY      -264.965096413089

DIPOLE MOMENT
-------------
                                X             Y             Z
Electronic contribution:      0.27892       0.16999       6.27900
Nuclear contribution   :     -0.42523      -0.25925      -9.27871
                        -----------------------------------------
Total Dipole Moment    :     -0.14631      -0.08926      -2.99970
                        -----------------------------------------
Magnitude (a.u.)       :      3.00460
Magnitude (Debye)      :      7.63707

Rotational constants in cm-1:     0.154234     0.021111     0.018702
Rotational constants in MHz :  4623.807947   632.892736   560.679762

                             ****ORCA TERMINATED NORMALLY****
TOTAL RUN TIME: 0 days 0 hours 0 minutes 42 seconds 434 msec
