                         Program Version 4.2.0 -  RELEASE  -
|  1> # 12meoh.boyd.etal.mol1,5,8
|  2> ! MP2 def2-TZVP EnGrad TightSCF
|  3>
|  4> %pal
|  5>     nprocs 6
|  6> end
|  7>
|  8> %maxcore 8000
|  9>
| 10> %scf
| 11>     ConvForced true
| 12> end
| 13>
| 14> *xyz 0 1
| 15> O   0.666045193  -2.600503172   0.138317521
| 16> H  -0.227115049  -2.712051982  -0.281868004
| 17> C   0.490021232  -1.851247678   1.341189459
| 18> H   1.466500502  -1.466176022   1.645844415
| 19> H   0.097564527  -2.488364683   2.146902740
| 20> H  -0.187588112  -1.000787499   1.200739571
| 21> O  -0.662721750   1.449094618  -1.383082065
| 22> H   0.064188300   2.119867608  -1.465650660
| 23> C  -0.353319239   0.341218776  -2.229326771
| 24> H  -1.072358530  -0.454743281  -2.019906495
| 25> H   0.657636746  -0.044472139  -2.042736771
| 26> H  -0.434616607   0.624733901  -3.287793021
| 27> O   3.570084754   2.361662577  -0.202416728
| 28> H   3.393280933   1.755669977   0.560634073
| 29> C   4.368082883   1.644741793  -1.143112807
| 30> H   4.552851717   2.311801738  -1.989632421
| 31> H   3.862427494   0.740851663  -1.508095690
| 32> H   5.333949674   1.357289092  -0.706288100
| 33> *
| 34>
| 35>                          ****END OF INPUT****

CARTESIAN COORDINATES (ANGSTROEM)
---------------------------------
  O      0.666045   -2.600503    0.138318
  H     -0.227115   -2.712052   -0.281868
  C      0.490021   -1.851248    1.341189
  H      1.466501   -1.466176    1.645844
  H      0.097565   -2.488365    2.146903
  H     -0.187588   -1.000787    1.200740
  O     -0.662722    1.449095   -1.383082
  H      0.064188    2.119868   -1.465651
  C     -0.353319    0.341219   -2.229327
  H     -1.072359   -0.454743   -2.019906
  H      0.657637   -0.044472   -2.042737
  H     -0.434617    0.624734   -3.287793
  O      3.570085    2.361663   -0.202417
  H      3.393281    1.755670    0.560634
  C      4.368083    1.644742   -1.143113
  H      4.552852    2.311802   -1.989632
  H      3.862427    0.740852   -1.508096
  H      5.333950    1.357289   -0.706288

 Total Charge           Charge          ....    0
 Multiplicity           Mult            ....    1
 Number of Electrons    NEL             ....   54
 Basis Dimension        Dim             ....  258

ORBITAL ENERGIES
----------------

  NO   OCC          E(Eh)            E(eV)
   0   2.0000     -20.562348      -559.5299
   1   2.0000     -20.560409      -559.4772
   2   2.0000     -20.554620      -559.3196
   3   2.0000     -11.275550      -306.8233
   4   2.0000     -11.273002      -306.7540
   5   2.0000     -11.271080      -306.7017
   6   2.0000      -1.351658       -36.7805
   7   2.0000      -1.348282       -36.6886
   8   2.0000      -1.343052       -36.5463
   9   2.0000      -0.923936       -25.1416
  10   2.0000      -0.921665       -25.0798
  11   2.0000      -0.919038       -25.0083
  12   2.0000      -0.686410       -18.6782
  13   2.0000      -0.683341       -18.5946
  14   2.0000      -0.678805       -18.4712
  15   2.0000      -0.621745       -16.9185
  16   2.0000      -0.620245       -16.8777
  17   2.0000      -0.612997       -16.6805
  18   2.0000      -0.594225       -16.1697
  19   2.0000      -0.592826       -16.1316
  20   2.0000      -0.589644       -16.0450
  21   2.0000      -0.506091       -13.7714
  22   2.0000      -0.503531       -13.7018
  23   2.0000      -0.499229       -13.5847
  24   2.0000      -0.454536       -12.3685
  25   2.0000      -0.452923       -12.3247
  26   2.0000      -0.445997       -12.1362
  27   0.0000       0.103147         2.8068
  28   0.0000       0.131732         3.5846
  29   0.0000       0.153100         4.1661
  30   0.0000       0.163178         4.4403
  31   0.0000       0.186694         5.0802

MULLIKEN ATOMIC CHARGES
-----------------------
   0 O :   -0.500729
   1 H :    0.322765
   2 C :   -0.185325
   3 H :    0.116671
   4 H :    0.116096
   5 H :    0.133498
   6 O :   -0.508578
   7 H :    0.329801
   8 C :   -0.175303
   9 H :    0.110173
  10 H :    0.124466
  11 H :    0.114746
  12 O :   -0.501292
  13 H :    0.324135
  14 C :   -0.180687
  15 H :    0.129537
  16 H :    0.114580
  17 H :    0.115444
Sum of atomic charges:   -0.0000000

LOEWDIN ATOMIC CHARGES
----------------------
   0 O :   -0.111548
   1 H :    0.188996
   2 C :   -0.378854
   3 H :    0.106065
   4 H :    0.097280
   5 H :    0.100728
   6 O :   -0.113956
   7 H :    0.191662
   8 C :   -0.380499
   9 H :    0.104214
  10 H :    0.097817
  11 H :    0.096659
  12 O :   -0.111535
  13 H :    0.188875
  14 C :   -0.379324
  15 H :    0.110224
  16 H :    0.095898
  17 H :    0.097299

  Mayer bond orders larger than 0.100000
B(  0-O ,  1-H ) :   0.8424 B(  0-O ,  2-C ) :   0.9167 B(  2-C ,  3-H ) :   0.9396
B(  2-C ,  4-H ) :   0.9389 B(  2-C ,  5-H ) :   0.9376 B(  6-O ,  7-H ) :   0.8365
B(  6-O ,  8-C ) :   0.9183 B(  8-C ,  9-H ) :   0.9412 B(  8-C , 10-H ) :   0.9384
B(  8-C , 11-H ) :   0.9366 B( 12-O , 13-H ) :   0.8419 B( 12-O , 14-C ) :   0.9199
B( 14-C , 15-H ) :   0.9376 B( 14-C , 16-H ) :   0.9360 B( 14-C , 17-H ) :   0.9407

MP2 TOTAL ENERGY:     -346.524171502 Eh
FINAL SINGLE POINT ENERGY      -346.524171501930

DIPOLE MOMENT
-------------
                                X             Y             Z
Electronic contribution:     -1.10865       1.40486       0.71149
Nuclear contribution   :      1.31829      -1.83952      -0.78096
                        -----------------------------------------
Total Dipole Moment    :      0.20964      -0.43466      -0.06947
                        -----------------------------------------
Magnitude (a.u.)       :      0.48755
Magnitude (Debye)      :      1.23926

Rotational constants in cm-1:     0.054703     0.029522     0.021754
Rotational constants in MHz :  1639.950662   885.054482   652.160456

                             ****ORCA TERMINATED NORMALLY****
TOTAL RUN TIME: 0 days 0 hours 1 minutes 7 seconds 906 msec
