                         Program Version 4.2.0 -  RELEASE  -
|  1> # 12h2o.su.etal.mol0,2,3,4,5,6,7,8,10
|  2> ! MP2 def2-TZVP EnGrad TightSCF
|  3>
|  4> %pal
|  5>     nprocs 6
|  6> end
|  7>
|  8> %maxcore 8000
|  9>
| 10> %scf
| 11>     ConvForced true
| 12> end
| 13>
| 14> *xyz 0 1
| 15> O   1.794470000   0.923410000   2.768350000
| 16> H   2.338250000   1.359750000   3.430940000
| 17> H   0.879480000   1.303000000   2.865760000
| 18> O   0.923410000  -1.794470000  -2.768350000
| 19> H   1.359750000  -2.338250000  -3.430940000
| 20> H   1.303000000  -0.879480000  -2.865760000
| 21> O  -1.752130000  -0.741530000  -2.896280000
| 22> H  -2.036450000  -0.920500000  -1.984040000
| 23> H  -0.921210000  -1.242140000  -2.984230000
| 24> O  -0.885520000   1.737840000   0.052730000
| 25> H  -1.032320000   2.090180000  -0.841890000
| 26> H  -1.284090000   0.839590000   0.017130000
| 27> O   0.885520000  -1.737840000   0.052730000
| 28> H   1.284090000  -0.839590000   0.017130000
| 29> H   1.032320000  -2.090180000  -0.841890000
| 30> O   1.737840000   0.885520000  -0.052730000
| 31> H   2.090180000   1.032320000   0.841890000
| 32> H   0.839590000   1.284090000  -0.017130000
| 33> O  -1.737840000  -0.885520000  -0.052730000
| 34> H  -2.090180000  -1.032320000   0.841890000
| 35> H  -0.839590000  -1.284090000  -0.017130000
| 36> O   1.752130000   0.741530000  -2.896280000
| 37> H   2.036450000   0.920500000  -1.984040000
| 38> H   0.921210000   1.242140000  -2.984230000
| 39> O  -0.923410000   1.794470000  -2.768350000
| 40> H  -1.359750000   2.338250000  -3.430940000
| 41> H  -1.303000000   0.879480000  -2.865760000
| 42> *
| 43>
| 44>                          ****END OF INPUT****

CARTESIAN COORDINATES (ANGSTROEM)
---------------------------------
  O      1.794470    0.923410    2.768350
  H      2.338250    1.359750    3.430940
  H      0.879480    1.303000    2.865760
  O      0.923410   -1.794470   -2.768350
  H      1.359750   -2.338250   -3.430940
  H      1.303000   -0.879480   -2.865760
  O     -1.752130   -0.741530   -2.896280
  H     -2.036450   -0.920500   -1.984040
  H     -0.921210   -1.242140   -2.984230
  O     -0.885520    1.737840    0.052730
  H     -1.032320    2.090180   -0.841890
  H     -1.284090    0.839590    0.017130
  O      0.885520   -1.737840    0.052730
  H      1.284090   -0.839590    0.017130
  H      1.032320   -2.090180   -0.841890
  O      1.737840    0.885520   -0.052730
  H      2.090180    1.032320    0.841890
  H      0.839590    1.284090   -0.017130
  O     -1.737840   -0.885520   -0.052730
  H     -2.090180   -1.032320    0.841890
  H     -0.839590   -1.284090   -0.017130
  O      1.752130    0.741530   -2.896280
  H      2.036450    0.920500   -1.984040
  H      0.921210    1.242140   -2.984230
  O     -0.923410    1.794470   -2.768350
  H     -1.359750    2.338250   -3.430940
  H     -1.303000    0.879480   -2.865760

 Total Charge           Charge          ....    0
 Multiplicity           Mult            ....    1
 Number of Electrons    NEL             ....   90
 Basis Dimension        Dim             ....  387

ORBITAL ENERGIES
----------------

  NO   OCC          E(Eh)            E(eV)
   0   2.0000     -20.589317      -560.2638
   1   2.0000     -20.574365      -559.8569
   2   2.0000     -20.563454      -559.5600
   3   2.0000     -20.560630      -559.4832
   4   2.0000     -20.552316      -559.2569
   5   2.0000     -20.548356      -559.1492
   6   2.0000     -20.547425      -559.1239
   7   2.0000     -20.541322      -558.9578
   8   2.0000     -20.531749      -558.6973
   9   2.0000      -1.369483       -37.2655
  10   2.0000      -1.367339       -37.2072
  11   2.0000      -1.359686       -36.9989
  12   2.0000      -1.352330       -36.7988
  13   2.0000      -1.345493       -36.6127
  14   2.0000      -1.336402       -36.3653
  15   2.0000      -1.330395       -36.2019
  16   2.0000      -1.325061       -36.0568
  17   2.0000      -1.313209       -35.7342
  18   2.0000      -0.734396       -19.9839
  19   2.0000      -0.729798       -19.8588
  20   2.0000      -0.728621       -19.8268
  21   2.0000      -0.725699       -19.7473
  22   2.0000      -0.714004       -19.4290
  23   2.0000      -0.709012       -19.2932
  24   2.0000      -0.704223       -19.1629
  25   2.0000      -0.699638       -19.0381
  26   2.0000      -0.692607       -18.8468
  27   2.0000      -0.638805       -17.3828
  28   2.0000      -0.615120       -16.7383
  29   2.0000      -0.607674       -16.5356
  30   2.0000      -0.604203       -16.4412
  31   2.0000      -0.592357       -16.1189
  32   2.0000      -0.579508       -15.7692
  33   2.0000      -0.570676       -15.5289
  34   2.0000      -0.569574       -15.4989
  35   2.0000      -0.543108       -14.7787
  36   2.0000      -0.527619       -14.3573
  37   2.0000      -0.516823       -14.0635
  38   2.0000      -0.510030       -13.8786
  39   2.0000      -0.507753       -13.8167
  40   2.0000      -0.499109       -13.5814
  41   2.0000      -0.497086       -13.5264
  42   2.0000      -0.492646       -13.4056
  43   2.0000      -0.489018       -13.3069
  44   2.0000      -0.481365       -13.0986
  45   0.0000       0.106862         2.9079
  46   0.0000       0.128956         3.5091
  47   0.0000       0.147067         4.0019
  48   0.0000       0.149956         4.0805
  49   0.0000       0.190938         5.1957

MULLIKEN ATOMIC CHARGES
-----------------------
   0 O :   -0.697187
   1 H :    0.351573
   2 H :    0.362738
   3 O :   -0.760858
   4 H :    0.349878
   5 H :    0.384872
   6 O :   -0.724507
   7 H :    0.386161
   8 H :    0.371460
   9 O :   -0.736926
  10 H :    0.377549
  11 H :    0.356600
  12 O :   -0.733718
  13 H :    0.368518
  14 H :    0.373026
  15 O :   -0.762165
  16 H :    0.381528
  17 H :    0.360489
  18 O :   -0.746181
  19 H :    0.356999
  20 H :    0.374228
  21 O :   -0.726703
  22 H :    0.388866
  23 H :    0.369490
  24 O :   -0.760036
  25 H :    0.350213
  26 H :    0.384092
Sum of atomic charges:   -0.0000000

LOEWDIN ATOMIC CHARGES
----------------------
   0 O :   -0.310094
   1 H :    0.163393
   2 H :    0.188621
   3 O :   -0.317469
   4 H :    0.158639
   5 H :    0.146541
   6 O :   -0.286319
   7 H :    0.156342
   8 H :    0.150467
   9 O :   -0.320992
  10 H :    0.149252
  11 H :    0.138380
  12 O :   -0.316192
  13 H :    0.141030
  14 H :    0.147311
  15 O :   -0.305421
  16 H :    0.152878
  17 H :    0.141022
  18 O :   -0.300441
  19 H :    0.170318
  20 H :    0.146877
  21 O :   -0.288112
  22 H :    0.156280
  23 H :    0.149413
  24 O :   -0.316952
  25 H :    0.158824
  26 H :    0.146405

  Mayer bond orders larger than 0.100000
B(  0-O ,  1-H ) :   0.8425 B(  0-O ,  2-H ) :   0.8286 B(  3-O ,  4-H ) :   0.8407
B(  3-O ,  5-H ) :   0.7233 B(  5-H , 21-O ) :   0.1261 B(  6-O ,  7-H ) :   0.8041
B(  6-O ,  8-H ) :   0.7945 B(  6-O , 26-H ) :   0.1251 B(  9-O , 10-H ) :   0.8030
B(  9-O , 11-H ) :   0.7829 B(  9-O , 17-H ) :   0.1189 B( 12-O , 13-H ) :   0.7742
B( 12-O , 14-H ) :   0.8063 B( 12-O , 20-H ) :   0.1364 B( 15-O , 16-H ) :   0.8007
B( 15-O , 17-H ) :   0.7523 B( 18-O , 19-H ) :   0.8363 B( 18-O , 20-H ) :   0.7338
B( 21-O , 22-H ) :   0.7978 B( 21-O , 23-H ) :   0.7981 B( 24-O , 25-H ) :   0.8406
B( 24-O , 26-H ) :   0.7245

MP2 TOTAL ENERGY:     -686.949421055 Eh
FINAL SINGLE POINT ENERGY      -686.949421055085

DIPOLE MOMENT
-------------
                                X             Y             Z
Electronic contribution:      0.13227      -0.10689       0.06287
Nuclear contribution   :     -0.30898       0.67915       0.73962
                        -----------------------------------------
Total Dipole Moment    :     -0.17671       0.57226       0.80249
                        -----------------------------------------
Magnitude (a.u.)       :      1.00135
Magnitude (Debye)      :      2.54522

Rotational constants in cm-1:     0.030029     0.018523     0.018035
Rotational constants in MHz :   900.259493   555.317390   540.669882

                             ****ORCA TERMINATED NORMALLY****
TOTAL RUN TIME: 0 days 0 hours 5 minutes 27 seconds 440 msec
