                         Program Version 3.0.3 - RELEASE   -
|  1> ! wB97X-D3 Def2-TZVP def2-TZVP/J RIJCOSX TightSCF Grid4 COSMO
|  2>
|  3> %pal nprocs 12 end
|  4>
|  5> %scf
|  6>         maxiter 400
|  7> end
|  8>
|  9> %cosmo
| 10>         SMD true
| 11>         solvent "WATER"
| 12> end
| 13>
| 14> * xyz  0  1
| 15> O  1.735719	-2.257303	2.351387
| 16> H  1.343140	-2.657661	1.535704
| 17> H  2.080194	-3.006090	2.862179
| 18> O  2.940372	0.248191	-0.669059
| 19> H  2.749181	1.221365	-0.739695
| 20> H  3.237398	0.105794	0.277721
| 21> O  1.135940	-3.253969	-2.541652
| 22> H  1.536825	-2.366870	-2.769283
| 23> H  1.693315	-3.918037	-2.975236
| 24> O  0.952973	3.117654	1.497829
| 25> H  1.141243	2.456794	2.206845
| 26> H  -0.016714	3.276920	1.519331
| 27> O  1.694503	1.347065	3.401907
| 28> H  2.025277	1.727879	4.229767
| 29> H  1.075683	0.606669	3.671022
| 30> O  -3.277730	0.670207	-1.387460
| 31> H  -3.965174	0.492667	-2.049204
| 32> H  -2.427284	0.414440	-1.831996
| 33> O  1.939993	-0.753294	-3.013761
| 34> H  2.388012	-0.438936	-2.195372
| 35> H  1.051770	-0.347594	-2.992389
| 36> O  -1.128779	0.644788	1.711541
| 37> H  -1.377610	1.599243	1.618923
| 38> H  -0.459151	0.425206	1.015054
| 39> O  -3.103586	-0.936132	0.814639
| 40> H  -2.390963	-0.387576	1.231162
| 41> H  -3.320780	-0.411530	0.008712
| 42> O  -1.752280	3.263603	1.414552
| 43> H  -2.410111	3.591367	2.046030
| 44> H  -2.168169	3.341141	0.499771
| 45> O  1.992033	2.716721	-0.830086
| 46> H  1.599515	2.886039	0.087063
| 47> H  2.536629	3.494324	-1.027353
| 48> O  0.430964	-0.381012	-0.148603
| 49> H  0.458746	-1.369004	-0.015943
| 50> H  1.381947	-0.123109	-0.311593
| 51> O  0.510035	-3.025579	0.085830
| 52> H  -0.470436	-3.198391	0.063612
| 53> H  0.840973	-3.244727	-0.821820
| 54> O  -1.499850	-2.646606	-2.809017
| 55> H  -1.823928	-2.892798	-1.910061
| 56> H  -0.585305	-3.012503	-2.837859
| 57> O  -0.868659	-0.099485	-2.417548
| 58> H  -1.143308	-1.036362	-2.653511
| 59> H  -0.403581	-0.188208	-1.537607
| 60> O  3.445354	-0.133966	1.908889
| 61> H  2.947612	-0.973602	2.048471
| 62> H  2.910355	0.507166	2.435330
| 63> O  -0.359219	2.676898	-2.275444
| 64> H  -0.508651	1.742247	-2.513109
| 65> H  0.491098	2.690413	-1.774447
| 66> O  -0.001237	-0.641708	3.782052
| 67> H  -0.530219	-0.194373	3.077046
| 68> H  0.546326	-1.303137	3.297164
| 69> O  -2.668293	3.328628	-1.056012
| 70> H  -1.794299	3.212023	-1.512319
| 71> H  -3.057422	2.429030	-1.150877
| 72> O  -2.115315	-3.127785	-0.178547
| 73> H  -2.648113	-3.879750	0.122305
| 74> H  -2.522292	-2.304582	0.245327
| 75> **                         ****END OF INPUT****

CARTESIAN COORDINATES (ANGSTROEM)
---------------------------------
  O      1.735719   -2.257303    2.351387
  H      1.343140   -2.657661    1.535704
  H      2.080194   -3.006090    2.862179
  O      2.940372    0.248191   -0.669059
  H      2.749181    1.221365   -0.739695
  H      3.237398    0.105794    0.277721
  O      1.135940   -3.253969   -2.541652
  H      1.536825   -2.366870   -2.769283
  H      1.693315   -3.918037   -2.975236
  O      0.952973    3.117654    1.497829
  H      1.141243    2.456794    2.206845
  H     -0.016714    3.276920    1.519331
  O      1.694503    1.347065    3.401907
  H      2.025277    1.727879    4.229767
  H      1.075683    0.606669    3.671022
  O     -3.277730    0.670207   -1.387460
  H     -3.965174    0.492667   -2.049204
  H     -2.427284    0.414440   -1.831996
  O      1.939993   -0.753294   -3.013761
  H      2.388012   -0.438936   -2.195372
  H      1.051770   -0.347594   -2.992389
  O     -1.128779    0.644788    1.711541
  H     -1.377610    1.599243    1.618923
  H     -0.459151    0.425206    1.015054
  O     -3.103586   -0.936132    0.814639
  H     -2.390963   -0.387576    1.231162
  H     -3.320780   -0.411530    0.008712
  O     -1.752280    3.263603    1.414552
  H     -2.410111    3.591367    2.046030
  H     -2.168169    3.341141    0.499771
  O      1.992033    2.716721   -0.830086
  H      1.599515    2.886039    0.087063
  H      2.536629    3.494324   -1.027353
  O      0.430964   -0.381012   -0.148603
  H      0.458746   -1.369004   -0.015943
  H      1.381947   -0.123109   -0.311593
  O      0.510035   -3.025579    0.085830
  H     -0.470436   -3.198391    0.063612
  H      0.840973   -3.244727   -0.821820
  O     -1.499850   -2.646606   -2.809017
  H     -1.823928   -2.892798   -1.910061
  H     -0.585305   -3.012503   -2.837859
  O     -0.868659   -0.099485   -2.417548
  H     -1.143308   -1.036362   -2.653511
  H     -0.403581   -0.188208   -1.537607
  O      3.445354   -0.133966    1.908889
  H      2.947612   -0.973602    2.048471
  H      2.910355    0.507166    2.435330
  O     -0.359219    2.676898   -2.275444
  H     -0.508651    1.742247   -2.513109
  H      0.491098    2.690413   -1.774447
  O     -0.001237   -0.641708    3.782052
  H     -0.530219   -0.194373    3.077046
  H      0.546326   -1.303137    3.297164
  O     -2.668293    3.328628   -1.056012
  H     -1.794299    3.212023   -1.512319
  H     -3.057422    2.429030   -1.150877
  O     -2.115315   -3.127785   -0.178547
  H     -2.648113   -3.879750    0.122305
  H     -2.522292   -2.304582    0.245327

 Total Charge           Charge          ....    0
 Multiplicity           Mult            ....    1
 Number of Electrons    NEL             ....  200
 Basis Dimension        Dim             ....  860

ORBITAL ENERGIES
----------------

  NO   OCC          E(Eh)            E(eV)
   0   2.0000     -19.246051      -523.7117
   1   2.0000     -19.243297      -523.6367
   2   2.0000     -19.242341      -523.6107
   3   2.0000     -19.240974      -523.5735
   4   2.0000     -19.238999      -523.5198
   5   2.0000     -19.238961      -523.5187
   6   2.0000     -19.238808      -523.5146
   7   2.0000     -19.238708      -523.5119
   8   2.0000     -19.237994      -523.4924
   9   2.0000     -19.237893      -523.4897
  10   2.0000     -19.235908      -523.4357
  11   2.0000     -19.232130      -523.3329
  12   2.0000     -19.230871      -523.2986
  13   2.0000     -19.229169      -523.2523
  14   2.0000     -19.228134      -523.2241
  15   2.0000     -19.225635      -523.1561
  16   2.0000     -19.224811      -523.1337
  17   2.0000     -19.224775      -523.1327
  18   2.0000     -19.224762      -523.1324
  19   2.0000     -19.222976      -523.0838
  20   2.0000      -1.158164       -31.5152
  21   2.0000      -1.144993       -31.1568
  22   2.0000      -1.144685       -31.1485
  23   2.0000      -1.142158       -31.0797
  24   2.0000      -1.138056       -30.9681
  25   2.0000      -1.136651       -30.9298
  26   2.0000      -1.134847       -30.8808
  27   2.0000      -1.132971       -30.8297
  28   2.0000      -1.129957       -30.7477
  29   2.0000      -1.126077       -30.6421
  30   2.0000      -1.124762       -30.6063
  31   2.0000      -1.122175       -30.5359
  32   2.0000      -1.120427       -30.4884
  33   2.0000      -1.113523       -30.3005
  34   2.0000      -1.109253       -30.1843
  35   2.0000      -1.106269       -30.1031
  36   2.0000      -1.104470       -30.0542
  37   2.0000      -1.102607       -30.0035
  38   2.0000      -1.101749       -29.9801
  39   2.0000      -1.098871       -29.9018
  40   2.0000      -0.658326       -17.9140
  41   2.0000      -0.654740       -17.8164
  42   2.0000      -0.652666       -17.7599
  43   2.0000      -0.650507       -17.7012
  44   2.0000      -0.646219       -17.5845
  45   2.0000      -0.643055       -17.4984
  46   2.0000      -0.642268       -17.4770
  47   2.0000      -0.641000       -17.4425
  48   2.0000      -0.640434       -17.4271
  49   2.0000      -0.639105       -17.3909
  50   2.0000      -0.637378       -17.3439
  51   2.0000      -0.635690       -17.2980
  52   2.0000      -0.634288       -17.2599
  53   2.0000      -0.631031       -17.1712
  54   2.0000      -0.629145       -17.1199
  55   2.0000      -0.628756       -17.1093
  56   2.0000      -0.627171       -17.0662
  57   2.0000      -0.623362       -16.9626
  58   2.0000      -0.620820       -16.8934
  59   2.0000      -0.619337       -16.8530
  60   2.0000      -0.567575       -15.4445
  61   2.0000      -0.559863       -15.2346
  62   2.0000      -0.553856       -15.0712
  63   2.0000      -0.547826       -14.9071
  64   2.0000      -0.541495       -14.7348
  65   2.0000      -0.540026       -14.6949
  66   2.0000      -0.528347       -14.3770
  67   2.0000      -0.525258       -14.2930
  68   2.0000      -0.514326       -13.9955
  69   2.0000      -0.508325       -13.8322
  70   2.0000      -0.505801       -13.7635
  71   2.0000      -0.497882       -13.5481
  72   2.0000      -0.496153       -13.5010
  73   2.0000      -0.492440       -13.4000
  74   2.0000      -0.488903       -13.3037
  75   2.0000      -0.485142       -13.2014
  76   2.0000      -0.476418       -12.9640
  77   2.0000      -0.474393       -12.9089
  78   2.0000      -0.465584       -12.6692
  79   2.0000      -0.456629       -12.4255
  80   2.0000      -0.435381       -11.8473
  81   2.0000      -0.431772       -11.7491
  82   2.0000      -0.430114       -11.7040
  83   2.0000      -0.429740       -11.6938
  84   2.0000      -0.428910       -11.6712
  85   2.0000      -0.427039       -11.6203
  86   2.0000      -0.426810       -11.6141
  87   2.0000      -0.425594       -11.5810
  88   2.0000      -0.425405       -11.5758
  89   2.0000      -0.424041       -11.5387
  90   2.0000      -0.423649       -11.5281
  91   2.0000      -0.421292       -11.4639
  92   2.0000      -0.420868       -11.4524
  93   2.0000      -0.417913       -11.3720
  94   2.0000      -0.417050       -11.3485
  95   2.0000      -0.416283       -11.3276
  96   2.0000      -0.415263       -11.2999
  97   2.0000      -0.411809       -11.2059
  98   2.0000      -0.411071       -11.1858
  99   2.0000      -0.408986       -11.1291
 100   0.0000       0.080928         2.2022
 101   0.0000       0.116863         3.1800
 102   0.0000       0.118717         3.2304
 103   0.0000       0.126747         3.4490
 104   0.0000       0.147171         4.0047

MULLIKEN ATOMIC CHARGES
-----------------------
   0 O :   -0.755366
   1 H :    0.396827
   2 H :    0.407764
   3 O :   -0.783855
   4 H :    0.391408
   5 H :    0.397562
   6 O :   -0.771719
   7 H :    0.384164
   8 H :    0.410150
   9 O :   -0.760000
  10 H :    0.376331
  11 H :    0.383850
  12 O :   -0.765901
  13 H :    0.406471
  14 H :    0.371187
  15 O :   -0.756504
  16 H :    0.408737
  17 H :    0.372652
  18 O :   -0.744018
  19 H :    0.397573
  20 H :    0.362337
  21 O :   -0.782779
  22 H :    0.377300
  23 H :    0.375913
  24 O :   -0.766675
  25 H :    0.385191
  26 H :    0.378962
  27 O :   -0.774921
  28 H :    0.408574
  29 H :    0.384360
  30 O :   -0.772820
  31 H :    0.391120
  32 H :    0.406797
  33 O :   -0.760138
  34 H :    0.360143
  35 H :    0.341400
  36 O :   -0.775829
  37 H :    0.395928
  38 H :    0.394882
  39 O :   -0.765150
  40 H :    0.374313
  41 H :    0.378618
  42 O :   -0.832134
  43 H :    0.405419
  44 H :    0.357188
  45 O :   -0.765783
  46 H :    0.371262
  47 H :    0.376059
  48 O :   -0.762883
  49 H :    0.385837
  50 H :    0.366183
  51 O :   -0.760107
  52 H :    0.393234
  53 H :    0.364877
  54 O :   -0.770749
  55 H :    0.387890
  56 H :    0.380969
  57 O :   -0.775783
  58 H :    0.408421
  59 H :    0.385263
Sum of atomic charges:    0.0000000

LOEWDIN ATOMIC CHARGES
----------------------
   0 O :   -0.272498
   1 H :    0.149122
   2 H :    0.189865
   3 O :   -0.307939
   4 H :    0.137625
   5 H :    0.141686
   6 O :   -0.279800
   7 H :    0.147830
   8 H :    0.189073
   9 O :   -0.301534
  10 H :    0.137180
  11 H :    0.138805
  12 O :   -0.275136
  13 H :    0.186530
  14 H :    0.142410
  15 O :   -0.269995
  16 H :    0.189930
  17 H :    0.144456
  18 O :   -0.299451
  19 H :    0.145537
  20 H :    0.146264
  21 O :   -0.277837
  22 H :    0.138081
  23 H :    0.130107
  24 O :   -0.316710
  25 H :    0.136648
  26 H :    0.141495
  27 O :   -0.284469
  28 H :    0.186555
  29 H :    0.145207
  30 O :   -0.278276
  31 H :    0.137637
  32 H :    0.185619
  33 O :   -0.268597
  34 H :    0.131815
  35 H :    0.127572
  36 O :   -0.281448
  37 H :    0.140566
  38 H :    0.146378
  39 O :   -0.319563
  40 H :    0.140775
  41 H :    0.141058
  42 O :   -0.322249
  43 H :    0.138849
  44 H :    0.120975
  45 O :   -0.326289
  46 H :    0.143175
  47 H :    0.141752
  48 O :   -0.319651
  49 H :    0.145168
  50 H :    0.141692
  51 O :   -0.327838
  52 H :    0.137166
  53 H :    0.139993
  54 O :   -0.327399
  55 H :    0.141579
  56 H :    0.142120
  57 O :   -0.278890
  58 H :    0.186452
  59 H :    0.140827

  Mayer bond orders larger than 0.1
B(  0-O ,  1-H ) :   0.7965 B(  0-O ,  2-H ) :   0.8397 B(  0-O , 53-H ) :   0.1017
B(  3-O ,  4-H ) :   0.7715 B(  3-O ,  5-H ) :   0.7608 B(  3-O , 35-H ) :   0.1999
B(  4-H , 30-O ) :   0.1176 B(  5-H , 45-O ) :   0.1306 B(  6-O ,  7-H ) :   0.7700
B(  6-O ,  8-H ) :   0.8372 B(  6-O , 38-H ) :   0.1076 B(  7-H , 18-O ) :   0.1202
B(  9-O , 10-H ) :   0.7972 B(  9-O , 11-H ) :   0.8033 B(  9-O , 31-H ) :   0.1495
B( 10-H , 12-O ) :   0.1009 B( 12-O , 13-H ) :   0.8398 B( 12-O , 14-H ) :   0.7550
B( 14-H , 51-O ) :   0.1598 B( 15-O , 16-H ) :   0.8388 B( 15-O , 17-H ) :   0.7927
B( 18-O , 19-H ) :   0.8048 B( 18-O , 20-H ) :   0.8421 B( 21-O , 22-H ) :   0.7748
B( 21-O , 23-H ) :   0.7877 B( 21-O , 25-H ) :   0.1031 B( 22-H , 27-O ) :   0.1296
B( 24-O , 25-H ) :   0.7949 B( 24-O , 26-H ) :   0.8071 B( 24-O , 59-H ) :   0.1587
B( 27-O , 28-H ) :   0.8382 B( 27-O , 29-H ) :   0.7467 B( 29-H , 54-O ) :   0.1548
B( 30-O , 31-H ) :   0.7391 B( 30-O , 32-H ) :   0.8407 B( 30-O , 50-H ) :   0.1095
B( 33-O , 34-H ) :   0.7584 B( 33-O , 35-H ) :   0.7440 B( 33-O , 44-H ) :   0.1387
B( 34-H , 36-O ) :   0.1763 B( 36-O , 37-H ) :   0.7627 B( 36-O , 38-H ) :   0.7813
B( 37-H , 57-O ) :   0.1277 B( 39-O , 40-H ) :   0.8067 B( 39-O , 41-H ) :   0.8054
B( 39-O , 43-H ) :   0.1498 B( 42-O , 43-H ) :   0.7429 B( 42-O , 44-H ) :   0.7579
B( 45-O , 46-H ) :   0.8131 B( 45-O , 47-H ) :   0.8069 B( 48-O , 49-H ) :   0.8351
B( 48-O , 50-H ) :   0.8031 B( 51-O , 52-H ) :   0.8039 B( 51-O , 53-H ) :   0.8133
B( 54-O , 55-H ) :   0.7975 B( 54-O , 56-H ) :   0.8141 B( 57-O , 58-H ) :   0.8389
B( 57-O , 59-H ) :   0.7393

Dispersion correction           -0.041815921
FINAL SINGLE POINT ENERGY     -1529.211284367179

DIPOLE MOMENT
-------------
                                X             Y             Z
Electronic contribution:      0.05830      -0.29495       0.25551
Nuclear contribution   :      0.00487      -2.12081       0.99550
                        -----------------------------------------
Total Dipole Moment    :      0.06317      -2.41576       1.25100
                        -----------------------------------------
Magnitude (a.u.)       :      2.72119
Magnitude (Debye)      :      6.91673

                             ****ORCA TERMINATED NORMALLY****
TOTAL RUN TIME: 0 days 0 hours 2 minutes 56 seconds 983 msec
