                         Program Version 3.0.3 - RELEASE   -
|  1> ! B3LYP Def2-TZVP def2-TZVP/J RIJCOSX TightSCF Grid4 D3BJ COSMO
|  2>
|  3> %pal nprocs 12 end
|  4>
|  5> %scf
|  6>         maxiter 400
|  7> end
|  8>
|  9> %cosmo
| 10>         SMD true
| 11>         solvent "WATER"
| 12> end
| 13>
| 14> * xyz  0  1
| 15> O  1.735719	-2.257303	2.351387
| 16> H  1.343140	-2.657661	1.535704
| 17> H  2.080194	-3.006090	2.862179
| 18> O  2.940372	0.248191	-0.669059
| 19> H  2.749181	1.221365	-0.739695
| 20> H  3.237398	0.105794	0.277721
| 21> O  1.135940	-3.253969	-2.541652
| 22> H  1.536825	-2.366870	-2.769283
| 23> H  1.693315	-3.918037	-2.975236
| 24> O  0.952973	3.117654	1.497829
| 25> H  1.141243	2.456794	2.206845
| 26> H  -0.016714	3.276920	1.519331
| 27> O  1.694503	1.347065	3.401907
| 28> H  2.025277	1.727879	4.229767
| 29> H  1.075683	0.606669	3.671022
| 30> O  -3.277730	0.670207	-1.387460
| 31> H  -3.965174	0.492667	-2.049204
| 32> H  -2.427284	0.414440	-1.831996
| 33> O  1.939993	-0.753294	-3.013761
| 34> H  2.388012	-0.438936	-2.195372
| 35> H  1.051770	-0.347594	-2.992389
| 36> O  -1.128779	0.644788	1.711541
| 37> H  -1.377610	1.599243	1.618923
| 38> H  -0.459151	0.425206	1.015054
| 39> O  -3.103586	-0.936132	0.814639
| 40> H  -2.390963	-0.387576	1.231162
| 41> H  -3.320780	-0.411530	0.008712
| 42> O  -1.752280	3.263603	1.414552
| 43> H  -2.410111	3.591367	2.046030
| 44> H  -2.168169	3.341141	0.499771
| 45> O  1.992033	2.716721	-0.830086
| 46> H  1.599515	2.886039	0.087063
| 47> H  2.536629	3.494324	-1.027353
| 48> O  0.430964	-0.381012	-0.148603
| 49> H  0.458746	-1.369004	-0.015943
| 50> H  1.381947	-0.123109	-0.311593
| 51> O  0.510035	-3.025579	0.085830
| 52> H  -0.470436	-3.198391	0.063612
| 53> H  0.840973	-3.244727	-0.821820
| 54> O  -1.499850	-2.646606	-2.809017
| 55> H  -1.823928	-2.892798	-1.910061
| 56> H  -0.585305	-3.012503	-2.837859
| 57> O  -0.868659	-0.099485	-2.417548
| 58> H  -1.143308	-1.036362	-2.653511
| 59> H  -0.403581	-0.188208	-1.537607
| 60> O  3.445354	-0.133966	1.908889
| 61> H  2.947612	-0.973602	2.048471
| 62> H  2.910355	0.507166	2.435330
| 63> O  -0.359219	2.676898	-2.275444
| 64> H  -0.508651	1.742247	-2.513109
| 65> H  0.491098	2.690413	-1.774447
| 66> O  -0.001237	-0.641708	3.782052
| 67> H  -0.530219	-0.194373	3.077046
| 68> H  0.546326	-1.303137	3.297164
| 69> O  -2.668293	3.328628	-1.056012
| 70> H  -1.794299	3.212023	-1.512319
| 71> H  -3.057422	2.429030	-1.150877
| 72> O  -2.115315	-3.127785	-0.178547
| 73> H  -2.648113	-3.879750	0.122305
| 74> H  -2.522292	-2.304582	0.245327
| 75> **                         ****END OF INPUT****

CARTESIAN COORDINATES (ANGSTROEM)
---------------------------------
  O      1.735719   -2.257303    2.351387
  H      1.343140   -2.657661    1.535704
  H      2.080194   -3.006090    2.862179
  O      2.940372    0.248191   -0.669059
  H      2.749181    1.221365   -0.739695
  H      3.237398    0.105794    0.277721
  O      1.135940   -3.253969   -2.541652
  H      1.536825   -2.366870   -2.769283
  H      1.693315   -3.918037   -2.975236
  O      0.952973    3.117654    1.497829
  H      1.141243    2.456794    2.206845
  H     -0.016714    3.276920    1.519331
  O      1.694503    1.347065    3.401907
  H      2.025277    1.727879    4.229767
  H      1.075683    0.606669    3.671022
  O     -3.277730    0.670207   -1.387460
  H     -3.965174    0.492667   -2.049204
  H     -2.427284    0.414440   -1.831996
  O      1.939993   -0.753294   -3.013761
  H      2.388012   -0.438936   -2.195372
  H      1.051770   -0.347594   -2.992389
  O     -1.128779    0.644788    1.711541
  H     -1.377610    1.599243    1.618923
  H     -0.459151    0.425206    1.015054
  O     -3.103586   -0.936132    0.814639
  H     -2.390963   -0.387576    1.231162
  H     -3.320780   -0.411530    0.008712
  O     -1.752280    3.263603    1.414552
  H     -2.410111    3.591367    2.046030
  H     -2.168169    3.341141    0.499771
  O      1.992033    2.716721   -0.830086
  H      1.599515    2.886039    0.087063
  H      2.536629    3.494324   -1.027353
  O      0.430964   -0.381012   -0.148603
  H      0.458746   -1.369004   -0.015943
  H      1.381947   -0.123109   -0.311593
  O      0.510035   -3.025579    0.085830
  H     -0.470436   -3.198391    0.063612
  H      0.840973   -3.244727   -0.821820
  O     -1.499850   -2.646606   -2.809017
  H     -1.823928   -2.892798   -1.910061
  H     -0.585305   -3.012503   -2.837859
  O     -0.868659   -0.099485   -2.417548
  H     -1.143308   -1.036362   -2.653511
  H     -0.403581   -0.188208   -1.537607
  O      3.445354   -0.133966    1.908889
  H      2.947612   -0.973602    2.048471
  H      2.910355    0.507166    2.435330
  O     -0.359219    2.676898   -2.275444
  H     -0.508651    1.742247   -2.513109
  H      0.491098    2.690413   -1.774447
  O     -0.001237   -0.641708    3.782052
  H     -0.530219   -0.194373    3.077046
  H      0.546326   -1.303137    3.297164
  O     -2.668293    3.328628   -1.056012
  H     -1.794299    3.212023   -1.512319
  H     -3.057422    2.429030   -1.150877
  O     -2.115315   -3.127785   -0.178547
  H     -2.648113   -3.879750    0.122305
  H     -2.522292   -2.304582    0.245327

 Total Charge           Charge          ....    0
 Multiplicity           Mult            ....    1
 Number of Electrons    NEL             ....  200
 Basis Dimension        Dim             ....  860

ORBITAL ENERGIES
----------------

  NO   OCC          E(Eh)            E(eV)
   0   2.0000     -19.137708      -520.7635
   1   2.0000     -19.135026      -520.6905
   2   2.0000     -19.134152      -520.6667
   3   2.0000     -19.130673      -520.5721
   4   2.0000     -19.130671      -520.5720
   5   2.0000     -19.130526      -520.5681
   6   2.0000     -19.130202      -520.5593
   7   2.0000     -19.129854      -520.5498
   8   2.0000     -19.129721      -520.5462
   9   2.0000     -19.128653      -520.5171
  10   2.0000     -19.126207      -520.4506
  11   2.0000     -19.122360      -520.3459
  12   2.0000     -19.121504      -520.3226
  13   2.0000     -19.119836      -520.2772
  14   2.0000     -19.119039      -520.2555
  15   2.0000     -19.116681      -520.1913
  16   2.0000     -19.115619      -520.1624
  17   2.0000     -19.115543      -520.1604
  18   2.0000     -19.115479      -520.1586
  19   2.0000     -19.114006      -520.1185
  20   2.0000      -1.040142       -28.3037
  21   2.0000      -1.027806       -27.9680
  22   2.0000      -1.027589       -27.9621
  23   2.0000      -1.025011       -27.8920
  24   2.0000      -1.021102       -27.7856
  25   2.0000      -1.019896       -27.7528
  26   2.0000      -1.018027       -27.7019
  27   2.0000      -1.016326       -27.6556
  28   2.0000      -1.012915       -27.5628
  29   2.0000      -1.009510       -27.4702
  30   2.0000      -1.008077       -27.4312
  31   2.0000      -1.005382       -27.3578
  32   2.0000      -1.003708       -27.3123
  33   2.0000      -0.996845       -27.1255
  34   2.0000      -0.992703       -27.0128
  35   2.0000      -0.989886       -26.9362
  36   2.0000      -0.988148       -26.8889
  37   2.0000      -0.986248       -26.8372
  38   2.0000      -0.985488       -26.8165
  39   2.0000      -0.982457       -26.7340
  40   2.0000      -0.551660       -15.0114
  41   2.0000      -0.548373       -14.9220
  42   2.0000      -0.547209       -14.8903
  43   2.0000      -0.544550       -14.8180
  44   2.0000      -0.541272       -14.7288
  45   2.0000      -0.538416       -14.6511
  46   2.0000      -0.537642       -14.6300
  47   2.0000      -0.536046       -14.5865
  48   2.0000      -0.536035       -14.5863
  49   2.0000      -0.534550       -14.5458
  50   2.0000      -0.532745       -14.4967
  51   2.0000      -0.531443       -14.4613
  52   2.0000      -0.529628       -14.4119
  53   2.0000      -0.526372       -14.3233
  54   2.0000      -0.524369       -14.2688
  55   2.0000      -0.523952       -14.2575
  56   2.0000      -0.522511       -14.2182
  57   2.0000      -0.518543       -14.1103
  58   2.0000      -0.516056       -14.0426
  59   2.0000      -0.514774       -14.0077
  60   2.0000      -0.461520       -12.5586
  61   2.0000      -0.454495       -12.3674
  62   2.0000      -0.448104       -12.1935
  63   2.0000      -0.442685       -12.0461
  64   2.0000      -0.437107       -11.8943
  65   2.0000      -0.435639       -11.8543
  66   2.0000      -0.423976       -11.5370
  67   2.0000      -0.421114       -11.4591
  68   2.0000      -0.411495       -11.1974
  69   2.0000      -0.405008       -11.0208
  70   2.0000      -0.404429       -11.0051
  71   2.0000      -0.395910       -10.7733
  72   2.0000      -0.394579       -10.7370
  73   2.0000      -0.391089       -10.6421
  74   2.0000      -0.387668       -10.5490
  75   2.0000      -0.383770       -10.4429
  76   2.0000      -0.375449       -10.2165
  77   2.0000      -0.373652       -10.1676
  78   2.0000      -0.365632        -9.9493
  79   2.0000      -0.356782        -9.7085
  80   2.0000      -0.335253        -9.1227
  81   2.0000      -0.332071        -9.0361
  82   2.0000      -0.330408        -8.9909
  83   2.0000      -0.329817        -8.9748
  84   2.0000      -0.329141        -8.9564
  85   2.0000      -0.327398        -8.9090
  86   2.0000      -0.326849        -8.8940
  87   2.0000      -0.326079        -8.8730
  88   2.0000      -0.325934        -8.8691
  89   2.0000      -0.324408        -8.8276
  90   2.0000      -0.323908        -8.8140
  91   2.0000      -0.321951        -8.7607
  92   2.0000      -0.321120        -8.7381
  93   2.0000      -0.318200        -8.6587
  94   2.0000      -0.317170        -8.6306
  95   2.0000      -0.316444        -8.6109
  96   2.0000      -0.315864        -8.5951
  97   2.0000      -0.312013        -8.4903
  98   2.0000      -0.311116        -8.4659
  99   2.0000      -0.309807        -8.4303
 100   0.0000       0.003509         0.0955
 101   0.0000       0.033866         0.9215
 102   0.0000       0.035511         0.9663
 103   0.0000       0.043388         1.1806
 104   0.0000       0.059594         1.6216

MULLIKEN ATOMIC CHARGES
-----------------------
   0 O :   -0.730033
   1 H :    0.394156
   2 H :    0.386761
   3 O :   -0.777619
   4 H :    0.383920
   5 H :    0.388498
   6 O :   -0.742884
   7 H :    0.381580
   8 H :    0.388237
   9 O :   -0.755875
  10 H :    0.376337
  11 H :    0.378175
  12 O :   -0.740393
  13 H :    0.384577
  14 H :    0.367995
  15 O :   -0.734392
  16 H :    0.387834
  17 H :    0.376907
  18 O :   -0.736439
  19 H :    0.391509
  20 H :    0.355432
  21 O :   -0.776732
  22 H :    0.371851
  23 H :    0.385150
  24 O :   -0.757882
  25 H :    0.380017
  26 H :    0.371646
  27 O :   -0.749634
  28 H :    0.387505
  29 H :    0.379305
  30 O :   -0.749557
  31 H :    0.391246
  32 H :    0.385897
  33 O :   -0.777941
  34 H :    0.370921
  35 H :    0.354643
  36 O :   -0.766699
  37 H :    0.387192
  38 H :    0.384677
  39 O :   -0.756152
  40 H :    0.369087
  41 H :    0.371164
  42 O :   -0.826022
  43 H :    0.393113
  44 H :    0.378004
  45 O :   -0.756852
  46 H :    0.366080
  47 H :    0.370071
  48 O :   -0.755714
  49 H :    0.377860
  50 H :    0.363507
  51 O :   -0.753734
  52 H :    0.388286
  53 H :    0.360311
  54 O :   -0.760094
  55 H :    0.382517
  56 H :    0.372993
  57 O :   -0.748827
  58 H :    0.387192
  59 H :    0.381327
Sum of atomic charges:    0.0000000

LOEWDIN ATOMIC CHARGES
----------------------
   0 O :   -0.268118
   1 H :    0.148961
   2 H :    0.186961
   3 O :   -0.305572
   4 H :    0.136301
   5 H :    0.139837
   6 O :   -0.275138
   7 H :    0.147367
   8 H :    0.185988
   9 O :   -0.300679
  10 H :    0.136778
  11 H :    0.137991
  12 O :   -0.270687
  13 H :    0.183232
  14 H :    0.141538
  15 O :   -0.265528
  16 H :    0.186950
  17 H :    0.144170
  18 O :   -0.298838
  19 H :    0.144697
  20 H :    0.144970
  21 O :   -0.274470
  22 H :    0.136846
  23 H :    0.129628
  24 O :   -0.315786
  25 H :    0.135279
  26 H :    0.140186
  27 O :   -0.280646
  28 H :    0.183494
  29 H :    0.144187
  30 O :   -0.273506
  31 H :    0.137247
  32 H :    0.182687
  33 O :   -0.266370
  34 H :    0.130796
  35 H :    0.126495
  36 O :   -0.278604
  37 H :    0.139208
  38 H :    0.144836
  39 O :   -0.318485
  40 H :    0.139728
  41 H :    0.139873
  42 O :   -0.318049
  43 H :    0.136864
  44 H :    0.120739
  45 O :   -0.325276
  46 H :    0.142305
  47 H :    0.140643
  48 O :   -0.319337
  49 H :    0.144283
  50 H :    0.140856
  51 O :   -0.326904
  52 H :    0.136298
  53 H :    0.139130
  54 O :   -0.326057
  55 H :    0.140673
  56 H :    0.140871
  57 O :   -0.274234
  58 H :    0.183384
  59 H :    0.140005

  Mayer bond orders larger than 0.1
B(  0-O ,  1-H ) :   0.7914 B(  0-O ,  2-H ) :   0.8529 B(  0-O , 46-H ) :   0.1024
B(  0-O , 53-H ) :   0.1088 B(  3-O ,  4-H ) :   0.7705 B(  3-O ,  5-H ) :   0.7606
B(  3-O , 35-H ) :   0.1960 B(  4-H , 30-O ) :   0.1245 B(  5-H , 45-O ) :   0.1386
B(  6-O ,  7-H ) :   0.7655 B(  6-O ,  8-H ) :   0.8506 B(  6-O , 38-H ) :   0.1153
B(  6-O , 41-H ) :   0.1045 B(  7-H , 18-O ) :   0.1254 B(  9-O , 10-H ) :   0.7937
B(  9-O , 11-H ) :   0.8028 B(  9-O , 31-H ) :   0.1534 B( 10-H , 12-O ) :   0.1040
B( 12-O , 13-H ) :   0.8532 B( 12-O , 14-H ) :   0.7502 B( 12-O , 47-H ) :   0.1050
B( 14-H , 51-O ) :   0.1668 B( 15-O , 16-H ) :   0.8516 B( 15-O , 17-H ) :   0.7838
B( 15-O , 26-H ) :   0.1010 B( 17-H , 42-O ) :   0.1025 B( 18-O , 19-H ) :   0.8048
B( 18-O , 20-H ) :   0.8434 B( 21-O , 22-H ) :   0.7737 B( 21-O , 23-H ) :   0.7822
B( 21-O , 25-H ) :   0.1114 B( 22-H , 27-O ) :   0.1343 B( 24-O , 25-H ) :   0.7925
B( 24-O , 26-H ) :   0.8073 B( 24-O , 59-H ) :   0.1657 B( 27-O , 28-H ) :   0.8509
B( 27-O , 29-H ) :   0.7421 B( 29-H , 54-O ) :   0.1632 B( 30-O , 31-H ) :   0.7328
B( 30-O , 32-H ) :   0.8535 B( 30-O , 50-H ) :   0.1152 B( 33-O , 34-H ) :   0.7531
B( 33-O , 35-H ) :   0.7370 B( 33-O , 44-H ) :   0.1274 B( 34-H , 36-O ) :   0.1704
B( 36-O , 37-H ) :   0.7629 B( 36-O , 38-H ) :   0.7832 B( 37-H , 57-O ) :   0.1355
B( 39-O , 40-H ) :   0.8058 B( 39-O , 41-H ) :   0.8061 B( 39-O , 43-H ) :   0.1567
B( 40-H , 57-O ) :   0.1057 B( 42-O , 43-H ) :   0.7464 B( 42-O , 44-H ) :   0.7491
B( 45-O , 46-H ) :   0.8126 B( 45-O , 47-H ) :   0.8065 B( 48-O , 49-H ) :   0.8367
B( 48-O , 50-H ) :   0.8004 B( 48-O , 55-H ) :   0.1045 B( 51-O , 52-H ) :   0.8031
B( 51-O , 53-H ) :   0.8119 B( 54-O , 55-H ) :   0.7966 B( 54-O , 56-H ) :   0.8142
B( 57-O , 58-H ) :   0.8519 B( 57-O , 59-H ) :   0.7337

Dispersion correction           -0.077272737
FINAL SINGLE POINT ENERGY     -1528.997668967925

DIPOLE MOMENT
-------------
                                X             Y             Z
Electronic contribution:      0.06238      -0.28647       0.24792
Nuclear contribution   :      0.00487      -2.12081       0.99550
                        -----------------------------------------
Total Dipole Moment    :      0.06725      -2.40728       1.24342
                        -----------------------------------------
Magnitude (a.u.)       :      2.71028
Magnitude (Debye)      :      6.88897

                             ****ORCA TERMINATED NORMALLY****
TOTAL RUN TIME: 0 days 0 hours 2 minutes 45 seconds 960 msec
