                         Program Version 3.0.3 - RELEASE   -
|  1> ! B3LYP Def2-TZVP def2-TZVP/J RIJCOSX TightSCF Grid4 D3BJ COSMO
|  2>
|  3> %pal nprocs 12 end
|  4>
|  5> %scf
|  6>         maxiter 400
|  7> end
|  8>
|  9> %cosmo
| 10>         SMD true
| 11>         solvent "WATER"
| 12> end
| 13>
| 14> * xyz  0  1
| 15> O  1.751188	-2.237476	2.382720
| 16> H  1.251453	-2.647571	1.608713
| 17> H  2.071333	-2.996846	2.908855
| 18> O  2.560187	0.330925	-0.545280
| 19> H  2.388158	1.330922	-0.554564
| 20> H  3.060602	0.092930	0.324143
| 21> O  1.154056	-3.132361	-2.274090
| 22> H  1.552931	-2.225394	-2.547109
| 23> H  1.715696	-3.814145	-2.692163
| 24> O  1.000094	3.495904	1.634527
| 25> H  1.366835	2.749705	2.202286
| 26> H  0.009870	3.317361	1.605085
| 27> O  2.050548	1.477464	3.063114
| 28> H  2.457460	1.811031	3.888045
| 29> H  1.348318	0.780088	3.384926
| 30> O  -3.233982	0.649246	-1.499116
| 31> H  -3.885074	0.575587	-2.225594
| 32> H  -2.345946	0.387846	-1.915206
| 33> O  1.903392	-0.723168	-2.914800
| 34> H  2.279316	-0.353903	-2.058594
| 35> H  0.985392	-0.348173	-2.929422
| 36> O  -1.462708	0.279033	1.891323
| 37> H  -1.574224	1.282186	1.784745
| 38> H  -0.797915	0.045361	1.161661
| 39> O  -3.410270	-1.036114	0.604862
| 40> H  -2.742540	-0.559692	1.192774
| 41> H  -3.464325	-0.419951	-0.184109
| 42> O  -1.596301	2.871221	1.422698
| 43> H  -2.210028	3.386199	1.983506
| 44> H  -1.931916	3.018948	0.444065
| 45> O  1.771054	2.823497	-0.700669
| 46> H  1.464913	3.135533	0.251644
| 47> H  2.441951	3.476270	-0.984658
| 48> O  0.166005	-0.467373	-0.008312
| 49> H  0.271013	-1.470866	0.107501
| 50> H  1.127936	-0.124659	-0.138607
| 51> O  0.413408	-3.081484	0.258293
| 52> H  -0.585243	-3.198084	0.129947
| 53> H  0.804283	-3.210464	-0.665194
| 54> O  -1.400286	-2.535799	-2.909195
| 55> H  -1.789541	-2.768282	-2.011009
| 56> H  -0.471159	-2.900956	-2.824324
| 57> O  -0.833957	-0.066241	-2.390257
| 58> H  -1.085083	-1.026723	-2.690578
| 59> H  -0.456992	-0.209711	-1.452463
| 60> O  3.571789	-0.309237	1.749808
| 61> H  2.999626	-1.104950	1.954351
| 62> H  3.105636	0.411848	2.275744
| 63> O  -0.256844	2.669026	-2.463851
| 64> H  -0.399737	1.699046	-2.601698
| 65> H  0.514639	2.723911	-1.820613
| 66> O  0.358680	-0.337425	3.746069
| 67> H  -0.410795	-0.125056	3.129907
| 68> H  0.807073	-1.114082	3.300198
| 69> O  -2.406056	3.182288	-0.984650
| 70> H  -1.575244	3.078615	-1.561499
| 71> H  -2.865997	2.309200	-1.150878
| 72> O  -2.140739	-3.044370	-0.371979
| 73> H  -2.710398	-3.829612	-0.249900
| 74> H  -2.666867	-2.248218	0.049170
| 75> **                         ****END OF INPUT****

CARTESIAN COORDINATES (ANGSTROEM)
---------------------------------
  O      1.751188   -2.237476    2.382720
  H      1.251453   -2.647571    1.608713
  H      2.071333   -2.996846    2.908855
  O      2.560187    0.330925   -0.545280
  H      2.388158    1.330922   -0.554564
  H      3.060602    0.092930    0.324143
  O      1.154056   -3.132361   -2.274090
  H      1.552931   -2.225394   -2.547109
  H      1.715696   -3.814145   -2.692163
  O      1.000094    3.495904    1.634527
  H      1.366835    2.749705    2.202286
  H      0.009870    3.317361    1.605085
  O      2.050548    1.477464    3.063114
  H      2.457460    1.811031    3.888045
  H      1.348318    0.780088    3.384926
  O     -3.233982    0.649246   -1.499116
  H     -3.885074    0.575587   -2.225594
  H     -2.345946    0.387846   -1.915206
  O      1.903392   -0.723168   -2.914800
  H      2.279316   -0.353903   -2.058594
  H      0.985392   -0.348173   -2.929422
  O     -1.462708    0.279033    1.891323
  H     -1.574224    1.282186    1.784745
  H     -0.797915    0.045361    1.161661
  O     -3.410270   -1.036114    0.604862
  H     -2.742540   -0.559692    1.192774
  H     -3.464325   -0.419951   -0.184109
  O     -1.596301    2.871221    1.422698
  H     -2.210028    3.386199    1.983506
  H     -1.931916    3.018948    0.444065
  O      1.771054    2.823497   -0.700669
  H      1.464913    3.135533    0.251644
  H      2.441951    3.476270   -0.984658
  O      0.166005   -0.467373   -0.008312
  H      0.271013   -1.470866    0.107501
  H      1.127936   -0.124659   -0.138607
  O      0.413408   -3.081484    0.258293
  H     -0.585243   -3.198084    0.129947
  H      0.804283   -3.210464   -0.665194
  O     -1.400286   -2.535799   -2.909195
  H     -1.789541   -2.768282   -2.011009
  H     -0.471159   -2.900956   -2.824324
  O     -0.833957   -0.066241   -2.390257
  H     -1.085083   -1.026723   -2.690578
  H     -0.456992   -0.209711   -1.452463
  O      3.571789   -0.309237    1.749808
  H      2.999626   -1.104950    1.954351
  H      3.105636    0.411848    2.275744
  O     -0.256844    2.669026   -2.463851
  H     -0.399737    1.699046   -2.601698
  H      0.514639    2.723911   -1.820613
  O      0.358680   -0.337425    3.746069
  H     -0.410795   -0.125056    3.129907
  H      0.807073   -1.114082    3.300198
  O     -2.406056    3.182288   -0.984650
  H     -1.575244    3.078615   -1.561499
  H     -2.865997    2.309200   -1.150878
  O     -2.140739   -3.044370   -0.371979
  H     -2.710398   -3.829612   -0.249900
  H     -2.666867   -2.248218    0.049170

 Total Charge           Charge          ....    0
 Multiplicity           Mult            ....    1
 Number of Electrons    NEL             ....  200
 Basis Dimension        Dim             ....  860

ORBITAL ENERGIES
----------------

  NO   OCC          E(Eh)            E(eV)
   0   2.0000     -19.139027      -520.7994
   1   2.0000     -19.137091      -520.7467
   2   2.0000     -19.134943      -520.6883
   3   2.0000     -19.131662      -520.5990
   4   2.0000     -19.130624      -520.5708
   5   2.0000     -19.129787      -520.5480
   6   2.0000     -19.129719      -520.5461
   7   2.0000     -19.129406      -520.5376
   8   2.0000     -19.129046      -520.5278
   9   2.0000     -19.127981      -520.4988
  10   2.0000     -19.126208      -520.4506
  11   2.0000     -19.121306      -520.3172
  12   2.0000     -19.120327      -520.2906
  13   2.0000     -19.120105      -520.2845
  14   2.0000     -19.118403      -520.2382
  15   2.0000     -19.118250      -520.2340
  16   2.0000     -19.117709      -520.2193
  17   2.0000     -19.117397      -520.2108
  18   2.0000     -19.117334      -520.2091
  19   2.0000     -19.117136      -520.2037
  20   2.0000      -1.037935       -28.2437
  21   2.0000      -1.026065       -27.9206
  22   2.0000      -1.025242       -27.8983
  23   2.0000      -1.021590       -27.7989
  24   2.0000      -1.016643       -27.6643
  25   2.0000      -1.016439       -27.6587
  26   2.0000      -1.013589       -27.5812
  27   2.0000      -1.012948       -27.5637
  28   2.0000      -1.008460       -27.4416
  29   2.0000      -1.005168       -27.3520
  30   2.0000      -1.002944       -27.2915
  31   2.0000      -1.001235       -27.2450
  32   2.0000      -0.997837       -27.1525
  33   2.0000      -0.990493       -26.9527
  34   2.0000      -0.985084       -26.8055
  35   2.0000      -0.981501       -26.7080
  36   2.0000      -0.979470       -26.6527
  37   2.0000      -0.977648       -26.6032
  38   2.0000      -0.977291       -26.5934
  39   2.0000      -0.970896       -26.4194
  40   2.0000      -0.547541       -14.8994
  41   2.0000      -0.542088       -14.7510
  42   2.0000      -0.539198       -14.6723
  43   2.0000      -0.538063       -14.6414
  44   2.0000      -0.534108       -14.5338
  45   2.0000      -0.532403       -14.4874
  46   2.0000      -0.530443       -14.4341
  47   2.0000      -0.529090       -14.3973
  48   2.0000      -0.528508       -14.3814
  49   2.0000      -0.526922       -14.3383
  50   2.0000      -0.526156       -14.3174
  51   2.0000      -0.523468       -14.2443
  52   2.0000      -0.523228       -14.2378
  53   2.0000      -0.521360       -14.1869
  54   2.0000      -0.520395       -14.1607
  55   2.0000      -0.519004       -14.1228
  56   2.0000      -0.515911       -14.0386
  57   2.0000      -0.515117       -14.0170
  58   2.0000      -0.513544       -13.9742
  59   2.0000      -0.511741       -13.9252
  60   2.0000      -0.467521       -12.7219
  61   2.0000      -0.458419       -12.4742
  62   2.0000      -0.452766       -12.3204
  63   2.0000      -0.447126       -12.1669
  64   2.0000      -0.440399       -11.9839
  65   2.0000      -0.439154       -11.9500
  66   2.0000      -0.426636       -11.6094
  67   2.0000      -0.421545       -11.4708
  68   2.0000      -0.417416       -11.3585
  69   2.0000      -0.406627       -11.0649
  70   2.0000      -0.404911       -11.0182
  71   2.0000      -0.398799       -10.8519
  72   2.0000      -0.395265       -10.7557
  73   2.0000      -0.389953       -10.6111
  74   2.0000      -0.388159       -10.5623
  75   2.0000      -0.386414       -10.5149
  76   2.0000      -0.376268       -10.2388
  77   2.0000      -0.374275       -10.1845
  78   2.0000      -0.366531        -9.9738
  79   2.0000      -0.355049        -9.6614
  80   2.0000      -0.331114        -9.0101
  81   2.0000      -0.330136        -8.9835
  82   2.0000      -0.329308        -8.9609
  83   2.0000      -0.327246        -8.9048
  84   2.0000      -0.326943        -8.8966
  85   2.0000      -0.325017        -8.8442
  86   2.0000      -0.324591        -8.8326
  87   2.0000      -0.323732        -8.8092
  88   2.0000      -0.323353        -8.7989
  89   2.0000      -0.322049        -8.7634
  90   2.0000      -0.319942        -8.7061
  91   2.0000      -0.318611        -8.6699
  92   2.0000      -0.316101        -8.6015
  93   2.0000      -0.315061        -8.5732
  94   2.0000      -0.314637        -8.5617
  95   2.0000      -0.314174        -8.5491
  96   2.0000      -0.312459        -8.5024
  97   2.0000      -0.311183        -8.4677
  98   2.0000      -0.309060        -8.4100
  99   2.0000      -0.308641        -8.3986
 100   0.0000       0.003906         0.1063
 101   0.0000       0.033275         0.9055
 102   0.0000       0.035971         0.9788
 103   0.0000       0.045685         1.2432
 104   0.0000       0.059995         1.6326

MULLIKEN ATOMIC CHARGES
-----------------------
   0 O :   -0.737118
   1 H :    0.399780
   2 H :    0.389970
   3 O :   -0.793071
   4 H :    0.383029
   5 H :    0.397946
   6 O :   -0.750057
   7 H :    0.381471
   8 H :    0.391123
   9 O :   -0.754223
  10 H :    0.378541
  11 H :    0.376613
  12 O :   -0.752942
  13 H :    0.386306
  14 H :    0.372660
  15 O :   -0.742669
  16 H :    0.391352
  17 H :    0.380017
  18 O :   -0.744093
  19 H :    0.398308
  20 H :    0.364220
  21 O :   -0.794729
  22 H :    0.386211
  23 H :    0.385727
  24 O :   -0.759075
  25 H :    0.390061
  26 H :    0.377656
  27 O :   -0.751764
  28 H :    0.387702
  29 H :    0.378806
  30 O :   -0.753677
  31 H :    0.379586
  32 H :    0.389378
  33 O :   -0.791834
  34 H :    0.370976
  35 H :    0.364787
  36 O :   -0.770090
  37 H :    0.390474
  38 H :    0.391591
  39 O :   -0.753021
  40 H :    0.369699
  41 H :    0.370344
  42 O :   -0.853363
  43 H :    0.403323
  44 H :    0.383285
  45 O :   -0.758769
  46 H :    0.369184
  47 H :    0.371285
  48 O :   -0.763515
  49 H :    0.381853
  50 H :    0.374471
  51 O :   -0.753931
  52 H :    0.390938
  53 H :    0.367339
  54 O :   -0.758105
  55 H :    0.379755
  56 H :    0.378254
  57 O :   -0.756809
  58 H :    0.389274
  59 H :    0.379561
Sum of atomic charges:   -0.0000000

LOEWDIN ATOMIC CHARGES
----------------------
   0 O :   -0.273390
   1 H :    0.153686
   2 H :    0.191973
   3 O :   -0.304680
   4 H :    0.140119
   5 H :    0.142785
   6 O :   -0.279883
   7 H :    0.149882
   8 H :    0.189768
   9 O :   -0.317272
  10 H :    0.144437
  11 H :    0.144322
  12 O :   -0.289078
  13 H :    0.185668
  14 H :    0.144104
  15 O :   -0.273745
  16 H :    0.191401
  17 H :    0.146547
  18 O :   -0.309616
  19 H :    0.148969
  20 H :    0.148988
  21 O :   -0.308825
  22 H :    0.143548
  23 H :    0.133120
  24 O :   -0.320523
  25 H :    0.145960
  26 H :    0.144943
  27 O :   -0.281446
  28 H :    0.186225
  29 H :    0.144242
  30 O :   -0.282971
  31 H :    0.143179
  32 H :    0.186524
  33 O :   -0.282966
  34 H :    0.135658
  35 H :    0.132795
  36 O :   -0.293740
  37 H :    0.147327
  38 H :    0.146243
  39 O :   -0.322479
  40 H :    0.144415
  41 H :    0.146558
  42 O :   -0.333743
  43 H :    0.140836
  44 H :    0.127283
  45 O :   -0.330010
  46 H :    0.146671
  47 H :    0.144024
  48 O :   -0.334161
  49 H :    0.146996
  50 H :    0.144002
  51 O :   -0.321556
  52 H :    0.144085
  53 H :    0.145580
  54 O :   -0.322915
  55 H :    0.146116
  56 H :    0.146598
  57 O :   -0.285800
  58 H :    0.186854
  59 H :    0.146365

  Mayer bond orders larger than 0.1
B(  0-O ,  1-H ) :   0.7715 B(  0-O ,  2-H ) :   0.8492 B(  0-O , 46-H ) :   0.1154
B(  0-O , 53-H ) :   0.1176 B(  3-O ,  4-H ) :   0.7426 B(  3-O ,  5-H ) :   0.7104
B(  3-O , 19-H ) :   0.1002 B(  3-O , 35-H ) :   0.2279 B(  4-H , 30-O ) :   0.1545
B(  5-H , 45-O ) :   0.1875 B(  6-O ,  7-H ) :   0.7283 B(  6-O ,  8-H ) :   0.8465
B(  6-O , 38-H ) :   0.1371 B(  6-O , 41-H ) :   0.1212 B(  7-H , 18-O ) :   0.1683
B(  9-O , 10-H ) :   0.7788 B(  9-O , 11-H ) :   0.7763 B(  9-O , 31-H ) :   0.2232
B( 10-H , 12-O ) :   0.1237 B( 11-H , 27-O ) :   0.1310 B( 12-O , 13-H ) :   0.8519
B( 12-O , 14-H ) :   0.7034 B( 12-O , 47-H ) :   0.1326 B( 14-H , 51-O ) :   0.2079
B( 15-O , 16-H ) :   0.8471 B( 15-O , 17-H ) :   0.7575 B( 15-O , 26-H ) :   0.1086
B( 15-O , 56-H ) :   0.1056 B( 17-H , 42-O ) :   0.1278 B( 18-O , 19-H ) :   0.7802
B( 18-O , 20-H ) :   0.8306 B( 21-O , 22-H ) :   0.7468 B( 21-O , 23-H ) :   0.7646
B( 21-O , 25-H ) :   0.1179 B( 21-O , 52-H ) :   0.1166 B( 22-H , 27-O ) :   0.1500
B( 23-H , 33-O ) :   0.1085 B( 24-O , 25-H ) :   0.7773 B( 24-O , 26-H ) :   0.7921
B( 24-O , 59-H ) :   0.2105 B( 27-O , 28-H ) :   0.8504 B( 27-O , 29-H ) :   0.6921
B( 29-H , 54-O ) :   0.2165 B( 30-O , 31-H ) :   0.6880 B( 30-O , 32-H ) :   0.8493
B( 30-O , 50-H ) :   0.1248 B( 33-O , 34-H ) :   0.7318 B( 33-O , 35-H ) :   0.6999
B( 33-O , 44-H ) :   0.1431 B( 34-H , 36-O ) :   0.1971 B( 36-O , 37-H ) :   0.7526
B( 36-O , 38-H ) :   0.7562 B( 37-H , 57-O ) :   0.1454 B( 39-O , 40-H ) :   0.7839
B( 39-O , 41-H ) :   0.7933 B( 39-O , 43-H ) :   0.1993 B( 40-H , 57-O ) :   0.1330
B( 42-O , 43-H ) :   0.6984 B( 42-O , 44-H ) :   0.7312 B( 45-O , 46-H ) :   0.7980
B( 45-O , 47-H ) :   0.7827 B( 48-O , 49-H ) :   0.8275 B( 48-O , 50-H ) :   0.7801
B( 48-O , 55-H ) :   0.1456 B( 51-O , 52-H ) :   0.7759 B( 51-O , 53-H ) :   0.7952
B( 54-O , 55-H ) :   0.7632 B( 54-O , 56-H ) :   0.7968 B( 57-O , 58-H ) :   0.8495
B( 57-O , 59-H ) :   0.6962

Dispersion correction           -0.079036885
FINAL SINGLE POINT ENERGY     -1528.964360358613

DIPOLE MOMENT
-------------
                                X             Y             Z
Electronic contribution:      0.03645      -0.33594       0.23568
Nuclear contribution   :      0.11395      -2.24726       0.87119
                        -----------------------------------------
Total Dipole Moment    :      0.15040      -2.58320       1.10687
                        -----------------------------------------
Magnitude (a.u.)       :      2.81437
Magnitude (Debye)      :      7.15357

                             ****ORCA TERMINATED NORMALLY****
TOTAL RUN TIME: 0 days 0 hours 2 minutes 47 seconds 505 msec
