                         Program Version 3.0.3 - RELEASE   -
|  1> ! wB97X-D3 MA-Def2-TZVP def2-TZVP/J RIJCOSX TightSCF Grid4
|  2>
|  3> %pal nprocs 1 end
|  4>
|  5> %scf
|  6>         maxiter 400
|  7> end
|  8>
|  9> %cosmo
| 10>         SMD true
| 11>         solvent "WATER"
| 12> end
| 13>
| 14> * xyz  0  1
| 15> O  1.735719	-2.257303	2.351387
| 16> H  1.343140	-2.657661	1.535704
| 17> H  2.080194	-3.006090	2.862179
| 18> O  2.940372	0.248191	-0.669059
| 19> H  2.749181	1.221365	-0.739695
| 20> H  3.237398	0.105794	0.277721
| 21> O  1.135940	-3.253969	-2.541652
| 22> H  1.536825	-2.366870	-2.769283
| 23> H  1.693315	-3.918037	-2.975236
| 24> O  0.952973	3.117654	1.497829
| 25> H  1.141243	2.456794	2.206845
| 26> H  -0.016714	3.276920	1.519331
| 27> O  1.694503	1.347065	3.401907
| 28> H  2.025277	1.727879	4.229767
| 29> H  1.075683	0.606669	3.671022
| 30> O  -3.277730	0.670207	-1.387460
| 31> H  -3.965174	0.492667	-2.049204
| 32> H  -2.427284	0.414440	-1.831996
| 33> O  1.939993	-0.753294	-3.013761
| 34> H  2.388012	-0.438936	-2.195372
| 35> H  1.051770	-0.347594	-2.992389
| 36> O  -1.128779	0.644788	1.711541
| 37> H  -1.377610	1.599243	1.618923
| 38> H  -0.459151	0.425206	1.015054
| 39> O  -3.103586	-0.936132	0.814639
| 40> H  -2.390963	-0.387576	1.231162
| 41> H  -3.320780	-0.411530	0.008712
| 42> O  -1.752280	3.263603	1.414552
| 43> H  -2.410111	3.591367	2.046030
| 44> H  -2.168169	3.341141	0.499771
| 45> O  1.992033	2.716721	-0.830086
| 46> H  1.599515	2.886039	0.087063
| 47> H  2.536629	3.494324	-1.027353
| 48> O  0.430964	-0.381012	-0.148603
| 49> H  0.458746	-1.369004	-0.015943
| 50> H  1.381947	-0.123109	-0.311593
| 51> O  0.510035	-3.025579	0.085830
| 52> H  -0.470436	-3.198391	0.063612
| 53> H  0.840973	-3.244727	-0.821820
| 54> O  -1.499850	-2.646606	-2.809017
| 55> H  -1.823928	-2.892798	-1.910061
| 56> H  -0.585305	-3.012503	-2.837859
| 57> O  -0.868659	-0.099485	-2.417548
| 58> H  -1.143308	-1.036362	-2.653511
| 59> H  -0.403581	-0.188208	-1.537607
| 60> O  3.445354	-0.133966	1.908889
| 61> H  2.947612	-0.973602	2.048471
| 62> H  2.910355	0.507166	2.435330
| 63> O  -0.359219	2.676898	-2.275444
| 64> H  -0.508651	1.742247	-2.513109
| 65> H  0.491098	2.690413	-1.774447
| 66> O  -0.001237	-0.641708	3.782052
| 67> H  -0.530219	-0.194373	3.077046
| 68> H  0.546326	-1.303137	3.297164
| 69> O  -2.668293	3.328628	-1.056012
| 70> H  -1.794299	3.212023	-1.512319
| 71> H  -3.057422	2.429030	-1.150877
| 72> O  -2.115315	-3.127785	-0.178547
| 73> H  -2.648113	-3.879750	0.122305
| 74> H  -2.522292	-2.304582	0.245327
| 75> **                         ****END OF INPUT****

CARTESIAN COORDINATES (ANGSTROEM)
---------------------------------
  O      1.735719   -2.257303    2.351387
  H      1.343140   -2.657661    1.535704
  H      2.080194   -3.006090    2.862179
  O      2.940372    0.248191   -0.669059
  H      2.749181    1.221365   -0.739695
  H      3.237398    0.105794    0.277721
  O      1.135940   -3.253969   -2.541652
  H      1.536825   -2.366870   -2.769283
  H      1.693315   -3.918037   -2.975236
  O      0.952973    3.117654    1.497829
  H      1.141243    2.456794    2.206845
  H     -0.016714    3.276920    1.519331
  O      1.694503    1.347065    3.401907
  H      2.025277    1.727879    4.229767
  H      1.075683    0.606669    3.671022
  O     -3.277730    0.670207   -1.387460
  H     -3.965174    0.492667   -2.049204
  H     -2.427284    0.414440   -1.831996
  O      1.939993   -0.753294   -3.013761
  H      2.388012   -0.438936   -2.195372
  H      1.051770   -0.347594   -2.992389
  O     -1.128779    0.644788    1.711541
  H     -1.377610    1.599243    1.618923
  H     -0.459151    0.425206    1.015054
  O     -3.103586   -0.936132    0.814639
  H     -2.390963   -0.387576    1.231162
  H     -3.320780   -0.411530    0.008712
  O     -1.752280    3.263603    1.414552
  H     -2.410111    3.591367    2.046030
  H     -2.168169    3.341141    0.499771
  O      1.992033    2.716721   -0.830086
  H      1.599515    2.886039    0.087063
  H      2.536629    3.494324   -1.027353
  O      0.430964   -0.381012   -0.148603
  H      0.458746   -1.369004   -0.015943
  H      1.381947   -0.123109   -0.311593
  O      0.510035   -3.025579    0.085830
  H     -0.470436   -3.198391    0.063612
  H      0.840973   -3.244727   -0.821820
  O     -1.499850   -2.646606   -2.809017
  H     -1.823928   -2.892798   -1.910061
  H     -0.585305   -3.012503   -2.837859
  O     -0.868659   -0.099485   -2.417548
  H     -1.143308   -1.036362   -2.653511
  H     -0.403581   -0.188208   -1.537607
  O      3.445354   -0.133966    1.908889
  H      2.947612   -0.973602    2.048471
  H      2.910355    0.507166    2.435330
  O     -0.359219    2.676898   -2.275444
  H     -0.508651    1.742247   -2.513109
  H      0.491098    2.690413   -1.774447
  O     -0.001237   -0.641708    3.782052
  H     -0.530219   -0.194373    3.077046
  H      0.546326   -1.303137    3.297164
  O     -2.668293    3.328628   -1.056012
  H     -1.794299    3.212023   -1.512319
  H     -3.057422    2.429030   -1.150877
  O     -2.115315   -3.127785   -0.178547
  H     -2.648113   -3.879750    0.122305
  H     -2.522292   -2.304582    0.245327

 Total Charge           Charge          ....    0
 Multiplicity           Mult            ....    1
 Number of Electrons    NEL             ....  200
 Basis Dimension        Dim             ....  940
Dispersion correction           -0.041815921
FINAL SINGLE POINT ENERGY     -1529.220318326830
                             ****ORCA TERMINATED NORMALLY****
TOTAL RUN TIME: 0 days 0 hours 53 minutes 24 seconds 651 msec

ORBITAL ENERGIES
----------------

  NO   OCC          E(Eh)            E(eV)
   0   2.0000     -19.247406      -523.7485
   1   2.0000     -19.245059      -523.6847
   2   2.0000     -19.244105      -523.6587
   3   2.0000     -19.242247      -523.6081
   4   2.0000     -19.240988      -523.5739
   5   2.0000     -19.240923      -523.5721
   6   2.0000     -19.240696      -523.5660
   7   2.0000     -19.240631      -523.5642
   8   2.0000     -19.239602      -523.5362
   9   2.0000     -19.239255      -523.5267
  10   2.0000     -19.236747      -523.4585
  11   2.0000     -19.233729      -523.3764
  12   2.0000     -19.232374      -523.3395
  13   2.0000     -19.231898      -523.3265
  14   2.0000     -19.230217      -523.2808
  15   2.0000     -19.227982      -523.2200
  16   2.0000     -19.227582      -523.2091
  17   2.0000     -19.227342      -523.2026
  18   2.0000     -19.227292      -523.2012
  19   2.0000     -19.225447      -523.1510
  20   2.0000      -1.159014       -31.5384
  21   2.0000      -1.146195       -31.1896
  22   2.0000      -1.145666       -31.1751
  23   2.0000      -1.143215       -31.1085
  24   2.0000      -1.139071       -30.9957
  25   2.0000      -1.137734       -30.9593
  26   2.0000      -1.135929       -30.9102
  27   2.0000      -1.134193       -30.8630
  28   2.0000      -1.130987       -30.7757
  29   2.0000      -1.127088       -30.6696
  30   2.0000      -1.125971       -30.6392
  31   2.0000      -1.123571       -30.5739
  32   2.0000      -1.121694       -30.5228
  33   2.0000      -1.114907       -30.3382
  34   2.0000      -1.110288       -30.2125
  35   2.0000      -1.107411       -30.1342
  36   2.0000      -1.105817       -30.0908
  37   2.0000      -1.103884       -30.0382
  38   2.0000      -1.103109       -30.0171
  39   2.0000      -1.099981       -29.9320
  40   2.0000      -0.659179       -17.9372
  41   2.0000      -0.655641       -17.8409
  42   2.0000      -0.653598       -17.7853
  43   2.0000      -0.651350       -17.7241
  44   2.0000      -0.647137       -17.6095
  45   2.0000      -0.643975       -17.5235
  46   2.0000      -0.643359       -17.5067
  47   2.0000      -0.641888       -17.4667
  48   2.0000      -0.641442       -17.4545
  49   2.0000      -0.640257       -17.4223
  50   2.0000      -0.638345       -17.3703
  51   2.0000      -0.636669       -17.3246
  52   2.0000      -0.635466       -17.2919
  53   2.0000      -0.632066       -17.1994
  54   2.0000      -0.630249       -17.1499
  55   2.0000      -0.629943       -17.1416
  56   2.0000      -0.628269       -17.0961
  57   2.0000      -0.624589       -16.9959
  58   2.0000      -0.622152       -16.9296
  59   2.0000      -0.620615       -16.8878
  60   2.0000      -0.568668       -15.4742
  61   2.0000      -0.560932       -15.2637
  62   2.0000      -0.554884       -15.0992
  63   2.0000      -0.549084       -14.9413
  64   2.0000      -0.542536       -14.7632
  65   2.0000      -0.541118       -14.7246
  66   2.0000      -0.529593       -14.4110
  67   2.0000      -0.526420       -14.3246
  68   2.0000      -0.515435       -14.0257
  69   2.0000      -0.509470       -13.8634
  70   2.0000      -0.506886       -13.7931
  71   2.0000      -0.499002       -13.5785
  72   2.0000      -0.497366       -13.5340
  73   2.0000      -0.493611       -13.4318
  74   2.0000      -0.490043       -13.3347
  75   2.0000      -0.486540       -13.2394
  76   2.0000      -0.477647       -12.9974
  77   2.0000      -0.475644       -12.9429
  78   2.0000      -0.466822       -12.7029
  79   2.0000      -0.457939       -12.4612
  80   2.0000      -0.436292       -11.8721
  81   2.0000      -0.432882       -11.7793
  82   2.0000      -0.430963       -11.7271
  83   2.0000      -0.430879       -11.7248
  84   2.0000      -0.430137       -11.7046
  85   2.0000      -0.428127       -11.6499
  86   2.0000      -0.428012       -11.6468
  87   2.0000      -0.426676       -11.6105
  88   2.0000      -0.426540       -11.6067
  89   2.0000      -0.425287       -11.5726
  90   2.0000      -0.424553       -11.5527
  91   2.0000      -0.422379       -11.4935
  92   2.0000      -0.422054       -11.4847
  93   2.0000      -0.419194       -11.4069
  94   2.0000      -0.418485       -11.3876
  95   2.0000      -0.417643       -11.3646
  96   2.0000      -0.416397       -11.3307
  97   2.0000      -0.413094       -11.2409
  98   2.0000      -0.412408       -11.2222
  99   2.0000      -0.410215       -11.1625
 100   0.0000       0.055395         1.5074
 101   0.0000       0.076905         2.0927
 102   0.0000       0.078868         2.1461
 103   0.0000       0.081517         2.2182
 104   0.0000       0.099447         2.7061

MULLIKEN ATOMIC CHARGES
-----------------------
   0 O :   -0.826180
   1 H :    0.417535
   2 H :    0.417510
   3 O :   -0.882875
   4 H :    0.440273
   5 H :    0.457428
   6 O :   -0.862665
   7 H :    0.432303
   8 H :    0.422180
   9 O :   -0.837499
  10 H :    0.413053
  11 H :    0.421339
  12 O :   -0.852721
  13 H :    0.417096
  14 H :    0.423051
  15 O :   -0.803018
  16 H :    0.424244
  17 H :    0.418782
  18 O :   -0.779283
  19 H :    0.433808
  20 H :    0.363562
  21 O :   -0.899227
  22 H :    0.431336
  23 H :    0.419092
  24 O :   -0.842805
  25 H :    0.424834
  26 H :    0.420229
  27 O :   -0.824534
  28 H :    0.420887
  29 H :    0.427589
  30 O :   -0.818287
  31 H :    0.432492
  32 H :    0.417712
  33 O :   -0.777379
  34 H :    0.359137
  35 H :    0.327198
  36 O :   -0.852371
  37 H :    0.446021
  38 H :    0.442770
  39 O :   -0.806087
  40 H :    0.414200
  41 H :    0.423577
  42 O :   -0.916597
  43 H :    0.474062
  44 H :    0.371967
  45 O :   -0.826496
  46 H :    0.405409
  47 H :    0.423835
  48 O :   -0.835983
  49 H :    0.410720
  50 H :    0.405500
  51 O :   -0.806780
  52 H :    0.434859
  53 H :    0.398967
  54 O :   -0.852222
  55 H :    0.446596
  56 H :    0.415240
  57 O :   -0.847202
  58 H :    0.420088
  59 H :    0.433729
Sum of atomic charges:   -0.0000000

LOEWDIN ATOMIC CHARGES
----------------------
   0 O :   -0.366376
   1 H :    0.197352
   2 H :    0.218070
   3 O :   -0.411728
   4 H :    0.189183
   5 H :    0.192350
   6 O :   -0.372885
   7 H :    0.195958
   8 H :    0.216948
   9 O :   -0.390594
  10 H :    0.190112
  11 H :    0.190068
  12 O :   -0.372757
  13 H :    0.216056
  14 H :    0.191290
  15 O :   -0.362652
  16 H :    0.218601
  17 H :    0.194854
  18 O :   -0.383899
  19 H :    0.195562
  20 H :    0.196754
  21 O :   -0.392177
  22 H :    0.191390
  23 H :    0.188684
  24 O :   -0.399988
  25 H :    0.187374
  26 H :    0.191806
  27 O :   -0.376495
  28 H :    0.215882
  29 H :    0.192472
  30 O :   -0.372282
  31 H :    0.186951
  32 H :    0.215436
  33 O :   -0.393562
  34 H :    0.187542
  35 H :    0.183401
  36 O :   -0.386978
  37 H :    0.192505
  38 H :    0.199299
  39 O :   -0.403545
  40 H :    0.193061
  41 H :    0.192395
  42 O :   -0.441591
  43 H :    0.192399
  44 H :    0.179228
  45 O :   -0.408908
  46 H :    0.194223
  47 H :    0.192719
  48 O :   -0.402703
  49 H :    0.194961
  50 H :    0.191744
  51 O :   -0.409092
  52 H :    0.187538
  53 H :    0.191470
  54 O :   -0.411451
  55 H :    0.191306
  56 H :    0.191455
  57 O :   -0.373513
  58 H :    0.215714
  59 H :    0.189066

  Mayer bond orders larger than 0.1
B(  0-O ,  1-H ) :   0.8133 B(  0-O ,  2-H ) :   0.8354 B(  3-O ,  4-H ) :   0.7974
B(  3-O ,  5-H ) :   0.7708 B(  3-O , 33-O ) :  -0.1076 B(  3-O , 35-H ) :   0.2336
B(  6-O ,  7-H ) :   0.7813 B(  6-O ,  8-H ) :   0.8309 B(  9-O , 10-H ) :   0.8073
B(  9-O , 11-H ) :   0.8078 B( 12-O , 13-H ) :   0.8376 B( 12-O , 14-H ) :   0.7683
B( 15-O , 16-H ) :   0.8382 B( 15-O , 17-H ) :   0.8285 B( 18-O , 19-H ) :   0.8125
B( 18-O , 20-H ) :   0.8475 B( 21-O , 22-H ) :   0.7843 B( 21-O , 23-H ) :   0.8275
B( 24-O , 25-H ) :   0.8112 B( 24-O , 26-H ) :   0.8235 B( 27-O , 28-H ) :   0.8342
B( 27-O , 29-H ) :   0.7571 B( 30-O , 31-H ) :   0.7698 B( 30-O , 32-H ) :   0.8385
B( 33-O , 34-H ) :   0.7764 B( 33-O , 35-H ) :   0.7478 B( 33-O , 42-O ) :  -0.1188
B( 33-O , 44-H ) :   0.1384 B( 34-H , 36-O ) :   0.1761 B( 36-O , 37-H ) :   0.7804
B( 36-O , 38-H ) :   0.7967 B( 39-O , 40-H ) :   0.8280 B( 39-O , 41-H ) :   0.8213
B( 42-O , 43-H ) :   0.7710 B( 42-O , 44-H ) :   0.8038 B( 45-O , 46-H ) :   0.8285
B( 45-O , 47-H ) :   0.8163 B( 48-O , 49-H ) :   0.8215 B( 48-O , 50-H ) :   0.8096
B( 51-O , 52-H ) :   0.8031 B( 51-O , 53-H ) :   0.8263 B( 54-O , 55-H ) :   0.8141
B( 54-O , 56-H ) :   0.8273 B( 57-O , 58-H ) :   0.8342 B( 57-O , 59-H ) :   0.7536

Dispersion correction           -0.041815921
FINAL SINGLE POINT ENERGY     -1529.220318326830

DIPOLE MOMENT
-------------
                                X             Y             Z
Electronic contribution:      0.06579      -0.28943       0.23567
Nuclear contribution   :      0.00487      -2.12081       0.99550
                        -----------------------------------------
Total Dipole Moment    :      0.07066      -2.41024       1.23116
                        -----------------------------------------
Magnitude (a.u.)       :      2.70740
Magnitude (Debye)      :      6.88165

                             ****ORCA TERMINATED NORMALLY****
TOTAL RUN TIME: 0 days 0 hours 46 minutes 59 seconds 79 msec
