                         Program Version 3.0.3 - RELEASE   -
|  1> ! wB97X-D3 Def2-TZVP def2-TZVP/J RIJCOSX TightSCF Grid4
|  2>
|  3> %pal nprocs 12 end
|  4>
|  5> %scf
|  6>         maxiter 400
|  7> end
|  8>
|  9> * xyz  0  1
| 10> O  1.742730	-2.298407	2.399808
| 11> H  1.339389	-2.670773	1.570912
| 12> H  2.066285	-3.061176	2.897690
| 13> O  2.708764	0.342188	-0.645374
| 14> H  2.680211	1.324514	-0.766887
| 15> H  3.123552	0.173168	0.254521
| 16> O  1.148682	-3.222175	-2.484835
| 17> H  1.486140	-2.282895	-2.691341
| 18> H  1.740104	-3.826676	-2.952249
| 19> O  1.000602	2.922993	1.370133
| 20> H  1.283580	2.404803	2.156903
| 21> H  0.041195	3.111874	1.465985
| 22> O  1.828626	1.399464	3.438306
| 23> H  2.111233	1.774006	4.282655
| 24> H  1.150188	0.667883	3.658763
| 25> O  -3.322478	0.724539	-1.487747
| 26> H  -3.976219	0.611151	-2.192334
| 27> H  -2.451323	0.452587	-1.901111
| 28> O  1.831636	-0.778927	-2.930353
| 29> H  2.285547	-0.396889	-2.140005
| 30> H  0.964457	-0.333494	-2.969592
| 31> O  -1.371951	0.496929	1.822194
| 32> H  -1.573717	1.463723	1.768792
| 33> H  -0.686076	0.319104	1.128295
| 34> O  -3.116826	-1.135217	0.554655
| 35> H  -2.555391	-0.567975	1.141215
| 36> H  -3.338710	-0.530810	-0.186993
| 37> O  -1.681921	3.151359	1.469007
| 38> H  -2.214046	3.734831	2.025027
| 39> H  -2.033945	3.264602	0.508574
| 40> O  2.116265	2.917559	-0.904684
| 41> H  1.692619	2.976351	0.019022
| 42> H  2.671995	3.700874	-1.007138
| 43> O  0.259069	-0.367926	-0.064202
| 44> H  0.365825	-1.346362	0.042052
| 45> H  1.188660	-0.023898	-0.221148
| 46> O  0.544090	-3.048089	0.144994
| 47> H  -0.419679	-3.290618	0.122597
| 48> H  0.884879	-3.239014	-0.764961
| 49> O  -1.508278	-2.636639	-2.804247
| 50> H  -1.829432	-2.972287	-1.938910
| 51> H  -0.603572	-3.009847	-2.871198
| 52> O  -0.950856	-0.086520	-2.395745
| 53> H  -1.189859	-1.032376	-2.641224
| 54> H  -0.520253	-0.170622	-1.498370
| 55> O  3.446316	-0.119367	1.833302
| 56> H  2.984904	-0.958782	2.038441
| 57> H  2.991877	0.523308	2.422806
| 58> O  -0.300028	2.724325	-2.350468
| 59> H  -0.429142	1.788263	-2.582887
| 60> H  0.578079	2.785117	-1.915707
| 61> O  0.138611	-0.479356	3.812675
| 62> H  -0.547601	-0.163383	3.173020
| 63> H  0.593984	-1.215019	3.351236
| 64> O  -2.497764	3.337063	-0.946565
| 65> H  -1.670351	3.247273	-1.490846
| 66> H  -2.960882	2.492088	-1.125247
| 67> O  -2.069303	-3.338132	-0.163509
| 68> H  -2.656802	-4.045963	0.132283
| 69> H  -2.499021	-2.459521	0.150315
| 70> **                         ****END OF INPUT****

CARTESIAN COORDINATES (ANGSTROEM)
---------------------------------
  O      1.742730   -2.298407    2.399808
  H      1.339389   -2.670773    1.570912
  H      2.066285   -3.061176    2.897690
  O      2.708764    0.342188   -0.645374
  H      2.680211    1.324514   -0.766887
  H      3.123552    0.173168    0.254521
  O      1.148682   -3.222175   -2.484835
  H      1.486140   -2.282895   -2.691341
  H      1.740104   -3.826676   -2.952249
  O      1.000602    2.922993    1.370133
  H      1.283580    2.404803    2.156903
  H      0.041195    3.111874    1.465985
  O      1.828626    1.399464    3.438306
  H      2.111233    1.774006    4.282655
  H      1.150188    0.667883    3.658763
  O     -3.322478    0.724539   -1.487747
  H     -3.976219    0.611151   -2.192334
  H     -2.451323    0.452587   -1.901111
  O      1.831636   -0.778927   -2.930353
  H      2.285547   -0.396889   -2.140005
  H      0.964457   -0.333494   -2.969592
  O     -1.371951    0.496929    1.822194
  H     -1.573717    1.463723    1.768792
  H     -0.686076    0.319104    1.128295
  O     -3.116826   -1.135217    0.554655
  H     -2.555391   -0.567975    1.141215
  H     -3.338710   -0.530810   -0.186993
  O     -1.681921    3.151359    1.469007
  H     -2.214046    3.734831    2.025027
  H     -2.033945    3.264602    0.508574
  O      2.116265    2.917559   -0.904684
  H      1.692619    2.976351    0.019022
  H      2.671995    3.700874   -1.007138
  O      0.259069   -0.367926   -0.064202
  H      0.365825   -1.346362    0.042052
  H      1.188660   -0.023898   -0.221148
  O      0.544090   -3.048089    0.144994
  H     -0.419679   -3.290618    0.122597
  H      0.884879   -3.239014   -0.764961
  O     -1.508278   -2.636639   -2.804247
  H     -1.829432   -2.972287   -1.938910
  H     -0.603572   -3.009847   -2.871198
  O     -0.950856   -0.086520   -2.395745
  H     -1.189859   -1.032376   -2.641224
  H     -0.520253   -0.170622   -1.498370
  O      3.446316   -0.119367    1.833302
  H      2.984904   -0.958782    2.038441
  H      2.991877    0.523308    2.422806
  O     -0.300028    2.724325   -2.350468
  H     -0.429142    1.788263   -2.582887
  H      0.578079    2.785117   -1.915707
  O      0.138611   -0.479356    3.812675
  H     -0.547601   -0.163383    3.173020
  H      0.593984   -1.215019    3.351236
  O     -2.497764    3.337063   -0.946565
  H     -1.670351    3.247273   -1.490846
  H     -2.960882    2.492088   -1.125247
  O     -2.069303   -3.338132   -0.163509
  H     -2.656802   -4.045963    0.132283
  H     -2.499021   -2.459521    0.150315

 Total Charge           Charge          ....    0
 Multiplicity           Mult            ....    1
 Number of Electrons    NEL             ....  200
 Basis Dimension        Dim             ....  860

ORBITAL ENERGIES
----------------

  NO   OCC          E(Eh)            E(eV)
   0   2.0000     -19.258927      -524.0620
   1   2.0000     -19.253282      -523.9084
   2   2.0000     -19.252500      -523.8872
   3   2.0000     -19.249135      -523.7956
   4   2.0000     -19.247519      -523.7516
   5   2.0000     -19.240222      -523.5531
   6   2.0000     -19.239591      -523.5359
   7   2.0000     -19.238758      -523.5132
   8   2.0000     -19.238468      -523.5053
   9   2.0000     -19.234991      -523.4107
  10   2.0000     -19.234031      -523.3846
  11   2.0000     -19.226922      -523.1912
  12   2.0000     -19.226233      -523.1724
  13   2.0000     -19.226130      -523.1696
  14   2.0000     -19.224621      -523.1285
  15   2.0000     -19.221846      -523.0530
  16   2.0000     -19.218924      -522.9735
  17   2.0000     -19.217741      -522.9413
  18   2.0000     -19.215635      -522.8840
  19   2.0000     -19.214967      -522.8658
  20   2.0000      -1.161381       -31.6028
  21   2.0000      -1.152374       -31.3577
  22   2.0000      -1.149074       -31.2679
  23   2.0000      -1.145779       -31.1782
  24   2.0000      -1.143549       -31.1176
  25   2.0000      -1.140020       -31.0215
  26   2.0000      -1.135954       -30.9109
  27   2.0000      -1.135106       -30.8878
  28   2.0000      -1.131301       -30.7843
  29   2.0000      -1.128055       -30.6959
  30   2.0000      -1.123872       -30.5821
  31   2.0000      -1.118621       -30.4392
  32   2.0000      -1.114924       -30.3386
  33   2.0000      -1.112241       -30.2656
  34   2.0000      -1.110485       -30.2178
  35   2.0000      -1.105466       -30.0813
  36   2.0000      -1.102598       -30.0032
  37   2.0000      -1.098206       -29.8837
  38   2.0000      -1.096777       -29.8448
  39   2.0000      -1.094831       -29.7919
  40   2.0000      -0.668117       -18.1804
  41   2.0000      -0.664287       -18.0762
  42   2.0000      -0.658008       -17.9053
  43   2.0000      -0.654840       -17.8191
  44   2.0000      -0.653163       -17.7735
  45   2.0000      -0.651964       -17.7408
  46   2.0000      -0.648588       -17.6490
  47   2.0000      -0.645782       -17.5726
  48   2.0000      -0.645207       -17.5570
  49   2.0000      -0.642529       -17.4841
  50   2.0000      -0.639822       -17.4104
  51   2.0000      -0.637982       -17.3604
  52   2.0000      -0.632854       -17.2208
  53   2.0000      -0.629320       -17.1247
  54   2.0000      -0.628804       -17.1106
  55   2.0000      -0.626418       -17.0457
  56   2.0000      -0.622589       -16.9415
  57   2.0000      -0.621180       -16.9032
  58   2.0000      -0.618509       -16.8305
  59   2.0000      -0.614721       -16.7274
  60   2.0000      -0.575856       -15.6698
  61   2.0000      -0.560718       -15.2579
  62   2.0000      -0.553130       -15.0514
  63   2.0000      -0.549244       -14.9457
  64   2.0000      -0.542291       -14.7565
  65   2.0000      -0.540850       -14.7173
  66   2.0000      -0.528229       -14.3738
  67   2.0000      -0.521166       -14.1816
  68   2.0000      -0.516469       -14.0538
  69   2.0000      -0.510106       -13.8807
  70   2.0000      -0.501634       -13.6502
  71   2.0000      -0.497898       -13.5485
  72   2.0000      -0.492770       -13.4089
  73   2.0000      -0.490433       -13.3454
  74   2.0000      -0.483483       -13.1562
  75   2.0000      -0.480097       -13.0641
  76   2.0000      -0.471824       -12.8390
  77   2.0000      -0.467961       -12.7339
  78   2.0000      -0.464882       -12.6501
  79   2.0000      -0.447421       -12.1749
  80   2.0000      -0.441277       -12.0077
  81   2.0000      -0.439135       -11.9495
  82   2.0000      -0.436338       -11.8734
  83   2.0000      -0.435498       -11.8505
  84   2.0000      -0.433664       -11.8006
  85   2.0000      -0.429194       -11.6790
  86   2.0000      -0.426506       -11.6058
  87   2.0000      -0.424414       -11.5489
  88   2.0000      -0.423333       -11.5195
  89   2.0000      -0.422414       -11.4945
  90   2.0000      -0.420207       -11.4344
  91   2.0000      -0.417286       -11.3549
  92   2.0000      -0.415032       -11.2936
  93   2.0000      -0.413969       -11.2647
  94   2.0000      -0.411281       -11.1915
  95   2.0000      -0.410178       -11.1615
  96   2.0000      -0.407667       -11.0932
  97   2.0000      -0.403728       -10.9860
  98   2.0000      -0.401616       -10.9285
  99   2.0000      -0.397807       -10.8249
 100   0.0000       0.073232         1.9927
 101   0.0000       0.100602         2.7375
 102   0.0000       0.101238         2.7548
 103   0.0000       0.111578         3.0362
 104   0.0000       0.120860         3.2888

MULLIKEN ATOMIC CHARGES
-----------------------
   0 O :   -0.730239
   1 H :    0.391861
   2 H :    0.354747
   3 O :   -0.774620
   4 H :    0.381803
   5 H :    0.402806
   6 O :   -0.757746
   7 H :    0.381086
   8 H :    0.355155
   9 O :   -0.738892
  10 H :    0.377059
  11 H :    0.373637
  12 O :   -0.757915
  13 H :    0.351952
  14 H :    0.367736
  15 O :   -0.735249
  16 H :    0.354830
  17 H :    0.376214
  18 O :   -0.698647
  19 H :    0.399533
  20 H :    0.348869
  21 O :   -0.777902
  22 H :    0.381554
  23 H :    0.372902
  24 O :   -0.718085
  25 H :    0.390079
  26 H :    0.361938
  27 O :   -0.760672
  28 H :    0.352641
  29 H :    0.384657
  30 O :   -0.755947
  31 H :    0.398743
  32 H :    0.352942
  33 O :   -0.756188
  34 H :    0.349486
  35 H :    0.354596
  36 O :   -0.759092
  37 H :    0.388371
  38 H :    0.383834
  39 O :   -0.701519
  40 H :    0.352038
  41 H :    0.358256
  42 O :   -0.820958
  43 H :    0.400696
  44 H :    0.357589
  45 O :   -0.706229
  46 H :    0.347027
  47 H :    0.364896
  48 O :   -0.709324
  49 H :    0.361557
  50 H :    0.358804
  51 O :   -0.690564
  52 H :    0.389542
  53 H :    0.344911
  54 O :   -0.706530
  55 H :    0.387696
  56 H :    0.360386
  57 O :   -0.765088
  58 H :    0.355093
  59 H :    0.393885
Sum of atomic charges:    0.0000000

LOEWDIN ATOMIC CHARGES
----------------------
   0 O :   -0.285072
   1 H :    0.145399
   2 H :    0.164198
   3 O :   -0.285017
   4 H :    0.137508
   5 H :    0.143614
   6 O :   -0.300290
   7 H :    0.139550
   8 H :    0.160919
   9 O :   -0.280261
  10 H :    0.135661
  11 H :    0.135924
  12 O :   -0.294373
  13 H :    0.158226
  14 H :    0.132996
  15 O :   -0.285170
  16 H :    0.163783
  17 H :    0.140923
  18 O :   -0.259828
  19 H :    0.145835
  20 H :    0.143115
  21 O :   -0.282392
  22 H :    0.138690
  23 H :    0.129824
  24 O :   -0.272204
  25 H :    0.145241
  26 H :    0.141439
  27 O :   -0.296283
  28 H :    0.158549
  29 H :    0.140035
  30 O :   -0.293816
  31 H :    0.133554
  32 H :    0.159812
  33 O :   -0.268635
  34 H :    0.130594
  35 H :    0.129077
  36 O :   -0.280189
  37 H :    0.139772
  38 H :    0.143498
  39 O :   -0.286235
  40 H :    0.139071
  41 H :    0.138833
  42 O :   -0.312370
  43 H :    0.137924
  44 H :    0.122898
  45 O :   -0.289595
  46 H :    0.139569
  47 H :    0.139350
  48 O :   -0.290112
  49 H :    0.142737
  50 H :    0.143881
  51 O :   -0.269082
  52 H :    0.141289
  53 H :    0.138072
  54 O :   -0.272798
  55 H :    0.145641
  56 H :    0.139854
  57 O :   -0.300378
  58 H :    0.159990
  59 H :    0.137254

  Mayer bond orders larger than 0.1
B(  0-O ,  1-H ) :   0.7895 B(  0-O ,  2-H ) :   0.8807 B(  3-O ,  4-H ) :   0.7834
B(  3-O ,  5-H ) :   0.7505 B(  3-O , 35-H ) :   0.1989 B(  4-H , 30-O ) :   0.1132
B(  5-H , 45-O ) :   0.1366 B(  6-O ,  7-H ) :   0.7253 B(  6-O ,  8-H ) :   0.8797
B(  6-O , 38-H ) :   0.1115 B(  7-H , 18-O ) :   0.1765 B(  9-O , 10-H ) :   0.8026
B(  9-O , 11-H ) :   0.8042 B(  9-O , 31-H ) :   0.1522 B( 12-O , 13-H ) :   0.8816
B( 12-O , 14-H ) :   0.7100 B( 14-H , 51-O ) :   0.2128 B( 15-O , 16-H ) :   0.8803
B( 15-O , 17-H ) :   0.7703 B( 17-H , 42-O ) :   0.1191 B( 18-O , 19-H ) :   0.7972
B( 18-O , 20-H ) :   0.8535 B( 21-O , 22-H ) :   0.7868 B( 21-O , 23-H ) :   0.7904
B( 22-H , 27-O ) :   0.1150 B( 24-O , 25-H ) :   0.7991 B( 24-O , 26-H ) :   0.8251
B( 24-O , 59-H ) :   0.1898 B( 27-O , 28-H ) :   0.8814 B( 27-O , 29-H ) :   0.6991
B( 29-H , 54-O ) :   0.2097 B( 30-O , 31-H ) :   0.7263 B( 30-O , 32-H ) :   0.8817
B( 33-O , 34-H ) :   0.7835 B( 33-O , 35-H ) :   0.7334 B( 33-O , 44-H ) :   0.1334
B( 34-H , 36-O ) :   0.1551 B( 36-O , 37-H ) :   0.7743 B( 36-O , 38-H ) :   0.7889
B( 37-H , 57-O ) :   0.1232 B( 39-O , 40-H ) :   0.8334 B( 39-O , 41-H ) :   0.8320
B( 39-O , 43-H ) :   0.1555 B( 42-O , 43-H ) :   0.7419 B( 42-O , 44-H ) :   0.7588
B( 45-O , 46-H ) :   0.8484 B( 45-O , 47-H ) :   0.8249 B( 48-O , 49-H ) :   0.8588
B( 48-O , 50-H ) :   0.8302 B( 51-O , 52-H ) :   0.8044 B( 51-O , 53-H ) :   0.8424
B( 54-O , 55-H ) :   0.7950 B( 54-O , 56-H ) :   0.8419 B( 57-O , 58-H ) :   0.8802
B( 57-O , 59-H ) :   0.7044

Dispersion correction           -0.041442918
FINAL SINGLE POINT ENERGY     -1529.157628735698

DIPOLE MOMENT
-------------
                                X             Y             Z
Electronic contribution:     -0.04495       0.20605      -0.03209
Nuclear contribution   :      0.14709      -1.49341       0.93080
                        -----------------------------------------
Total Dipole Moment    :      0.10214      -1.28736       0.89871
                        -----------------------------------------
Magnitude (a.u.)       :      1.57334
Magnitude (Debye)      :      3.99911

                             ****ORCA TERMINATED NORMALLY****
TOTAL RUN TIME: 0 days 0 hours 2 minutes 51 seconds 920 msec
