                         Program Version 4.2.0 -  RELEASE  -
|  1> # 12mecn.remya.etal.2.mol0,5,7
|  2> ! MP2 def2-TZVP EnGrad TightSCF
|  3>
|  4> %pal
|  5>     nprocs 6
|  6> end
|  7>
|  8> %maxcore 8000
|  9>
| 10> %scf
| 11>     ConvForced true
| 12> end
| 13>
| 14> *xyz 0 1
| 15> C  -0.869520000  -3.929380000   1.700199000
| 16> H  -0.057420000  -3.268850000   2.015352000
| 17> H  -0.697530000  -4.930670000   2.101524000
| 18> H  -1.821490000  -3.546590000   2.077146000
| 19> C  -0.916080000  -3.969960000   0.256749000
| 20> N  -0.955390000  -3.995980000  -0.909290000
| 21> C  -1.955700000   2.515080000   1.698463000
| 22> H  -2.923830000   2.883163000   2.049269000
| 23> H  -1.154850000   3.171830000   2.050990000
| 24> H  -1.790380000   1.506115000   2.087896000
| 25> C  -1.948230000   2.482156000   0.253672000
| 26> N  -1.937550000   2.462523000  -0.913150000
| 27> C   1.502241000   0.651296000   1.710523000
| 28> H   1.309219000   1.637164000   2.143202000
| 29> H   2.493408000   0.297996000   2.009069000
| 30> H   0.746597000  -0.059850000   2.055508000
| 31> C   1.447974000   0.738517000   0.269805000
| 32> N   1.405612000   0.808047000  -0.894380000
| 33> *
| 34>
| 35>                          ****END OF INPUT****

CARTESIAN COORDINATES (ANGSTROEM)
---------------------------------
  C     -0.869520   -3.929380    1.700199
  H     -0.057420   -3.268850    2.015352
  H     -0.697530   -4.930670    2.101524
  H     -1.821490   -3.546590    2.077146
  C     -0.916080   -3.969960    0.256749
  N     -0.955390   -3.995980   -0.909290
  C     -1.955700    2.515080    1.698463
  H     -2.923830    2.883163    2.049269
  H     -1.154850    3.171830    2.050990
  H     -1.790380    1.506115    2.087896
  C     -1.948230    2.482156    0.253672
  N     -1.937550    2.462523   -0.913150
  C      1.502241    0.651296    1.710523
  H      1.309219    1.637164    2.143202
  H      2.493408    0.297996    2.009069
  H      0.746597   -0.059850    2.055508
  C      1.447974    0.738517    0.269805
  N      1.405612    0.808047   -0.894380

 Total Charge           Charge          ....    0
 Multiplicity           Mult            ....    1
 Number of Electrons    NEL             ....   66
 Basis Dimension        Dim             ....  333

ORBITAL ENERGIES
----------------

  NO   OCC          E(Eh)            E(eV)
   0   2.0000     -15.574319      -423.7988
   1   2.0000     -15.573115      -423.7660
   2   2.0000     -15.571589      -423.7245
   3   2.0000     -11.294086      -307.3277
   4   2.0000     -11.291491      -307.2571
   5   2.0000     -11.290627      -307.2336
   6   2.0000     -11.279946      -306.9429
   7   2.0000     -11.276971      -306.8620
   8   2.0000     -11.276064      -306.8373
   9   2.0000      -1.214709       -33.0539
  10   2.0000      -1.212974       -33.0067
  11   2.0000      -1.211132       -32.9566
  12   2.0000      -1.051405       -28.6102
  13   2.0000      -1.048673       -28.5359
  14   2.0000      -1.047675       -28.5087
  15   2.0000      -0.705485       -19.1972
  16   2.0000      -0.704195       -19.1621
  17   2.0000      -0.702521       -19.1166
  18   2.0000      -0.645763       -17.5721
  19   2.0000      -0.642635       -17.4870
  20   2.0000      -0.637994       -17.3607
  21   2.0000      -0.636953       -17.3324
  22   2.0000      -0.636153       -17.3106
  23   2.0000      -0.633149       -17.2289
  24   2.0000      -0.555510       -15.1162
  25   2.0000      -0.553701       -15.0670
  26   2.0000      -0.551017       -14.9939
  27   2.0000      -0.462807       -12.5936
  28   2.0000      -0.458289       -12.4707
  29   2.0000      -0.457980       -12.4623
  30   2.0000      -0.456810       -12.4304
  31   2.0000      -0.454032       -12.3548
  32   2.0000      -0.447553       -12.1785
  33   0.0000       0.079889         2.1739
  34   0.0000       0.114514         3.1161
  35   0.0000       0.140633         3.8268
  36   0.0000       0.144013         3.9188
  37   0.0000       0.154351         4.2001

MULLIKEN ATOMIC CHARGES
-----------------------
   0 C :   -0.283615
   1 H :    0.160032
   2 H :    0.176241
   3 H :    0.171432
   4 C :   -0.143405
   5 N :   -0.080610
   6 C :   -0.288296
   7 H :    0.182213
   8 H :    0.168341
   9 H :    0.158785
  10 C :   -0.151660
  11 N :   -0.069423
  12 C :   -0.289197
  13 H :    0.166256
  14 H :    0.183081
  15 H :    0.157335
  16 C :   -0.150794
  17 N :   -0.066712
Sum of atomic charges:    0.0000000

LOEWDIN ATOMIC CHARGES
----------------------
   0 C :   -0.286137
   1 H :    0.147961
   2 H :    0.152164
   3 H :    0.151810
   4 C :   -0.221435
   5 N :    0.055645
   6 C :   -0.289088
   7 H :    0.153334
   8 H :    0.149950
   9 H :    0.147013
  10 C :   -0.225157
  11 N :    0.063864
  12 C :   -0.289405
  13 H :    0.148704
  14 H :    0.153934
  15 H :    0.146470
  16 C :   -0.226845
  17 N :    0.067219

  Mayer bond orders larger than 0.100000
B(  0-C ,  1-H ) :   0.9202 B(  0-C ,  2-H ) :   0.9166 B(  0-C ,  3-H ) :   0.9182
B(  0-C ,  4-C ) :   0.9001 B(  4-C ,  5-N ) :   2.8279 B(  6-C ,  7-H ) :   0.9121
B(  6-C ,  8-H ) :   0.9227 B(  6-C ,  9-H ) :   0.9214 B(  6-C , 10-C ) :   0.8966
B( 10-C , 11-N ) :   2.8241 B( 12-C , 13-H ) :   0.9208 B( 12-C , 14-H ) :   0.9129
B( 12-C , 15-H ) :   0.9257 B( 12-C , 16-C ) :   0.8934 B( 16-C , 17-N ) :   2.8177

MP2 TOTAL ENERGY:     -397.444752725 Eh
FINAL SINGLE POINT ENERGY      -397.444752725181

DIPOLE MOMENT
-------------
                                X             Y             Z
Electronic contribution:     -0.20386       0.04173      -9.61457
Nuclear contribution   :      0.29739      -0.06525      13.89340
                        -----------------------------------------
Total Dipole Moment    :      0.09353      -0.02352       4.27882
                        -----------------------------------------
Magnitude (a.u.)       :      4.27991
Magnitude (Debye)      :     10.87866

Rotational constants in cm-1:     0.040859     0.015649     0.014373
Rotational constants in MHz :  1224.929917   469.154619   430.895478

                             ****ORCA TERMINATED NORMALLY****
TOTAL RUN TIME: 0 days 0 hours 2 minutes 52 seconds 965 msec
