                         Program Version 4.2.0 -  RELEASE  -
|  1> # 12meoh.boyd.etal.mol5,9,11
|  2> ! MP2 def2-TZVP EnGrad TightSCF
|  3>
|  4> %pal
|  5>     nprocs 6
|  6> end
|  7>
|  8> %maxcore 8000
|  9>
| 10> %scf
| 11>     ConvForced true
| 12> end
| 13>
| 14> *xyz 0 1
| 15> O  -0.662721750   1.449094618  -1.383082065
| 16> H   0.064188300   2.119867608  -1.465650660
| 17> C  -0.353319239   0.341218776  -2.229326771
| 18> H  -1.072358530  -0.454743281  -2.019906495
| 19> H   0.657636746  -0.044472139  -2.042736771
| 20> H  -0.434616607   0.624733901  -3.287793021
| 21> O   1.390610024   3.194080770  -1.536658882
| 22> H   2.162932299   2.881562730  -0.993525056
| 23> C   1.202977189   4.580367182  -1.302880219
| 24> H   0.374773115   4.915764831  -1.934164643
| 25> H   2.098649340   5.157710875  -1.570472348
| 26> H   0.950320401   4.800436015  -0.254328827
| 27> O   3.252955559   0.588596242   1.858934315
| 28> H   3.621209177  -0.251605199   1.476063364
| 29> C   4.040824528   0.944288422   2.989639460
| 30> H   3.670521436   1.902573549   3.363847391
| 31> H   5.103749934   1.055868619   2.734277559
| 32> H   3.948540682   0.200279590   3.792908518
| 33> *
| 34>
| 35>                          ****END OF INPUT****

CARTESIAN COORDINATES (ANGSTROEM)
---------------------------------
  O     -0.662722    1.449095   -1.383082
  H      0.064188    2.119868   -1.465651
  C     -0.353319    0.341219   -2.229327
  H     -1.072359   -0.454743   -2.019906
  H      0.657637   -0.044472   -2.042737
  H     -0.434617    0.624734   -3.287793
  O      1.390610    3.194081   -1.536659
  H      2.162932    2.881563   -0.993525
  C      1.202977    4.580367   -1.302880
  H      0.374773    4.915765   -1.934165
  H      2.098649    5.157711   -1.570472
  H      0.950320    4.800436   -0.254329
  O      3.252956    0.588596    1.858934
  H      3.621209   -0.251605    1.476063
  C      4.040825    0.944288    2.989639
  H      3.670521    1.902574    3.363847
  H      5.103750    1.055869    2.734278
  H      3.948541    0.200280    3.792909

 Total Charge           Charge          ....    0
 Multiplicity           Mult            ....    1
 Number of Electrons    NEL             ....   54
 Basis Dimension        Dim             ....  258

ORBITAL ENERGIES
----------------

  NO   OCC          E(Eh)            E(eV)
   0   2.0000     -20.581334      -560.0466
   1   2.0000     -20.564408      -559.5860
   2   2.0000     -20.505893      -557.9937
   3   2.0000     -11.283482      -307.0392
   4   2.0000     -11.277549      -306.8777
   5   2.0000     -11.243672      -305.9559
   6   2.0000      -1.375765       -37.4365
   7   2.0000      -1.353528       -36.8314
   8   2.0000      -1.301608       -35.4185
   9   2.0000      -0.935045       -25.4439
  10   2.0000      -0.925814       -25.1927
  11   2.0000      -0.889949       -24.2167
  12   2.0000      -0.708535       -19.2802
  13   2.0000      -0.688241       -18.7280
  14   2.0000      -0.664123       -18.0717
  15   2.0000      -0.629171       -17.1206
  16   2.0000      -0.623272       -16.9601
  17   2.0000      -0.603185       -16.4135
  18   2.0000      -0.597466       -16.2579
  19   2.0000      -0.584041       -15.8926
  20   2.0000      -0.554746       -15.0954
  21   2.0000      -0.520573       -14.1655
  22   2.0000      -0.506657       -13.7868
  23   2.0000      -0.476977       -12.9792
  24   2.0000      -0.455773       -12.4022
  25   2.0000      -0.451508       -12.2862
  26   2.0000      -0.409846       -11.1525
  27   0.0000       0.114060         3.1037
  28   0.0000       0.140211         3.8153
  29   0.0000       0.160149         4.3579
  30   0.0000       0.175881         4.7860
  31   0.0000       0.183266         4.9869

MULLIKEN ATOMIC CHARGES
-----------------------
   0 O :   -0.536153
   1 H :    0.349188
   2 C :   -0.156090
   3 H :    0.118249
   4 H :    0.089560
   5 H :    0.097872
   6 O :   -0.526338
   7 H :    0.347537
   8 C :   -0.174858
   9 H :    0.141692
  10 H :    0.120534
  11 H :    0.126623
  12 O :   -0.499895
  13 H :    0.324154
  14 C :   -0.174375
  15 H :    0.128991
  16 H :    0.109553
  17 H :    0.113756
Sum of atomic charges:    0.0000000

LOEWDIN ATOMIC CHARGES
----------------------
   0 O :   -0.127973
   1 H :    0.158668
   2 C :   -0.389954
   3 H :    0.104190
   4 H :    0.089527
   5 H :    0.091744
   6 O :   -0.074705
   7 H :    0.201754
   8 C :   -0.375358
   9 H :    0.115615
  10 H :    0.102366
  11 H :    0.102694
  12 O :   -0.110801
  13 H :    0.191174
  14 C :   -0.381436
  15 H :    0.110143
  16 H :    0.095196
  17 H :    0.097156

  Mayer bond orders larger than 0.100000
B(  0-O ,  1-H ) :   0.7921 B(  0-O ,  2-C ) :   0.9446 B(  2-C ,  3-H ) :   0.9410
B(  2-C ,  4-H ) :   0.9397 B(  2-C ,  5-H ) :   0.9403 B(  6-O ,  7-H ) :   0.8223
B(  6-O ,  8-C ) :   0.8748 B(  8-C ,  9-H ) :   0.9395 B(  8-C , 10-H ) :   0.9349
B(  8-C , 11-H ) :   0.9380 B( 12-O , 13-H ) :   0.8405 B( 12-O , 14-C ) :   0.9219
B( 14-C , 15-H ) :   0.9378 B( 14-C , 16-H ) :   0.9382 B( 14-C , 17-H ) :   0.9386

MP2 TOTAL ENERGY:     -346.530363037 Eh
FINAL SINGLE POINT ENERGY      -346.530363037050

DIPOLE MOMENT
-------------
                                X             Y             Z
Electronic contribution:     -1.23589      -0.43263      -0.57237
Nuclear contribution   :      2.99574       0.72814       0.94164
                        -----------------------------------------
Total Dipole Moment    :      1.75985       0.29551       0.36928
                        -----------------------------------------
Magnitude (a.u.)       :      1.82230
Magnitude (Debye)      :      4.63191

Rotational constants in cm-1:     0.070739     0.025138     0.019395
Rotational constants in MHz :  2120.701226   753.619754   581.432546

                             ****ORCA TERMINATED NORMALLY****
TOTAL RUN TIME: 0 days 0 hours 1 minutes 9 seconds 836 msec
