                         Program Version 4.2.0 -  RELEASE  -
|  1> # 12h2o.su.etal.mol2,4,5,6,8,10,11
|  2> ! MP2 def2-TZVP EnGrad TightSCF
|  3>
|  4> %pal
|  5>     nprocs 6
|  6> end
|  7>
|  8> %maxcore 8000
|  9>
| 10> %scf
| 11>     ConvForced true
| 12> end
| 13>
| 14> *xyz 0 1
| 15> O   0.923410000  -1.794470000  -2.768350000
| 16> H   1.359750000  -2.338250000  -3.430940000
| 17> H   1.303000000  -0.879480000  -2.865760000
| 18> O  -0.885520000   1.737840000   0.052730000
| 19> H  -1.032320000   2.090180000  -0.841890000
| 20> H  -1.284090000   0.839590000   0.017130000
| 21> O   0.885520000  -1.737840000   0.052730000
| 22> H   1.284090000  -0.839590000   0.017130000
| 23> H   1.032320000  -2.090180000  -0.841890000
| 24> O   1.737840000   0.885520000  -0.052730000
| 25> H   2.090180000   1.032320000   0.841890000
| 26> H   0.839590000   1.284090000  -0.017130000
| 27> O   1.752130000   0.741530000  -2.896280000
| 28> H   2.036450000   0.920500000  -1.984040000
| 29> H   0.921210000   1.242140000  -2.984230000
| 30> O  -0.923410000   1.794470000  -2.768350000
| 31> H  -1.359750000   2.338250000  -3.430940000
| 32> H  -1.303000000   0.879480000  -2.865760000
| 33> O  -0.741530000   1.752130000   2.896280000
| 34> H  -0.920500000   2.036450000   1.984040000
| 35> H  -1.242140000   0.921210000   2.984230000
| 36> *
| 37>
| 38>                          ****END OF INPUT****

CARTESIAN COORDINATES (ANGSTROEM)
---------------------------------
  O      0.923410   -1.794470   -2.768350
  H      1.359750   -2.338250   -3.430940
  H      1.303000   -0.879480   -2.865760
  O     -0.885520    1.737840    0.052730
  H     -1.032320    2.090180   -0.841890
  H     -1.284090    0.839590    0.017130
  O      0.885520   -1.737840    0.052730
  H      1.284090   -0.839590    0.017130
  H      1.032320   -2.090180   -0.841890
  O      1.737840    0.885520   -0.052730
  H      2.090180    1.032320    0.841890
  H      0.839590    1.284090   -0.017130
  O      1.752130    0.741530   -2.896280
  H      2.036450    0.920500   -1.984040
  H      0.921210    1.242140   -2.984230
  O     -0.923410    1.794470   -2.768350
  H     -1.359750    2.338250   -3.430940
  H     -1.303000    0.879480   -2.865760
  O     -0.741530    1.752130    2.896280
  H     -0.920500    2.036450    1.984040
  H     -1.242140    0.921210    2.984230

 Total Charge           Charge          ....    0
 Multiplicity           Mult            ....    1
 Number of Electrons    NEL             ....   70
 Basis Dimension        Dim             ....  301

ORBITAL ENERGIES
----------------

  NO   OCC          E(Eh)            E(eV)
   0   2.0000     -20.638422      -561.6000
   1   2.0000     -20.607664      -560.7630
   2   2.0000     -20.575254      -559.8811
   3   2.0000     -20.561183      -559.4982
   4   2.0000     -20.542429      -558.9879
   5   2.0000     -20.535797      -558.8075
   6   2.0000     -20.494168      -557.6747
   7   2.0000      -1.419456       -38.6254
   8   2.0000      -1.393975       -37.9320
   9   2.0000      -1.364545       -37.1312
  10   2.0000      -1.351718       -36.7821
  11   2.0000      -1.324381       -36.0382
  12   2.0000      -1.319320       -35.9005
  13   2.0000      -1.278288       -34.7840
  14   2.0000      -0.784487       -21.3470
  15   2.0000      -0.757028       -20.5998
  16   2.0000      -0.733986       -19.9728
  17   2.0000      -0.720598       -19.6085
  18   2.0000      -0.703112       -19.1326
  19   2.0000      -0.696258       -18.9462
  20   2.0000      -0.665014       -18.0960
  21   2.0000      -0.661228       -17.9929
  22   2.0000      -0.630356       -17.1529
  23   2.0000      -0.625176       -17.0119
  24   2.0000      -0.588848       -16.0234
  25   2.0000      -0.580059       -15.7842
  26   2.0000      -0.564374       -15.3574
  27   2.0000      -0.559124       -15.2145
  28   2.0000      -0.545480       -14.8433
  29   2.0000      -0.535123       -14.5614
  30   2.0000      -0.503187       -13.6924
  31   2.0000      -0.501126       -13.6363
  32   2.0000      -0.488781       -13.3004
  33   2.0000      -0.480110       -13.0645
  34   2.0000      -0.445305       -12.1174
  35   0.0000       0.075508         2.0547
  36   0.0000       0.122167         3.3243
  37   0.0000       0.149406         4.0655
  38   0.0000       0.154857         4.2139
  39   0.0000       0.173197         4.7129

MULLIKEN ATOMIC CHARGES
-----------------------
   0 O :   -0.744502
   1 H :    0.333625
   2 H :    0.367320
   3 O :   -0.727059
   4 H :    0.388723
   5 H :    0.361248
   6 O :   -0.743354
   7 H :    0.337579
   8 H :    0.362972
   9 O :   -0.738088
  10 H :    0.368334
  11 H :    0.369173
  12 O :   -0.712745
  13 H :    0.388804
  14 H :    0.359858
  15 O :   -0.728378
  16 H :    0.374187
  17 H :    0.381659
  18 O :   -0.695296
  19 H :    0.366586
  20 H :    0.329353
Sum of atomic charges:   -0.0000000

LOEWDIN ATOMIC CHARGES
----------------------
   0 O :   -0.346939
   1 H :    0.151620
   2 H :    0.141914
   3 O :   -0.281069
   4 H :    0.156414
   5 H :    0.179392
   6 O :   -0.376127
   7 H :    0.131799
   8 H :    0.144465
   9 O :   -0.296534
  10 H :    0.175647
  11 H :    0.145241
  12 O :   -0.283944
  13 H :    0.157808
  14 H :    0.146436
  15 O :   -0.288756
  16 H :    0.172851
  17 H :    0.196483
  18 O :   -0.338372
  19 H :    0.148967
  20 H :    0.162704

  Mayer bond orders larger than 0.100000
B(  0-O ,  1-H ) :   0.8520 B(  0-O ,  2-H ) :   0.7554 B(  2-H , 12-O ) :   0.1063
B(  3-O ,  4-H ) :   0.7955 B(  3-O ,  5-H ) :   0.8235 B(  6-O ,  7-H ) :   0.8152
B(  6-O ,  8-H ) :   0.8190 B(  9-O , 10-H ) :   0.8287 B(  9-O , 11-H ) :   0.7718
B( 12-O , 13-H ) :   0.8006 B( 12-O , 14-H ) :   0.8192 B( 15-O , 16-H ) :   0.8265
B( 15-O , 17-H ) :   0.8115 B( 18-O , 19-H ) :   0.8258 B( 18-O , 20-H ) :   0.8571

MP2 TOTAL ENERGY:     -534.255548080 Eh
FINAL SINGLE POINT ENERGY      -534.255548079975

DIPOLE MOMENT
-------------
                                X             Y             Z
Electronic contribution:      0.00779       0.59605      -0.00369
Nuclear contribution   :     -1.47502       0.56463      -2.03947
                        -----------------------------------------
Total Dipole Moment    :     -1.46723       1.16069      -2.04316
                        -----------------------------------------
Magnitude (a.u.)       :      2.77028
Magnitude (Debye)      :      7.04149

Rotational constants in cm-1:     0.046288     0.025230     0.019907
Rotational constants in MHz :  1387.687272   756.380465   596.802193

                             ****ORCA TERMINATED NORMALLY****
TOTAL RUN TIME: 0 days 0 hours 2 minutes 14 seconds 284 msec
