                         Program Version 3.0.3 - RELEASE   -
|  1> ! wB97X-D3 MA-Def2-TZVP def2-TZVP/J RIJCOSX TightSCF Grid4
|  2>
|  3> %pal nprocs 1 end
|  4>
|  5> %scf
|  6>         maxiter 400
|  7> end
|  8>
|  9> %cosmo
| 10>         SMD true
| 11>         solvent "WATER"
| 12> end
| 13>
| 14> * xyz  0  1
| 15> O  1.886588	1.183364	0.226222
| 16> H  1.233332	1.206647	1.022388
| 17> H  2.647150	1.735918	0.493454
| 18> O  0.084505	1.062040	2.101507
| 19> H  -0.693324	1.282427	1.506582
| 20> H  0.039891	0.060459	2.122993
| 21> O  -0.060142	-1.577541	1.601126
| 22> H  0.715960	-1.629618	0.922603
| 23> H  0.057139	-2.345963	2.193466
| 24> O  -1.789741	1.353269	0.192822
| 25> H  -1.986384	0.355778	0.025982
| 26> H  -2.663736	1.780866	0.285098
| 27> O  1.837395	-1.476059	-0.170970
| 28> H  2.057380	-0.511936	-0.002220
| 29> H  1.231853	-1.401188	-0.968460
| 30> O  0.087052	1.627434	-1.724938
| 31> H  0.853366	1.609100	-1.077504
| 32> H  -0.698363	1.679069	-1.105506
| 33> O  -0.045654	-0.955952	-2.019984
| 34> H  0.028139	0.072618	-2.010101
| 35> H  -0.034427	-1.211054	-2.963491
| 36> O  -2.023533	-1.210322	-0.204328
| 37> H  -1.404735	-1.231062	-0.992298
| 38> H  -1.404866	-1.472591	0.541001
| 39> **                         ****END OF INPUT****

CARTESIAN COORDINATES (ANGSTROEM)
---------------------------------
  O      1.886588    1.183364    0.226222
  H      1.233332    1.206647    1.022388
  H      2.647150    1.735918    0.493454
  O      0.084505    1.062040    2.101507
  H     -0.693324    1.282427    1.506582
  H      0.039891    0.060459    2.122993
  O     -0.060142   -1.577541    1.601126
  H      0.715960   -1.629618    0.922603
  H      0.057139   -2.345963    2.193466
  O     -1.789741    1.353269    0.192822
  H     -1.986384    0.355778    0.025982
  H     -2.663736    1.780866    0.285098
  O      1.837395   -1.476059   -0.170970
  H      2.057380   -0.511936   -0.002220
  H      1.231853   -1.401188   -0.968460
  O      0.087052    1.627434   -1.724938
  H      0.853366    1.609100   -1.077504
  H     -0.698363    1.679069   -1.105506
  O     -0.045654   -0.955952   -2.019984
  H      0.028139    0.072618   -2.010101
  H     -0.034427   -1.211054   -2.963491
  O     -2.023533   -1.210322   -0.204328
  H     -1.404735   -1.231062   -0.992298
  H     -1.404866   -1.472591    0.541001

 Total Charge           Charge          ....    0
 Multiplicity           Mult            ....    1
 Number of Electrons    NEL             ....   80
 Basis Dimension        Dim             ....  376

ORBITAL ENERGIES
----------------

  NO   OCC          E(Eh)            E(eV)
   0   2.0000     -19.239843      -523.5428
   1   2.0000     -19.239683      -523.5384
   2   2.0000     -19.239672      -523.5381
   3   2.0000     -19.239202      -523.5253
   4   2.0000     -19.229523      -523.2619
   5   2.0000     -19.229126      -523.2511
   6   2.0000     -19.229077      -523.2498
   7   2.0000     -19.228820      -523.2428
   8   2.0000      -1.147466       -31.2241
   9   2.0000      -1.130261       -30.7560
  10   2.0000      -1.127913       -30.6921
  11   2.0000      -1.127722       -30.6869
  12   2.0000      -1.108643       -30.1677
  13   2.0000      -1.108330       -30.1592
  14   2.0000      -1.106083       -30.0980
  15   2.0000      -1.089733       -29.6531
  16   2.0000      -0.639468       -17.4008
  17   2.0000      -0.637980       -17.3603
  18   2.0000      -0.634905       -17.2766
  19   2.0000      -0.634611       -17.2687
  20   2.0000      -0.623634       -16.9699
  21   2.0000      -0.622379       -16.9358
  22   2.0000      -0.616094       -16.7648
  23   2.0000      -0.615561       -16.7503
  24   2.0000      -0.568080       -15.4582
  25   2.0000      -0.528422       -14.3791
  26   2.0000      -0.528190       -14.3728
  27   2.0000      -0.525790       -14.3075
  28   2.0000      -0.494661       -13.4604
  29   2.0000      -0.491668       -13.3790
  30   2.0000      -0.491388       -13.3714
  31   2.0000      -0.457084       -12.4379
  32   2.0000      -0.423453       -11.5227
  33   2.0000      -0.423197       -11.5158
  34   2.0000      -0.422557       -11.4984
  35   2.0000      -0.422156       -11.4875
  36   2.0000      -0.415896       -11.3171
  37   2.0000      -0.415682       -11.3113
  38   2.0000      -0.413265       -11.2455
  39   2.0000      -0.411214       -11.1897
  40   0.0000       0.066767         1.8168
  41   0.0000       0.095861         2.6085
  42   0.0000       0.097436         2.6514
  43   0.0000       0.097526         2.6538
  44   0.0000       0.123478         3.3600

MULLIKEN ATOMIC CHARGES
-----------------------
   0 O :   -0.880928
   1 H :    0.424119
   2 H :    0.416626
   3 O :   -0.810522
   4 H :    0.423849
   5 H :    0.428645
   6 O :   -0.886674
   7 H :    0.422288
   8 H :    0.416929
   9 O :   -0.881339
  10 H :    0.422323
  11 H :    0.417003
  12 O :   -0.804495
  13 H :    0.424913
  14 H :    0.424012
  15 O :   -0.807937
  16 H :    0.425536
  17 H :    0.427171
  18 O :   -0.886894
  19 H :    0.423878
  20 H :    0.416937
  21 O :   -0.807936
  22 H :    0.426570
  23 H :    0.425924
Sum of atomic charges:   -0.0000000

LOEWDIN ATOMIC CHARGES
----------------------
   0 O :   -0.398561
   1 H :    0.198729
   2 H :    0.219022
   3 O :   -0.418583
   4 H :    0.199418
   5 H :    0.200586
   6 O :   -0.401726
   7 H :    0.197800
   8 H :    0.218667
   9 O :   -0.399549
  10 H :    0.198660
  11 H :    0.219063
  12 O :   -0.416965
  13 H :    0.199936
  14 H :    0.199864
  15 O :   -0.416515
  16 H :    0.200222
  17 H :    0.200038
  18 O :   -0.400052
  19 H :    0.199085
  20 H :    0.219003
  21 O :   -0.417711
  22 H :    0.200036
  23 H :    0.199530

  Mayer bond orders larger than 0.1
B(  0-O ,  1-H ) :   0.7398 B(  0-O ,  2-H ) :   0.8309 B(  1-H ,  3-O ) :   0.1217
B(  3-O ,  4-H ) :   0.8023 B(  3-O ,  5-H ) :   0.8027 B(  6-O ,  7-H ) :   0.7358
B(  6-O ,  8-H ) :   0.8304 B(  7-H , 12-O ) :   0.1286 B(  9-O , 10-H ) :   0.7390
B(  9-O , 11-H ) :   0.8305 B( 10-H , 21-O ) :   0.1240 B( 12-O , 13-H ) :   0.8024
B( 12-O , 14-H ) :   0.8018 B( 15-O , 16-H ) :   0.8020 B( 15-O , 17-H ) :   0.8036
B( 15-O , 19-H ) :   0.1231 B( 18-O , 19-H ) :   0.7391 B( 18-O , 20-H ) :   0.8305
B( 21-O , 22-H ) :   0.8048 B( 21-O , 23-H ) :   0.8019

Dispersion correction           -0.012611166
FINAL SINGLE POINT ENERGY      -611.669921852590

DIPOLE MOMENT
-------------
                                X             Y             Z
Electronic contribution:      0.00543       0.00877      -0.00778
Nuclear contribution   :      0.02117      -0.02746      -0.00743
                        -----------------------------------------
Total Dipole Moment    :      0.02660      -0.01869      -0.01521
                        -----------------------------------------
Magnitude (a.u.)       :      0.03589
Magnitude (Debye)      :      0.09123

                             ****ORCA TERMINATED NORMALLY****
TOTAL RUN TIME: 0 days 0 hours 6 minutes 45 seconds 838 msec
