                         Program Version 3.0.3 - RELEASE   -
|  1> ! wB97X-D3 Def2-TZVP def2-TZVP/J RIJCOSX TightSCF Grid4
|  2>
|  3> %pal nprocs 12 end
|  4>
|  5> %scf
|  6>         maxiter 400
|  7> end
|  8>
|  9> * xyz  0  1
| 10> O  1.994004	1.309692	0.217771
| 11> H  1.325875	1.253611	0.979942
| 12> H  2.727352	1.848064	0.543088
| 13> O  0.160451	1.016273	2.027547
| 14> H  -0.644112	1.259577	1.516331
| 15> H  0.064707	0.047374	2.158365
| 16> O  -0.109598	-1.694088	1.717073
| 17> H  0.633250	-1.668712	1.027379
| 18> H  0.061199	-2.467328	2.270145
| 19> O  -1.842613	1.356523	0.195221
| 20> H  -2.012367	0.370086	0.028730
| 21> H  -2.709681	1.773483	0.281917
| 22> O  1.740195	-1.422890	-0.101059
| 23> H  2.054318	-0.497307	0.004170
| 24> H  1.217905	-1.392734	-0.934671
| 25> O  0.094399	1.593497	-1.745095
| 26> H  0.871049	1.676400	-1.146996
| 27> H  -0.670889	1.715381	-1.140076
| 28> O  -0.060239	-0.951947	-2.126605
| 29> H  0.018632	0.058098	-2.057860
| 30> H  -0.041910	-1.163252	-3.069076
| 31> O  -2.018331	-1.207117	-0.202890
| 32> H  -1.432459	-1.289710	-0.988344
| 33> H  -1.466289	-1.537273	0.540437
| 34> **                         ****END OF INPUT****

CARTESIAN COORDINATES (ANGSTROEM)
---------------------------------
  O      1.994004    1.309692    0.217771
  H      1.325875    1.253611    0.979942
  H      2.727352    1.848064    0.543088
  O      0.160451    1.016273    2.027547
  H     -0.644112    1.259577    1.516331
  H      0.064707    0.047374    2.158365
  O     -0.109598   -1.694088    1.717073
  H      0.633250   -1.668712    1.027379
  H      0.061199   -2.467328    2.270145
  O     -1.842613    1.356523    0.195221
  H     -2.012367    0.370086    0.028730
  H     -2.709681    1.773483    0.281917
  O      1.740195   -1.422890   -0.101059
  H      2.054318   -0.497307    0.004170
  H      1.217905   -1.392734   -0.934671
  O      0.094399    1.593497   -1.745095
  H      0.871049    1.676400   -1.146996
  H     -0.670889    1.715381   -1.140076
  O     -0.060239   -0.951947   -2.126605
  H      0.018632    0.058098   -2.057860
  H     -0.041910   -1.163252   -3.069076
  O     -2.018331   -1.207117   -0.202890
  H     -1.432459   -1.289710   -0.988344
  H     -1.466289   -1.537273    0.540437

 Total Charge           Charge          ....    0
 Multiplicity           Mult            ....    1
 Number of Electrons    NEL             ....   80
 Basis Dimension        Dim             ....  344

ORBITAL ENERGIES
----------------

  NO   OCC          E(Eh)            E(eV)
   0   2.0000     -19.244956      -523.6819
   1   2.0000     -19.244306      -523.6642
   2   2.0000     -19.242644      -523.6190
   3   2.0000     -19.241565      -523.5896
   4   2.0000     -19.225671      -523.1571
   5   2.0000     -19.224977      -523.1382
   6   2.0000     -19.224443      -523.1237
   7   2.0000     -19.224040      -523.1127
   8   2.0000      -1.151036       -31.3213
   9   2.0000      -1.138001       -30.9666
  10   2.0000      -1.135750       -30.9053
  11   2.0000      -1.134840       -30.8806
  12   2.0000      -1.114307       -30.3218
  13   2.0000      -1.113200       -30.2917
  14   2.0000      -1.111346       -30.2413
  15   2.0000      -1.099418       -29.9167
  16   2.0000      -0.653892       -17.7933
  17   2.0000      -0.652127       -17.7453
  18   2.0000      -0.649144       -17.6641
  19   2.0000      -0.647408       -17.6169
  20   2.0000      -0.628277       -17.0963
  21   2.0000      -0.626741       -17.0545
  22   2.0000      -0.623329       -16.9617
  23   2.0000      -0.617960       -16.8156
  24   2.0000      -0.563494       -15.3335
  25   2.0000      -0.524703       -14.2779
  26   2.0000      -0.523953       -14.2575
  27   2.0000      -0.519958       -14.1488
  28   2.0000      -0.492182       -13.3930
  29   2.0000      -0.491583       -13.3767
  30   2.0000      -0.489767       -13.3272
  31   2.0000      -0.454233       -12.3603
  32   2.0000      -0.429642       -11.6912
  33   2.0000      -0.428962       -11.6727
  34   2.0000      -0.427579       -11.6350
  35   2.0000      -0.426130       -11.5956
  36   2.0000      -0.415474       -11.3056
  37   2.0000      -0.411277       -11.1914
  38   2.0000      -0.410514       -11.1707
  39   2.0000      -0.410034       -11.1576
  40   0.0000       0.087523         2.3816
  41   0.0000       0.123648         3.3646
  42   0.0000       0.123955         3.3730
  43   0.0000       0.125037         3.4024
  44   0.0000       0.199692         5.4339

MULLIKEN ATOMIC CHARGES
-----------------------
   0 O :   -0.753707
   1 H :    0.370963
   2 H :    0.350079
   3 O :   -0.697997
   4 H :    0.364292
   5 H :    0.364814
   6 O :   -0.751043
   7 H :    0.368938
   8 H :    0.351100
   9 O :   -0.754233
  10 H :    0.369198
  11 H :    0.352197
  12 O :   -0.698572
  13 H :    0.361006
  14 H :    0.365326
  15 O :   -0.688959
  16 H :    0.368536
  17 H :    0.361174
  18 O :   -0.757913
  19 H :    0.367749
  20 H :    0.351589
  21 O :   -0.693152
  22 H :    0.363270
  23 H :    0.365345
Sum of atomic charges:    0.0000000

LOEWDIN ATOMIC CHARGES
----------------------
   0 O :   -0.308294
   1 H :    0.137591
   2 H :    0.159146
   3 O :   -0.275984
   4 H :    0.140723
   5 H :    0.142245
   6 O :   -0.305016
   7 H :    0.139006
   8 H :    0.159768
   9 O :   -0.302496
  10 H :    0.139409
  11 H :    0.159618
  12 O :   -0.279427
  13 H :    0.142553
  14 H :    0.142139
  15 O :   -0.270530
  16 H :    0.143769
  17 H :    0.142117
  18 O :   -0.307691
  19 H :    0.134697
  20 H :    0.159012
  21 O :   -0.275885
  22 H :    0.142176
  23 H :    0.141355

  Mayer bond orders larger than 0.1
B(  0-O ,  1-H ) :   0.7340 B(  0-O ,  2-H ) :   0.8827 B(  1-H ,  3-O ) :   0.1766
B(  3-O ,  4-H ) :   0.8245 B(  3-O ,  5-H ) :   0.8256 B(  6-O ,  7-H ) :   0.7371
B(  6-O ,  8-H ) :   0.8820 B(  7-H , 12-O ) :   0.1738 B(  9-O , 10-H ) :   0.7322
B(  9-O , 11-H ) :   0.8811 B( 10-H , 21-O ) :   0.1829 B( 12-O , 13-H ) :   0.8271
B( 12-O , 14-H ) :   0.8244 B( 15-O , 16-H ) :   0.8253 B( 15-O , 17-H ) :   0.8297
B( 15-O , 19-H ) :   0.1897 B( 18-O , 19-H ) :   0.7273 B( 18-O , 20-H ) :   0.8818
B( 21-O , 22-H ) :   0.8289 B( 21-O , 23-H ) :   0.8259

Dispersion correction           -0.012261650
FINAL SINGLE POINT ENERGY      -611.646141128082

DIPOLE MOMENT
-------------
                                X             Y             Z
Electronic contribution:     -0.02937       0.01830      -0.00168
Nuclear contribution   :      0.06663      -0.01176       0.04125
                        -----------------------------------------
Total Dipole Moment    :      0.03726       0.00654       0.03957
                        -----------------------------------------
Magnitude (a.u.)       :      0.05474
Magnitude (Debye)      :      0.13914

                             ****ORCA TERMINATED NORMALLY****
TOTAL RUN TIME: 0 days 0 hours 1 minutes 5 seconds 842 msec
