                         Program Version 3.0.3 - RELEASE   -
|  1> ! wB97X-D3 MA-Def2-TZVP def2-TZVP/J RIJCOSX TightSCF Grid4
|  2>
|  3> %pal nprocs 1 end
|  4>
|  5> %scf
|  6>         maxiter 400
|  7> end
|  8>
|  9> * xyz  0  1
| 10> O  1.902866	1.200084	0.240898
| 11> H  1.215448	1.201519	1.035136
| 12> H  2.647137	1.759696	0.528025
| 13> O  0.121947	1.061345	2.057339
| 14> H  -0.682350	1.295585	1.510075
| 15> H  0.049043	0.066190	2.123530
| 16> O  -0.057746	-1.596518	1.612843
| 17> H  0.723346	-1.623343	0.909848
| 18> H  0.089266	-2.357404	2.203606
| 19> O  -1.809803	1.360646	0.196401
| 20> H  -1.979957	0.337894	0.025143
| 21> H  -2.690587	1.768576	0.282165
| 22> O  1.789056	-1.476976	-0.138103
| 23> H  2.058491	-0.523230	-0.004776
| 24> H  1.226706	-1.420114	-0.963946
| 25> O  0.087734	1.561498	-1.725621
| 26> H  0.859467	1.600898	-1.089888
| 27> H  -0.694439	1.679118	-1.115058
| 28> O  -0.045857	-0.962390	-2.050021
| 29> H  0.027418	0.085242	-2.001484
| 30> H  -0.041045	-1.190209	-2.997509
| 31> O  -2.010350	-1.148158	-0.196385
| 32> H  -1.411673	-1.229626	-0.992641
| 33> H  -1.419271	-1.464618	0.545869
| 34> **                         ****END OF INPUT****

CARTESIAN COORDINATES (ANGSTROEM)
---------------------------------
  O      1.902866    1.200084    0.240898
  H      1.215448    1.201519    1.035136
  H      2.647137    1.759696    0.528025
  O      0.121947    1.061345    2.057339
  H     -0.682350    1.295585    1.510075
  H      0.049043    0.066190    2.123530
  O     -0.057746   -1.596518    1.612843
  H      0.723346   -1.623343    0.909848
  H      0.089266   -2.357404    2.203606
  O     -1.809803    1.360646    0.196401
  H     -1.979957    0.337894    0.025143
  H     -2.690587    1.768576    0.282165
  O      1.789056   -1.476976   -0.138103
  H      2.058491   -0.523230   -0.004776
  H      1.226706   -1.420114   -0.963946
  O      0.087734    1.561498   -1.725621
  H      0.859467    1.600898   -1.089888
  H     -0.694439    1.679118   -1.115058
  O     -0.045857   -0.962390   -2.050021
  H      0.027418    0.085242   -2.001484
  H     -0.041045   -1.190209   -2.997509
  O     -2.010350   -1.148158   -0.196385
  H     -1.411673   -1.229626   -0.992641
  H     -1.419271   -1.464618    0.545869

 Total Charge           Charge          ....    0
 Multiplicity           Mult            ....    1
 Number of Electrons    NEL             ....   80
 Basis Dimension        Dim             ....  376

ORBITAL ENERGIES
----------------

  NO   OCC          E(Eh)            E(eV)
   0   2.0000     -19.246896      -523.7347
   1   2.0000     -19.246741      -523.7304
   2   2.0000     -19.246622      -523.7272
   3   2.0000     -19.246530      -523.7247
   4   2.0000     -19.231375      -523.3123
   5   2.0000     -19.231010      -523.3024
   6   2.0000     -19.230874      -523.2987
   7   2.0000     -19.230258      -523.2819
   8   2.0000      -1.153235       -31.3811
   9   2.0000      -1.136891       -30.9364
  10   2.0000      -1.133805       -30.8524
  11   2.0000      -1.133594       -30.8467
  12   2.0000      -1.112497       -30.2726
  13   2.0000      -1.112105       -30.2619
  14   2.0000      -1.109069       -30.1793
  15   2.0000      -1.093699       -29.7611
  16   2.0000      -0.650383       -17.6978
  17   2.0000      -0.646812       -17.6006
  18   2.0000      -0.646297       -17.5866
  19   2.0000      -0.646124       -17.5819
  20   2.0000      -0.628057       -17.0903
  21   2.0000      -0.627419       -17.0729
  22   2.0000      -0.620101       -16.8738
  23   2.0000      -0.619768       -16.8647
  24   2.0000      -0.574734       -15.6393
  25   2.0000      -0.529085       -14.3971
  26   2.0000      -0.528245       -14.3743
  27   2.0000      -0.528141       -14.3714
  28   2.0000      -0.495921       -13.4947
  29   2.0000      -0.495662       -13.4876
  30   2.0000      -0.495370       -13.4797
  31   2.0000      -0.454542       -12.3687
  32   2.0000      -0.429124       -11.6771
  33   2.0000      -0.428923       -11.6716
  34   2.0000      -0.427794       -11.6409
  35   2.0000      -0.425927       -11.5901
  36   2.0000      -0.414488       -11.2788
  37   2.0000      -0.413801       -11.2601
  38   2.0000      -0.413566       -11.2537
  39   2.0000      -0.410392       -11.1673
  40   0.0000       0.056689         1.5426
  41   0.0000       0.080063         2.1786
  42   0.0000       0.081858         2.2275
  43   0.0000       0.081966         2.2304
  44   0.0000       0.121960         3.3187

MULLIKEN ATOMIC CHARGES
-----------------------
   0 O :   -0.872402
   1 H :    0.411268
   2 H :    0.359346
   3 O :   -0.722483
   4 H :    0.410429
   5 H :    0.413888
   6 O :   -0.874149
   7 H :    0.409805
   8 H :    0.360032
   9 O :   -0.871312
  10 H :    0.410505
  11 H :    0.359474
  12 O :   -0.718407
  13 H :    0.411787
  14 H :    0.410186
  15 O :   -0.722557
  16 H :    0.411169
  17 H :    0.414061
  18 O :   -0.877278
  19 H :    0.413147
  20 H :    0.359977
  21 O :   -0.723289
  22 H :    0.413487
  23 H :    0.413314
Sum of atomic charges:   -0.0000000

LOEWDIN ATOMIC CHARGES
----------------------
   0 O :   -0.423668
   1 H :    0.192027
   2 H :    0.194057
   3 O :   -0.362137
   4 H :    0.198678
   5 H :    0.199470
   6 O :   -0.423803
   7 H :    0.191927
   8 H :    0.194259
   9 O :   -0.423713
  10 H :    0.192130
  11 H :    0.194079
  12 O :   -0.361278
  13 H :    0.199714
  14 H :    0.198896
  15 O :   -0.360630
  16 H :    0.199663
  17 H :    0.199940
  18 O :   -0.424109
  19 H :    0.192676
  20 H :    0.194190
  21 O :   -0.360851
  22 H :    0.199555
  23 H :    0.198929

  Mayer bond orders larger than 0.1
B(  0-O ,  1-H ) :   0.7027 B(  0-O ,  2-H ) :   0.8719 B(  1-H ,  3-O ) :   0.1829
B(  3-O ,  4-H ) :   0.8307 B(  3-O ,  5-H ) :   0.8322 B(  6-O ,  7-H ) :   0.7013
B(  6-O ,  8-H ) :   0.8713 B(  7-H , 12-O ) :   0.1858 B(  9-O , 10-H ) :   0.7027
B(  9-O , 11-H ) :   0.8718 B( 10-H , 21-O ) :   0.1829 B( 12-O , 13-H ) :   0.8333
B( 12-O , 14-H ) :   0.8304 B( 15-O , 16-H ) :   0.8301 B( 15-O , 17-H ) :   0.8330
B( 15-O , 19-H ) :   0.1813 B( 18-O , 19-H ) :   0.7024 B( 18-O , 20-H ) :   0.8712
B( 21-O , 22-H ) :   0.8339 B( 21-O , 23-H ) :   0.8303

Dispersion correction           -0.012655671
FINAL SINGLE POINT ENERGY      -611.638437698683

DIPOLE MOMENT
-------------
                                X             Y             Z
Electronic contribution:     -0.00428       0.00278      -0.00508
Nuclear contribution   :      0.01773      -0.01073       0.00282
                        -----------------------------------------
Total Dipole Moment    :      0.01346      -0.00795      -0.00226
                        -----------------------------------------
Magnitude (a.u.)       :      0.01580
Magnitude (Debye)      :      0.04015

                             ****ORCA TERMINATED NORMALLY****
TOTAL RUN TIME: 0 days 0 hours 5 minutes 54 seconds 529 msec
