                         Program Version 3.0.3 - RELEASE   -
|  1> ! wB97X-D3 Def2-TZVP def2-TZVP/J RIJCOSX TightSCF Grid4 COSMO
|  2>
|  3> %pal nprocs 12 end
|  4>
|  5> %scf
|  6>         maxiter 400
|  7> end
|  8>
|  9> %cosmo
| 10>         SMD true
| 11>         solvent "WATER"
| 12> end
| 13>
| 14> * xyz  0  1
| 15> O  1.970982	1.286056	0.173865
| 16> H  1.333981	1.249410	0.948630
| 17> H  2.733250	1.796443	0.487088
| 18> O  0.130954	1.001208	2.046694
| 19> H  -0.639298	1.221625	1.470121
| 20> H  0.064447	0.022949	2.141845
| 21> O  -0.121162	-1.685626	1.732854
| 22> H  0.627683	-1.695710	1.065339
| 23> H  0.020209	-2.457834	2.301169
| 24> O  -1.805280	1.327487	0.156449
| 25> H  -2.023364	0.361576	0.013990
| 26> H  -2.652839	1.773107	0.305919
| 27> O  1.776930	-1.435583	-0.111400
| 28> H  2.044087	-0.496387	0.025353
| 29> H  1.191856	-1.373151	-0.904213
| 30> O  0.091525	1.738861	-1.774690
| 31> H  0.857473	1.730474	-1.152854
| 32> H  -0.679263	1.759909	-1.160083
| 33> O  -0.065444	-0.894352	-2.061865
| 34> H  0.016065	0.104048	-2.065780
| 35> H  -0.015438	-1.167871	-2.990423
| 36> O  -2.033623	-1.314236	-0.209789
| 37> H  -1.420828	-1.293342	-0.982121
| 38> H  -1.448055	-1.573361	0.539345
| 39> **                         ****END OF INPUT****

CARTESIAN COORDINATES (ANGSTROEM)
---------------------------------
  O      1.970982    1.286056    0.173865
  H      1.333981    1.249410    0.948630
  H      2.733250    1.796443    0.487088
  O      0.130954    1.001208    2.046694
  H     -0.639298    1.221625    1.470121
  H      0.064447    0.022949    2.141845
  O     -0.121162   -1.685626    1.732854
  H      0.627683   -1.695710    1.065339
  H      0.020209   -2.457834    2.301169
  O     -1.805280    1.327487    0.156449
  H     -2.023364    0.361576    0.013990
  H     -2.652839    1.773107    0.305919
  O      1.776930   -1.435583   -0.111400
  H      2.044087   -0.496387    0.025353
  H      1.191856   -1.373151   -0.904213
  O      0.091525    1.738861   -1.774690
  H      0.857473    1.730474   -1.152854
  H     -0.679263    1.759909   -1.160083
  O     -0.065444   -0.894352   -2.061865
  H      0.016065    0.104048   -2.065780
  H     -0.015438   -1.167871   -2.990423
  O     -2.033623   -1.314236   -0.209789
  H     -1.420828   -1.293342   -0.982121
  H     -1.448055   -1.573361    0.539345

 Total Charge           Charge          ....    0
 Multiplicity           Mult            ....    1
 Number of Electrons    NEL             ....   80
 Basis Dimension        Dim             ....  344

ORBITAL ENERGIES
----------------

  NO   OCC          E(Eh)            E(eV)
   0   2.0000     -19.239251      -523.5266
   1   2.0000     -19.237651      -523.4831
   2   2.0000     -19.237582      -523.4812
   3   2.0000     -19.236079      -523.4403
   4   2.0000     -19.227043      -523.1944
   5   2.0000     -19.226183      -523.1710
   6   2.0000     -19.225887      -523.1630
   7   2.0000     -19.225224      -523.1450
   8   2.0000      -1.146965       -31.2105
   9   2.0000      -1.132516       -30.8173
  10   2.0000      -1.130867       -30.7725
  11   2.0000      -1.129689       -30.7404
  12   2.0000      -1.113383       -30.2967
  13   2.0000      -1.112517       -30.2731
  14   2.0000      -1.110799       -30.2264
  15   2.0000      -1.097412       -29.8621
  16   2.0000      -0.644426       -17.5357
  17   2.0000      -0.642070       -17.4716
  18   2.0000      -0.639723       -17.4077
  19   2.0000      -0.635702       -17.2983
  20   2.0000      -0.626794       -17.0559
  21   2.0000      -0.624438       -16.9918
  22   2.0000      -0.623468       -16.9654
  23   2.0000      -0.615061       -16.7367
  24   2.0000      -0.559695       -15.2301
  25   2.0000      -0.527431       -14.3521
  26   2.0000      -0.522775       -14.2254
  27   2.0000      -0.518927       -14.1207
  28   2.0000      -0.493273       -13.4226
  29   2.0000      -0.491554       -13.3759
  30   2.0000      -0.489660       -13.3243
  31   2.0000      -0.459296       -12.4981
  32   2.0000      -0.425276       -11.5723
  33   2.0000      -0.424580       -11.5534
  34   2.0000      -0.424272       -11.5450
  35   2.0000      -0.422712       -11.5026
  36   2.0000      -0.416309       -11.3283
  37   2.0000      -0.416130       -11.3235
  38   2.0000      -0.415484       -11.3059
  39   2.0000      -0.414045       -11.2667
  40   0.0000       0.100292         2.7291
  41   0.0000       0.147721         4.0197
  42   0.0000       0.148511         4.0412
  43   0.0000       0.149623         4.0715
  44   0.0000       0.213657         5.8139

MULLIKEN ATOMIC CHARGES
-----------------------
   0 O :   -0.776327
   1 H :    0.377911
   2 H :    0.403209
   3 O :   -0.762620
   4 H :    0.375872
   5 H :    0.377802
   6 O :   -0.774735
   7 H :    0.377798
   8 H :    0.404493
   9 O :   -0.770631
  10 H :    0.373905
  11 H :    0.406732
  12 O :   -0.761056
  13 H :    0.372250
  14 H :    0.377882
  15 O :   -0.755434
  16 H :    0.379360
  17 H :    0.377717
  18 O :   -0.775719
  19 H :    0.372630
  20 H :    0.406041
  21 O :   -0.761537
  22 H :    0.377893
  23 H :    0.376565
Sum of atomic charges:   -0.0000000

LOEWDIN ATOMIC CHARGES
----------------------
   0 O :   -0.296436
   1 H :    0.142142
   2 H :    0.184606
   3 O :   -0.320396
   4 H :    0.140693
   5 H :    0.141467
   6 O :   -0.293903
   7 H :    0.144326
   8 H :    0.185392
   9 O :   -0.283605
  10 H :    0.146333
  11 H :    0.186666
  12 O :   -0.323862
  13 H :    0.142684
  14 H :    0.142654
  15 O :   -0.322973
  16 H :    0.144059
  17 H :    0.143550
  18 O :   -0.288160
  19 H :    0.143085
  20 H :    0.185808
  21 O :   -0.327865
  22 H :    0.142058
  23 H :    0.141675

  Mayer bond orders larger than 0.1
B(  0-O ,  1-H ) :   0.7580 B(  0-O ,  2-H ) :   0.8422 B(  0-O , 13-H ) :   0.1031
B(  1-H ,  3-O ) :   0.1432 B(  3-O ,  4-H ) :   0.8047 B(  3-O ,  5-H ) :   0.8044
B(  4-H ,  9-O ) :   0.1030 B(  5-H ,  6-O ) :   0.1007 B(  6-O ,  7-H ) :   0.7613
B(  6-O ,  8-H ) :   0.8409 B(  7-H , 12-O ) :   0.1387 B(  9-O , 10-H ) :   0.7653
B(  9-O , 11-H ) :   0.8397 B( 10-H , 21-O ) :   0.1405 B( 12-O , 13-H ) :   0.8077
B( 12-O , 14-H ) :   0.8068 B( 15-O , 16-H ) :   0.8097 B( 15-O , 17-H ) :   0.8114
B( 15-O , 19-H ) :   0.1510 B( 18-O , 19-H ) :   0.7583 B( 18-O , 20-H ) :   0.8403
B( 21-O , 22-H ) :   0.8097 B( 21-O , 23-H ) :   0.8089

Dispersion correction           -0.012227755
FINAL SINGLE POINT ENERGY      -611.685267005815

DIPOLE MOMENT
-------------
                                X             Y             Z
Electronic contribution:     -0.02530       0.01813      -0.00828
Nuclear contribution   :      0.10005      -0.07137       0.11577
                        -----------------------------------------
Total Dipole Moment    :      0.07475      -0.05324       0.10749
                        -----------------------------------------
Magnitude (a.u.)       :      0.14134
Magnitude (Debye)      :      0.35926

                             ****ORCA TERMINATED NORMALLY****
TOTAL RUN TIME: 0 days 0 hours 1 minutes 10 seconds 17 msec
