                         Program Version 4.2.0 -  RELEASE  -
|  1> # 12meoh.boyd.etal.mol5,11
|  2> ! MP2 def2-TZVP EnGrad TightSCF
|  3>
|  4> %pal
|  5>     nprocs 6
|  6> end
|  7>
|  8> %maxcore 8000
|  9>
| 10> %scf
| 11>     ConvForced true
| 12> end
| 13>
| 14> *xyz 0 1
| 15> O  -0.662721750   1.449094618  -1.383082065
| 16> H   0.064188300   2.119867608  -1.465650660
| 17> C  -0.353319239   0.341218776  -2.229326771
| 18> H  -1.072358530  -0.454743281  -2.019906495
| 19> H   0.657636746  -0.044472139  -2.042736771
| 20> H  -0.434616607   0.624733901  -3.287793021
| 21> O   3.252955559   0.588596242   1.858934315
| 22> H   3.621209177  -0.251605199   1.476063364
| 23> C   4.040824528   0.944288422   2.989639460
| 24> H   3.670521436   1.902573549   3.363847391
| 25> H   5.103749934   1.055868619   2.734277559
| 26> H   3.948540682   0.200279590   3.792908518
| 27> *
| 28>
| 29>                          ****END OF INPUT****

CARTESIAN COORDINATES (ANGSTROEM)
---------------------------------
  O     -0.662722    1.449095   -1.383082
  H      0.064188    2.119868   -1.465651
  C     -0.353319    0.341219   -2.229327
  H     -1.072359   -0.454743   -2.019906
  H      0.657637   -0.044472   -2.042737
  H     -0.434617    0.624734   -3.287793
  O      3.252956    0.588596    1.858934
  H      3.621209   -0.251605    1.476063
  C      4.040825    0.944288    2.989639
  H      3.670521    1.902574    3.363847
  H      5.103750    1.055869    2.734278
  H      3.948541    0.200280    3.792909

 Total Charge           Charge          ....    0
 Multiplicity           Mult            ....    1
 Number of Electrons    NEL             ....   36
 Basis Dimension        Dim             ....  172

ORBITAL ENERGIES
----------------

  NO   OCC          E(Eh)            E(eV)
   0   2.0000     -20.558399      -559.4225
   1   2.0000     -20.550157      -559.1982
   2   2.0000     -11.272360      -306.7365
   3   2.0000     -11.267067      -306.5925
   4   2.0000      -1.347650       -36.6714
   5   2.0000      -1.338487       -36.4221
   6   2.0000      -0.920490       -25.0478
   7   2.0000      -0.914858       -24.8946
   8   2.0000      -0.682551       -18.5732
   9   2.0000      -0.674555       -18.3556
  10   2.0000      -0.617823       -16.8118
  11   2.0000      -0.611174       -16.6309
  12   2.0000      -0.591775       -16.1030
  13   2.0000      -0.584716       -15.9109
  14   2.0000      -0.500950       -13.6315
  15   2.0000      -0.494680       -13.4609
  16   2.0000      -0.450101       -12.2479
  17   2.0000      -0.443242       -12.0612
  18   0.0000       0.127419         3.4673
  19   0.0000       0.145238         3.9521
  20   0.0000       0.174344         4.7441
  21   0.0000       0.181238         4.9317
  22   0.0000       0.228229         6.2104

MULLIKEN ATOMIC CHARGES
-----------------------
   0 O :   -0.497325
   1 H :    0.323147
   2 C :   -0.171348
   3 H :    0.128112
   4 H :    0.109619
   5 H :    0.107651
   6 O :   -0.496844
   7 H :    0.320784
   8 C :   -0.172810
   9 H :    0.130165
  10 H :    0.108691
  11 H :    0.110158
Sum of atomic charges:   -0.0000000

LOEWDIN ATOMIC CHARGES
----------------------
   0 O :   -0.111707
   1 H :    0.189683
   2 C :   -0.377684
   3 H :    0.109373
   4 H :    0.095525
   5 H :    0.094729
   6 O :   -0.109229
   7 H :    0.189565
   8 C :   -0.381600
   9 H :    0.110596
  10 H :    0.095083
  11 H :    0.095666

  Mayer bond orders larger than 0.100000
B(  0-O ,  1-H ) :   0.8417 B(  0-O ,  2-C ) :   0.9284 B(  2-C ,  3-H ) :   0.9378
B(  2-C ,  4-H ) :   0.9399 B(  2-C ,  5-H ) :   0.9388 B(  6-O ,  7-H ) :   0.8426
B(  6-O ,  8-C ) :   0.9257 B(  8-C ,  9-H ) :   0.9375 B(  8-C , 10-H ) :   0.9387
B(  8-C , 11-H ) :   0.9390

MP2 TOTAL ENERGY:     -231.013224975 Eh
FINAL SINGLE POINT ENERGY      -231.013224975049

DIPOLE MOMENT
-------------
                                X             Y             Z
Electronic contribution:     -1.57984       0.98926      -0.27617
Nuclear contribution   :      2.71089      -1.39527       0.12908
                        -----------------------------------------
Total Dipole Moment    :      1.13105      -0.40601      -0.14709
                        -----------------------------------------
Magnitude (a.u.)       :      1.21069
Magnitude (Debye)      :      3.07732

Rotational constants in cm-1:     0.642739     0.028922     0.028037
Rotational constants in MHz : 19268.834257   867.070175   840.514930

                             ****ORCA TERMINATED NORMALLY****
TOTAL RUN TIME: 0 days 0 hours 0 minutes 30 seconds 470 msec
