                         Program Version 4.2.0 -  RELEASE  -
|  1> # 12mecn.remya.etal.2.mol0,10
|  2> ! MP2 def2-TZVP EnGrad TightSCF
|  3>
|  4> %pal
|  5>     nprocs 6
|  6> end
|  7>
|  8> %maxcore 8000
|  9>
| 10> %scf
| 11>     ConvForced true
| 12> end
| 13>
| 14> *xyz 0 1
| 15> C  -0.869520000  -3.929380000   1.700199000
| 16> H  -0.057420000  -3.268850000   2.015352000
| 17> H  -0.697530000  -4.930670000   2.101524000
| 18> H  -1.821490000  -3.546590000   2.077146000
| 19> C  -0.916080000  -3.969960000   0.256749000
| 20> N  -0.955390000  -3.995980000  -0.909290000
| 21> C   4.602033000   0.321019000  -1.784800000
| 22> H   4.827650000  -0.662160000  -2.207910000
| 23> H   5.320558000   1.057980000  -2.148500000
| 24> H   3.601982000   0.643751000  -2.087520000
| 25> C   4.654967000   0.244048000  -0.343060000
| 26> N   4.691648000   0.166590000   0.820757000
| 27> *
| 28>
| 29>                          ****END OF INPUT****

CARTESIAN COORDINATES (ANGSTROEM)
---------------------------------
  C     -0.869520   -3.929380    1.700199
  H     -0.057420   -3.268850    2.015352
  H     -0.697530   -4.930670    2.101524
  H     -1.821490   -3.546590    2.077146
  C     -0.916080   -3.969960    0.256749
  N     -0.955390   -3.995980   -0.909290
  C      4.602033    0.321019   -1.784800
  H      4.827650   -0.662160   -2.207910
  H      5.320558    1.057980   -2.148500
  H      3.601982    0.643751   -2.087520
  C      4.654967    0.244048   -0.343060
  N      4.691648    0.166590    0.820757

 Total Charge           Charge          ....    0
 Multiplicity           Mult            ....    1
 Number of Electrons    NEL             ....   44
 Basis Dimension        Dim             ....  222

ORBITAL ENERGIES
----------------

  NO   OCC          E(Eh)            E(eV)
   0   2.0000     -15.573320      -423.7716
   1   2.0000     -15.572672      -423.7540
   2   2.0000     -11.283933      -307.0514
   3   2.0000     -11.283203      -307.0316
   4   2.0000     -11.280667      -306.9625
   5   2.0000     -11.280002      -306.9445
   6   2.0000      -1.214801       -33.0564
   7   2.0000      -1.214120       -33.0379
   8   2.0000      -1.043557       -28.3966
   9   2.0000      -1.042908       -28.3790
  10   2.0000      -0.699446       -19.0329
  11   2.0000      -0.698871       -19.0172
  12   2.0000      -0.633444       -17.2369
  13   2.0000      -0.630965       -17.1694
  14   2.0000      -0.630234       -17.1495
  15   2.0000      -0.629075       -17.1180
  16   2.0000      -0.556441       -15.1415
  17   2.0000      -0.555768       -15.1232
  18   2.0000      -0.458116       -12.4660
  19   2.0000      -0.457565       -12.4510
  20   2.0000      -0.457227       -12.4418
  21   2.0000      -0.457123       -12.4389
  22   0.0000       0.118848         3.2340
  23   0.0000       0.122591         3.3359
  24   0.0000       0.171693         4.6720
  25   0.0000       0.172310         4.6888
  26   0.0000       0.172709         4.6996

MULLIKEN ATOMIC CHARGES
-----------------------
   0 C :   -0.279392
   1 H :    0.177181
   2 H :    0.171855
   3 H :    0.171381
   4 C :   -0.145513
   5 N :   -0.095519
   6 C :   -0.277495
   7 H :    0.173852
   8 H :    0.171400
   9 H :    0.173744
  10 C :   -0.145691
  11 N :   -0.095804
Sum of atomic charges:    0.0000000

LOEWDIN ATOMIC CHARGES
----------------------
   0 C :   -0.282984
   1 H :    0.154390
   2 H :    0.151753
   3 H :    0.152872
   4 C :   -0.219215
   5 N :    0.043182
   6 C :   -0.282795
   7 H :    0.153717
   8 H :    0.151407
   9 H :    0.153873
  10 C :   -0.219238
  11 N :    0.043039

  Mayer bond orders larger than 0.100000
B(  0-C ,  1-H ) :   0.9152 B(  0-C ,  2-H ) :   0.9164 B(  0-C ,  3-H ) :   0.9163
B(  0-C ,  4-C ) :   0.9014 B(  4-C ,  5-N ) :   2.8392 B(  6-C ,  7-H ) :   0.9152
B(  6-C ,  8-H ) :   0.9170 B(  6-C ,  9-H ) :   0.9159 B(  6-C , 10-C ) :   0.9018
B( 10-C , 11-N ) :   2.8393

MP2 TOTAL ENERGY:     -264.967183573 Eh
FINAL SINGLE POINT ENERGY      -264.967183572684

DIPOLE MOMENT
-------------
                                X             Y             Z
Electronic contribution:      0.02866      -0.27454      -0.00668
Nuclear contribution   :     -0.02951       0.41145       0.00856
                        -----------------------------------------
Total Dipole Moment    :     -0.00085       0.13690       0.00188
                        -----------------------------------------
Magnitude (a.u.)       :      0.13692
Magnitude (Debye)      :      0.34802

Rotational constants in cm-1:     0.156456     0.016473     0.014993
Rotational constants in MHz :  4690.427504   493.840754   449.464224

                             ****ORCA TERMINATED NORMALLY****
TOTAL RUN TIME: 0 days 0 hours 0 minutes 38 seconds 846 msec
