                         Program Version 4.2.0 -  RELEASE  -
|  1> # 12h2o.su.etal.mol3,4,6,8,9,10,11
|  2> ! MP2 def2-TZVP EnGrad TightSCF
|  3>
|  4> %pal
|  5>     nprocs 6
|  6> end
|  7>
|  8> %maxcore 8000
|  9>
| 10> %scf
| 11>     ConvForced true
| 12> end
| 13>
| 14> *xyz 0 1
| 15> O  -1.752130000  -0.741530000  -2.896280000
| 16> H  -2.036450000  -0.920500000  -1.984040000
| 17> H  -0.921210000  -1.242140000  -2.984230000
| 18> O  -0.885520000   1.737840000   0.052730000
| 19> H  -1.032320000   2.090180000  -0.841890000
| 20> H  -1.284090000   0.839590000   0.017130000
| 21> O   1.737840000   0.885520000  -0.052730000
| 22> H   2.090180000   1.032320000   0.841890000
| 23> H   0.839590000   1.284090000  -0.017130000
| 24> O   1.752130000   0.741530000  -2.896280000
| 25> H   2.036450000   0.920500000  -1.984040000
| 26> H   0.921210000   1.242140000  -2.984230000
| 27> O   0.741530000  -1.752130000   2.896280000
| 28> H   0.920500000  -2.036450000   1.984040000
| 29> H   1.242140000  -0.921210000   2.984230000
| 30> O  -0.923410000   1.794470000  -2.768350000
| 31> H  -1.359750000   2.338250000  -3.430940000
| 32> H  -1.303000000   0.879480000  -2.865760000
| 33> O  -0.741530000   1.752130000   2.896280000
| 34> H  -0.920500000   2.036450000   1.984040000
| 35> H  -1.242140000   0.921210000   2.984230000
| 36> *
| 37>
| 38>                          ****END OF INPUT****

CARTESIAN COORDINATES (ANGSTROEM)
---------------------------------
  O     -1.752130   -0.741530   -2.896280
  H     -2.036450   -0.920500   -1.984040
  H     -0.921210   -1.242140   -2.984230
  O     -0.885520    1.737840    0.052730
  H     -1.032320    2.090180   -0.841890
  H     -1.284090    0.839590    0.017130
  O      1.737840    0.885520   -0.052730
  H      2.090180    1.032320    0.841890
  H      0.839590    1.284090   -0.017130
  O      1.752130    0.741530   -2.896280
  H      2.036450    0.920500   -1.984040
  H      0.921210    1.242140   -2.984230
  O      0.741530   -1.752130    2.896280
  H      0.920500   -2.036450    1.984040
  H      1.242140   -0.921210    2.984230
  O     -0.923410    1.794470   -2.768350
  H     -1.359750    2.338250   -3.430940
  H     -1.303000    0.879480   -2.865760
  O     -0.741530    1.752130    2.896280
  H     -0.920500    2.036450    1.984040
  H     -1.242140    0.921210    2.984230

 Total Charge           Charge          ....    0
 Multiplicity           Mult            ....    1
 Number of Electrons    NEL             ....   70
 Basis Dimension        Dim             ....  301

ORBITAL ENERGIES
----------------

  NO   OCC          E(Eh)            E(eV)
   0   2.0000     -20.627006      -561.2894
   1   2.0000     -20.607086      -560.7473
   2   2.0000     -20.587583      -560.2166
   3   2.0000     -20.567200      -559.6620
   4   2.0000     -20.556608      -559.3737
   5   2.0000     -20.548280      -559.1471
   6   2.0000     -20.511708      -558.1519
   7   2.0000      -1.413425       -38.4612
   8   2.0000      -1.395065       -37.9617
   9   2.0000      -1.371208       -37.3125
  10   2.0000      -1.346285       -36.6343
  11   2.0000      -1.339883       -36.4601
  12   2.0000      -1.330106       -36.1940
  13   2.0000      -1.296676       -35.2843
  14   2.0000      -0.769037       -20.9266
  15   2.0000      -0.758333       -20.6353
  16   2.0000      -0.753198       -20.4956
  17   2.0000      -0.714628       -19.4460
  18   2.0000      -0.709019       -19.2934
  19   2.0000      -0.700391       -19.0586
  20   2.0000      -0.676821       -18.4172
  21   2.0000      -0.657932       -17.9033
  22   2.0000      -0.635733       -17.2992
  23   2.0000      -0.610267       -16.6062
  24   2.0000      -0.596729       -16.2378
  25   2.0000      -0.584149       -15.8955
  26   2.0000      -0.568029       -15.4568
  27   2.0000      -0.562365       -15.3027
  28   2.0000      -0.544859       -14.8264
  29   2.0000      -0.538286       -14.6475
  30   2.0000      -0.521976       -14.2037
  31   2.0000      -0.512174       -13.9370
  32   2.0000      -0.503662       -13.7053
  33   2.0000      -0.493992       -13.4422
  34   2.0000      -0.461600       -12.5608
  35   0.0000       0.062515         1.7011
  36   0.0000       0.109476         2.9790
  37   0.0000       0.131403         3.5757
  38   0.0000       0.142764         3.8848
  39   0.0000       0.168781         4.5928

MULLIKEN ATOMIC CHARGES
-----------------------
   0 O :   -0.680441
   1 H :    0.350181
   2 H :    0.381416
   3 O :   -0.715006
   4 H :    0.395167
   5 H :    0.332176
   6 O :   -0.728472
   7 H :    0.338256
   8 H :    0.359868
   9 O :   -0.732133
  10 H :    0.371419
  11 H :    0.343100
  12 O :   -0.681507
  13 H :    0.336738
  14 H :    0.342629
  15 O :   -0.752723
  16 H :    0.357621
  17 H :    0.382028
  18 O :   -0.699145
  19 H :    0.370034
  20 H :    0.328791
Sum of atomic charges:   -0.0000000

LOEWDIN ATOMIC CHARGES
----------------------
   0 O :   -0.264326
   1 H :    0.169823
   2 H :    0.185573
   3 O :   -0.280273
   4 H :    0.158391
   5 H :    0.166881
   6 O :   -0.339756
   7 H :    0.161327
   8 H :    0.143195
   9 O :   -0.356999
  10 H :    0.151494
  11 H :    0.138211
  12 O :   -0.331934
  13 H :    0.164048
  14 H :    0.165969
  15 O :   -0.312273
  16 H :    0.162853
  17 H :    0.145751
  18 O :   -0.337900
  19 H :    0.149975
  20 H :    0.159967

  Mayer bond orders larger than 0.100000
B(  0-O ,  1-H ) :   0.8418 B(  0-O ,  2-H ) :   0.8170 B(  3-O ,  4-H ) :   0.7808
B(  3-O ,  5-H ) :   0.8434 B(  6-O ,  7-H ) :   0.8476 B(  6-O ,  8-H ) :   0.7841
B(  9-O , 10-H ) :   0.8195 B(  9-O , 11-H ) :   0.8317 B( 12-O , 13-H ) :   0.8522
B( 12-O , 14-H ) :   0.8457 B( 15-O , 16-H ) :   0.8366 B( 15-O , 17-H ) :   0.7501
B( 18-O , 19-H ) :   0.8219 B( 18-O , 20-H ) :   0.8542

MP2 TOTAL ENERGY:     -534.242607411 Eh
FINAL SINGLE POINT ENERGY      -534.242607411217

DIPOLE MOMENT
-------------
                                X             Y             Z
Electronic contribution:     -0.16384      -0.06456      -0.18258
Nuclear contribution   :     -1.58749      -0.30943      -0.63259
                        -----------------------------------------
Total Dipole Moment    :     -1.75132      -0.37399      -0.81517
                        -----------------------------------------
Magnitude (a.u.)       :      1.96762
Magnitude (Debye)      :      5.00128

Rotational constants in cm-1:     0.040902     0.018589     0.017667
Rotational constants in MHz :  1226.210256   557.274130   529.652224

                             ****ORCA TERMINATED NORMALLY****
TOTAL RUN TIME: 0 days 0 hours 1 minutes 40 seconds 882 msec
