                         Program Version 4.2.0 -  RELEASE  -
|  1> ! MP2 def2-TZVP EnGrad TightSCF FrozenCore
|  2>
|  3> %pal
|  4>     nprocs 12
|  5> end
|  6>
|  7> %maxcore 8000
|  8>
|  9> %scf
| 10>     ConvForced true
| 11> end
| 12>
| 13> *xyz 0 1
| 14> C     4.348865     0.000112     1.212399
| 15> H     4.893253     0.889832     1.538927
| 16> H     4.893215    -0.889608     1.538992
| 17> H     3.351290     0.000149     1.660974
| 18> C     4.217210     0.000063    -0.242496
| 19> N     4.103209     0.000023    -1.398433
| 20> C    -1.020415     2.651937     1.722111
| 21> H    -2.032581     2.560347     2.123408
| 22> H    -0.538370     3.545090     2.127667
| 23> H    -0.452377     1.760848     2.004811
| 24> C    -1.075637     2.729382     0.265104
| 25> N    -1.118533     2.779656    -0.895365
| 26> C     0.708030     0.000078    -1.901498
| 27> H     0.166243    -0.897268    -2.215334
| 28> H     1.708495     0.000108    -2.344058
| 29> H     0.166190     0.897395    -2.215326
| 30> C     0.831427     0.000075    -0.447451
| 31> N     0.940550     0.000073     0.710769
| 32> C    -3.011401    -0.000119    -1.575087
| 33> H    -4.063588    -0.000109    -1.871355
| 34> H    -2.524137    -0.896565    -1.971162
| 35> H    -2.524113     0.896297    -1.971200
| 36> C    -2.902378    -0.000096    -0.119055
| 37> N    -2.810112    -0.000085     1.039854
| 38> C    -1.020150    -2.651991     1.722116
| 39> H    -0.538010    -3.545098     2.127660
| 40> H    -2.032323    -2.560510     2.123420
| 41> H    -0.452207    -1.760844     2.004822
| 42> C    -1.075371    -2.729426     0.265109
| 43> N    -1.118266    -2.779688    -0.895361
| 44> *
| 45>
| 46>                          ****END OF INPUT****

CARTESIAN COORDINATES (ANGSTROEM)
---------------------------------
  C      4.348865    0.000112    1.212399
  H      4.893253    0.889832    1.538927
  H      4.893215   -0.889608    1.538992
  H      3.351290    0.000149    1.660974
  C      4.217210    0.000063   -0.242496
  N      4.103209    0.000023   -1.398433
  C     -1.020415    2.651937    1.722111
  H     -2.032581    2.560347    2.123408
  H     -0.538370    3.545090    2.127667
  H     -0.452377    1.760848    2.004811
  C     -1.075637    2.729382    0.265104
  N     -1.118533    2.779656   -0.895365
  C      0.708030    0.000078   -1.901498
  H      0.166243   -0.897268   -2.215334
  H      1.708495    0.000108   -2.344058
  H      0.166190    0.897395   -2.215326
  C      0.831427    0.000075   -0.447451
  N      0.940550    0.000073    0.710769
  C     -3.011401   -0.000119   -1.575087
  H     -4.063588   -0.000109   -1.871355
  H     -2.524137   -0.896565   -1.971162
  H     -2.524113    0.896297   -1.971200
  C     -2.902378   -0.000096   -0.119055
  N     -2.810112   -0.000085    1.039854
  C     -1.020150   -2.651991    1.722116
  H     -0.538010   -3.545098    2.127660
  H     -2.032323   -2.560510    2.123420
  H     -0.452207   -1.760844    2.004822
  C     -1.075371   -2.729426    0.265109
  N     -1.118266   -2.779688   -0.895361

 Total Charge           Charge          ....    0
 Multiplicity           Mult            ....    1
 Number of Electrons    NEL             ....  110
 Basis Dimension        Dim             ....  555

ORBITAL ENERGIES
----------------

  NO   OCC          E(Eh)            E(eV)
   0   2.0000     -15.568838      -423.6496
   1   2.0000     -15.567702      -423.6187
   2   2.0000     -15.566917      -423.5974
   3   2.0000     -15.566917      -423.5973
   4   2.0000     -15.565526      -423.5595
   5   2.0000     -11.283804      -307.0479
   6   2.0000     -11.281730      -306.9915
   7   2.0000     -11.281669      -306.9898
   8   2.0000     -11.281668      -306.9898
   9   2.0000     -11.279999      -306.9444
  10   2.0000     -11.276092      -306.8381
  11   2.0000     -11.267566      -306.6061
  12   2.0000     -11.267111      -306.5937
  13   2.0000     -11.267110      -306.5937
  14   2.0000     -11.257247      -306.3253
  15   2.0000      -1.220830       -33.2205
  16   2.0000      -1.217447       -33.1284
  17   2.0000      -1.216359       -33.0988
  18   2.0000      -1.214929       -33.0599
  19   2.0000      -1.213072       -33.0094
  20   2.0000      -1.032803       -28.1040
  21   2.0000      -1.029190       -28.0057
  22   2.0000      -1.026174       -27.9236
  23   2.0000      -1.024998       -27.8916
  24   2.0000      -1.019743       -27.7486
  25   2.0000      -0.692079       -18.8324
  26   2.0000      -0.689711       -18.7680
  27   2.0000      -0.685783       -18.6611
  28   2.0000      -0.683436       -18.5972
  29   2.0000      -0.678644       -18.4669
  30   2.0000      -0.629699       -17.1350
  31   2.0000      -0.627851       -17.0847
  32   2.0000      -0.623141       -16.9565
  33   2.0000      -0.622260       -16.9326
  34   2.0000      -0.618716       -16.8361
  35   2.0000      -0.615785       -16.7564
  36   2.0000      -0.613606       -16.6971
  37   2.0000      -0.609801       -16.5935
  38   2.0000      -0.602031       -16.3821
  39   2.0000      -0.601526       -16.3684
  40   2.0000      -0.560615       -15.2551
  41   2.0000      -0.556964       -15.1558
  42   2.0000      -0.554562       -15.0904
  43   2.0000      -0.554399       -15.0860
  44   2.0000      -0.553956       -15.0739
  45   2.0000      -0.467843       -12.7307
  46   2.0000      -0.463733       -12.6188
  47   2.0000      -0.461321       -12.5532
  48   2.0000      -0.459638       -12.5074
  49   2.0000      -0.458788       -12.4842
  50   2.0000      -0.458661       -12.4808
  51   2.0000      -0.455964       -12.4074
  52   2.0000      -0.454433       -12.3657
  53   2.0000      -0.453245       -12.3334
  54   2.0000      -0.450829       -12.2677
  55   0.0000       0.125029         3.4022
  56   0.0000       0.137930         3.7533
  57   0.0000       0.149678         4.0729
  58   0.0000       0.153825         4.1858
  59   0.0000       0.160659         4.3718

MULLIKEN ATOMIC CHARGES
-----------------------
   0 C :   -0.290481
   1 H :    0.166933
   2 H :    0.166933
   3 H :    0.194726
   4 C :   -0.107884
   5 N :   -0.131628
   6 C :   -0.272379
   7 H :    0.177128
   8 H :    0.167852
   9 H :    0.191161
  10 C :   -0.097795
  11 N :   -0.167590
  12 C :   -0.311644
  13 H :    0.187078
  14 H :    0.210740
  15 H :    0.187079
  16 C :   -0.005663
  17 N :   -0.263432
  18 C :   -0.297186
  19 H :    0.173273
  20 H :    0.192582
  21 H :    0.192579
  22 C :   -0.099011
  23 N :   -0.161751
  24 C :   -0.272380
  25 H :    0.167853
  26 H :    0.177127
  27 H :    0.191162
  28 C :   -0.097790
  29 N :   -0.167592
Sum of atomic charges:   -0.0000000

LOEWDIN ATOMIC CHARGES
----------------------
   0 C :   -0.282721
   1 H :    0.149416
   2 H :    0.149417
   3 H :    0.153030
   4 C :   -0.206117
   5 N :    0.036794
   6 C :   -0.284033
   7 H :    0.153417
   8 H :    0.146964
   9 H :    0.154901
  10 C :   -0.201651
  11 N :    0.024749
  12 C :   -0.280274
  13 H :    0.152041
  14 H :    0.156184
  15 H :    0.152040
  16 C :   -0.190452
  17 N :    0.014444
  18 C :   -0.282612
  19 H :    0.149858
  20 H :    0.153113
  21 H :    0.153112
  22 C :   -0.202482
  23 N :    0.036513
  24 C :   -0.284032
  25 H :    0.146964
  26 H :    0.153417
  27 H :    0.154901
  28 C :   -0.201650
  29 N :    0.024749

  Mayer bond orders larger than 0.100000
B(  0-C ,  1-H ) :   0.9173 B(  0-C ,  2-H ) :   0.9173 B(  0-C ,  3-H ) :   0.9058
B(  0-C ,  4-C ) :   0.9002 B(  4-C ,  5-N ) :   2.7805 B(  6-C ,  7-H ) :   0.9130
B(  6-C ,  8-H ) :   0.9110 B(  6-C ,  9-H ) :   0.9063 B(  6-C , 10-C ) :   0.9071
B( 10-C , 11-N ) :   2.7419 B( 12-C , 13-H ) :   0.9095 B( 12-C , 14-H ) :   0.8933
B( 12-C , 15-H ) :   0.9095 B( 12-C , 16-C ) :   0.8868 B( 16-C , 17-N ) :   2.6086
B( 18-C , 19-H ) :   0.9075 B( 18-C , 20-H ) :   0.9099 B( 18-C , 21-H ) :   0.9099
B( 18-C , 22-C ) :   0.8915 B( 22-C , 23-N ) :   2.7504 B( 24-C , 25-H ) :   0.9110
B( 24-C , 26-H ) :   0.9130 B( 24-C , 27-H ) :   0.9063 B( 24-C , 28-C ) :   0.9071
B( 28-C , 29-N ) :   2.7419

MP2 TOTAL ENERGY:     -662.458783904 Eh
FINAL SINGLE POINT ENERGY      -662.458783903558

DIPOLE MOMENT
-------------
                                X             Y             Z
Electronic contribution:     -0.00104      -0.00005      -3.16372
Nuclear contribution   :      0.02110       0.00006       4.68380
                        -----------------------------------------
Total Dipole Moment    :      0.02006       0.00001       1.52008
                        -----------------------------------------
Magnitude (a.u.)       :      1.52021
Magnitude (Debye)      :      3.86407

Rotational constants in cm-1:     0.018459     0.011142     0.009223
Rotational constants in MHz :   553.376953   334.026536   276.508438

                             ****ORCA TERMINATED NORMALLY****
TOTAL RUN TIME: 0 days 0 hours 28 minutes 41 seconds 37 msec
