                         Program Version 4.2.0 -  RELEASE  -
|  1> # 12h2o.su.etal.mol5,6,7,8,9
|  2> ! MP2 def2-TZVP EnGrad TightSCF
|  3>
|  4> %pal
|  5>     nprocs 6
|  6> end
|  7>
|  8> %maxcore 8000
|  9>
| 10> %scf
| 11>     ConvForced true
| 12> end
| 13>
| 14> *xyz 0 1
| 15> O   0.885520000  -1.737840000   0.052730000
| 16> H   1.284090000  -0.839590000   0.017130000
| 17> H   1.032320000  -2.090180000  -0.841890000
| 18> O   1.737840000   0.885520000  -0.052730000
| 19> H   2.090180000   1.032320000   0.841890000
| 20> H   0.839590000   1.284090000  -0.017130000
| 21> O  -1.737840000  -0.885520000  -0.052730000
| 22> H  -2.090180000  -1.032320000   0.841890000
| 23> H  -0.839590000  -1.284090000  -0.017130000
| 24> O   1.752130000   0.741530000  -2.896280000
| 25> H   2.036450000   0.920500000  -1.984040000
| 26> H   0.921210000   1.242140000  -2.984230000
| 27> O   0.741530000  -1.752130000   2.896280000
| 28> H   0.920500000  -2.036450000   1.984040000
| 29> H   1.242140000  -0.921210000   2.984230000
| 30> *
| 31>
| 32>                          ****END OF INPUT****

CARTESIAN COORDINATES (ANGSTROEM)
---------------------------------
  O      0.885520   -1.737840    0.052730
  H      1.284090   -0.839590    0.017130
  H      1.032320   -2.090180   -0.841890
  O      1.737840    0.885520   -0.052730
  H      2.090180    1.032320    0.841890
  H      0.839590    1.284090   -0.017130
  O     -1.737840   -0.885520   -0.052730
  H     -2.090180   -1.032320    0.841890
  H     -0.839590   -1.284090   -0.017130
  O      1.752130    0.741530   -2.896280
  H      2.036450    0.920500   -1.984040
  H      0.921210    1.242140   -2.984230
  O      0.741530   -1.752130    2.896280
  H      0.920500   -2.036450    1.984040
  H      1.242140   -0.921210    2.984230

 Total Charge           Charge          ....    0
 Multiplicity           Mult            ....    1
 Number of Electrons    NEL             ....   50
 Basis Dimension        Dim             ....  215

ORBITAL ENERGIES
----------------

  NO   OCC          E(Eh)            E(eV)
   0   2.0000     -20.640139      -561.6467
   1   2.0000     -20.589174      -560.2599
   2   2.0000     -20.554958      -559.3289
   3   2.0000     -20.551980      -559.2478
   4   2.0000     -20.533343      -558.7407
   5   2.0000      -1.423460       -38.7343
   6   2.0000      -1.377101       -37.4728
   7   2.0000      -1.336844       -36.3774
   8   2.0000      -1.333517       -36.2868
   9   2.0000      -1.314292       -35.7637
  10   2.0000      -0.780740       -21.2450
  11   2.0000      -0.747451       -20.3392
  12   2.0000      -0.711761       -19.3680
  13   2.0000      -0.703834       -19.1523
  14   2.0000      -0.689843       -18.7716
  15   2.0000      -0.658524       -17.9194
  16   2.0000      -0.626778       -17.0555
  17   2.0000      -0.582143       -15.8409
  18   2.0000      -0.575954       -15.6725
  19   2.0000      -0.567840       -15.4517
  20   2.0000      -0.556406       -15.1406
  21   2.0000      -0.522442       -14.2164
  22   2.0000      -0.501005       -13.6330
  23   2.0000      -0.497948       -13.5498
  24   2.0000      -0.481689       -13.1074
  25   0.0000       0.068682         1.8689
  26   0.0000       0.126994         3.4557
  27   0.0000       0.145459         3.9581
  28   0.0000       0.165860         4.5133
  29   0.0000       0.178821         4.8660

MULLIKEN ATOMIC CHARGES
-----------------------
   0 O :   -0.733577
   1 H :    0.362814
   2 H :    0.370484
   3 O :   -0.713017
   4 H :    0.367611
   5 H :    0.376985
   6 O :   -0.724147
   7 H :    0.335337
   8 H :    0.355666
   9 O :   -0.690905
  10 H :    0.365106
  11 H :    0.330344
  12 O :   -0.684359
  13 H :    0.374252
  14 H :    0.307406
Sum of atomic charges:   -0.0000000

LOEWDIN ATOMIC CHARGES
----------------------
   0 O :   -0.293579
   1 H :    0.143731
   2 H :    0.176362
   3 O :   -0.273860
   4 H :    0.176203
   5 H :    0.187213
   6 O :   -0.364315
   7 H :    0.160818
   8 H :    0.139011
   9 O :   -0.334927
  10 H :    0.149216
  11 H :    0.163403
  12 O :   -0.334187
  13 H :    0.152489
  14 H :    0.152422

  Mayer bond orders larger than 0.100000
B(  0-O ,  1-H ) :   0.7793 B(  0-O ,  2-H ) :   0.8271 B(  3-O ,  4-H ) :   0.8283
B(  3-O ,  5-H ) :   0.8147 B(  6-O ,  7-H ) :   0.8532 B(  6-O ,  8-H ) :   0.8004
B(  9-O , 10-H ) :   0.8297 B(  9-O , 11-H ) :   0.8564 B( 12-O , 13-H ) :   0.8171
B( 12-O , 14-H ) :   0.8687

MP2 TOTAL ENERGY:     -381.594615908 Eh
FINAL SINGLE POINT ENERGY      -381.594615908263

DIPOLE MOMENT
-------------
                                X             Y             Z
Electronic contribution:      0.20749      -0.12023      -0.19698
Nuclear contribution   :      0.56463       1.47502       0.77428
                        -----------------------------------------
Total Dipole Moment    :      0.77212       1.35478       0.57730
                        -----------------------------------------
Magnitude (a.u.)       :      1.66279
Magnitude (Debye)      :      4.22648

Rotational constants in cm-1:     0.093416     0.039146     0.032352
Rotational constants in MHz :  2800.527339  1173.559363   969.894894

                             ****ORCA TERMINATED NORMALLY****
TOTAL RUN TIME: 0 days 0 hours 0 minutes 32 seconds 991 msec
