                         Program Version 3.0.3 - RELEASE   -
|  1> ! B3LYP Def2-TZVP def2-TZVP/J RIJCOSX TightSCF Grid4 D3BJ COSMO
|  2>
|  3> %pal nprocs 12 end
|  4>
|  5> %scf
|  6>         maxiter 400
|  7> end
|  8>
|  9> %cosmo
| 10>         SMD true
| 11>         solvent "WATER"
| 12> end
| 13>
| 14> * xyz  0  1
| 15> O  1.819450	0.392881	0.241960
| 16> H  1.307851	0.087169	-0.582301
| 17> H  2.307522	-0.412736	0.505385
| 18> O  0.330052	-0.424224	-1.795388
| 19> H  -0.538339	-0.429893	-1.266386
| 20> H  0.239226	0.376650	-2.349727
| 21> O  -0.324902	0.386330	1.797639
| 22> H  0.544560	0.402354	1.269760
| 23> H  -0.519217	1.336343	1.926055
| 24> O  -1.827900	-0.356662	-0.254596
| 25> H  -2.027356	-1.294883	-0.063627
| 26> H  -1.310948	-0.063330	0.571226
| 27> **                         ****END OF INPUT****

CARTESIAN COORDINATES (ANGSTROEM)
---------------------------------
  O      1.819450    0.392881    0.241960
  H      1.307851    0.087169   -0.582301
  H      2.307522   -0.412736    0.505385
  O      0.330052   -0.424224   -1.795388
  H     -0.538339   -0.429893   -1.266386
  H      0.239226    0.376650   -2.349727
  O     -0.324902    0.386330    1.797639
  H      0.544560    0.402354    1.269760
  H     -0.519217    1.336343    1.926055
  O     -1.827900   -0.356662   -0.254596
  H     -2.027356   -1.294883   -0.063627
  H     -1.310948   -0.063330    0.571226

 Total Charge           Charge          ....    0
 Multiplicity           Mult            ....    1
 Number of Electrons    NEL             ....   40
 Basis Dimension        Dim             ....  172

ORBITAL ENERGIES
----------------

  NO   OCC          E(Eh)            E(eV)
   0   2.0000     -19.124502      -520.4042
   1   2.0000     -19.124349      -520.4000
   2   2.0000     -19.124160      -520.3948
   3   2.0000     -19.123914      -520.3882
   4   2.0000      -1.020755       -27.7762
   5   2.0000      -1.000887       -27.2355
   6   2.0000      -1.000753       -27.2319
   7   2.0000      -0.981219       -26.7003
   8   2.0000      -0.524853       -14.2820
   9   2.0000      -0.515895       -14.0382
  10   2.0000      -0.515304       -14.0221
  11   2.0000      -0.514672       -14.0049
  12   2.0000      -0.436692       -11.8830
  13   2.0000      -0.403640       -10.9836
  14   2.0000      -0.403184       -10.9712
  15   2.0000      -0.378482       -10.2990
  16   2.0000      -0.319785        -8.7018
  17   2.0000      -0.319460        -8.6930
  18   2.0000      -0.316575        -8.6144
  19   2.0000      -0.313899        -8.5416
  20   0.0000       0.023206         0.6315
  21   0.0000       0.069862         1.9010
  22   0.0000       0.069931         1.9029
  23   0.0000       0.091098         2.4789
  24   0.0000       0.195455         5.3186

MULLIKEN ATOMIC CHARGES
-----------------------
   0 O :   -0.748230
   1 H :    0.366682
   2 H :    0.381387
   3 O :   -0.747917
   4 H :    0.367307
   5 H :    0.381273
   6 O :   -0.748641
   7 H :    0.367566
   8 H :    0.381229
   9 O :   -0.749261
  10 H :    0.381037
  11 H :    0.367569
Sum of atomic charges:   -0.0000000

LOEWDIN ATOMIC CHARGES
----------------------
   0 O :   -0.330932
   1 H :    0.147190
   2 H :    0.184202
   3 O :   -0.331106
   4 H :    0.147105
   5 H :    0.184352
   6 O :   -0.330880
   7 H :    0.147094
   8 H :    0.184252
   9 O :   -0.332213
  10 H :    0.184028
  11 H :    0.146908

  Mayer bond orders larger than 0.1
B(  0-O ,  1-H ) :   0.7567 B(  0-O ,  2-H ) :   0.8599 B(  0-O ,  7-H ) :   0.1691
B(  1-H ,  3-O ) :   0.1695 B(  3-O ,  4-H ) :   0.7572 B(  3-O ,  5-H ) :   0.8600
B(  4-H ,  9-O ) :   0.1681 B(  6-O ,  7-H ) :   0.7560 B(  6-O ,  8-H ) :   0.8598
B(  6-O , 11-H ) :   0.1688 B(  9-O , 10-H ) :   0.8601 B(  9-O , 11-H ) :   0.7561

Dispersion correction           -0.008376936
FINAL SINGLE POINT ENERGY      -305.779288219785

DIPOLE MOMENT
-------------
                                X             Y             Z
Electronic contribution:      0.00324       0.00111      -0.00023
Nuclear contribution   :      0.00824       0.00418       0.02593
                        -----------------------------------------
Total Dipole Moment    :      0.01148       0.00529       0.02570
                        -----------------------------------------
Magnitude (a.u.)       :      0.02864
Magnitude (Debye)      :      0.07280

                             ****ORCA TERMINATED NORMALLY****
TOTAL RUN TIME: 0 days 0 hours 0 minutes 52 seconds 926 msec
