                         Program Version 4.2.0 -  RELEASE  -
|  1> # 12meoh.boyd.etal.mol4,9,11
|  2> ! MP2 def2-TZVP EnGrad TightSCF
|  3>
|  4> %pal
|  5>     nprocs 6
|  6> end
|  7>
|  8> %maxcore 8000
|  9>
| 10> %scf
| 11>     ConvForced true
| 12> end
| 13>
| 14> *xyz 0 1
| 15> O  -1.358578914   1.232360421   1.189721000
| 16> H  -1.058250183   1.216459361   0.238591307
| 17> C  -0.389763452   1.957872567   1.943072362
| 18> H  -0.747220771   2.012806578   2.975200343
| 19> H  -0.260410585   2.982763209   1.565366540
| 20> H   0.585220638   1.453754179   1.934070793
| 21> O   1.390610024   3.194080770  -1.536658882
| 22> H   2.162932299   2.881562730  -0.993525056
| 23> C   1.202977189   4.580367182  -1.302880219
| 24> H   0.374773115   4.915764831  -1.934164643
| 25> H   2.098649340   5.157710875  -1.570472348
| 26> H   0.950320401   4.800436015  -0.254328827
| 27> O   3.252955559   0.588596242   1.858934315
| 28> H   3.621209177  -0.251605199   1.476063364
| 29> C   4.040824528   0.944288422   2.989639460
| 30> H   3.670521436   1.902573549   3.363847391
| 31> H   5.103749934   1.055868619   2.734277559
| 32> H   3.948540682   0.200279590   3.792908518
| 33> *
| 34>
| 35>                          ****END OF INPUT****

CARTESIAN COORDINATES (ANGSTROEM)
---------------------------------
  O     -1.358579    1.232360    1.189721
  H     -1.058250    1.216459    0.238591
  C     -0.389763    1.957873    1.943072
  H     -0.747221    2.012807    2.975200
  H     -0.260411    2.982763    1.565367
  H      0.585221    1.453754    1.934071
  O      1.390610    3.194081   -1.536659
  H      2.162932    2.881563   -0.993525
  C      1.202977    4.580367   -1.302880
  H      0.374773    4.915765   -1.934165
  H      2.098649    5.157711   -1.570472
  H      0.950320    4.800436   -0.254329
  O      3.252956    0.588596    1.858934
  H      3.621209   -0.251605    1.476063
  C      4.040825    0.944288    2.989639
  H      3.670521    1.902574    3.363847
  H      5.103750    1.055869    2.734278
  H      3.948541    0.200280    3.792909

 Total Charge           Charge          ....    0
 Multiplicity           Mult            ....    1
 Number of Electrons    NEL             ....   54
 Basis Dimension        Dim             ....  258

ORBITAL ENERGIES
----------------

  NO   OCC          E(Eh)            E(eV)
   0   2.0000     -20.569233      -559.7173
   1   2.0000     -20.558966      -559.4379
   2   2.0000     -20.541509      -558.9629
   3   2.0000     -11.281032      -306.9725
   4   2.0000     -11.272245      -306.7334
   5   2.0000     -11.255035      -306.2651
   6   2.0000      -1.358365       -36.9630
   7   2.0000      -1.349455       -36.7205
   8   2.0000      -1.329120       -36.1672
   9   2.0000      -0.929590       -25.2954
  10   2.0000      -0.920339       -25.0437
  11   2.0000      -0.903388       -24.5824
  12   2.0000      -0.692963       -18.8565
  13   2.0000      -0.683882       -18.6094
  14   2.0000      -0.664344       -18.0777
  15   2.0000      -0.627245       -17.0682
  16   2.0000      -0.618263       -16.8238
  17   2.0000      -0.604201       -16.4412
  18   2.0000      -0.597949       -16.2710
  19   2.0000      -0.593452       -16.1487
  20   2.0000      -0.574665       -15.6374
  21   2.0000      -0.511478       -13.9180
  22   2.0000      -0.500450       -13.6179
  23   2.0000      -0.484533       -13.1848
  24   2.0000      -0.460258       -12.5243
  25   2.0000      -0.449809       -12.2399
  26   2.0000      -0.432639       -11.7727
  27   0.0000       0.113281         3.0825
  28   0.0000       0.138639         3.7726
  29   0.0000       0.158869         4.3231
  30   0.0000       0.170901         4.6505
  31   0.0000       0.177783         4.8377

MULLIKEN ATOMIC CHARGES
-----------------------
   0 O :   -0.510506
   1 H :    0.327719
   2 C :   -0.179276
   3 H :    0.119825
   4 H :    0.097414
   5 H :    0.134578
   6 O :   -0.505322
   7 H :    0.329412
   8 C :   -0.171797
   9 H :    0.130290
  10 H :    0.113183
  11 H :    0.105963
  12 O :   -0.499518
  13 H :    0.324635
  14 C :   -0.174930
  15 H :    0.129740
  16 H :    0.112866
  17 H :    0.115724
Sum of atomic charges:   -0.0000000

LOEWDIN ATOMIC CHARGES
----------------------
   0 O :   -0.115437
   1 H :    0.193475
   2 C :   -0.385127
   3 H :    0.106781
   4 H :    0.092633
   5 H :    0.099920
   6 O :   -0.106579
   7 H :    0.193233
   8 C :   -0.385870
   9 H :    0.110823
  10 H :    0.096096
  11 H :    0.093472
  12 O :   -0.109273
  13 H :    0.192000
  14 C :   -0.381189
  15 H :    0.110194
  16 H :    0.097072
  17 H :    0.097775

  Mayer bond orders larger than 0.100000
B(  0-O ,  1-H ) :   0.8381 B(  0-O ,  2-C ) :   0.9177 B(  2-C ,  3-H ) :   0.9347
B(  2-C ,  4-H ) :   0.9390 B(  2-C ,  5-H ) :   0.9388 B(  6-O ,  7-H ) :   0.8354
B(  6-O ,  8-C ) :   0.9239 B(  8-C ,  9-H ) :   0.9382 B(  8-C , 10-H ) :   0.9418
B(  8-C , 11-H ) :   0.9352 B( 12-O , 13-H ) :   0.8384 B( 12-O , 14-C ) :   0.9141
B( 14-C , 15-H ) :   0.9392 B( 14-C , 16-H ) :   0.9350 B( 14-C , 17-H ) :   0.9382

MP2 TOTAL ENERGY:     -346.525394849 Eh
FINAL SINGLE POINT ENERGY      -346.525394849043

DIPOLE MOMENT
-------------
                                X             Y             Z
Electronic contribution:     -2.13262      -3.05903      -2.61081
Nuclear contribution   :      3.77586       3.29238       2.97605
                        -----------------------------------------
Total Dipole Moment    :      1.64324       0.23335       0.36525
                        -----------------------------------------
Magnitude (a.u.)       :      1.69944
Magnitude (Debye)      :      4.31963

Rotational constants in cm-1:     0.053125     0.031232     0.021517
Rotational constants in MHz :  1592.651622   936.324816   645.072017

                             ****ORCA TERMINATED NORMALLY****
TOTAL RUN TIME: 0 days 0 hours 1 minutes 8 seconds 170 msec
