                         Program Version 4.2.0 -  RELEASE  -
|  1> # 12h2o.su.etal.mol0,2,3,4,5,7,8,9,10
|  2> ! MP2 def2-TZVP EnGrad TightSCF
|  3>
|  4> %pal
|  5>     nprocs 6
|  6> end
|  7>
|  8> %maxcore 8000
|  9>
| 10> %scf
| 11>     ConvForced true
| 12> end
| 13>
| 14> *xyz 0 1
| 15> O   1.794470000   0.923410000   2.768350000
| 16> H   2.338250000   1.359750000   3.430940000
| 17> H   0.879480000   1.303000000   2.865760000
| 18> O   0.923410000  -1.794470000  -2.768350000
| 19> H   1.359750000  -2.338250000  -3.430940000
| 20> H   1.303000000  -0.879480000  -2.865760000
| 21> O  -1.752130000  -0.741530000  -2.896280000
| 22> H  -2.036450000  -0.920500000  -1.984040000
| 23> H  -0.921210000  -1.242140000  -2.984230000
| 24> O  -0.885520000   1.737840000   0.052730000
| 25> H  -1.032320000   2.090180000  -0.841890000
| 26> H  -1.284090000   0.839590000   0.017130000
| 27> O   0.885520000  -1.737840000   0.052730000
| 28> H   1.284090000  -0.839590000   0.017130000
| 29> H   1.032320000  -2.090180000  -0.841890000
| 30> O  -1.737840000  -0.885520000  -0.052730000
| 31> H  -2.090180000  -1.032320000   0.841890000
| 32> H  -0.839590000  -1.284090000  -0.017130000
| 33> O   1.752130000   0.741530000  -2.896280000
| 34> H   2.036450000   0.920500000  -1.984040000
| 35> H   0.921210000   1.242140000  -2.984230000
| 36> O   0.741530000  -1.752130000   2.896280000
| 37> H   0.920500000  -2.036450000   1.984040000
| 38> H   1.242140000  -0.921210000   2.984230000
| 39> O  -0.923410000   1.794470000  -2.768350000
| 40> H  -1.359750000   2.338250000  -3.430940000
| 41> H  -1.303000000   0.879480000  -2.865760000
| 42> *
| 43>
| 44>                          ****END OF INPUT****

CARTESIAN COORDINATES (ANGSTROEM)
---------------------------------
  O      1.794470    0.923410    2.768350
  H      2.338250    1.359750    3.430940
  H      0.879480    1.303000    2.865760
  O      0.923410   -1.794470   -2.768350
  H      1.359750   -2.338250   -3.430940
  H      1.303000   -0.879480   -2.865760
  O     -1.752130   -0.741530   -2.896280
  H     -2.036450   -0.920500   -1.984040
  H     -0.921210   -1.242140   -2.984230
  O     -0.885520    1.737840    0.052730
  H     -1.032320    2.090180   -0.841890
  H     -1.284090    0.839590    0.017130
  O      0.885520   -1.737840    0.052730
  H      1.284090   -0.839590    0.017130
  H      1.032320   -2.090180   -0.841890
  O     -1.737840   -0.885520   -0.052730
  H     -2.090180   -1.032320    0.841890
  H     -0.839590   -1.284090   -0.017130
  O      1.752130    0.741530   -2.896280
  H      2.036450    0.920500   -1.984040
  H      0.921210    1.242140   -2.984230
  O      0.741530   -1.752130    2.896280
  H      0.920500   -2.036450    1.984040
  H      1.242140   -0.921210    2.984230
  O     -0.923410    1.794470   -2.768350
  H     -1.359750    2.338250   -3.430940
  H     -1.303000    0.879480   -2.865760

 Total Charge           Charge          ....    0
 Multiplicity           Mult            ....    1
 Number of Electrons    NEL             ....   90
 Basis Dimension        Dim             ....  387

ORBITAL ENERGIES
----------------

  NO   OCC          E(Eh)            E(eV)
   0   2.0000     -20.591996      -560.3367
   1   2.0000     -20.588179      -560.2328
   2   2.0000     -20.585385      -560.1568
   3   2.0000     -20.582156      -560.0689
   4   2.0000     -20.574804      -559.8689
   5   2.0000     -20.566657      -559.6472
   6   2.0000     -20.559754      -559.4594
   7   2.0000     -20.512342      -558.1692
   8   2.0000     -20.510507      -558.1193
   9   2.0000      -1.388061       -37.7711
  10   2.0000      -1.379644       -37.5420
  11   2.0000      -1.365433       -37.1553
  12   2.0000      -1.363483       -37.1023
  13   2.0000      -1.359859       -37.0037
  14   2.0000      -1.356990       -36.9256
  15   2.0000      -1.340429       -36.4749
  16   2.0000      -1.297629       -35.3103
  17   2.0000      -1.294566       -35.2269
  18   2.0000      -0.751639       -20.4531
  19   2.0000      -0.741457       -20.1761
  20   2.0000      -0.740059       -20.1380
  21   2.0000      -0.732225       -19.9249
  22   2.0000      -0.727678       -19.8011
  23   2.0000      -0.726826       -19.7779
  24   2.0000      -0.715899       -19.4806
  25   2.0000      -0.678552       -18.4644
  26   2.0000      -0.676161       -18.3993
  27   2.0000      -0.649205       -17.6658
  28   2.0000      -0.622592       -16.9416
  29   2.0000      -0.621131       -16.9018
  30   2.0000      -0.606052       -16.4915
  31   2.0000      -0.596923       -16.2431
  32   2.0000      -0.593304       -16.1446
  33   2.0000      -0.576390       -15.6844
  34   2.0000      -0.552995       -15.0478
  35   2.0000      -0.543972       -14.8022
  36   2.0000      -0.533905       -14.5283
  37   2.0000      -0.531565       -14.4646
  38   2.0000      -0.528069       -14.3695
  39   2.0000      -0.515819       -14.0362
  40   2.0000      -0.514168       -13.9912
  41   2.0000      -0.505301       -13.7499
  42   2.0000      -0.503125       -13.6907
  43   2.0000      -0.462320       -12.5804
  44   2.0000      -0.461511       -12.5583
  45   0.0000       0.093368         2.5407
  46   0.0000       0.123332         3.3560
  47   0.0000       0.140634         3.8269
  48   0.0000       0.144730         3.9383
  49   0.0000       0.152222         4.1422

MULLIKEN ATOMIC CHARGES
-----------------------
   0 O :   -0.704324
   1 H :    0.351095
   2 H :    0.372569
   3 O :   -0.762265
   4 H :    0.358320
   5 H :    0.383758
   6 O :   -0.722658
   7 H :    0.389421
   8 H :    0.368428
   9 O :   -0.744010
  10 H :    0.360419
  11 H :    0.342173
  12 O :   -0.726654
  13 H :    0.355459
  14 H :    0.389306
  15 O :   -0.742963
  16 H :    0.366969
  17 H :    0.375069
  18 O :   -0.707581
  19 H :    0.354121
  20 H :    0.386037
  21 O :   -0.727589
  22 H :    0.363219
  23 H :    0.346189
  24 O :   -0.757735
  25 H :    0.349956
  26 H :    0.383271
Sum of atomic charges:   -0.0000000

LOEWDIN ATOMIC CHARGES
----------------------
   0 O :   -0.314410
   1 H :    0.162850
   2 H :    0.192362
   3 O :   -0.316136
   4 H :    0.162911
   5 H :    0.145748
   6 O :   -0.285114
   7 H :    0.157742
   8 H :    0.148980
   9 O :   -0.374565
  10 H :    0.142861
  11 H :    0.133676
  12 O :   -0.280224
  13 H :    0.174456
  14 H :    0.155768
  15 O :   -0.297638
  16 H :    0.174891
  17 H :    0.146955
  18 O :   -0.278819
  19 H :    0.169349
  20 H :    0.156916
  21 O :   -0.355580
  22 H :    0.145958
  23 H :    0.142253
  24 O :   -0.315980
  25 H :    0.158735
  26 H :    0.146055

  Mayer bond orders larger than 0.100000
B(  0-O ,  1-H ) :   0.8425 B(  0-O ,  2-H ) :   0.8203 B(  3-O ,  4-H ) :   0.8364
B(  3-O ,  5-H ) :   0.7309 B(  5-H , 18-O ) :   0.1164 B(  6-O ,  7-H ) :   0.8003
B(  6-O ,  8-H ) :   0.8019 B(  6-O , 26-H ) :   0.1216 B(  9-O , 10-H ) :   0.8238
B(  9-O , 11-H ) :   0.8052 B( 12-O , 13-H ) :   0.8260 B( 12-O , 14-H ) :   0.7871
B( 15-O , 16-H ) :   0.8290 B( 15-O , 17-H ) :   0.7621 B( 18-O , 19-H ) :   0.8382
B( 18-O , 20-H ) :   0.7782 B( 21-O , 22-H ) :   0.8304 B( 21-O , 23-H ) :   0.8252
B( 24-O , 25-H ) :   0.8402 B( 24-O , 26-H ) :   0.7269

MP2 TOTAL ENERGY:     -686.923335445 Eh
FINAL SINGLE POINT ENERGY      -686.923335445383

DIPOLE MOMENT
-------------
                                X             Y             Z
Electronic contribution:      0.06685      -0.21991      -0.21322
Nuclear contribution   :      0.71107       0.68017      -0.72077
                        -----------------------------------------
Total Dipole Moment    :      0.77792       0.46027      -0.93398
                        -----------------------------------------
Magnitude (a.u.)       :      1.29974
Magnitude (Debye)      :      3.30368

Rotational constants in cm-1:     0.029208     0.015249     0.014363
Rotational constants in MHz :   875.622845   457.145028   430.605401

                             ****ORCA TERMINATED NORMALLY****
TOTAL RUN TIME: 0 days 0 hours 4 minutes 48 seconds 74 msec
