                         Program Version 4.2.0 -  RELEASE  -
|  1> # 12h2o.su.etal.mol4,8,9,11
|  2> ! MP2 def2-TZVP EnGrad TightSCF
|  3>
|  4> %pal
|  5>     nprocs 6
|  6> end
|  7>
|  8> %maxcore 8000
|  9>
| 10> %scf
| 11>     ConvForced true
| 12> end
| 13>
| 14> *xyz 0 1
| 15> O  -0.885520000   1.737840000   0.052730000
| 16> H  -1.032320000   2.090180000  -0.841890000
| 17> H  -1.284090000   0.839590000   0.017130000
| 18> O   1.752130000   0.741530000  -2.896280000
| 19> H   2.036450000   0.920500000  -1.984040000
| 20> H   0.921210000   1.242140000  -2.984230000
| 21> O   0.741530000  -1.752130000   2.896280000
| 22> H   0.920500000  -2.036450000   1.984040000
| 23> H   1.242140000  -0.921210000   2.984230000
| 24> O  -0.741530000   1.752130000   2.896280000
| 25> H  -0.920500000   2.036450000   1.984040000
| 26> H  -1.242140000   0.921210000   2.984230000
| 27> *
| 28>
| 29>                          ****END OF INPUT****

CARTESIAN COORDINATES (ANGSTROEM)
---------------------------------
  O     -0.885520    1.737840    0.052730
  H     -1.032320    2.090180   -0.841890
  H     -1.284090    0.839590    0.017130
  O      1.752130    0.741530   -2.896280
  H      2.036450    0.920500   -1.984040
  H      0.921210    1.242140   -2.984230
  O      0.741530   -1.752130    2.896280
  H      0.920500   -2.036450    1.984040
  H      1.242140   -0.921210    2.984230
  O     -0.741530    1.752130    2.896280
  H     -0.920500    2.036450    1.984040
  H     -1.242140    0.921210    2.984230

 Total Charge           Charge          ....    0
 Multiplicity           Mult            ....    1
 Number of Electrons    NEL             ....   40
 Basis Dimension        Dim             ....  172

ORBITAL ENERGIES
----------------

  NO   OCC          E(Eh)            E(eV)
   0   2.0000     -20.607107      -560.7479
   1   2.0000     -20.574706      -559.8662
   2   2.0000     -20.563722      -559.5673
   3   2.0000     -20.539111      -558.8976
   4   2.0000      -1.385264       -37.6950
   5   2.0000      -1.353821       -36.8393
   6   2.0000      -1.342896       -36.5421
   7   2.0000      -1.320890       -35.9432
   8   2.0000      -0.747635       -20.3442
   9   2.0000      -0.716635       -19.5006
  10   2.0000      -0.705508       -19.1978
  11   2.0000      -0.691380       -18.8134
  12   2.0000      -0.624173       -16.9846
  13   2.0000      -0.591080       -16.0841
  14   2.0000      -0.580677       -15.8010
  15   2.0000      -0.561683       -15.2842
  16   2.0000      -0.545182       -14.8352
  17   2.0000      -0.518542       -14.1103
  18   2.0000      -0.508341       -13.8327
  19   2.0000      -0.484985       -13.1971
  20   0.0000       0.073308         1.9948
  21   0.0000       0.116375         3.1667
  22   0.0000       0.143537         3.9058
  23   0.0000       0.169679         4.6172
  24   0.0000       0.183057         4.9812

MULLIKEN ATOMIC CHARGES
-----------------------
   0 O :   -0.689446
   1 H :    0.345001
   2 H :    0.349112
   3 O :   -0.668247
   4 H :    0.341228
   5 H :    0.326024
   6 O :   -0.681931
   7 H :    0.332970
   8 H :    0.348184
   9 O :   -0.697658
  10 H :    0.367590
  11 H :    0.327173
Sum of atomic charges:   -0.0000000

LOEWDIN ATOMIC CHARGES
----------------------
   0 O :   -0.315919
   1 H :    0.167477
   2 H :    0.176944
   3 O :   -0.328423
   4 H :    0.166462
   5 H :    0.160888
   6 O :   -0.332910
   7 H :    0.163239
   8 H :    0.169290
   9 O :   -0.338279
  10 H :    0.151967
  11 H :    0.159263

  Mayer bond orders larger than 0.100000
B(  0-O ,  1-H ) :   0.8439 B(  0-O ,  2-H ) :   0.8390 B(  3-O ,  4-H ) :   0.8503
B(  3-O ,  5-H ) :   0.8589 B(  6-O ,  7-H ) :   0.8553 B(  6-O ,  8-H ) :   0.8425
B(  9-O , 10-H ) :   0.8243 B(  9-O , 11-H ) :   0.8556

MP2 TOTAL ENERGY:     -305.259934660 Eh
FINAL SINGLE POINT ENERGY      -305.259934660333

DIPOLE MOMENT
-------------
                                X             Y             Z
Electronic contribution:      0.17031       0.01712       0.10978
Nuclear contribution   :     -0.90891       0.11126      -1.46039
                        -----------------------------------------
Total Dipole Moment    :     -0.73860       0.12838      -1.35061
                        -----------------------------------------
Magnitude (a.u.)       :      1.54472
Magnitude (Debye)      :      3.92636

Rotational constants in cm-1:     0.085943     0.036977     0.026877
Rotational constants in MHz :  2576.507632  1108.552498   805.757343

                             ****ORCA TERMINATED NORMALLY****
TOTAL RUN TIME: 0 days 0 hours 0 minutes 14 seconds 419 msec
