                         Program Version 4.2.0 -  RELEASE  -
|  1> # 12h2o.su.etal.mol0,1,2,4,6,11
|  2> ! MP2 def2-TZVP EnGrad TightSCF
|  3>
|  4> %pal
|  5>     nprocs 6
|  6> end
|  7>
|  8> %maxcore 8000
|  9>
| 10> %scf
| 11>     ConvForced true
| 12> end
| 13>
| 14> *xyz 0 1
| 15> O   1.794470000   0.923410000   2.768350000
| 16> H   2.338250000   1.359750000   3.430940000
| 17> H   0.879480000   1.303000000   2.865760000
| 18> O  -1.794470000  -0.923410000   2.768350000
| 19> H  -2.338250000  -1.359750000   3.430940000
| 20> H  -0.879480000  -1.303000000   2.865760000
| 21> O   0.923410000  -1.794470000  -2.768350000
| 22> H   1.359750000  -2.338250000  -3.430940000
| 23> H   1.303000000  -0.879480000  -2.865760000
| 24> O  -0.885520000   1.737840000   0.052730000
| 25> H  -1.032320000   2.090180000  -0.841890000
| 26> H  -1.284090000   0.839590000   0.017130000
| 27> O   1.737840000   0.885520000  -0.052730000
| 28> H   2.090180000   1.032320000   0.841890000
| 29> H   0.839590000   1.284090000  -0.017130000
| 30> O  -0.741530000   1.752130000   2.896280000
| 31> H  -0.920500000   2.036450000   1.984040000
| 32> H  -1.242140000   0.921210000   2.984230000
| 33> *
| 34>
| 35>                          ****END OF INPUT****

CARTESIAN COORDINATES (ANGSTROEM)
---------------------------------
  O      1.794470    0.923410    2.768350
  H      2.338250    1.359750    3.430940
  H      0.879480    1.303000    2.865760
  O     -1.794470   -0.923410    2.768350
  H     -2.338250   -1.359750    3.430940
  H     -0.879480   -1.303000    2.865760
  O      0.923410   -1.794470   -2.768350
  H      1.359750   -2.338250   -3.430940
  H      1.303000   -0.879480   -2.865760
  O     -0.885520    1.737840    0.052730
  H     -1.032320    2.090180   -0.841890
  H     -1.284090    0.839590    0.017130
  O      1.737840    0.885520   -0.052730
  H      2.090180    1.032320    0.841890
  H      0.839590    1.284090   -0.017130
  O     -0.741530    1.752130    2.896280
  H     -0.920500    2.036450    1.984040
  H     -1.242140    0.921210    2.984230

 Total Charge           Charge          ....    0
 Multiplicity           Mult            ....    1
 Number of Electrons    NEL             ....   60
 Basis Dimension        Dim             ....  258

ORBITAL ENERGIES
----------------

  NO   OCC          E(Eh)            E(eV)
   0   2.0000     -20.606978      -560.7444
   1   2.0000     -20.596658      -560.4636
   2   2.0000     -20.553381      -559.2859
   3   2.0000     -20.548407      -559.1506
   4   2.0000     -20.527728      -558.5879
   5   2.0000     -20.492137      -557.6194
   6   2.0000      -1.390166       -37.8283
   7   2.0000      -1.374714       -37.4079
   8   2.0000      -1.345502       -36.6130
   9   2.0000      -1.323820       -36.0230
  10   2.0000      -1.311355       -35.6838
  11   2.0000      -1.276319       -34.7304
  12   2.0000      -0.749173       -20.3860
  13   2.0000      -0.741951       -20.1895
  14   2.0000      -0.711734       -19.3673
  15   2.0000      -0.694985       -18.9115
  16   2.0000      -0.692026       -18.8310
  17   2.0000      -0.665092       -18.0981
  18   2.0000      -0.636000       -17.3065
  19   2.0000      -0.611901       -16.6507
  20   2.0000      -0.583241       -15.8708
  21   2.0000      -0.570833       -15.5332
  22   2.0000      -0.560392       -15.2491
  23   2.0000      -0.544735       -14.8230
  24   2.0000      -0.532986       -14.5033
  25   2.0000      -0.509691       -13.8694
  26   2.0000      -0.494109       -13.4454
  27   2.0000      -0.491649       -13.3785
  28   2.0000      -0.473410       -12.8821
  29   2.0000      -0.442934       -12.0529
  30   0.0000       0.098126         2.6701
  31   0.0000       0.120905         3.2900
  32   0.0000       0.145774         3.9667
  33   0.0000       0.162073         4.4102
  34   0.0000       0.187672         5.1068

MULLIKEN ATOMIC CHARGES
-----------------------
   0 O :   -0.739209
   1 H :    0.330277
   2 H :    0.366674
   3 O :   -0.708509
   4 H :    0.357531
   5 H :    0.374778
   6 O :   -0.688056
   7 H :    0.333552
   8 H :    0.351989
   9 O :   -0.712412
  10 H :    0.367301
  11 H :    0.376014
  12 O :   -0.736163
  13 H :    0.364308
  14 H :    0.331290
  15 O :   -0.714718
  16 H :    0.380903
  17 H :    0.364449
Sum of atomic charges:   -0.0000000

LOEWDIN ATOMIC CHARGES
----------------------
   0 O :   -0.344572
   1 H :    0.150214
   2 H :    0.142165
   3 O :   -0.313341
   4 H :    0.166168
   5 H :    0.193964
   6 O :   -0.341641
   7 H :    0.155486
   8 H :    0.183627
   9 O :   -0.279009
  10 H :    0.177559
  11 H :    0.186561
  12 O :   -0.373190
  13 H :    0.145879
  14 H :    0.131381
  15 O :   -0.285476
  16 H :    0.155159
  17 H :    0.149069

  Mayer bond orders larger than 0.100000
B(  0-O ,  1-H ) :   0.8538 B(  0-O ,  2-H ) :   0.7560 B(  2-H , 15-O ) :   0.1064
B(  3-O ,  4-H ) :   0.8389 B(  3-O ,  5-H ) :   0.8196 B(  6-O ,  7-H ) :   0.8560
B(  6-O ,  8-H ) :   0.8378 B(  9-O , 10-H ) :   0.8301 B(  9-O , 11-H ) :   0.8189
B( 12-O , 13-H ) :   0.8171 B( 12-O , 14-H ) :   0.8272 B( 15-O , 16-H ) :   0.8120
B( 15-O , 17-H ) :   0.8058

MP2 TOTAL ENERGY:     -457.918435988 Eh
FINAL SINGLE POINT ENERGY      -457.918435987645

DIPOLE MOMENT
-------------
                                X             Y             Z
Electronic contribution:     -0.45292      -0.04428       0.09565
Nuclear contribution   :     -0.79485      -0.14644      -0.05351
                        -----------------------------------------
Total Dipole Moment    :     -1.24777      -0.19071       0.04214
                        -----------------------------------------
Magnitude (a.u.)       :      1.26296
Magnitude (Debye)      :      3.21020

Rotational constants in cm-1:     0.052006     0.024733     0.022009
Rotational constants in MHz :  1559.092087   741.466778   659.806535

                             ****ORCA TERMINATED NORMALLY****
TOTAL RUN TIME: 0 days 0 hours 0 minutes 54 seconds 676 msec
