                         Program Version 4.2.0 -  RELEASE  -
|  1> # 12h2o.su.etal.mol2,3,4,5,6,9
|  2> ! MP2 def2-TZVP EnGrad TightSCF
|  3>
|  4> %pal
|  5>     nprocs 6
|  6> end
|  7>
|  8> %maxcore 8000
|  9>
| 10> %scf
| 11>     ConvForced true
| 12> end
| 13>
| 14> *xyz 0 1
| 15> O   0.923410000  -1.794470000  -2.768350000
| 16> H   1.359750000  -2.338250000  -3.430940000
| 17> H   1.303000000  -0.879480000  -2.865760000
| 18> O  -1.752130000  -0.741530000  -2.896280000
| 19> H  -2.036450000  -0.920500000  -1.984040000
| 20> H  -0.921210000  -1.242140000  -2.984230000
| 21> O  -0.885520000   1.737840000   0.052730000
| 22> H  -1.032320000   2.090180000  -0.841890000
| 23> H  -1.284090000   0.839590000   0.017130000
| 24> O   0.885520000  -1.737840000   0.052730000
| 25> H   1.284090000  -0.839590000   0.017130000
| 26> H   1.032320000  -2.090180000  -0.841890000
| 27> O   1.737840000   0.885520000  -0.052730000
| 28> H   2.090180000   1.032320000   0.841890000
| 29> H   0.839590000   1.284090000  -0.017130000
| 30> O   0.741530000  -1.752130000   2.896280000
| 31> H   0.920500000  -2.036450000   1.984040000
| 32> H   1.242140000  -0.921210000   2.984230000
| 33> *
| 34>
| 35>                          ****END OF INPUT****

CARTESIAN COORDINATES (ANGSTROEM)
---------------------------------
  O      0.923410   -1.794470   -2.768350
  H      1.359750   -2.338250   -3.430940
  H      1.303000   -0.879480   -2.865760
  O     -1.752130   -0.741530   -2.896280
  H     -2.036450   -0.920500   -1.984040
  H     -0.921210   -1.242140   -2.984230
  O     -0.885520    1.737840    0.052730
  H     -1.032320    2.090180   -0.841890
  H     -1.284090    0.839590    0.017130
  O      0.885520   -1.737840    0.052730
  H      1.284090   -0.839590    0.017130
  H      1.032320   -2.090180   -0.841890
  O      1.737840    0.885520   -0.052730
  H      2.090180    1.032320    0.841890
  H      0.839590    1.284090   -0.017130
  O      0.741530   -1.752130    2.896280
  H      0.920500   -2.036450    1.984040
  H      1.242140   -0.921210    2.984230

 Total Charge           Charge          ....    0
 Multiplicity           Mult            ....    1
 Number of Electrons    NEL             ....   60
 Basis Dimension        Dim             ....  258

ORBITAL ENERGIES
----------------

  NO   OCC          E(Eh)            E(eV)
   0   2.0000     -20.617657      -561.0350
   1   2.0000     -20.604210      -560.6691
   2   2.0000     -20.576232      -559.9077
   3   2.0000     -20.552978      -559.2750
   4   2.0000     -20.535545      -558.8006
   5   2.0000     -20.524978      -558.5130
   6   2.0000      -1.397883       -38.0383
   7   2.0000      -1.386276       -37.7225
   8   2.0000      -1.360731       -37.0274
   9   2.0000      -1.335080       -36.3294
  10   2.0000      -1.322869       -35.9971
  11   2.0000      -1.305575       -35.5265
  12   2.0000      -0.763553       -20.7773
  13   2.0000      -0.742098       -20.1935
  14   2.0000      -0.730078       -19.8664
  15   2.0000      -0.705565       -19.1994
  16   2.0000      -0.703562       -19.1449
  17   2.0000      -0.674445       -18.3526
  18   2.0000      -0.639423       -17.3996
  19   2.0000      -0.628999       -17.1159
  20   2.0000      -0.606255       -16.4970
  21   2.0000      -0.588202       -16.0058
  22   2.0000      -0.570666       -15.5286
  23   2.0000      -0.551983       -15.0202
  24   2.0000      -0.540898       -14.7186
  25   2.0000      -0.535490       -14.5714
  26   2.0000      -0.513693       -13.9783
  27   2.0000      -0.500165       -13.6102
  28   2.0000      -0.487149       -13.2560
  29   2.0000      -0.471179       -12.8214
  30   0.0000       0.082496         2.2448
  31   0.0000       0.112185         3.0527
  32   0.0000       0.125563         3.4167
  33   0.0000       0.157302         4.2804
  34   0.0000       0.178094         4.8462

MULLIKEN ATOMIC CHARGES
-----------------------
   0 O :   -0.716155
   1 H :    0.365393
   2 H :    0.375095
   3 O :   -0.702794
   4 H :    0.327989
   5 H :    0.361230
   6 O :   -0.687012
   7 H :    0.363283
   8 H :    0.362452
   9 O :   -0.745248
  10 H :    0.337936
  11 H :    0.364346
  12 O :   -0.713914
  13 H :    0.347724
  14 H :    0.371638
  15 O :   -0.694025
  16 H :    0.375530
  17 H :    0.306532
Sum of atomic charges:   -0.0000000

LOEWDIN ATOMIC CHARGES
----------------------
   0 O :   -0.287147
   1 H :    0.168564
   2 H :    0.193287
   3 O :   -0.343860
   4 H :    0.157635
   5 H :    0.147885
   6 O :   -0.286288
   7 H :    0.175337
   8 H :    0.179984
   9 O :   -0.349126
  10 H :    0.135393
  11 H :    0.145903
  12 O :   -0.312205
  13 H :    0.165912
  14 H :    0.146095
  15 O :   -0.342041
  16 H :    0.153308
  17 H :    0.151364

  Mayer bond orders larger than 0.100000
B(  0-O ,  1-H ) :   0.8313 B(  0-O ,  2-H ) :   0.8174 B(  3-O ,  4-H ) :   0.8565
B(  3-O ,  5-H ) :   0.8189 B(  6-O ,  7-H ) :   0.8328 B(  6-O ,  8-H ) :   0.8270
B(  9-O , 10-H ) :   0.7826 B(  9-O , 11-H ) :   0.8228 B( 12-O , 13-H ) :   0.8435
B( 12-O , 14-H ) :   0.7739 B( 15-O , 16-H ) :   0.8114 B( 15-O , 17-H ) :   0.8695

MP2 TOTAL ENERGY:     -457.921149636 Eh
FINAL SINGLE POINT ENERGY      -457.921149635880

DIPOLE MOMENT
-------------
                                X             Y             Z
Electronic contribution:     -0.24694       0.10206      -0.17821
Nuclear contribution   :      1.24538       0.65224      -1.40687
                        -----------------------------------------
Total Dipole Moment    :      0.99844       0.75430      -1.58508
                        -----------------------------------------
Magnitude (a.u.)       :      2.01949
Magnitude (Debye)      :      5.13313

Rotational constants in cm-1:     0.049779     0.030389     0.024944
Rotational constants in MHz :  1492.332256   911.027998   747.787376

                             ****ORCA TERMINATED NORMALLY****
TOTAL RUN TIME: 0 days 0 hours 1 minutes 21 seconds 821 msec
