                         Program Version 4.2.0 -  RELEASE  -
|  1> # 12h2o.su.etal.mol2,3,4,9
|  2> ! MP2 def2-TZVP EnGrad TightSCF
|  3>
|  4> %pal
|  5>     nprocs 6
|  6> end
|  7>
|  8> %maxcore 8000
|  9>
| 10> %scf
| 11>     ConvForced true
| 12> end
| 13>
| 14> *xyz 0 1
| 15> O   0.923410000  -1.794470000  -2.768350000
| 16> H   1.359750000  -2.338250000  -3.430940000
| 17> H   1.303000000  -0.879480000  -2.865760000
| 18> O  -1.752130000  -0.741530000  -2.896280000
| 19> H  -2.036450000  -0.920500000  -1.984040000
| 20> H  -0.921210000  -1.242140000  -2.984230000
| 21> O  -0.885520000   1.737840000   0.052730000
| 22> H  -1.032320000   2.090180000  -0.841890000
| 23> H  -1.284090000   0.839590000   0.017130000
| 24> O   0.741530000  -1.752130000   2.896280000
| 25> H   0.920500000  -2.036450000   1.984040000
| 26> H   1.242140000  -0.921210000   2.984230000
| 27> *
| 28>
| 29>                          ****END OF INPUT****

CARTESIAN COORDINATES (ANGSTROEM)
---------------------------------
  O      0.923410   -1.794470   -2.768350
  H      1.359750   -2.338250   -3.430940
  H      1.303000   -0.879480   -2.865760
  O     -1.752130   -0.741530   -2.896280
  H     -2.036450   -0.920500   -1.984040
  H     -0.921210   -1.242140   -2.984230
  O     -0.885520    1.737840    0.052730
  H     -1.032320    2.090180   -0.841890
  H     -1.284090    0.839590    0.017130
  O      0.741530   -1.752130    2.896280
  H      0.920500   -2.036450    1.984040
  H      1.242140   -0.921210    2.984230

 Total Charge           Charge          ....    0
 Multiplicity           Mult            ....    1
 Number of Electrons    NEL             ....   40
 Basis Dimension        Dim             ....  172

ORBITAL ENERGIES
----------------

  NO   OCC          E(Eh)            E(eV)
   0   2.0000     -20.602005      -560.6091
   1   2.0000     -20.564210      -559.5806
   2   2.0000     -20.560474      -559.4789
   3   2.0000     -20.548611      -559.1561
   4   2.0000      -1.379679       -37.5430
   5   2.0000      -1.340098       -36.4659
   6   2.0000      -1.339705       -36.4552
   7   2.0000      -1.330660       -36.2091
   8   2.0000      -0.746894       -20.3240
   9   2.0000      -0.702663       -19.1204
  10   2.0000      -0.702508       -19.1162
  11   2.0000      -0.699394       -19.0315
  12   2.0000      -0.619595       -16.8600
  13   2.0000      -0.579797       -15.7771
  14   2.0000      -0.577253       -15.7078
  15   2.0000      -0.572322       -15.5737
  16   2.0000      -0.539067       -14.6688
  17   2.0000      -0.507325       -13.8050
  18   2.0000      -0.504578       -13.7303
  19   2.0000      -0.495506       -13.4834
  20   0.0000       0.087587         2.3834
  21   0.0000       0.119032         3.2390
  22   0.0000       0.136529         3.7151
  23   0.0000       0.166926         4.5423
  24   0.0000       0.184159         5.0112

MULLIKEN ATOMIC CHARGES
-----------------------
   0 O :   -0.698250
   1 H :    0.357331
   2 H :    0.361868
   3 O :   -0.699610
   4 H :    0.322062
   5 H :    0.359566
   6 O :   -0.677046
   7 H :    0.342474
   8 H :    0.331309
   9 O :   -0.676171
  10 H :    0.335688
  11 H :    0.340780
Sum of atomic charges:    0.0000000

LOEWDIN ATOMIC CHARGES
----------------------
   0 O :   -0.311596
   1 H :    0.165742
   2 H :    0.188836
   3 O :   -0.344056
   4 H :    0.155646
   5 H :    0.148069
   6 O :   -0.336997
   7 H :    0.166615
   8 H :    0.167543
   9 O :   -0.332710
  10 H :    0.164635
  11 H :    0.168272

  Mayer bond orders larger than 0.100000
B(  0-O ,  1-H ) :   0.8389 B(  0-O ,  2-H ) :   0.8297 B(  3-O ,  4-H ) :   0.8604
B(  3-O ,  5-H ) :   0.8155 B(  6-O ,  7-H ) :   0.8491 B(  6-O ,  8-H ) :   0.8528
B(  9-O , 10-H ) :   0.8540 B(  9-O , 11-H ) :   0.8509

MP2 TOTAL ENERGY:     -305.261676915 Eh
FINAL SINGLE POINT ENERGY      -305.261676915133

DIPOLE MOMENT
-------------
                                X             Y             Z
Electronic contribution:      0.00502      -0.03533       0.16732
Nuclear contribution   :      1.24583      -0.25610      -1.40687
                        -----------------------------------------
Total Dipole Moment    :      1.25085      -0.29144      -1.23955
                        -----------------------------------------
Magnitude (a.u.)       :      1.78495
Magnitude (Debye)      :      4.53699

Rotational constants in cm-1:     0.074270     0.037218     0.027772
Rotational constants in MHz :  2226.564432  1115.758611   832.586216

                             ****ORCA TERMINATED NORMALLY****
TOTAL RUN TIME: 0 days 0 hours 0 minutes 13 seconds 852 msec
