                         Program Version 4.2.0 -  RELEASE  -
|  1> # 12mecn.remya.etal.2.mol4,5
|  2> ! MP2 def2-TZVP EnGrad TightSCF
|  3>
|  4> %pal
|  5>     nprocs 6
|  6> end
|  7>
|  8> %maxcore 8000
|  9>
| 10> %scf
| 11>     ConvForced true
| 12> end
| 13>
| 14> *xyz 0 1
| 15> C  -1.509690000  -0.693960000  -1.610140000
| 16> H  -1.327010000  -1.692700000  -2.017370000
| 17> H  -0.742170000  -0.000650000  -1.964400000
| 18> H  -2.491920000  -0.334310000  -1.929350000
| 19> C  -1.473570000  -0.748120000  -0.167200000
| 20> N  -1.447490000  -0.793720000   0.998938000
| 21> C  -1.955700000   2.515080000   1.698463000
| 22> H  -2.923830000   2.883163000   2.049269000
| 23> H  -1.154850000   3.171830000   2.050990000
| 24> H  -1.790380000   1.506115000   2.087896000
| 25> C  -1.948230000   2.482156000   0.253672000
| 26> N  -1.937550000   2.462523000  -0.913150000
| 27> *
| 28>
| 29>                          ****END OF INPUT****

CARTESIAN COORDINATES (ANGSTROEM)
---------------------------------
  C     -1.509690   -0.693960   -1.610140
  H     -1.327010   -1.692700   -2.017370
  H     -0.742170   -0.000650   -1.964400
  H     -2.491920   -0.334310   -1.929350
  C     -1.473570   -0.748120   -0.167200
  N     -1.447490   -0.793720    0.998938
  C     -1.955700    2.515080    1.698463
  H     -2.923830    2.883163    2.049269
  H     -1.154850    3.171830    2.050990
  H     -1.790380    1.506115    2.087896
  C     -1.948230    2.482156    0.253672
  N     -1.937550    2.462523   -0.913150

 Total Charge           Charge          ....    0
 Multiplicity           Mult            ....    1
 Number of Electrons    NEL             ....   44
 Basis Dimension        Dim             ....  222

ORBITAL ENERGIES
----------------

  NO   OCC          E(Eh)            E(eV)
   0   2.0000     -15.571625      -423.7254
   1   2.0000     -15.570519      -423.6953
   2   2.0000     -11.283009      -307.0263
   3   2.0000     -11.282410      -307.0100
   4   2.0000     -11.273248      -306.7607
   5   2.0000     -11.273052      -306.7553
   6   2.0000      -1.217619       -33.1331
   7   2.0000      -1.213389       -33.0180
   8   2.0000      -1.036933       -28.2164
   9   2.0000      -1.034319       -28.1453
  10   2.0000      -0.694327       -18.8936
  11   2.0000      -0.690264       -18.7830
  12   2.0000      -0.630145       -17.1471
  13   2.0000      -0.624896       -17.0043
  14   2.0000      -0.620330       -16.8800
  15   2.0000      -0.616021       -16.7628
  16   2.0000      -0.558930       -15.2093
  17   2.0000      -0.555958       -15.1284
  18   2.0000      -0.462090       -12.5741
  19   2.0000      -0.458825       -12.4853
  20   2.0000      -0.456799       -12.4301
  21   2.0000      -0.453254       -12.3337
  22   0.0000       0.125422         3.4129
  23   0.0000       0.144541         3.9332
  24   0.0000       0.173203         4.7131
  25   0.0000       0.175345         4.7714
  26   0.0000       0.180109         4.9010

MULLIKEN ATOMIC CHARGES
-----------------------
   0 C :   -0.257235
   1 H :    0.171462
   2 H :    0.179615
   3 H :    0.175459
   4 C :   -0.122010
   5 N :   -0.146776
   6 C :   -0.286334
   7 H :    0.166587
   8 H :    0.166881
   9 H :    0.204848
  10 C :   -0.115167
  11 N :   -0.137330
Sum of atomic charges:    0.0000000

LOEWDIN ATOMIC CHARGES
----------------------
   0 C :   -0.283966
   1 H :    0.150038
   2 H :    0.156962
   3 H :    0.156885
   4 C :   -0.211321
   5 N :    0.028256
   6 C :   -0.281933
   7 H :    0.151937
   8 H :    0.152210
   9 H :    0.157104
  10 C :   -0.210383
  11 N :    0.034211

  Mayer bond orders larger than 0.100000
B(  0-C ,  1-H ) :   0.9100 B(  0-C ,  2-H ) :   0.9117 B(  0-C ,  3-H ) :   0.9129
B(  0-C ,  4-C ) :   0.9112 B(  4-C ,  5-N ) :   2.7795 B(  6-C ,  7-H ) :   0.9155
B(  6-C ,  8-H ) :   0.9156 B(  6-C ,  9-H ) :   0.9034 B(  6-C , 10-C ) :   0.8983
B( 10-C , 11-N ) :   2.7952

MP2 TOTAL ENERGY:     -264.975904474 Eh
FINAL SINGLE POINT ENERGY      -264.975904474480

DIPOLE MOMENT
-------------
                                X             Y             Z
Electronic contribution:      0.09740      -0.19350      -0.02198
Nuclear contribution   :     -0.14237       0.27847       0.01444
                        -----------------------------------------
Total Dipole Moment    :     -0.04497       0.08497      -0.00754
                        -----------------------------------------
Magnitude (a.u.)       :      0.09643
Magnitude (Debye)      :      0.24511

Rotational constants in cm-1:     0.166158     0.069069     0.049719
Rotational constants in MHz :  4981.301536  2070.638739  1490.523528

                             ****ORCA TERMINATED NORMALLY****
TOTAL RUN TIME: 0 days 0 hours 1 minutes 35 seconds 872 msec
