                         Program Version 4.2.0 -  RELEASE  -
|  1> # 12meoh.boyd.etal.mol3,7,10
|  2> ! MP2 def2-TZVP EnGrad TightSCF
|  3>
|  4> %pal
|  5>     nprocs 6
|  6> end
|  7>
|  8> %maxcore 8000
|  9>
| 10> %scf
| 11>     ConvForced true
| 12> end
| 13>
| 14> *xyz 0 1
| 15> O  -3.821405976  -2.118091637   0.596795346
| 16> H  -4.342989117  -1.344303030   0.251966383
| 17> C  -3.443883586  -1.809641231   1.934889393
| 18> H  -2.831494349  -2.637429600   2.305201764
| 19> H  -4.325601146  -1.719364371   2.585074667
| 20> H  -2.858527126  -0.882644791   1.996110694
| 21> O   4.310535586  -1.588322800   0.656128299
| 22> H   3.804372199  -1.630404735  -0.196849819
| 23> C   4.312298137  -2.894980854   1.222112691
| 24> H   4.713177833  -2.819907076   2.237066773
| 25> H   4.957796734  -3.574699304   0.648211180
| 26> H   3.302735989  -3.324433205   1.269756773
| 27> O  -5.201143618   0.064582726  -0.172223772
| 28> H  -4.686891530   0.869258890   0.107806143
| 29> C  -6.513192168   0.171391798   0.359883449
| 30> H  -7.049381312  -0.749234190   0.111361174
| 31> H  -7.057741163   1.017801101  -0.081819420
| 32> H  -6.514770575   0.292264928   1.453058834
| 33> *
| 34>
| 35>                          ****END OF INPUT****

CARTESIAN COORDINATES (ANGSTROEM)
---------------------------------
  O     -3.821406   -2.118092    0.596795
  H     -4.342989   -1.344303    0.251966
  C     -3.443884   -1.809641    1.934889
  H     -2.831494   -2.637430    2.305202
  H     -4.325601   -1.719364    2.585075
  H     -2.858527   -0.882645    1.996111
  O      4.310536   -1.588323    0.656128
  H      3.804372   -1.630405   -0.196850
  C      4.312298   -2.894981    1.222113
  H      4.713178   -2.819907    2.237067
  H      4.957797   -3.574699    0.648211
  H      3.302736   -3.324433    1.269757
  O     -5.201144    0.064583   -0.172224
  H     -4.686892    0.869259    0.107806
  C     -6.513192    0.171392    0.359883
  H     -7.049381   -0.749234    0.111361
  H     -7.057741    1.017801   -0.081819
  H     -6.514771    0.292265    1.453059

 Total Charge           Charge          ....    0
 Multiplicity           Mult            ....    1
 Number of Electrons    NEL             ....   54
 Basis Dimension        Dim             ....  258

ORBITAL ENERGIES
----------------

  NO   OCC          E(Eh)            E(eV)
   0   2.0000     -20.592894      -560.3611
   1   2.0000     -20.554653      -559.3206
   2   2.0000     -20.517113      -558.2990
   3   2.0000     -11.292577      -307.2867
   4   2.0000     -11.268922      -306.6430
   5   2.0000     -11.254986      -306.2637
   6   2.0000      -1.386911       -37.7398
   7   2.0000      -1.344356       -36.5818
   8   2.0000      -1.313975       -35.7551
   9   2.0000      -0.944451       -25.6998
  10   2.0000      -0.916852       -24.9488
  11   2.0000      -0.900429       -24.5019
  12   2.0000      -0.718010       -19.5380
  13   2.0000      -0.679128       -18.4800
  14   2.0000      -0.678660       -18.4673
  15   2.0000      -0.635737       -17.2993
  16   2.0000      -0.614248       -16.7145
  17   2.0000      -0.614008       -16.7080
  18   2.0000      -0.596395       -16.2287
  19   2.0000      -0.588191       -16.0055
  20   2.0000      -0.564658       -15.3651
  21   2.0000      -0.529796       -14.4165
  22   2.0000      -0.498262       -13.5584
  23   2.0000      -0.491779       -13.3820
  24   2.0000      -0.459687       -12.5087
  25   2.0000      -0.446384       -12.1467
  26   2.0000      -0.420939       -11.4543
  27   0.0000       0.112085         3.0500
  28   0.0000       0.138156         3.7594
  29   0.0000       0.156812         4.2671
  30   0.0000       0.174578         4.7505
  31   0.0000       0.178916         4.8686

MULLIKEN ATOMIC CHARGES
-----------------------
   0 O :   -0.526238
   1 H :    0.358893
   2 C :   -0.183315
   3 H :    0.126121
   4 H :    0.096615
   5 H :    0.092337
   6 O :   -0.497444
   7 H :    0.322241
   8 C :   -0.174666
   9 H :    0.127973
  10 H :    0.108840
  11 H :    0.113056
  12 O :   -0.513829
  13 H :    0.341242
  14 C :   -0.192532
  15 H :    0.148605
  16 H :    0.127312
  17 H :    0.124790
Sum of atomic charges:    0.0000000

LOEWDIN ATOMIC CHARGES
----------------------
   0 O :   -0.122014
   1 H :    0.159015
   2 C :   -0.398890
   3 H :    0.107298
   4 H :    0.089827
   5 H :    0.088434
   6 O :   -0.109796
   7 H :    0.189814
   8 C :   -0.381368
   9 H :    0.109636
  10 H :    0.095270
  11 H :    0.096443
  12 O :   -0.070011
  13 H :    0.200025
  14 C :   -0.376663
  15 H :    0.117614
  16 H :    0.104363
  17 H :    0.101001

  Mayer bond orders larger than 0.100000
B(  0-O ,  1-H ) :   0.7925 B(  0-O ,  2-C ) :   0.9449 B(  2-C ,  3-H ) :   0.9432
B(  2-C ,  4-H ) :   0.9372 B(  2-C ,  5-H ) :   0.9388 B(  6-O ,  7-H ) :   0.8427
B(  6-O ,  8-C ) :   0.9263 B(  8-C ,  9-H ) :   0.9378 B(  8-C , 10-H ) :   0.9383
B(  8-C , 11-H ) :   0.9401 B( 12-O , 13-H ) :   0.8283 B( 12-O , 14-C ) :   0.8717
B( 14-C , 15-H ) :   0.9388 B( 14-C , 16-H ) :   0.9352 B( 14-C , 17-H ) :   0.9367

MP2 TOTAL ENERGY:     -346.528868531 Eh
FINAL SINGLE POINT ENERGY      -346.528868531184

DIPOLE MOMENT
-------------
                                X             Y             Z
Electronic contribution:      1.01714       1.14267      -3.16420
Nuclear contribution   :     -1.99514      -0.32778       3.41521
                        -----------------------------------------
Total Dipole Moment    :     -0.97801       0.81489       0.25102
                        -----------------------------------------
Magnitude (a.u.)       :      1.29752
Magnitude (Debye)      :      3.29803

Rotational constants in cm-1:     0.152363     0.008729     0.008432
Rotational constants in MHz :  4567.721093   261.694462   252.792666

                             ****ORCA TERMINATED NORMALLY****
TOTAL RUN TIME: 0 days 0 hours 0 minutes 54 seconds 76 msec
