                         Program Version 4.2.0 -  RELEASE  -
|  1> # 12h2o.su.etal.mol0,3,4,6,7,9,11
|  2> ! MP2 def2-TZVP EnGrad TightSCF
|  3>
|  4> %pal
|  5>     nprocs 6
|  6> end
|  7>
|  8> %maxcore 8000
|  9>
| 10> %scf
| 11>     ConvForced true
| 12> end
| 13>
| 14> *xyz 0 1
| 15> O   1.794470000   0.923410000   2.768350000
| 16> H   2.338250000   1.359750000   3.430940000
| 17> H   0.879480000   1.303000000   2.865760000
| 18> O  -1.752130000  -0.741530000  -2.896280000
| 19> H  -2.036450000  -0.920500000  -1.984040000
| 20> H  -0.921210000  -1.242140000  -2.984230000
| 21> O  -0.885520000   1.737840000   0.052730000
| 22> H  -1.032320000   2.090180000  -0.841890000
| 23> H  -1.284090000   0.839590000   0.017130000
| 24> O   1.737840000   0.885520000  -0.052730000
| 25> H   2.090180000   1.032320000   0.841890000
| 26> H   0.839590000   1.284090000  -0.017130000
| 27> O  -1.737840000  -0.885520000  -0.052730000
| 28> H  -2.090180000  -1.032320000   0.841890000
| 29> H  -0.839590000  -1.284090000  -0.017130000
| 30> O   0.741530000  -1.752130000   2.896280000
| 31> H   0.920500000  -2.036450000   1.984040000
| 32> H   1.242140000  -0.921210000   2.984230000
| 33> O  -0.741530000   1.752130000   2.896280000
| 34> H  -0.920500000   2.036450000   1.984040000
| 35> H  -1.242140000   0.921210000   2.984230000
| 36> *
| 37>
| 38>                          ****END OF INPUT****

CARTESIAN COORDINATES (ANGSTROEM)
---------------------------------
  O      1.794470    0.923410    2.768350
  H      2.338250    1.359750    3.430940
  H      0.879480    1.303000    2.865760
  O     -1.752130   -0.741530   -2.896280
  H     -2.036450   -0.920500   -1.984040
  H     -0.921210   -1.242140   -2.984230
  O     -0.885520    1.737840    0.052730
  H     -1.032320    2.090180   -0.841890
  H     -1.284090    0.839590    0.017130
  O      1.737840    0.885520   -0.052730
  H      2.090180    1.032320    0.841890
  H      0.839590    1.284090   -0.017130
  O     -1.737840   -0.885520   -0.052730
  H     -2.090180   -1.032320    0.841890
  H     -0.839590   -1.284090   -0.017130
  O      0.741530   -1.752130    2.896280
  H      0.920500   -2.036450    1.984040
  H      1.242140   -0.921210    2.984230
  O     -0.741530    1.752130    2.896280
  H     -0.920500    2.036450    1.984040
  H     -1.242140    0.921210    2.984230

 Total Charge           Charge          ....    0
 Multiplicity           Mult            ....    1
 Number of Electrons    NEL             ....   70
 Basis Dimension        Dim             ....  301

ORBITAL ENERGIES
----------------

  NO   OCC          E(Eh)            E(eV)
   0   2.0000     -20.637891      -561.5856
   1   2.0000     -20.593886      -560.3881
   2   2.0000     -20.593032      -560.3649
   3   2.0000     -20.566480      -559.6424
   4   2.0000     -20.554054      -559.3042
   5   2.0000     -20.551731      -559.2410
   6   2.0000     -20.512959      -558.1860
   7   2.0000      -1.421426       -38.6790
   8   2.0000      -1.387436       -37.7541
   9   2.0000      -1.376743       -37.4631
  10   2.0000      -1.352467       -36.8025
  11   2.0000      -1.335936       -36.3527
  12   2.0000      -1.332738       -36.2656
  13   2.0000      -1.297220       -35.2991
  14   2.0000      -0.778577       -21.1861
  15   2.0000      -0.754171       -20.5220
  16   2.0000      -0.740355       -20.1461
  17   2.0000      -0.734088       -19.9755
  18   2.0000      -0.710164       -19.3245
  19   2.0000      -0.701508       -19.0890
  20   2.0000      -0.682183       -18.5632
  21   2.0000      -0.660357       -17.9692
  22   2.0000      -0.640526       -17.4296
  23   2.0000      -0.615794       -16.7566
  24   2.0000      -0.597601       -16.2615
  25   2.0000      -0.580616       -15.7994
  26   2.0000      -0.575332       -15.6556
  27   2.0000      -0.565396       -15.3852
  28   2.0000      -0.555218       -15.1082
  29   2.0000      -0.530159       -14.4264
  30   2.0000      -0.522846       -14.2274
  31   2.0000      -0.506385       -13.7794
  32   2.0000      -0.500153       -13.6099
  33   2.0000      -0.498575       -13.5669
  34   2.0000      -0.463814       -12.6210
  35   0.0000       0.068886         1.8745
  36   0.0000       0.123752         3.3675
  37   0.0000       0.137117         3.7311
  38   0.0000       0.137950         3.7538
  39   0.0000       0.163424         4.4470

MULLIKEN ATOMIC CHARGES
-----------------------
   0 O :   -0.751224
   1 H :    0.349277
   2 H :    0.383182
   3 O :   -0.691294
   4 H :    0.365266
   5 H :    0.330907
   6 O :   -0.738896
   7 H :    0.374541
   8 H :    0.365016
   9 O :   -0.739126
  10 H :    0.362167
  11 H :    0.338991
  12 O :   -0.713323
  13 H :    0.371419
  14 H :    0.369825
  15 O :   -0.712267
  16 H :    0.323064
  17 H :    0.369168
  18 O :   -0.694294
  19 H :    0.393008
  20 H :    0.344593
Sum of atomic charges:    0.0000000

LOEWDIN ATOMIC CHARGES
----------------------
   0 O :   -0.313382
   1 H :    0.158676
   2 H :    0.146291
   3 O :   -0.335291
   4 H :    0.149259
   5 H :    0.163615
   6 O :   -0.296254
   7 H :    0.178655
   8 H :    0.144156
   9 O :   -0.372037
  10 H :    0.143537
  11 H :    0.132322
  12 O :   -0.272750
  13 H :    0.177082
  14 H :    0.183117
  15 O :   -0.347641
  16 H :    0.154603
  17 H :    0.149438
  18 O :   -0.271236
  19 H :    0.160248
  20 H :    0.167592

  Mayer bond orders larger than 0.100000
B(  0-O ,  1-H ) :   0.8406 B(  0-O ,  2-H ) :   0.7444 B(  3-O ,  4-H ) :   0.8295
B(  3-O ,  5-H ) :   0.8562 B(  6-O ,  7-H ) :   0.8251 B(  6-O ,  8-H ) :   0.7761
B(  9-O , 10-H ) :   0.8221 B(  9-O , 11-H ) :   0.8146 B( 12-O , 13-H ) :   0.8253
B( 12-O , 14-H ) :   0.8152 B( 15-O , 16-H ) :   0.8590 B( 15-O , 17-H ) :   0.8022
B( 18-O , 19-H ) :   0.7957 B( 18-O , 20-H ) :   0.8417

MP2 TOTAL ENERGY:     -534.251305745 Eh
FINAL SINGLE POINT ENERGY      -534.251305744738

DIPOLE MOMENT
-------------
                                X             Y             Z
Electronic contribution:     -0.43660       0.21004      -0.01249
Nuclear contribution   :     -0.30796      -0.34090       0.72077
                        -----------------------------------------
Total Dipole Moment    :     -0.74455      -0.13087       0.70828
                        -----------------------------------------
Magnitude (a.u.)       :      1.03593
Magnitude (Debye)      :      2.63312

Rotational constants in cm-1:     0.048177     0.021865     0.020576
Rotational constants in MHz :  1444.306789   655.502032   616.839276

                             ****ORCA TERMINATED NORMALLY****
TOTAL RUN TIME: 0 days 0 hours 2 minutes 8 seconds 334 msec
