                         Program Version 4.2.0 -  RELEASE  -
|  1> ! MP2 def2-TZVP EnGrad TightSCF FrozenCore
|  2>
|  3> %pal
|  4>     nprocs 8
|  5> end
|  6>
|  7> %maxcore 8000
|  8>
|  9> %scf
| 10>     ConvForced true
| 11> end
| 12>
| 13> *xyz 0 1
| 14> O   1.480055497  -1.699467762  -0.557907291
| 15> H   0.512555497  -1.868967762  -0.546707291
| 16> H   1.683855497  -1.544867762  -1.489007291
| 17> O  -1.296044503  -1.919267762  -0.364807291
| 18> H  -1.514844503  -1.060567762   0.052792709
| 19> H  -1.606844503  -2.582267762   0.264492709
| 20> O  -1.408844503   0.611432238   0.875292709
| 21> H  -1.888744503   0.840432238   1.680792709
| 22> H  -0.446444503   0.576132238   1.128992709
| 23> O   1.261555497   0.624032238   1.004492709
| 24> H   1.245955497   1.310332238   0.313392709
| 25> H   1.502855497  -0.191767762   0.514492709
| 26> O   0.045355497   2.339432238  -0.990207291
| 27> H  -0.069144503   3.286632238  -0.841807291
| 28> H  -0.722144503   1.930832238  -0.551407291
| 29> *
| 30>
| 31>
| 32>                          ****END OF INPUT****

CARTESIAN COORDINATES (ANGSTROEM)
---------------------------------
  O      1.480055   -1.699468   -0.557907
  H      0.512555   -1.868968   -0.546707
  H      1.683855   -1.544868   -1.489007
  O     -1.296045   -1.919268   -0.364807
  H     -1.514845   -1.060568    0.052793
  H     -1.606845   -2.582268    0.264493
  O     -1.408845    0.611432    0.875293
  H     -1.888745    0.840432    1.680793
  H     -0.446445    0.576132    1.128993
  O      1.261555    0.624032    1.004493
  H      1.245955    1.310332    0.313393
  H      1.502855   -0.191768    0.514493
  O      0.045355    2.339432   -0.990207
  H     -0.069145    3.286632   -0.841807
  H     -0.722145    1.930832   -0.551407

 Total Charge           Charge          ....    0
 Multiplicity           Mult            ....    1
 Number of Electrons    NEL             ....   50
 Basis Dimension        Dim             ....  215

ORBITAL ENERGIES
----------------

  NO   OCC          E(Eh)            E(eV)
   0   2.0000     -20.574069      -559.8489
   1   2.0000     -20.565357      -559.6118
   2   2.0000     -20.564134      -559.5785
   3   2.0000     -20.550422      -559.2054
   4   2.0000     -20.544135      -559.0343
   5   2.0000      -1.367836       -37.2207
   6   2.0000      -1.352450       -36.8020
   7   2.0000      -1.347607       -36.6702
   8   2.0000      -1.338287       -36.4167
   9   2.0000      -1.324182       -36.0328
  10   2.0000      -0.741271       -20.1710
  11   2.0000      -0.720871       -19.6159
  12   2.0000      -0.710577       -19.3358
  13   2.0000      -0.707950       -19.2643
  14   2.0000      -0.695377       -18.9222
  15   2.0000      -0.616681       -16.7808
  16   2.0000      -0.599950       -16.3255
  17   2.0000      -0.591600       -16.0983
  18   2.0000      -0.580182       -15.7875
  19   2.0000      -0.560001       -15.2384
  20   2.0000      -0.523289       -14.2394
  21   2.0000      -0.511119       -13.9082
  22   2.0000      -0.508509       -13.8372
  23   2.0000      -0.497997       -13.5512
  24   2.0000      -0.488681       -13.2977
  25   0.0000       0.111917         3.0454
  26   0.0000       0.145132         3.9493
  27   0.0000       0.153497         4.1769
  28   0.0000       0.171666         4.6713
  29   0.0000       0.236664         6.4400

MULLIKEN ATOMIC CHARGES
-----------------------
   0 O :   -0.729255
   1 H :    0.378978
   2 H :    0.344787
   3 O :   -0.718301
   4 H :    0.382713
   5 H :    0.344590
   6 O :   -0.757520
   7 H :    0.348657
   8 H :    0.386003
   9 O :   -0.737949
  10 H :    0.361839
  11 H :    0.395592
  12 O :   -0.706859
  13 H :    0.341281
  14 H :    0.365444
Sum of atomic charges:    0.0000000

LOEWDIN ATOMIC CHARGES
----------------------
   0 O :   -0.316012
   1 H :    0.150364
   2 H :    0.161663
   3 O :   -0.305991
   4 H :    0.153634
   5 H :    0.162419
   6 O :   -0.321135
   7 H :    0.160637
   8 H :    0.150132
   9 O :   -0.304449
  10 H :    0.151707
  11 H :    0.154550
  12 O :   -0.316171
  13 H :    0.162229
  14 H :    0.156422

  Mayer bond orders larger than 0.100000
B(  0-O ,  1-H ) :   0.7780 B(  0-O ,  2-H ) :   0.8462 B(  3-O ,  4-H ) :   0.7864
B(  3-O ,  5-H ) :   0.8455 B(  6-O ,  7-H ) :   0.8412 B(  6-O ,  8-H ) :   0.7257
B(  8-H ,  9-O ) :   0.1237 B(  9-O , 10-H ) :   0.8114 B(  9-O , 11-H ) :   0.7762
B( 12-O , 13-H ) :   0.8484 B( 12-O , 14-H ) :   0.8116

MP2 TOTAL ENERGY:     -381.624754620 Eh
FINAL SINGLE POINT ENERGY      -381.624754619705

DIPOLE MOMENT
-------------
                                X             Y             Z
Electronic contribution:      0.17394      -0.13214      -0.09547
Nuclear contribution   :     -1.22116       0.65224       0.49301
                        -----------------------------------------
Total Dipole Moment    :     -1.04722       0.52010       0.39754
                        -----------------------------------------
Magnitude (a.u.)       :      1.23499
Magnitude (Debye)      :      3.13909

Rotational constants in cm-1:     0.086787     0.057363     0.045122
Rotational constants in MHz :  2601.798706  1719.695794  1352.710522

                             ****ORCA TERMINATED NORMALLY****
TOTAL RUN TIME: 0 days 0 hours 0 minutes 39 seconds 277 msec
