                         Program Version 4.2.0 -  RELEASE  -
|  1> # 12h2o.su.etal.mol1,2,3,4,11
|  2> ! MP2 def2-TZVP EnGrad TightSCF
|  3>
|  4> %pal
|  5>     nprocs 6
|  6> end
|  7>
|  8> %maxcore 8000
|  9>
| 10> %scf
| 11>     ConvForced true
| 12> end
| 13>
| 14> *xyz 0 1
| 15> O  -1.794470000  -0.923410000   2.768350000
| 16> H  -2.338250000  -1.359750000   3.430940000
| 17> H  -0.879480000  -1.303000000   2.865760000
| 18> O   0.923410000  -1.794470000  -2.768350000
| 19> H   1.359750000  -2.338250000  -3.430940000
| 20> H   1.303000000  -0.879480000  -2.865760000
| 21> O  -1.752130000  -0.741530000  -2.896280000
| 22> H  -2.036450000  -0.920500000  -1.984040000
| 23> H  -0.921210000  -1.242140000  -2.984230000
| 24> O  -0.885520000   1.737840000   0.052730000
| 25> H  -1.032320000   2.090180000  -0.841890000
| 26> H  -1.284090000   0.839590000   0.017130000
| 27> O  -0.741530000   1.752130000   2.896280000
| 28> H  -0.920500000   2.036450000   1.984040000
| 29> H  -1.242140000   0.921210000   2.984230000
| 30> *
| 31>
| 32>                          ****END OF INPUT****

CARTESIAN COORDINATES (ANGSTROEM)
---------------------------------
  O     -1.794470   -0.923410    2.768350
  H     -2.338250   -1.359750    3.430940
  H     -0.879480   -1.303000    2.865760
  O      0.923410   -1.794470   -2.768350
  H      1.359750   -2.338250   -3.430940
  H      1.303000   -0.879480   -2.865760
  O     -1.752130   -0.741530   -2.896280
  H     -2.036450   -0.920500   -1.984040
  H     -0.921210   -1.242140   -2.984230
  O     -0.885520    1.737840    0.052730
  H     -1.032320    2.090180   -0.841890
  H     -1.284090    0.839590    0.017130
  O     -0.741530    1.752130    2.896280
  H     -0.920500    2.036450    1.984040
  H     -1.242140    0.921210    2.984230

 Total Charge           Charge          ....    0
 Multiplicity           Mult            ....    1
 Number of Electrons    NEL             ....   50
 Basis Dimension        Dim             ....  215

ORBITAL ENERGIES
----------------

  NO   OCC          E(Eh)            E(eV)
   0   2.0000     -20.598247      -560.5068
   1   2.0000     -20.590195      -560.2877
   2   2.0000     -20.574124      -559.8504
   3   2.0000     -20.547226      -559.1184
   4   2.0000     -20.499996      -557.8333
   5   2.0000      -1.375957       -37.4417
   6   2.0000      -1.367814       -37.2201
   7   2.0000      -1.352367       -36.7998
   8   2.0000      -1.329245       -36.1706
   9   2.0000      -1.285374       -34.9768
  10   2.0000      -0.743209       -20.2237
  11   2.0000      -0.734895       -19.9975
  12   2.0000      -0.714829       -19.4515
  13   2.0000      -0.698095       -18.9961
  14   2.0000      -0.663913       -18.0660
  15   2.0000      -0.616110       -16.7652
  16   2.0000      -0.609183       -16.5767
  17   2.0000      -0.589401       -16.0384
  18   2.0000      -0.570353       -15.5201
  19   2.0000      -0.541007       -14.7215
  20   2.0000      -0.535807       -14.5800
  21   2.0000      -0.521007       -14.1773
  22   2.0000      -0.508013       -13.8237
  23   2.0000      -0.494211       -13.4482
  24   2.0000      -0.449924       -12.2431
  25   0.0000       0.091498         2.4898
  26   0.0000       0.111043         3.0216
  27   0.0000       0.132423         3.6034
  28   0.0000       0.168018         4.5720
  29   0.0000       0.185262         5.0412

MULLIKEN ATOMIC CHARGES
-----------------------
   0 O :   -0.698416
   1 H :    0.354506
   2 H :    0.361820
   3 O :   -0.696605
   4 H :    0.355901
   5 H :    0.362246
   6 O :   -0.701255
   7 H :    0.323715
   8 H :    0.359956
   9 O :   -0.691706
  10 H :    0.349910
  11 H :    0.341395
  12 O :   -0.725380
  13 H :    0.365035
  14 H :    0.338878
Sum of atomic charges:   -0.0000000

LOEWDIN ATOMIC CHARGES
----------------------
   0 O :   -0.313136
   1 H :    0.164225
   2 H :    0.188595
   3 O :   -0.310807
   4 H :    0.165122
   5 H :    0.189098
   6 O :   -0.344750
   7 H :    0.156092
   8 H :    0.148290
   9 O :   -0.316925
  10 H :    0.169603
  11 H :    0.171112
  12 O :   -0.355720
  13 H :    0.149821
  14 H :    0.139380

  Mayer bond orders larger than 0.100000
B(  0-O ,  1-H ) :   0.8407 B(  0-O ,  2-H ) :   0.8297 B(  3-O ,  4-H ) :   0.8398
B(  3-O ,  5-H ) :   0.8296 B(  6-O ,  7-H ) :   0.8599 B(  6-O ,  8-H ) :   0.8145
B(  9-O , 10-H ) :   0.8412 B(  9-O , 11-H ) :   0.8408 B( 12-O , 13-H ) :   0.8276
B( 12-O , 14-H ) :   0.8345

MP2 TOTAL ENERGY:     -381.587057777 Eh
FINAL SINGLE POINT ENERGY      -381.587057776781

DIPOLE MOMENT
-------------
                                X             Y             Z
Electronic contribution:      0.08835       0.04846      -0.06168
Nuclear contribution   :      0.42350      -1.84519      -0.77428
                        -----------------------------------------
Total Dipole Moment    :      0.51185      -1.79672      -0.83596
                        -----------------------------------------
Magnitude (a.u.)       :      2.04671
Magnitude (Debye)      :      5.20233

Rotational constants in cm-1:     0.081813     0.022944     0.021316
Rotational constants in MHz :  2452.686192   687.853910   639.031934

                             ****ORCA TERMINATED NORMALLY****
TOTAL RUN TIME: 0 days 0 hours 0 minutes 28 seconds 103 msec
