                         Program Version 4.2.0 -  RELEASE  -
|  1> # 12h2o.su.etal.mol1,2,3,5,8
|  2> ! MP2 def2-TZVP EnGrad TightSCF
|  3>
|  4> %pal
|  5>     nprocs 6
|  6> end
|  7>
|  8> %maxcore 8000
|  9>
| 10> %scf
| 11>     ConvForced true
| 12> end
| 13>
| 14> *xyz 0 1
| 15> O  -1.794470000  -0.923410000   2.768350000
| 16> H  -2.338250000  -1.359750000   3.430940000
| 17> H  -0.879480000  -1.303000000   2.865760000
| 18> O   0.923410000  -1.794470000  -2.768350000
| 19> H   1.359750000  -2.338250000  -3.430940000
| 20> H   1.303000000  -0.879480000  -2.865760000
| 21> O  -1.752130000  -0.741530000  -2.896280000
| 22> H  -2.036450000  -0.920500000  -1.984040000
| 23> H  -0.921210000  -1.242140000  -2.984230000
| 24> O   0.885520000  -1.737840000   0.052730000
| 25> H   1.284090000  -0.839590000   0.017130000
| 26> H   1.032320000  -2.090180000  -0.841890000
| 27> O   1.752130000   0.741530000  -2.896280000
| 28> H   2.036450000   0.920500000  -1.984040000
| 29> H   0.921210000   1.242140000  -2.984230000
| 30> *
| 31>
| 32>                          ****END OF INPUT****

CARTESIAN COORDINATES (ANGSTROEM)
---------------------------------
  O     -1.794470   -0.923410    2.768350
  H     -2.338250   -1.359750    3.430940
  H     -0.879480   -1.303000    2.865760
  O      0.923410   -1.794470   -2.768350
  H      1.359750   -2.338250   -3.430940
  H      1.303000   -0.879480   -2.865760
  O     -1.752130   -0.741530   -2.896280
  H     -2.036450   -0.920500   -1.984040
  H     -0.921210   -1.242140   -2.984230
  O      0.885520   -1.737840    0.052730
  H      1.284090   -0.839590    0.017130
  H      1.032320   -2.090180   -0.841890
  O      1.752130    0.741530   -2.896280
  H      2.036450    0.920500   -1.984040
  H      0.921210    1.242140   -2.984230

 Total Charge           Charge          ....    0
 Multiplicity           Mult            ....    1
 Number of Electrons    NEL             ....   50
 Basis Dimension        Dim             ....  215

ORBITAL ENERGIES
----------------

  NO   OCC          E(Eh)            E(eV)
   0   2.0000     -20.616557      -561.0050
   1   2.0000     -20.572900      -559.8171
   2   2.0000     -20.551602      -559.2375
   3   2.0000     -20.544773      -559.0517
   4   2.0000     -20.529148      -558.6265
   5   2.0000      -1.402699       -38.1694
   6   2.0000      -1.359387       -36.9908
   7   2.0000      -1.326999       -36.1095
   8   2.0000      -1.323199       -36.0061
   9   2.0000      -1.311399       -35.6850
  10   2.0000      -0.758735       -20.6462
  11   2.0000      -0.741533       -20.1781
  12   2.0000      -0.695523       -18.9261
  13   2.0000      -0.692750       -18.8507
  14   2.0000      -0.681671       -18.5492
  15   2.0000      -0.643290       -17.5048
  16   2.0000      -0.604028       -16.4364
  17   2.0000      -0.571962       -15.5639
  18   2.0000      -0.563357       -15.3297
  19   2.0000      -0.557137       -15.1605
  20   2.0000      -0.541564       -14.7367
  21   2.0000      -0.514706       -14.0059
  22   2.0000      -0.494982       -13.4691
  23   2.0000      -0.489784       -13.3277
  24   2.0000      -0.477060       -12.9815
  25   0.0000       0.083880         2.2825
  26   0.0000       0.135228         3.6797
  27   0.0000       0.143561         3.9065
  28   0.0000       0.161392         4.3917
  29   0.0000       0.179770         4.8918

MULLIKEN ATOMIC CHARGES
-----------------------
   0 O :   -0.686359
   1 H :    0.334596
   2 H :    0.350235
   3 O :   -0.747175
   4 H :    0.351141
   5 H :    0.378991
   6 O :   -0.718600
   7 H :    0.341059
   8 H :    0.358909
   9 O :   -0.686722
  10 H :    0.305781
  11 H :    0.368610
  12 O :   -0.681739
  13 H :    0.353880
  14 H :    0.377392
Sum of atomic charges:   -0.0000000

LOEWDIN ATOMIC CHARGES
----------------------
   0 O :   -0.340727
   1 H :    0.155940
   2 H :    0.182974
   3 O :   -0.311550
   4 H :    0.159594
   5 H :    0.145313
   6 O :   -0.351705
   7 H :    0.164648
   8 H :    0.145000
   9 O :   -0.343409
  10 H :    0.155713
  11 H :    0.148902
  12 O :   -0.265886
  13 H :    0.171573
  14 H :    0.183620

  Mayer bond orders larger than 0.100000
B(  0-O ,  1-H ) :   0.8554 B(  0-O ,  2-H ) :   0.8396 B(  3-O ,  4-H ) :   0.8400
B(  3-O ,  5-H ) :   0.7530 B(  6-O ,  7-H ) :   0.8499 B(  6-O ,  8-H ) :   0.8167
B(  9-O , 10-H ) :   0.8672 B(  9-O , 11-H ) :   0.8135 B( 12-O , 13-H ) :   0.8389
B( 12-O , 14-H ) :   0.8208

MP2 TOTAL ENERGY:     -381.591960526 Eh
FINAL SINGLE POINT ENERGY      -381.591960525948

DIPOLE MOMENT
-------------
                                X             Y             Z
Electronic contribution:     -0.00407       0.18148      -0.31558
Nuclear contribution   :      1.44207       0.08423       0.59793
                        -----------------------------------------
Total Dipole Moment    :      1.43800       0.26570       0.28236
                        -----------------------------------------
Magnitude (a.u.)       :      1.48935
Magnitude (Debye)      :      3.78563

Rotational constants in cm-1:     0.079106     0.028033     0.025207
Rotational constants in MHz :  2371.538212   840.398686   755.675281

                             ****ORCA TERMINATED NORMALLY****
TOTAL RUN TIME: 0 days 0 hours 0 minutes 36 seconds 966 msec
