                         Program Version 4.2.0 -  RELEASE  -
|  1> # 12h2o.su.etal.mol2,3,4,5,6,11
|  2> ! MP2 def2-TZVP EnGrad TightSCF
|  3>
|  4> %pal
|  5>     nprocs 6
|  6> end
|  7>
|  8> %maxcore 8000
|  9>
| 10> %scf
| 11>     ConvForced true
| 12> end
| 13>
| 14> *xyz 0 1
| 15> O   0.923410000  -1.794470000  -2.768350000
| 16> H   1.359750000  -2.338250000  -3.430940000
| 17> H   1.303000000  -0.879480000  -2.865760000
| 18> O  -1.752130000  -0.741530000  -2.896280000
| 19> H  -2.036450000  -0.920500000  -1.984040000
| 20> H  -0.921210000  -1.242140000  -2.984230000
| 21> O  -0.885520000   1.737840000   0.052730000
| 22> H  -1.032320000   2.090180000  -0.841890000
| 23> H  -1.284090000   0.839590000   0.017130000
| 24> O   0.885520000  -1.737840000   0.052730000
| 25> H   1.284090000  -0.839590000   0.017130000
| 26> H   1.032320000  -2.090180000  -0.841890000
| 27> O   1.737840000   0.885520000  -0.052730000
| 28> H   2.090180000   1.032320000   0.841890000
| 29> H   0.839590000   1.284090000  -0.017130000
| 30> O  -0.741530000   1.752130000   2.896280000
| 31> H  -0.920500000   2.036450000   1.984040000
| 32> H  -1.242140000   0.921210000   2.984230000
| 33> *
| 34>
| 35>                          ****END OF INPUT****

CARTESIAN COORDINATES (ANGSTROEM)
---------------------------------
  O      0.923410   -1.794470   -2.768350
  H      1.359750   -2.338250   -3.430940
  H      1.303000   -0.879480   -2.865760
  O     -1.752130   -0.741530   -2.896280
  H     -2.036450   -0.920500   -1.984040
  H     -0.921210   -1.242140   -2.984230
  O     -0.885520    1.737840    0.052730
  H     -1.032320    2.090180   -0.841890
  H     -1.284090    0.839590    0.017130
  O      0.885520   -1.737840    0.052730
  H      1.284090   -0.839590    0.017130
  H      1.032320   -2.090180   -0.841890
  O      1.737840    0.885520   -0.052730
  H      2.090180    1.032320    0.841890
  H      0.839590    1.284090   -0.017130
  O     -0.741530    1.752130    2.896280
  H     -0.920500    2.036450    1.984040
  H     -1.242140    0.921210    2.984230

 Total Charge           Charge          ....    0
 Multiplicity           Mult            ....    1
 Number of Electrons    NEL             ....   60
 Basis Dimension        Dim             ....  258

ORBITAL ENERGIES
----------------

  NO   OCC          E(Eh)            E(eV)
   0   2.0000     -20.623332      -561.1894
   1   2.0000     -20.612100      -560.8838
   2   2.0000     -20.565583      -559.6180
   3   2.0000     -20.554240      -559.3093
   4   2.0000     -20.546499      -559.0987
   5   2.0000     -20.512322      -558.1687
   6   2.0000      -1.406479       -38.2722
   7   2.0000      -1.392352       -37.8878
   8   2.0000      -1.351268       -36.7699
   9   2.0000      -1.336230       -36.3607
  10   2.0000      -1.328380       -36.1471
  11   2.0000      -1.296472       -35.2788
  12   2.0000      -0.764298       -20.7976
  13   2.0000      -0.758100       -20.6290
  14   2.0000      -0.722640       -19.6640
  15   2.0000      -0.705935       -19.2095
  16   2.0000      -0.700782       -19.0693
  17   2.0000      -0.680947       -18.5295
  18   2.0000      -0.643978       -17.5235
  19   2.0000      -0.629905       -17.1406
  20   2.0000      -0.604831       -16.4583
  21   2.0000      -0.584361       -15.9013
  22   2.0000      -0.566027       -15.4024
  23   2.0000      -0.558838       -15.2068
  24   2.0000      -0.549967       -14.9654
  25   2.0000      -0.532701       -14.4955
  26   2.0000      -0.501426       -13.6445
  27   2.0000      -0.499964       -13.6047
  28   2.0000      -0.492589       -13.4040
  29   2.0000      -0.463229       -12.6051
  30   0.0000       0.080985         2.2037
  31   0.0000       0.110823         3.0156
  32   0.0000       0.147252         4.0069
  33   0.0000       0.150777         4.1029
  34   0.0000       0.169921         4.6238

MULLIKEN ATOMIC CHARGES
-----------------------
   0 O :   -0.714861
   1 H :    0.363078
   2 H :    0.373358
   3 O :   -0.703164
   4 H :    0.325405
   5 H :    0.363271
   6 O :   -0.713966
   7 H :    0.376108
   8 H :    0.363004
   9 O :   -0.738330
  10 H :    0.341318
  11 H :    0.354832
  12 O :   -0.718686
  13 H :    0.360290
  14 H :    0.365943
  15 O :   -0.691991
  16 H :    0.365804
  17 H :    0.328586
Sum of atomic charges:    0.0000000

LOEWDIN ATOMIC CHARGES
----------------------
   0 O :   -0.287192
   1 H :    0.167368
   2 H :    0.192492
   3 O :   -0.344382
   4 H :    0.156214
   5 H :    0.148739
   6 O :   -0.274739
   7 H :    0.180213
   8 H :    0.180047
   9 O :   -0.372265
  10 H :    0.134335
  11 H :    0.140857
  12 O :   -0.313177
  13 H :    0.172076
  14 H :    0.143331
  15 O :   -0.336086
  16 H :    0.149697
  17 H :    0.162472

  Mayer bond orders larger than 0.100000
B(  0-O ,  1-H ) :   0.8322 B(  0-O ,  2-H ) :   0.8183 B(  3-O ,  4-H ) :   0.8580
B(  3-O ,  5-H ) :   0.8160 B(  6-O ,  7-H ) :   0.8229 B(  6-O ,  8-H ) :   0.8203
B(  9-O , 10-H ) :   0.8004 B(  9-O , 11-H ) :   0.8346 B( 12-O , 13-H ) :   0.8359
B( 12-O , 14-H ) :   0.7904 B( 15-O , 16-H ) :   0.8276 B( 15-O , 17-H ) :   0.8576

MP2 TOTAL ENERGY:     -457.917519135 Eh
FINAL SINGLE POINT ENERGY      -457.917519134888

DIPOLE MOMENT
-------------
                                X             Y             Z
Electronic contribution:      0.03208       0.26691      -0.05356
Nuclear contribution   :      0.11407      -0.25770      -1.40687
                        -----------------------------------------
Total Dipole Moment    :      0.14614       0.00921      -1.46043
                        -----------------------------------------
Magnitude (a.u.)       :      1.46775
Magnitude (Debye)      :      3.73073

Rotational constants in cm-1:     0.064999     0.026410     0.022265
Rotational constants in MHz :  1948.633717   791.763593   667.473403

                             ****ORCA TERMINATED NORMALLY****
TOTAL RUN TIME: 0 days 0 hours 1 minutes 3 seconds 144 msec
