                         Program Version 4.2.0 -  RELEASE  -
|  1> # 12h2o.su.etal.mol0,1,2,4,5,7
|  2> ! MP2 def2-TZVP EnGrad TightSCF
|  3>
|  4> %pal
|  5>     nprocs 6
|  6> end
|  7>
|  8> %maxcore 8000
|  9>
| 10> %scf
| 11>     ConvForced true
| 12> end
| 13>
| 14> *xyz 0 1
| 15> O   1.794470000   0.923410000   2.768350000
| 16> H   2.338250000   1.359750000   3.430940000
| 17> H   0.879480000   1.303000000   2.865760000
| 18> O  -1.794470000  -0.923410000   2.768350000
| 19> H  -2.338250000  -1.359750000   3.430940000
| 20> H  -0.879480000  -1.303000000   2.865760000
| 21> O   0.923410000  -1.794470000  -2.768350000
| 22> H   1.359750000  -2.338250000  -3.430940000
| 23> H   1.303000000  -0.879480000  -2.865760000
| 24> O  -0.885520000   1.737840000   0.052730000
| 25> H  -1.032320000   2.090180000  -0.841890000
| 26> H  -1.284090000   0.839590000   0.017130000
| 27> O   0.885520000  -1.737840000   0.052730000
| 28> H   1.284090000  -0.839590000   0.017130000
| 29> H   1.032320000  -2.090180000  -0.841890000
| 30> O  -1.737840000  -0.885520000  -0.052730000
| 31> H  -2.090180000  -1.032320000   0.841890000
| 32> H  -0.839590000  -1.284090000  -0.017130000
| 33> *
| 34>
| 35>                          ****END OF INPUT****

CARTESIAN COORDINATES (ANGSTROEM)
---------------------------------
  O      1.794470    0.923410    2.768350
  H      2.338250    1.359750    3.430940
  H      0.879480    1.303000    2.865760
  O     -1.794470   -0.923410    2.768350
  H     -2.338250   -1.359750    3.430940
  H     -0.879480   -1.303000    2.865760
  O      0.923410   -1.794470   -2.768350
  H      1.359750   -2.338250   -3.430940
  H      1.303000   -0.879480   -2.865760
  O     -0.885520    1.737840    0.052730
  H     -1.032320    2.090180   -0.841890
  H     -1.284090    0.839590    0.017130
  O      0.885520   -1.737840    0.052730
  H      1.284090   -0.839590    0.017130
  H      1.032320   -2.090180   -0.841890
  O     -1.737840   -0.885520   -0.052730
  H     -2.090180   -1.032320    0.841890
  H     -0.839590   -1.284090   -0.017130

 Total Charge           Charge          ....    0
 Multiplicity           Mult            ....    1
 Number of Electrons    NEL             ....   60
 Basis Dimension        Dim             ....  258

ORBITAL ENERGIES
----------------

  NO   OCC          E(Eh)            E(eV)
   0   2.0000     -20.593548      -560.3789
   1   2.0000     -20.575896      -559.8986
   2   2.0000     -20.556318      -559.3658
   3   2.0000     -20.553400      -559.2864
   4   2.0000     -20.513976      -558.2137
   5   2.0000     -20.508434      -558.0629
   6   2.0000      -1.371766       -37.3277
   7   2.0000      -1.354023       -36.8448
   8   2.0000      -1.340142       -36.4671
   9   2.0000      -1.328749       -36.1571
  10   2.0000      -1.305049       -35.5122
  11   2.0000      -1.286251       -35.0007
  12   2.0000      -0.738307       -20.0904
  13   2.0000      -0.720562       -19.6075
  14   2.0000      -0.703387       -19.1401
  15   2.0000      -0.696532       -18.9536
  16   2.0000      -0.677673       -18.4404
  17   2.0000      -0.661355       -17.9964
  18   2.0000      -0.613705       -16.6998
  19   2.0000      -0.598314       -16.2809
  20   2.0000      -0.578903       -15.7527
  21   2.0000      -0.565859       -15.3978
  22   2.0000      -0.556907       -15.1542
  23   2.0000      -0.536039       -14.5864
  24   2.0000      -0.530869       -14.4457
  25   2.0000      -0.512089       -13.9347
  26   2.0000      -0.496853       -13.5200
  27   2.0000      -0.491598       -13.3771
  28   2.0000      -0.461849       -12.5675
  29   2.0000      -0.455546       -12.3960
  30   0.0000       0.100136         2.7248
  31   0.0000       0.118834         3.2336
  32   0.0000       0.146213         3.9786
  33   0.0000       0.161576         4.3967
  34   0.0000       0.190517         5.1842

MULLIKEN ATOMIC CHARGES
-----------------------
   0 O :   -0.695077
   1 H :    0.334853
   2 H :    0.360712
   3 O :   -0.699763
   4 H :    0.346233
   5 H :    0.365781
   6 O :   -0.691568
   7 H :    0.352942
   8 H :    0.354814
   9 O :   -0.727573
  10 H :    0.317800
  11 H :    0.361616
  12 O :   -0.708762
  13 H :    0.354688
  14 H :    0.376195
  15 O :   -0.730577
  16 H :    0.368167
  17 H :    0.359518
Sum of atomic charges:   -0.0000000

LOEWDIN ATOMIC CHARGES
----------------------
   0 O :   -0.342651
   1 H :    0.156476
   2 H :    0.186460
   3 O :   -0.311393
   4 H :    0.160785
   5 H :    0.188572
   6 O :   -0.308038
   7 H :    0.163884
   8 H :    0.186036
   9 O :   -0.369709
  10 H :    0.153259
  11 H :    0.141774
  12 O :   -0.300336
  13 H :    0.175123
  14 H :    0.152464
  15 O :   -0.319488
  16 H :    0.146772
  17 H :    0.140011

  Mayer bond orders larger than 0.100000
B(  0-O ,  1-H ) :   0.8547 B(  0-O ,  2-H ) :   0.8304 B(  3-O ,  4-H ) :   0.8448
B(  3-O ,  5-H ) :   0.8246 B(  6-O ,  7-H ) :   0.8414 B(  6-O ,  8-H ) :   0.8341
B(  9-O , 10-H ) :   0.8634 B(  9-O , 11-H ) :   0.7757 B( 11-H , 15-O ) :   0.1088
B( 12-O , 13-H ) :   0.8315 B( 12-O , 14-H ) :   0.8052 B( 15-O , 16-H ) :   0.8153
B( 15-O , 17-H ) :   0.7850

MP2 TOTAL ENERGY:     -457.915466975 Eh
FINAL SINGLE POINT ENERGY      -457.915466975272

DIPOLE MOMENT
-------------
                                X             Y             Z
Electronic contribution:     -0.03421      -0.36189      -0.00086
Nuclear contribution   :      1.13354      -0.14496      -0.14168
                        -----------------------------------------
Total Dipole Moment    :      1.09933      -0.50685      -0.14255
                        -----------------------------------------
Magnitude (a.u.)       :      1.21891
Magnitude (Debye)      :      3.09822

Rotational constants in cm-1:     0.047806     0.027942     0.025033
Rotational constants in MHz :  1433.183138   837.676290   750.469645

                             ****ORCA TERMINATED NORMALLY****
TOTAL RUN TIME: 0 days 0 hours 1 minutes 0 seconds 772 msec
