                         Program Version 4.2.0 -  RELEASE  -
|  1> # 12h2o.su.etal.mol1,2,4,5,6,7,8,9,11
|  2> ! MP2 def2-TZVP EnGrad TightSCF
|  3>
|  4> %pal
|  5>     nprocs 6
|  6> end
|  7>
|  8> %maxcore 8000
|  9>
| 10> %scf
| 11>     ConvForced true
| 12> end
| 13>
| 14> *xyz 0 1
| 15> O  -1.794470000  -0.923410000   2.768350000
| 16> H  -2.338250000  -1.359750000   3.430940000
| 17> H  -0.879480000  -1.303000000   2.865760000
| 18> O   0.923410000  -1.794470000  -2.768350000
| 19> H   1.359750000  -2.338250000  -3.430940000
| 20> H   1.303000000  -0.879480000  -2.865760000
| 21> O  -0.885520000   1.737840000   0.052730000
| 22> H  -1.032320000   2.090180000  -0.841890000
| 23> H  -1.284090000   0.839590000   0.017130000
| 24> O   0.885520000  -1.737840000   0.052730000
| 25> H   1.284090000  -0.839590000   0.017130000
| 26> H   1.032320000  -2.090180000  -0.841890000
| 27> O   1.737840000   0.885520000  -0.052730000
| 28> H   2.090180000   1.032320000   0.841890000
| 29> H   0.839590000   1.284090000  -0.017130000
| 30> O  -1.737840000  -0.885520000  -0.052730000
| 31> H  -2.090180000  -1.032320000   0.841890000
| 32> H  -0.839590000  -1.284090000  -0.017130000
| 33> O   1.752130000   0.741530000  -2.896280000
| 34> H   2.036450000   0.920500000  -1.984040000
| 35> H   0.921210000   1.242140000  -2.984230000
| 36> O   0.741530000  -1.752130000   2.896280000
| 37> H   0.920500000  -2.036450000   1.984040000
| 38> H   1.242140000  -0.921210000   2.984230000
| 39> O  -0.741530000   1.752130000   2.896280000
| 40> H  -0.920500000   2.036450000   1.984040000
| 41> H  -1.242140000   0.921210000   2.984230000
| 42> *
| 43>
| 44>                          ****END OF INPUT****

CARTESIAN COORDINATES (ANGSTROEM)
---------------------------------
  O     -1.794470   -0.923410    2.768350
  H     -2.338250   -1.359750    3.430940
  H     -0.879480   -1.303000    2.865760
  O      0.923410   -1.794470   -2.768350
  H      1.359750   -2.338250   -3.430940
  H      1.303000   -0.879480   -2.865760
  O     -0.885520    1.737840    0.052730
  H     -1.032320    2.090180   -0.841890
  H     -1.284090    0.839590    0.017130
  O      0.885520   -1.737840    0.052730
  H      1.284090   -0.839590    0.017130
  H      1.032320   -2.090180   -0.841890
  O      1.737840    0.885520   -0.052730
  H      2.090180    1.032320    0.841890
  H      0.839590    1.284090   -0.017130
  O     -1.737840   -0.885520   -0.052730
  H     -2.090180   -1.032320    0.841890
  H     -0.839590   -1.284090   -0.017130
  O      1.752130    0.741530   -2.896280
  H      2.036450    0.920500   -1.984040
  H      0.921210    1.242140   -2.984230
  O      0.741530   -1.752130    2.896280
  H      0.920500   -2.036450    1.984040
  H      1.242140   -0.921210    2.984230
  O     -0.741530    1.752130    2.896280
  H     -0.920500    2.036450    1.984040
  H     -1.242140    0.921210    2.984230

 Total Charge           Charge          ....    0
 Multiplicity           Mult            ....    1
 Number of Electrons    NEL             ....   90
 Basis Dimension        Dim             ....  387

ORBITAL ENERGIES
----------------

  NO   OCC          E(Eh)            E(eV)
   0   2.0000     -20.601005      -560.5818
   1   2.0000     -20.592296      -560.3449
   2   2.0000     -20.587901      -560.2253
   3   2.0000     -20.581489      -560.0508
   4   2.0000     -20.563774      -559.5687
   5   2.0000     -20.562523      -559.5347
   6   2.0000     -20.550353      -559.2035
   7   2.0000     -20.538597      -558.8836
   8   2.0000     -20.518132      -558.3268
   9   2.0000      -1.396229       -37.9933
  10   2.0000      -1.380355       -37.5614
  11   2.0000      -1.374420       -37.3999
  12   2.0000      -1.372655       -37.3518
  13   2.0000      -1.355263       -36.8786
  14   2.0000      -1.347387       -36.6643
  15   2.0000      -1.332231       -36.2518
  16   2.0000      -1.322292       -35.9814
  17   2.0000      -1.302925       -35.4544
  18   2.0000      -0.757719       -20.6186
  19   2.0000      -0.740553       -20.1515
  20   2.0000      -0.740091       -20.1389
  21   2.0000      -0.735982       -20.0271
  22   2.0000      -0.729147       -19.8411
  23   2.0000      -0.722616       -19.6634
  24   2.0000      -0.718231       -19.5441
  25   2.0000      -0.700152       -19.0521
  26   2.0000      -0.682130       -18.5617
  27   2.0000      -0.655648       -17.8411
  28   2.0000      -0.630801       -17.1650
  29   2.0000      -0.621199       -16.9037
  30   2.0000      -0.611030       -16.6270
  31   2.0000      -0.603944       -16.4342
  32   2.0000      -0.591052       -16.0833
  33   2.0000      -0.576482       -15.6869
  34   2.0000      -0.566658       -15.4196
  35   2.0000      -0.545196       -14.8355
  36   2.0000      -0.540152       -14.6983
  37   2.0000      -0.530754       -14.4425
  38   2.0000      -0.526498       -14.3267
  39   2.0000      -0.520551       -14.1649
  40   2.0000      -0.509164       -13.8551
  41   2.0000      -0.505603       -13.7582
  42   2.0000      -0.500042       -13.6068
  43   2.0000      -0.488626       -13.2962
  44   2.0000      -0.468038       -12.7360
  45   0.0000       0.083884         2.2826
  46   0.0000       0.112180         3.0526
  47   0.0000       0.143847         3.9143
  48   0.0000       0.147000         4.0001
  49   0.0000       0.184753         5.0274

MULLIKEN ATOMIC CHARGES
-----------------------
   0 O :   -0.754948
   1 H :    0.349781
   2 H :    0.386061
   3 O :   -0.737602
   4 H :    0.339036
   5 H :    0.373731
   6 O :   -0.738021
   7 H :    0.347774
   8 H :    0.378248
   9 O :   -0.762002
  10 H :    0.351802
  11 H :    0.391425
  12 O :   -0.744733
  13 H :    0.365764
  14 H :    0.371887
  15 O :   -0.733565
  16 H :    0.375588
  17 H :    0.369847
  18 O :   -0.689952
  19 H :    0.390721
  20 H :    0.343961
  21 O :   -0.699678
  22 H :    0.393763
  23 H :    0.347005
  24 O :   -0.733993
  25 H :    0.365267
  26 H :    0.352834
Sum of atomic charges:    0.0000000

LOEWDIN ATOMIC CHARGES
----------------------
   0 O :   -0.314914
   1 H :    0.158873
   2 H :    0.147065
   3 O :   -0.339411
   4 H :    0.155261
   5 H :    0.144538
   6 O :   -0.294336
   7 H :    0.164538
   8 H :    0.148135
   9 O :   -0.304524
  10 H :    0.137998
  11 H :    0.156547
  12 O :   -0.296505
  13 H :    0.172986
  14 H :    0.145838
  15 O :   -0.314395
  16 H :    0.148569
  17 H :    0.141062
  18 O :   -0.272120
  19 H :    0.159226
  20 H :    0.169086
  21 O :   -0.274324
  22 H :    0.159038
  23 H :    0.168516
  24 O :   -0.356344
  25 H :    0.146993
  26 H :    0.142601

  Mayer bond orders larger than 0.100000
B(  0-O ,  1-H ) :   0.8406 B(  0-O ,  2-H ) :   0.7399 B(  3-O ,  4-H ) :   0.8496
B(  3-O ,  5-H ) :   0.7612 B(  6-O ,  7-H ) :   0.8402 B(  6-O ,  8-H ) :   0.7282
B(  6-O , 14-H ) :   0.1109 B(  8-H , 15-O ) :   0.1388 B(  9-O , 10-H ) :   0.7755
B(  9-O , 11-H ) :   0.7826 B( 12-O , 13-H ) :   0.8301 B( 12-O , 14-H ) :   0.7479
B( 15-O , 16-H ) :   0.8033 B( 15-O , 17-H ) :   0.7775 B( 18-O , 19-H ) :   0.7996
B( 18-O , 20-H ) :   0.8444 B( 21-O , 22-H ) :   0.7910 B( 21-O , 23-H ) :   0.8397
B( 24-O , 25-H ) :   0.8286 B( 24-O , 26-H ) :   0.8176

MP2 TOTAL ENERGY:     -686.932779126 Eh
FINAL SINGLE POINT ENERGY      -686.932779126228

DIPOLE MOMENT
-------------
                                X             Y             Z
Electronic contribution:      0.16667      -0.10776      -0.08409
Nuclear contribution   :      0.53316       0.19549      -0.68611
                        -----------------------------------------
Total Dipole Moment    :      0.69983       0.08773      -0.77020
                        -----------------------------------------
Magnitude (a.u.)       :      1.04434
Magnitude (Debye)      :      2.65451

Rotational constants in cm-1:     0.033157     0.016849     0.014765
Rotational constants in MHz :   994.016949   505.132015   442.633497

                             ****ORCA TERMINATED NORMALLY****
TOTAL RUN TIME: 0 days 0 hours 4 minutes 44 seconds 811 msec
