                         Program Version 3.0.3 - RELEASE   -
|  1> ! wB97X-D3 MA-Def2-TZVP def2-TZVP/J RIJCOSX TightSCF Grid4
|  2>
|  3> %pal nprocs 1 end
|  4>
|  5> %scf
|  6>         maxiter 400
|  7> end
|  8>
|  9> %cosmo
| 10>         SMD true
| 11>         solvent "WATER"
| 12> end
| 13>
| 14> * xyz  0  1
| 15> O  0.098158	-0.448630	1.481896
| 16> H  0.120838	-0.063310	0.563944
| 17> H  -0.776425	-0.152173	1.799804
| 18> O  0.066384	0.551895	-1.100803
| 19> H  -0.469999	-0.155511	-1.513179
| 20> H  0.963163	0.355064	-1.440446
| 21> **                         ****END OF INPUT****

CARTESIAN COORDINATES (ANGSTROEM)
---------------------------------
  O      0.098158   -0.448630    1.481896
  H      0.120838   -0.063310    0.563944
  H     -0.776425   -0.152173    1.799804
  O      0.066384    0.551895   -1.100803
  H     -0.469999   -0.155511   -1.513179
  H      0.963163    0.355064   -1.440446

 Total Charge           Charge          ....    0
 Multiplicity           Mult            ....    1
 Number of Electrons    NEL             ....   20
 Basis Dimension        Dim             ....   94

ORBITAL ENERGIES
----------------

  NO   OCC          E(Eh)            E(eV)
   0   2.0000     -19.250424      -523.8307
   1   2.0000     -19.224508      -523.1255
   2   2.0000      -1.136620       -30.9290
   3   2.0000      -1.106681       -30.1143
   4   2.0000      -0.628824       -17.1112
   5   2.0000      -0.611960       -16.6523
   6   2.0000      -0.521146       -14.1811
   7   2.0000      -0.492484       -13.4012
   8   2.0000      -0.428611       -11.6631
   9   2.0000      -0.412952       -11.2370
  10   0.0000       0.079587         2.1657
  11   0.0000       0.120344         3.2747
  12   0.0000       0.138496         3.7687
  13   0.0000       0.143350         3.9008
  14   0.0000       0.171445         4.6652

MULLIKEN ATOMIC CHARGES
-----------------------
   0 O :   -0.818619
   1 H :    0.387289
   2 H :    0.392020
   3 O :   -0.783026
   4 H :    0.410745
   5 H :    0.411591
Sum of atomic charges:   -0.0000000

LOEWDIN ATOMIC CHARGES
----------------------
   0 O :   -0.465331
   1 H :    0.189417
   2 H :    0.209423
   3 O :   -0.378370
   4 H :    0.222302
   5 H :    0.222560

  Mayer bond orders larger than 0.1
B(  0-O ,  1-H ) :   0.8075 B(  0-O ,  2-H ) :   0.8535 B(  3-O ,  4-H ) :   0.8460
B(  3-O ,  5-H ) :   0.8452

Dispersion correction           -0.000550525
FINAL SINGLE POINT ENERGY      -152.910425693637

DIPOLE MOMENT
-------------
                                X             Y             Z
Electronic contribution:     -0.00485       0.08061      -0.24087
Nuclear contribution   :     -0.40911      -0.18517      -1.12540
                        -----------------------------------------
Total Dipole Moment    :     -0.41396      -0.10456      -1.36627
                        -----------------------------------------
Magnitude (a.u.)       :      1.43143
Magnitude (Debye)      :      3.63841

                             ****ORCA TERMINATED NORMALLY****
TOTAL RUN TIME: 0 days 0 hours 0 minutes 19 seconds 897 msec
