                         Program Version 3.0.3 - RELEASE   -
|  1> ! B3LYP Def2-TZVP def2-TZVP/J RIJCOSX TightSCF Grid4 D3BJ
|  2>
|  3> %pal nprocs 12 end
|  4>
|  5> %scf
|  6>         maxiter 400
|  7> end
|  8>
|  9> * xyz  0  1
| 10> O  -0.016940	-0.571838	1.362028
| 11> H  -0.107795	-0.037060	0.538560
| 12> H  -0.507612	-0.038431	2.012999
| 13> O  -0.006167	0.564585	-1.245458
| 14> H  -0.324208	-0.289940	-1.596979
| 15> H  0.964841	0.460017	-1.279934
| 16> **                         ****END OF INPUT****

CARTESIAN COORDINATES (ANGSTROEM)
---------------------------------
  O     -0.016940   -0.571838    1.362028
  H     -0.107795   -0.037060    0.538560
  H     -0.507612   -0.038431    2.012999
  O     -0.006167    0.564585   -1.245458
  H     -0.324208   -0.289940   -1.596979
  H      0.964841    0.460017   -1.279934

 Total Charge           Charge          ....    0
 Multiplicity           Mult            ....    1
 Number of Electrons    NEL             ....   20
 Basis Dimension        Dim             ....   86

ORBITAL ENERGIES
----------------

  NO   OCC          E(Eh)            E(eV)
   0   2.0000     -19.159641      -521.3603
   1   2.0000     -19.100226      -519.7436
   2   2.0000      -1.039397       -28.2834
   3   2.0000      -0.980506       -26.6809
   4   2.0000      -0.550976       -14.9928
   5   2.0000      -0.501474       -13.6458
   6   2.0000      -0.424117       -11.5408
   7   2.0000      -0.375293       -10.2122
   8   2.0000      -0.337641        -9.1877
   9   2.0000      -0.290834        -7.9140
  10   0.0000      -0.002480        -0.0675
  11   0.0000       0.055836         1.5194
  12   0.0000       0.076544         2.0829
  13   0.0000       0.180279         4.9056
  14   0.0000       0.322164         8.7665

MULLIKEN ATOMIC CHARGES
-----------------------
   0 O :   -0.664280
   1 H :    0.314084
   2 H :    0.307265
   3 O :   -0.632595
   4 H :    0.337656
   5 H :    0.337869
Sum of atomic charges:   -0.0000000

LOEWDIN ATOMIC CHARGES
----------------------
   0 O :   -0.353596
   1 H :    0.140277
   2 H :    0.156205
   3 O :   -0.285691
   4 H :    0.171371
   5 H :    0.171434

  Mayer bond orders larger than 0.1
B(  0-O ,  1-H ) :   0.8578 B(  0-O ,  2-H ) :   0.9144 B(  3-O ,  4-H ) :   0.8927
B(  3-O ,  5-H ) :   0.8926

Dispersion correction           -0.002301511
FINAL SINGLE POINT ENERGY      -152.861454516398

DIPOLE MOMENT
-------------
                                X             Y             Z
Electronic contribution:      0.00367       0.06001      -0.14532
Nuclear contribution   :      0.05946       0.09080      -0.46487
                        -----------------------------------------
Total Dipole Moment    :      0.06314       0.15082      -0.61019
                        -----------------------------------------
Magnitude (a.u.)       :      0.63171
Magnitude (Debye)      :      1.60568

                             ****ORCA TERMINATED NORMALLY****
TOTAL RUN TIME: 0 days 0 hours 0 minutes 48 seconds 387 msec
