                         Program Version 3.0.3 - RELEASE   -
|  1> ! wB97X-D3 MA-Def2-TZVP def2-TZVP/J RIJCOSX TightSCF Grid4
|  2>
|  3> %pal nprocs 1 end
|  4>
|  5> %scf
|  6>         maxiter 400
|  7> end
|  8>
|  9> %cosmo
| 10>         SMD true
| 11>         solvent "WATER"
| 12> end
| 13>
| 14> * xyz  0  1
| 15> O  -0.107050	-0.613560	1.463137
| 16> H  -0.081741	-0.264415	0.544615
| 17> H  -0.421254	0.150988	1.967927
| 18> O  -0.029172	0.453798	-1.123288
| 19> H  -0.271721	-0.239152	-1.757289
| 20> H  0.913058	0.599676	-1.303886
| 21> **                         ****END OF INPUT****

CARTESIAN COORDINATES (ANGSTROEM)
---------------------------------
  O     -0.107050   -0.613560    1.463137
  H     -0.081741   -0.264415    0.544615
  H     -0.421254    0.150988    1.967927
  O     -0.029172    0.453798   -1.123288
  H     -0.271721   -0.239152   -1.757289
  H      0.913058    0.599676   -1.303886

 Total Charge           Charge          ....    0
 Multiplicity           Mult            ....    1
 Number of Electrons    NEL             ....   20
 Basis Dimension        Dim             ....   94

ORBITAL ENERGIES
----------------

  NO   OCC          E(Eh)            E(eV)
   0   2.0000     -19.246859      -523.7337
   1   2.0000     -19.224345      -523.1210
   2   2.0000      -1.136648       -30.9298
   3   2.0000      -1.111316       -30.2404
   4   2.0000      -0.631951       -17.1963
   5   2.0000      -0.616907       -16.7869
   6   2.0000      -0.520988       -14.1768
   7   2.0000      -0.488206       -13.2848
   8   2.0000      -0.428982       -11.6732
   9   2.0000      -0.414618       -11.2823
  10   0.0000       0.080437         2.1888
  11   0.0000       0.119606         3.2547
  12   0.0000       0.140129         3.8131
  13   0.0000       0.142899         3.8885
  14   0.0000       0.171054         4.6546

MULLIKEN ATOMIC CHARGES
-----------------------
   0 O :   -0.807240
   1 H :    0.386731
   2 H :    0.390663
   3 O :   -0.784651
   4 H :    0.407253
   5 H :    0.407244
Sum of atomic charges:   -0.0000000

LOEWDIN ATOMIC CHARGES
----------------------
   0 O :   -0.448784
   1 H :    0.185005
   2 H :    0.204682
   3 O :   -0.372102
   4 H :    0.215406
   5 H :    0.215792

  Mayer bond orders larger than 0.1
B(  0-O ,  1-H ) :   0.8203 B(  0-O ,  2-H ) :   0.8546 B(  3-O ,  4-H ) :   0.8468
B(  3-O ,  5-H ) :   0.8472

Dispersion correction           -0.000538152
FINAL SINGLE POINT ENERGY      -152.911799112216

DIPOLE MOMENT
-------------
                                X             Y             Z
Electronic contribution:      0.01443       0.08500      -0.21410
Nuclear contribution   :      0.34192       0.47163      -1.02241
                        -----------------------------------------
Total Dipole Moment    :      0.35635       0.55663      -1.23652
                        -----------------------------------------
Magnitude (a.u.)       :      1.40207
Magnitude (Debye)      :      3.56378

                             ****ORCA TERMINATED NORMALLY****
TOTAL RUN TIME: 0 days 0 hours 0 minutes 16 seconds 995 msec
