                         Program Version 3.0.3 - RELEASE   -
|  1> ! wB97X-D3 Def2-TZVP def2-TZVP/J RIJCOSX TightSCF Grid4 COSMO
|  2>
|  3> %pal nprocs 12 end
|  4>
|  5> %scf
|  6>         maxiter 400
|  7> end
|  8>
|  9> %cosmo
| 10>         SMD true
| 11>         solvent "WATER"
| 12> end
| 13>
| 14> * xyz  0  1
| 15> O  0.098158	-0.448630	1.481896
| 16> H  0.120838	-0.063310	0.563944
| 17> H  -0.776425	-0.152173	1.799804
| 18> O  0.066384	0.551895	-1.100803
| 19> H  -0.469999	-0.155511	-1.513179
| 20> H  0.963163	0.355064	-1.440446
| 21> **                         ****END OF INPUT****

CARTESIAN COORDINATES (ANGSTROEM)
---------------------------------
  O      0.098158   -0.448630    1.481896
  H      0.120838   -0.063310    0.563944
  H     -0.776425   -0.152173    1.799804
  O      0.066384    0.551895   -1.100803
  H     -0.469999   -0.155511   -1.513179
  H      0.963163    0.355064   -1.440446

 Total Charge           Charge          ....    0
 Multiplicity           Mult            ....    1
 Number of Electrons    NEL             ....   20
 Basis Dimension        Dim             ....   86

ORBITAL ENERGIES
----------------

  NO   OCC          E(Eh)            E(eV)
   0   2.0000     -19.247346      -523.7469
   1   2.0000     -19.218585      -522.9643
   2   2.0000      -1.134638       -30.8751
   3   2.0000      -1.103223       -30.0202
   4   2.0000      -0.627159       -17.0659
   5   2.0000      -0.608893       -16.5688
   6   2.0000      -0.518892       -14.1198
   7   2.0000      -0.489748       -13.3267
   8   2.0000      -0.426381       -11.6024
   9   2.0000      -0.409761       -11.1502
  10   0.0000       0.116767         3.1774
  11   0.0000       0.166856         4.5404
  12   0.0000       0.204583         5.5670
  13   0.0000       0.282857         7.6969
  14   0.0000       0.414637        11.2828

MULLIKEN ATOMIC CHARGES
-----------------------
   0 O :   -0.797381
   1 H :    0.363899
   2 H :    0.383696
   3 O :   -0.755932
   4 H :    0.401940
   5 H :    0.403779
Sum of atomic charges:   -0.0000000

LOEWDIN ATOMIC CHARGES
----------------------
   0 O :   -0.408201
   1 H :    0.147205
   2 H :    0.180694
   3 O :   -0.311752
   4 H :    0.195363
   5 H :    0.196691

  Mayer bond orders larger than 0.1
B(  0-O ,  1-H ) :   0.8145 B(  0-O ,  2-H ) :   0.8642 B(  1-H ,  3-O ) :   0.1094
B(  3-O ,  4-H ) :   0.8461 B(  3-O ,  5-H ) :   0.8456

Dispersion correction           -0.000550525
FINAL SINGLE POINT ENERGY      -152.908241557833

DIPOLE MOMENT
-------------
                                X             Y             Z
Electronic contribution:      0.00387       0.08062      -0.24618
Nuclear contribution   :     -0.40911      -0.18517      -1.12540
                        -----------------------------------------
Total Dipole Moment    :     -0.40524      -0.10454      -1.37158
                        -----------------------------------------
Magnitude (a.u.)       :      1.43401
Magnitude (Debye)      :      3.64496

                             ****ORCA TERMINATED NORMALLY****
TOTAL RUN TIME: 0 days 0 hours 0 minutes 50 seconds 628 msec
