                         Program Version 3.0.3 - RELEASE   -
|  1> ! wB97X-D3 MA-Def2-TZVP def2-TZVP/J RIJCOSX TightSCF Grid4
|  2>
|  3> %pal nprocs 1 end
|  4>
|  5> %scf
|  6>         maxiter 400
|  7> end
|  8>
|  9> * xyz  0  1
| 10> O  -0.016940	-0.571838	1.362028
| 11> H  -0.107795	-0.037060	0.538560
| 12> H  -0.507612	-0.038431	2.012999
| 13> O  -0.006167	0.564585	-1.245458
| 14> H  -0.324208	-0.289940	-1.596979
| 15> H  0.964841	0.460017	-1.279934
| 16> **                         ****END OF INPUT****

CARTESIAN COORDINATES (ANGSTROEM)
---------------------------------
  O     -0.016940   -0.571838    1.362028
  H     -0.107795   -0.037060    0.538560
  H     -0.507612   -0.038431    2.012999
  O     -0.006167    0.564585   -1.245458
  H     -0.324208   -0.289940   -1.596979
  H      0.964841    0.460017   -1.279934

 Total Charge           Charge          ....    0
 Multiplicity           Mult            ....    1
 Number of Electrons    NEL             ....   20
 Basis Dimension        Dim             ....   94

ORBITAL ENERGIES
----------------

  NO   OCC          E(Eh)            E(eV)
   0   2.0000     -19.269344      -524.3455
   1   2.0000     -19.216079      -522.8961
   2   2.0000      -1.156262       -31.4635
   3   2.0000      -1.101488       -29.9730
   4   2.0000      -0.653524       -17.7833
   5   2.0000      -0.608851       -16.5677
   6   2.0000      -0.527325       -14.3492
   7   2.0000      -0.482013       -13.1162
   8   2.0000      -0.439339       -11.9550
   9   2.0000      -0.397394       -10.8137
  10   0.0000       0.061307         1.6682
  11   0.0000       0.107466         2.9243
  12   0.0000       0.126803         3.4505
  13   0.0000       0.140917         3.8345
  14   0.0000       0.166706         4.5363

MULLIKEN ATOMIC CHARGES
-----------------------
   0 O :   -0.690957
   1 H :    0.332775
   2 H :    0.323736
   3 O :   -0.684886
   4 H :    0.359486
   5 H :    0.359845
Sum of atomic charges:   -0.0000000

LOEWDIN ATOMIC CHARGES
----------------------
   0 O :   -0.410338
   1 H :    0.180652
   2 H :    0.186024
   3 O :   -0.357199
   4 H :    0.200448
   5 H :    0.200413

  Mayer bond orders larger than 0.1
B(  0-O ,  1-H ) :   0.8618 B(  0-O ,  2-H ) :   0.9015 B(  3-O ,  4-H ) :   0.8886
B(  3-O ,  5-H ) :   0.8884

Dispersion correction           -0.000548053
FINAL SINGLE POINT ENERGY      -152.887510348172

DIPOLE MOMENT
-------------
                                X             Y             Z
Electronic contribution:     -0.00290       0.06445      -0.12966
Nuclear contribution   :      0.05946       0.09080      -0.46487
                        -----------------------------------------
Total Dipole Moment    :      0.05656       0.15525      -0.59452
                        -----------------------------------------
Magnitude (a.u.)       :      0.61706
Magnitude (Debye)      :      1.56844

                             ****ORCA TERMINATED NORMALLY****
TOTAL RUN TIME: 0 days 0 hours 0 minutes 16 seconds 510 msec
