                         Program Version 4.2.0 -  RELEASE  -
|  1> # 12mecn.remya.etal.2.mol0,3,11
|  2> ! MP2 def2-TZVP EnGrad TightSCF
|  3>
|  4> %pal
|  5>     nprocs 6
|  6> end
|  7>
|  8> %maxcore 8000
|  9>
| 10> %scf
| 11>     ConvForced true
| 12> end
| 13>
| 14> *xyz 0 1
| 15> C  -0.869520000  -3.929380000   1.700199000
| 16> H  -0.057420000  -3.268850000   2.015352000
| 17> H  -0.697530000  -4.930670000   2.101524000
| 18> H  -1.821490000  -3.546590000   2.077146000
| 19> C  -0.916080000  -3.969960000   0.256749000
| 20> N  -0.955390000  -3.995980000  -0.909290000
| 21> C  -5.181310000   2.853865000  -1.626100000
| 22> H  -5.488260000   3.811434000  -2.053310000
| 23> H  -5.857590000   2.068112000  -1.968630000
| 24> H  -4.170750000   2.611402000  -1.966640000
| 25> C  -5.187260000   2.919160000  -0.181450000
| 26> N  -5.181700000   2.970641000   0.983640000
| 27> C   4.214163000   3.378139000   1.593627000
| 28> H   3.242643000   3.657109000   2.012358000
| 29> H   4.969258000   4.086643000   1.941290000
| 30> H   4.482966000   2.372549000   1.931698000
| 31> C   4.130759000   3.388436000   0.150192000
| 32> N   4.050180000   3.381449000  -1.013420000
| 33> *
| 34>
| 35>                          ****END OF INPUT****

CARTESIAN COORDINATES (ANGSTROEM)
---------------------------------
  C     -0.869520   -3.929380    1.700199
  H     -0.057420   -3.268850    2.015352
  H     -0.697530   -4.930670    2.101524
  H     -1.821490   -3.546590    2.077146
  C     -0.916080   -3.969960    0.256749
  N     -0.955390   -3.995980   -0.909290
  C     -5.181310    2.853865   -1.626100
  H     -5.488260    3.811434   -2.053310
  H     -5.857590    2.068112   -1.968630
  H     -4.170750    2.611402   -1.966640
  C     -5.187260    2.919160   -0.181450
  N     -5.181700    2.970641    0.983640
  C      4.214163    3.378139    1.593627
  H      3.242643    3.657109    2.012358
  H      4.969258    4.086643    1.941290
  H      4.482966    2.372549    1.931698
  C      4.130759    3.388436    0.150192
  N      4.050180    3.381449   -1.013420

 Total Charge           Charge          ....    0
 Multiplicity           Mult            ....    1
 Number of Electrons    NEL             ....   66
 Basis Dimension        Dim             ....  333

ORBITAL ENERGIES
----------------

  NO   OCC          E(Eh)            E(eV)
   0   2.0000     -15.573610      -423.7795
   1   2.0000     -15.573364      -423.7728
   2   2.0000     -15.572809      -423.7577
   3   2.0000     -11.285832      -307.1031
   4   2.0000     -11.285022      -307.0811
   5   2.0000     -11.283130      -307.0296
   6   2.0000     -11.280539      -306.9591
   7   2.0000     -11.280361      -306.9542
   8   2.0000     -11.280192      -306.9496
   9   2.0000      -1.215113       -33.0649
  10   2.0000      -1.214676       -33.0530
  11   2.0000      -1.214605       -33.0511
  12   2.0000      -1.044398       -28.4195
  13   2.0000      -1.044251       -28.4155
  14   2.0000      -1.042368       -28.3643
  15   2.0000      -0.701146       -19.0792
  16   2.0000      -0.700286       -19.0557
  17   2.0000      -0.699880       -19.0447
  18   2.0000      -0.632691       -17.2164
  19   2.0000      -0.632537       -17.2122
  20   2.0000      -0.631927       -17.1956
  21   2.0000      -0.631598       -17.1866
  22   2.0000      -0.630915       -17.1681
  23   2.0000      -0.628545       -17.1036
  24   2.0000      -0.556346       -15.1389
  25   2.0000      -0.556156       -15.1338
  26   2.0000      -0.556067       -15.1313
  27   2.0000      -0.458240       -12.4694
  28   2.0000      -0.458126       -12.4663
  29   2.0000      -0.457979       -12.4622
  30   2.0000      -0.457754       -12.4561
  31   2.0000      -0.457657       -12.4535
  32   2.0000      -0.457419       -12.4470
  33   0.0000       0.118423         3.2224
  34   0.0000       0.119091         3.2406
  35   0.0000       0.121337         3.3017
  36   0.0000       0.170524         4.6402
  37   0.0000       0.170852         4.6491

MULLIKEN ATOMIC CHARGES
-----------------------
   0 C :   -0.278378
   1 H :    0.170695
   2 H :    0.172007
   3 H :    0.173885
   4 C :   -0.145794
   5 N :   -0.092415
   6 C :   -0.280149
   7 H :    0.172164
   8 H :    0.172663
   9 H :    0.175392
  10 C :   -0.145602
  11 N :   -0.094468
  12 C :   -0.280968
  13 H :    0.173263
  14 H :    0.172415
  15 H :    0.171221
  16 C :   -0.145334
  17 N :   -0.090597
Sum of atomic charges:    0.0000000

LOEWDIN ATOMIC CHARGES
----------------------
   0 C :   -0.283502
   1 H :    0.152486
   2 H :    0.151583
   3 H :    0.153465
   4 C :   -0.219675
   5 N :    0.045643
   6 C :   -0.283081
   7 H :    0.151592
   8 H :    0.151980
   9 H :    0.154287
  10 C :   -0.218305
  11 N :    0.043527
  12 C :   -0.284249
  13 H :    0.153152
  14 H :    0.151134
  15 H :    0.152691
  16 C :   -0.219428
  17 N :    0.046700

  Mayer bond orders larger than 0.100000
B(  0-C ,  1-H ) :   0.9167 B(  0-C ,  2-H ) :   0.9167 B(  0-C ,  3-H ) :   0.9161
B(  0-C ,  4-C ) :   0.9016 B(  4-C ,  5-N ) :   2.8371 B(  6-C ,  7-H ) :   0.9161
B(  6-C ,  8-H ) :   0.9163 B(  6-C ,  9-H ) :   0.9157 B(  6-C , 10-C ) :   0.9025
B( 10-C , 11-N ) :   2.8396 B( 12-C , 13-H ) :   0.9163 B( 12-C , 14-H ) :   0.9165
B( 12-C , 15-H ) :   0.9167 B( 12-C , 16-C ) :   0.9022 B( 16-C , 17-N ) :   2.8366

MP2 TOTAL ENERGY:     -397.450023503 Eh
FINAL SINGLE POINT ENERGY      -397.450023502881

DIPOLE MOMENT
-------------
                                X             Y             Z
Electronic contribution:     -0.29959       0.08640      -3.12190
Nuclear contribution   :      0.44871      -0.12066       4.62885
                        -----------------------------------------
Total Dipole Moment    :      0.14912      -0.03426       1.50695
                        -----------------------------------------
Magnitude (a.u.)       :      1.51469
Magnitude (Debye)      :      3.85004

Rotational constants in cm-1:     0.011235     0.008374     0.005269
Rotational constants in MHz :   336.817425   251.048630   157.947898

                             ****ORCA TERMINATED NORMALLY****
TOTAL RUN TIME: 0 days 0 hours 1 minutes 46 seconds 204 msec
