                         Program Version 4.2.0 -  RELEASE  -
|  1> # 12meoh.boyd.etal.mol1,3,8
|  2> ! MP2 def2-TZVP EnGrad TightSCF
|  3>
|  4> %pal
|  5>     nprocs 6
|  6> end
|  7>
|  8> %maxcore 8000
|  9>
| 10> %scf
| 11>     ConvForced true
| 12> end
| 13>
| 14> *xyz 0 1
| 15> O   0.666045193  -2.600503172   0.138317521
| 16> H  -0.227115049  -2.712051982  -0.281868004
| 17> C   0.490021232  -1.851247678   1.341189459
| 18> H   1.466500502  -1.466176022   1.645844415
| 19> H   0.097564527  -2.488364683   2.146902740
| 20> H  -0.187588112  -1.000787499   1.200739571
| 21> O  -3.821405976  -2.118091637   0.596795346
| 22> H  -4.342989117  -1.344303030   0.251966383
| 23> C  -3.443883586  -1.809641231   1.934889393
| 24> H  -2.831494349  -2.637429600   2.305201764
| 25> H  -4.325601146  -1.719364371   2.585074667
| 26> H  -2.858527126  -0.882644791   1.996110694
| 27> O   3.570084754   2.361662577  -0.202416728
| 28> H   3.393280933   1.755669977   0.560634073
| 29> C   4.368082883   1.644741793  -1.143112807
| 30> H   4.552851717   2.311801738  -1.989632421
| 31> H   3.862427494   0.740851663  -1.508095690
| 32> H   5.333949674   1.357289092  -0.706288100
| 33> *
| 34>
| 35>                          ****END OF INPUT****

CARTESIAN COORDINATES (ANGSTROEM)
---------------------------------
  O      0.666045   -2.600503    0.138318
  H     -0.227115   -2.712052   -0.281868
  C      0.490021   -1.851248    1.341189
  H      1.466501   -1.466176    1.645844
  H      0.097565   -2.488365    2.146903
  H     -0.187588   -1.000787    1.200740
  O     -3.821406   -2.118092    0.596795
  H     -4.342989   -1.344303    0.251966
  C     -3.443884   -1.809641    1.934889
  H     -2.831494   -2.637430    2.305202
  H     -4.325601   -1.719364    2.585075
  H     -2.858527   -0.882645    1.996111
  O      3.570085    2.361663   -0.202417
  H      3.393281    1.755670    0.560634
  C      4.368083    1.644742   -1.143113
  H      4.552852    2.311802   -1.989632
  H      3.862427    0.740852   -1.508096
  H      5.333950    1.357289   -0.706288

 Total Charge           Charge          ....    0
 Multiplicity           Mult            ....    1
 Number of Electrons    NEL             ....   54
 Basis Dimension        Dim             ....  258

ORBITAL ENERGIES
----------------

  NO   OCC          E(Eh)            E(eV)
   0   2.0000     -20.567888      -559.6807
   1   2.0000     -20.556174      -559.3619
   2   2.0000     -20.555020      -559.3305
   3   2.0000     -11.280800      -306.9662
   4   2.0000     -11.273745      -306.7742
   5   2.0000     -11.268606      -306.6344
   6   2.0000      -1.356902       -36.9232
   7   2.0000      -1.344509       -36.5860
   8   2.0000      -1.344437       -36.5840
   9   2.0000      -0.929025       -25.2801
  10   2.0000      -0.921169       -25.0663
  11   2.0000      -0.916934       -24.9510
  12   2.0000      -0.691098       -18.8057
  13   2.0000      -0.681030       -18.5318
  14   2.0000      -0.679306       -18.4849
  15   2.0000      -0.627246       -17.0682
  16   2.0000      -0.617779       -16.8106
  17   2.0000      -0.614106       -16.7107
  18   2.0000      -0.599804       -16.3215
  19   2.0000      -0.590665       -16.0728
  20   2.0000      -0.587175       -15.9778
  21   2.0000      -0.510614       -13.8945
  22   2.0000      -0.501932       -13.6583
  23   2.0000      -0.498980       -13.5779
  24   2.0000      -0.459209       -12.4957
  25   2.0000      -0.449435       -12.2297
  26   2.0000      -0.447201       -12.1690
  27   0.0000       0.112337         3.0569
  28   0.0000       0.125114         3.4045
  29   0.0000       0.155049         4.2191
  30   0.0000       0.158918         4.3244
  31   0.0000       0.175986         4.7888

MULLIKEN ATOMIC CHARGES
-----------------------
   0 O :   -0.501664
   1 H :    0.330653
   2 C :   -0.169539
   3 H :    0.122334
   4 H :    0.106084
   5 H :    0.111747
   6 O :   -0.500558
   7 H :    0.324652
   8 C :   -0.181494
   9 H :    0.129773
  10 H :    0.120156
  11 H :    0.107895
  12 O :   -0.497907
  13 H :    0.319598
  14 C :   -0.176739
  15 H :    0.127965
  16 H :    0.118047
  17 H :    0.108997
Sum of atomic charges:    0.0000000

LOEWDIN ATOMIC CHARGES
----------------------
   0 O :   -0.111947
   1 H :    0.193254
   2 C :   -0.378738
   3 H :    0.106041
   4 H :    0.095448
   5 H :    0.095663
   6 O :   -0.110463
   7 H :    0.192430
   8 C :   -0.383914
   9 H :    0.109954
  10 H :    0.098016
  11 H :    0.094256
  12 O :   -0.111133
  13 H :    0.186888
  14 C :   -0.378628
  15 H :    0.109949
  16 H :    0.097536
  17 H :    0.095389

  Mayer bond orders larger than 0.100000
B(  0-O ,  1-H ) :   0.8376 B(  0-O ,  2-C ) :   0.9346 B(  2-C ,  3-H ) :   0.9376
B(  2-C ,  4-H ) :   0.9393 B(  2-C ,  5-H ) :   0.9420 B(  6-O ,  7-H ) :   0.8407
B(  6-O ,  8-C ) :   0.9214 B(  8-C ,  9-H ) :   0.9375 B(  8-C , 10-H ) :   0.9374
B(  8-C , 11-H ) :   0.9384 B( 12-O , 13-H ) :   0.8448 B( 12-O , 14-C ) :   0.9224
B( 14-C , 15-H ) :   0.9375 B( 14-C , 16-H ) :   0.9377 B( 14-C , 17-H ) :   0.9395

MP2 TOTAL ENERGY:     -346.522433252 Eh
FINAL SINGLE POINT ENERGY      -346.522433252098

DIPOLE MOMENT
-------------
                                X             Y             Z
Electronic contribution:     -1.08899      -0.46354      -2.09829
Nuclear contribution   :      0.45265       0.61888       2.72009
                        -----------------------------------------
Total Dipole Moment    :     -0.63633       0.15534       0.62179
                        -----------------------------------------
Magnitude (a.u.)       :      0.90315
Magnitude (Debye)      :      2.29562

Rotational constants in cm-1:     0.103575     0.012986     0.012263
Rotational constants in MHz :  3105.112482   389.320695   367.641595

                             ****ORCA TERMINATED NORMALLY****
TOTAL RUN TIME: 0 days 0 hours 0 minutes 57 seconds 74 msec
