                         Program Version 4.2.0 -  RELEASE  -
|  1> # 12h2o.su.etal.mol1,2,4,6,8
|  2> ! MP2 def2-TZVP EnGrad TightSCF
|  3>
|  4> %pal
|  5>     nprocs 6
|  6> end
|  7>
|  8> %maxcore 8000
|  9>
| 10> %scf
| 11>     ConvForced true
| 12> end
| 13>
| 14> *xyz 0 1
| 15> O  -1.794470000  -0.923410000   2.768350000
| 16> H  -2.338250000  -1.359750000   3.430940000
| 17> H  -0.879480000  -1.303000000   2.865760000
| 18> O   0.923410000  -1.794470000  -2.768350000
| 19> H   1.359750000  -2.338250000  -3.430940000
| 20> H   1.303000000  -0.879480000  -2.865760000
| 21> O  -0.885520000   1.737840000   0.052730000
| 22> H  -1.032320000   2.090180000  -0.841890000
| 23> H  -1.284090000   0.839590000   0.017130000
| 24> O   1.737840000   0.885520000  -0.052730000
| 25> H   2.090180000   1.032320000   0.841890000
| 26> H   0.839590000   1.284090000  -0.017130000
| 27> O   1.752130000   0.741530000  -2.896280000
| 28> H   2.036450000   0.920500000  -1.984040000
| 29> H   0.921210000   1.242140000  -2.984230000
| 30> *
| 31>
| 32>                          ****END OF INPUT****

CARTESIAN COORDINATES (ANGSTROEM)
---------------------------------
  O     -1.794470   -0.923410    2.768350
  H     -2.338250   -1.359750    3.430940
  H     -0.879480   -1.303000    2.865760
  O      0.923410   -1.794470   -2.768350
  H      1.359750   -2.338250   -3.430940
  H      1.303000   -0.879480   -2.865760
  O     -0.885520    1.737840    0.052730
  H     -1.032320    2.090180   -0.841890
  H     -1.284090    0.839590    0.017130
  O      1.737840    0.885520   -0.052730
  H      2.090180    1.032320    0.841890
  H      0.839590    1.284090   -0.017130
  O      1.752130    0.741530   -2.896280
  H      2.036450    0.920500   -1.984040
  H      0.921210    1.242140   -2.984230

 Total Charge           Charge          ....    0
 Multiplicity           Mult            ....    1
 Number of Electrons    NEL             ....   50
 Basis Dimension        Dim             ....  215

ORBITAL ENERGIES
----------------

  NO   OCC          E(Eh)            E(eV)
   0   2.0000     -20.599193      -560.5325
   1   2.0000     -20.569165      -559.7154
   2   2.0000     -20.565768      -559.6230
   3   2.0000     -20.555360      -559.3398
   4   2.0000     -20.504178      -557.9470
   5   2.0000      -1.380190       -37.5569
   6   2.0000      -1.355778       -36.8926
   7   2.0000      -1.344442       -36.5841
   8   2.0000      -1.336159       -36.3587
   9   2.0000      -1.286360       -35.0036
  10   2.0000      -0.736902       -20.0521
  11   2.0000      -0.719797       -19.5867
  12   2.0000      -0.712854       -19.3977
  13   2.0000      -0.707931       -19.2638
  14   2.0000      -0.674948       -18.3663
  15   2.0000      -0.624345       -16.9893
  16   2.0000      -0.600597       -16.3431
  17   2.0000      -0.581287       -15.8176
  18   2.0000      -0.576190       -15.6789
  19   2.0000      -0.537978       -14.6391
  20   2.0000      -0.530552       -14.4370
  21   2.0000      -0.512396       -13.9430
  22   2.0000      -0.505344       -13.7511
  23   2.0000      -0.492576       -13.4037
  24   2.0000      -0.454709       -12.3733
  25   0.0000       0.089517         2.4359
  26   0.0000       0.119097         3.2408
  27   0.0000       0.153953         4.1893
  28   0.0000       0.169779         4.6199
  29   0.0000       0.182264         4.9597

MULLIKEN ATOMIC CHARGES
-----------------------
   0 O :   -0.688069
   1 H :    0.342716
   2 H :    0.347234
   3 O :   -0.736261
   4 H :    0.320351
   5 H :    0.368617
   6 O :   -0.680771
   7 H :    0.346117
   8 H :    0.378991
   9 O :   -0.724048
  10 H :    0.342387
  11 H :    0.353512
  12 O :   -0.688884
  13 H :    0.389442
  14 H :    0.328666
Sum of atomic charges:   -0.0000000

LOEWDIN ATOMIC CHARGES
----------------------
   0 O :   -0.340708
   1 H :    0.159890
   2 H :    0.182752
   3 O :   -0.375143
   4 H :    0.146037
   5 H :    0.142283
   6 O :   -0.286253
   7 H :    0.167536
   8 H :    0.188714
   9 O :   -0.340384
  10 H :    0.166108
  11 H :    0.142808
  12 O :   -0.276212
  13 H :    0.160689
  14 H :    0.161884

  Mayer bond orders larger than 0.100000
B(  0-O ,  1-H ) :   0.8509 B(  0-O ,  2-H ) :   0.8424 B(  3-O ,  4-H ) :   0.8633
B(  3-O ,  5-H ) :   0.7812 B(  6-O ,  7-H ) :   0.8436 B(  6-O ,  8-H ) :   0.8193
B(  9-O , 10-H ) :   0.8481 B(  9-O , 11-H ) :   0.7821 B( 12-O , 13-H ) :   0.7937
B( 12-O , 14-H ) :   0.8536

MP2 TOTAL ENERGY:     -381.590647290 Eh
FINAL SINGLE POINT ENERGY      -381.590647289830

DIPOLE MOMENT
-------------
                                X             Y             Z
Electronic contribution:     -0.11633       0.30708       0.18632
Nuclear contribution   :     -0.37518       0.19504       0.68611
                        -----------------------------------------
Total Dipole Moment    :     -0.49151       0.50211       0.87242
                        -----------------------------------------
Magnitude (a.u.)       :      1.12019
Magnitude (Debye)      :      2.84730

Rotational constants in cm-1:     0.079004     0.028673     0.024430
Rotational constants in MHz :  2368.486543   859.582598   732.399979

                             ****ORCA TERMINATED NORMALLY****
TOTAL RUN TIME: 0 days 0 hours 0 minutes 32 seconds 9 msec
