                         Program Version 4.2.0 -  RELEASE  -
|  1> # 12h2o.su.etal.mol4,5,6,7,9,10,11
|  2> ! MP2 def2-TZVP EnGrad TightSCF
|  3>
|  4> %pal
|  5>     nprocs 6
|  6> end
|  7>
|  8> %maxcore 8000
|  9>
| 10> %scf
| 11>     ConvForced true
| 12> end
| 13>
| 14> *xyz 0 1
| 15> O  -0.885520000   1.737840000   0.052730000
| 16> H  -1.032320000   2.090180000  -0.841890000
| 17> H  -1.284090000   0.839590000   0.017130000
| 18> O   0.885520000  -1.737840000   0.052730000
| 19> H   1.284090000  -0.839590000   0.017130000
| 20> H   1.032320000  -2.090180000  -0.841890000
| 21> O   1.737840000   0.885520000  -0.052730000
| 22> H   2.090180000   1.032320000   0.841890000
| 23> H   0.839590000   1.284090000  -0.017130000
| 24> O  -1.737840000  -0.885520000  -0.052730000
| 25> H  -2.090180000  -1.032320000   0.841890000
| 26> H  -0.839590000  -1.284090000  -0.017130000
| 27> O   0.741530000  -1.752130000   2.896280000
| 28> H   0.920500000  -2.036450000   1.984040000
| 29> H   1.242140000  -0.921210000   2.984230000
| 30> O  -0.923410000   1.794470000  -2.768350000
| 31> H  -1.359750000   2.338250000  -3.430940000
| 32> H  -1.303000000   0.879480000  -2.865760000
| 33> O  -0.741530000   1.752130000   2.896280000
| 34> H  -0.920500000   2.036450000   1.984040000
| 35> H  -1.242140000   0.921210000   2.984230000
| 36> *
| 37>
| 38>                          ****END OF INPUT****

CARTESIAN COORDINATES (ANGSTROEM)
---------------------------------
  O     -0.885520    1.737840    0.052730
  H     -1.032320    2.090180   -0.841890
  H     -1.284090    0.839590    0.017130
  O      0.885520   -1.737840    0.052730
  H      1.284090   -0.839590    0.017130
  H      1.032320   -2.090180   -0.841890
  O      1.737840    0.885520   -0.052730
  H      2.090180    1.032320    0.841890
  H      0.839590    1.284090   -0.017130
  O     -1.737840   -0.885520   -0.052730
  H     -2.090180   -1.032320    0.841890
  H     -0.839590   -1.284090   -0.017130
  O      0.741530   -1.752130    2.896280
  H      0.920500   -2.036450    1.984040
  H      1.242140   -0.921210    2.984230
  O     -0.923410    1.794470   -2.768350
  H     -1.359750    2.338250   -3.430940
  H     -1.303000    0.879480   -2.865760
  O     -0.741530    1.752130    2.896280
  H     -0.920500    2.036450    1.984040
  H     -1.242140    0.921210    2.984230

 Total Charge           Charge          ....    0
 Multiplicity           Mult            ....    1
 Number of Electrons    NEL             ....   70
 Basis Dimension        Dim             ....  301

ORBITAL ENERGIES
----------------

  NO   OCC          E(Eh)            E(eV)
   0   2.0000     -20.599130      -560.5308
   1   2.0000     -20.588276      -560.2355
   2   2.0000     -20.576775      -559.9225
   3   2.0000     -20.567253      -559.6634
   4   2.0000     -20.561928      -559.5185
   5   2.0000     -20.542488      -558.9895
   6   2.0000     -20.537208      -558.8459
   7   2.0000      -1.383300       -37.6415
   8   2.0000      -1.377599       -37.4864
   9   2.0000      -1.363079       -37.0913
  10   2.0000      -1.356248       -36.9054
  11   2.0000      -1.341244       -36.4971
  12   2.0000      -1.324109       -36.0308
  13   2.0000      -1.318558       -35.8798
  14   2.0000      -0.744344       -20.2546
  15   2.0000      -0.742314       -20.1994
  16   2.0000      -0.730441       -19.8763
  17   2.0000      -0.725165       -19.7327
  18   2.0000      -0.718404       -19.5488
  19   2.0000      -0.695158       -18.9162
  20   2.0000      -0.687434       -18.7060
  21   2.0000      -0.638419       -17.3723
  22   2.0000      -0.623561       -16.9680
  23   2.0000      -0.606616       -16.5069
  24   2.0000      -0.601401       -16.3650
  25   2.0000      -0.584741       -15.9116
  26   2.0000      -0.560307       -15.2467
  27   2.0000      -0.555875       -15.1261
  28   2.0000      -0.537774       -14.6336
  29   2.0000      -0.531407       -14.4603
  30   2.0000      -0.519827       -14.1452
  31   2.0000      -0.514344       -13.9960
  32   2.0000      -0.507989       -13.8231
  33   2.0000      -0.490218       -13.3395
  34   2.0000      -0.482239       -13.1224
  35   0.0000       0.090797         2.4707
  36   0.0000       0.115377         3.1396
  37   0.0000       0.139202         3.7879
  38   0.0000       0.142766         3.8849
  39   0.0000       0.182721         4.9721

MULLIKEN ATOMIC CHARGES
-----------------------
   0 O :   -0.756045
   1 H :    0.384784
   2 H :    0.352345
   3 O :   -0.740458
   4 H :    0.367994
   5 H :    0.359343
   6 O :   -0.717031
   7 H :    0.348266
   8 H :    0.383415
   9 O :   -0.720199
  10 H :    0.354540
  11 H :    0.372448
  12 O :   -0.699316
  13 H :    0.370072
  14 H :    0.327381
  15 O :   -0.698951
  16 H :    0.355053
  17 H :    0.361308
  18 O :   -0.701448
  19 H :    0.373206
  20 H :    0.323294
Sum of atomic charges:   -0.0000000

LOEWDIN ATOMIC CHARGES
----------------------
   0 O :   -0.302176
   1 H :    0.153670
   2 H :    0.139349
   3 O :   -0.297082
   4 H :    0.145611
   5 H :    0.171163
   6 O :   -0.306270
   7 H :    0.165288
   8 H :    0.147242
   9 O :   -0.310978
  10 H :    0.168298
  11 H :    0.144803
  12 O :   -0.338090
  13 H :    0.150556
  14 H :    0.159003
  15 O :   -0.310588
  16 H :    0.165065
  17 H :    0.188018
  18 O :   -0.340397
  19 H :    0.150624
  20 H :    0.156889

  Mayer bond orders larger than 0.100000
B(  0-O ,  1-H ) :   0.7982 B(  0-O ,  2-H ) :   0.7629 B(  2-H ,  9-O ) :   0.1082
B(  3-O ,  4-H ) :   0.7442 B(  3-O ,  5-H ) :   0.8345 B(  4-H ,  6-O ) :   0.1242
B(  6-O ,  7-H ) :   0.8414 B(  6-O ,  8-H ) :   0.7607 B(  9-O , 10-H ) :   0.8387
B(  9-O , 11-H ) :   0.7695 B( 12-O , 13-H ) :   0.8210 B( 12-O , 14-H ) :   0.8543
B( 15-O , 16-H ) :   0.8405 B( 15-O , 17-H ) :   0.8297 B( 18-O , 19-H ) :   0.8154
B( 18-O , 20-H ) :   0.8569

MP2 TOTAL ENERGY:     -534.261609490 Eh
FINAL SINGLE POINT ENERGY      -534.261609490108

DIPOLE MOMENT
-------------
                                X             Y             Z
Electronic contribution:      0.10458       0.13090      -0.22032
Nuclear contribution   :     -0.67915      -0.30898      -2.00481
                        -----------------------------------------
Total Dipole Moment    :     -0.57456      -0.17808      -2.22512
                        -----------------------------------------
Magnitude (a.u.)       :      2.30500
Magnitude (Debye)      :      5.85884

Rotational constants in cm-1:     0.043397     0.026362     0.022492
Rotational constants in MHz :  1301.013932   790.313862   674.306586

                             ****ORCA TERMINATED NORMALLY****
TOTAL RUN TIME: 0 days 0 hours 2 minutes 2 seconds 414 msec
