                         Program Version 4.2.0 -  RELEASE  -
|  1> ! MP2 def2-TZVP EnGrad TightSCF FrozenCore
|  2>
|  3> %pal
|  4>     nprocs 12
|  5> end
|  6>
|  7> %maxcore 8000
|  8>
|  9> %scf
| 10>     ConvForced true
| 11> end
| 12>
| 13> *xyz 0 1
| 14> C    -0.464387    -0.668374     2.620818
| 15> H    -0.014217    -1.355688     1.900026
| 16> H    -0.467549    -1.126155     3.613299
| 17> H     0.142281     0.240172     2.629333
| 18> C    -1.827630    -0.354580     2.205899
| 19> N    -2.918558    -0.122995     1.876743
| 20> C     3.438057     2.048613     1.003967
| 21> H     2.729640     2.878397     0.943402
| 22> H     4.403146     2.409255     1.368756
| 23> H     3.039609     1.296679     1.691762
| 24> C     3.595773     1.438415    -0.313380
| 25> N     3.713024     0.943299    -1.358642
| 26> C     2.818192    -2.384325    -0.851846
| 27> H     3.471702    -3.255419    -0.756678
| 28> H     3.255273    -1.681862    -1.568643
| 29> H     1.830466    -2.703988    -1.196181
| 30> C     2.680590    -1.721069     0.441669
| 31> N     2.585701    -1.194072     1.473130
| 32> C     0.516955     0.545723    -2.064710
| 33> H     1.110413     1.227895    -2.678423
| 34> H    -0.467538     0.382449    -2.512139
| 35> H     1.040872    -0.409631    -1.989309
| 36> C     0.345798     1.110829    -0.729675
| 37> N     0.209732     1.590223     0.321192
| 38> C    -3.102634     2.600097     0.211926
| 39> H    -2.145614     2.651215     0.739434
| 40> H    -3.867379     2.253729     0.910796
| 41> H    -3.365721     3.587982    -0.175047
| 42> C    -2.982498     1.649270    -0.889497
| 43> N    -2.882849     0.903515    -1.775461
| 44> C    -3.255736    -2.150811    -0.876822
| 45> H    -3.527280    -1.762300    -1.860968
| 46> H    -3.710162    -1.512408    -0.113721
| 47> H    -3.615224    -3.177044    -0.764792
| 48> C    -1.804248    -2.115884    -0.721679
| 49> N    -0.648780    -2.110072    -0.594236
| 50> *
| 51>
| 52>                          ****END OF INPUT****

CARTESIAN COORDINATES (ANGSTROEM)
---------------------------------
  C     -0.464387   -0.668374    2.620818
  H     -0.014217   -1.355688    1.900026
  H     -0.467549   -1.126155    3.613299
  H      0.142281    0.240172    2.629333
  C     -1.827630   -0.354580    2.205899
  N     -2.918558   -0.122995    1.876743
  C      3.438057    2.048613    1.003967
  H      2.729640    2.878397    0.943402
  H      4.403146    2.409255    1.368756
  H      3.039609    1.296679    1.691762
  C      3.595773    1.438415   -0.313380
  N      3.713024    0.943299   -1.358642
  C      2.818192   -2.384325   -0.851846
  H      3.471702   -3.255419   -0.756678
  H      3.255273   -1.681862   -1.568643
  H      1.830466   -2.703988   -1.196181
  C      2.680590   -1.721069    0.441669
  N      2.585701   -1.194072    1.473130
  C      0.516955    0.545723   -2.064710
  H      1.110413    1.227895   -2.678423
  H     -0.467538    0.382449   -2.512139
  H      1.040872   -0.409631   -1.989309
  C      0.345798    1.110829   -0.729675
  N      0.209732    1.590223    0.321192
  C     -3.102634    2.600097    0.211926
  H     -2.145614    2.651215    0.739434
  H     -3.867379    2.253729    0.910796
  H     -3.365721    3.587982   -0.175047
  C     -2.982498    1.649270   -0.889497
  N     -2.882849    0.903515   -1.775461
  C     -3.255736   -2.150811   -0.876822
  H     -3.527280   -1.762300   -1.860968
  H     -3.710162   -1.512408   -0.113721
  H     -3.615224   -3.177044   -0.764792
  C     -1.804248   -2.115884   -0.721679
  N     -0.648780   -2.110072   -0.594236

 Total Charge           Charge          ....    0
 Multiplicity           Mult            ....    1
 Number of Electrons    NEL             ....  132
 Basis Dimension        Dim             ....  666

ORBITAL ENERGIES
----------------

  NO   OCC          E(Eh)            E(eV)
   0   2.0000     -15.566978      -423.5990
   1   2.0000     -15.564908      -423.5427
   2   2.0000     -15.563804      -423.5126
   3   2.0000     -15.562234      -423.4699
   4   2.0000     -15.560363      -423.4190
   5   2.0000     -15.559218      -423.3878
   6   2.0000     -11.283094      -307.0286
   7   2.0000     -11.279198      -306.9226
   8   2.0000     -11.277899      -306.8872
   9   2.0000     -11.277604      -306.8792
  10   2.0000     -11.277369      -306.8728
  11   2.0000     -11.274404      -306.7921
  12   2.0000     -11.266086      -306.5658
  13   2.0000     -11.264258      -306.5160
  14   2.0000     -11.263272      -306.4892
  15   2.0000     -11.261907      -306.4521
  16   2.0000     -11.256288      -306.2992
  17   2.0000     -11.251949      -306.1811
  18   2.0000      -1.217894       -33.1406
  19   2.0000      -1.215891       -33.0861
  20   2.0000      -1.212960       -33.0063
  21   2.0000      -1.211535       -32.9675
  22   2.0000      -1.209332       -32.9076
  23   2.0000      -1.208597       -32.8876
  24   2.0000      -1.026438       -27.9308
  25   2.0000      -1.023951       -27.8631
  26   2.0000      -1.022912       -27.8349
  27   2.0000      -1.021535       -27.7974
  28   2.0000      -1.016845       -27.6698
  29   2.0000      -1.013318       -27.5738
  30   2.0000      -0.686857       -18.6903
  31   2.0000      -0.684390       -18.6232
  32   2.0000      -0.682260       -18.5653
  33   2.0000      -0.681310       -18.5394
  34   2.0000      -0.676004       -18.3950
  35   2.0000      -0.674731       -18.3604
  36   2.0000      -0.625965       -17.0334
  37   2.0000      -0.622831       -16.9481
  38   2.0000      -0.620228       -16.8772
  39   2.0000      -0.617397       -16.8002
  40   2.0000      -0.614155       -16.7120
  41   2.0000      -0.613504       -16.6943
  42   2.0000      -0.611133       -16.6298
  43   2.0000      -0.607270       -16.5247
  44   2.0000      -0.604018       -16.4362
  45   2.0000      -0.601229       -16.3603
  46   2.0000      -0.596850       -16.2411
  47   2.0000      -0.594677       -16.1820
  48   2.0000      -0.556819       -15.1518
  49   2.0000      -0.554564       -15.0905
  50   2.0000      -0.553259       -15.0549
  51   2.0000      -0.550966       -14.9926
  52   2.0000      -0.549880       -14.9630
  53   2.0000      -0.546823       -14.8798
  54   2.0000      -0.464136       -12.6298
  55   2.0000      -0.463693       -12.6177
  56   2.0000      -0.461316       -12.5531
  57   2.0000      -0.459534       -12.5045
  58   2.0000      -0.456668       -12.4266
  59   2.0000      -0.455150       -12.3852
  60   2.0000      -0.452793       -12.3211
  61   2.0000      -0.451836       -12.2951
  62   2.0000      -0.450835       -12.2678
  63   2.0000      -0.447935       -12.1889
  64   2.0000      -0.446443       -12.1483
  65   2.0000      -0.444313       -12.0904
  66   0.0000       0.131473         3.5776
  67   0.0000       0.146720         3.9925
  68   0.0000       0.149476         4.0675
  69   0.0000       0.158346         4.3088
  70   0.0000       0.160225         4.3599

MULLIKEN ATOMIC CHARGES
-----------------------
   0 C :   -0.286213
   1 H :    0.191931
   2 H :    0.167115
   3 H :    0.180021
   4 C :   -0.062725
   5 N :   -0.191306
   6 C :   -0.274235
   7 H :    0.173487
   8 H :    0.168828
   9 H :    0.196026
  10 C :   -0.107995
  11 N :   -0.158317
  12 C :   -0.320016
  13 H :    0.173340
  14 H :    0.197891
  15 H :    0.193021
  16 C :   -0.070002
  17 N :   -0.174594
  18 C :   -0.257711
  19 H :    0.178843
  20 H :    0.198990
  21 H :    0.153833
  22 C :   -0.041021
  23 N :   -0.232014
  24 C :   -0.285172
  25 H :    0.191200
  26 H :    0.183515
  27 H :    0.167098
  28 C :   -0.071602
  29 N :   -0.185006
  30 C :   -0.281973
  31 H :    0.182771
  32 H :    0.197967
  33 H :    0.168572
  34 C :   -0.064515
  35 N :   -0.200031
Sum of atomic charges:    0.0000000

LOEWDIN ATOMIC CHARGES
----------------------
   0 C :   -0.285292
   1 H :    0.155260
   2 H :    0.146900
   3 H :    0.153328
   4 C :   -0.198171
   5 N :    0.023320
   6 C :   -0.283753
   7 H :    0.152038
   8 H :    0.147392
   9 H :    0.155858
  10 C :   -0.203212
  11 N :    0.028043
  12 C :   -0.289075
  13 H :    0.148864
  14 H :    0.153365
  15 H :    0.150690
  16 C :   -0.201035
  17 N :    0.031944
  18 C :   -0.282535
  19 H :    0.151660
  20 H :    0.153344
  21 H :    0.149435
  22 C :   -0.195174
  23 N :    0.026838
  24 C :   -0.285276
  25 H :    0.154791
  26 H :    0.153652
  27 H :    0.146239
  28 C :   -0.198115
  29 N :    0.027708
  30 C :   -0.282331
  31 H :    0.153982
  32 H :    0.156320
  33 H :    0.147060
  34 C :   -0.192301
  35 N :    0.028241

  Mayer bond orders larger than 0.100000
B(  0-C ,  1-H ) :   0.9090 B(  0-C ,  2-H ) :   0.9131 B(  0-C ,  3-H ) :   0.9113
B(  0-C ,  4-C ) :   0.8966 B(  4-C ,  5-N ) :   2.7247 B(  6-C ,  7-H ) :   0.9145
B(  6-C ,  8-H ) :   0.9112 B(  6-C ,  9-H ) :   0.9051 B(  6-C , 10-C ) :   0.9038
B( 10-C , 11-N ) :   2.7559 B( 12-C , 13-H ) :   0.9084 B( 12-C , 14-H ) :   0.9095
B( 12-C , 15-H ) :   0.9124 B( 12-C , 16-C ) :   0.8861 B( 16-C , 17-N ) :   2.7307
B( 18-C , 19-H ) :   0.9068 B( 18-C , 20-H ) :   0.9039 B( 18-C , 21-H ) :   0.9239
B( 18-C , 22-C ) :   0.8938 B( 22-C , 23-N ) :   2.6585 B( 24-C , 25-H ) :   0.9099
B( 24-C , 26-H ) :   0.9141 B( 24-C , 27-H ) :   0.9103 B( 24-C , 28-C ) :   0.8958
B( 28-C , 29-N ) :   2.7298 B( 30-C , 31-H ) :   0.9152 B( 30-C , 32-H ) :   0.9076
B( 30-C , 33-H ) :   0.9105 B( 30-C , 34-C ) :   0.8899 B( 34-C , 35-N ) :   2.7094

MP2 TOTAL ENERGY:     -794.957567476 Eh
FINAL SINGLE POINT ENERGY      -794.957567476075

DIPOLE MOMENT
-------------
                                X             Y             Z
Electronic contribution:      0.05980       0.01720      -0.09839
Nuclear contribution   :     -0.15795      -0.05703       0.18173
                        -----------------------------------------
Total Dipole Moment    :     -0.09815      -0.03983       0.08335
                        -----------------------------------------
Magnitude (a.u.)       :      0.13478
Magnitude (Debye)      :      0.34259

Rotational constants in cm-1:     0.015137     0.008262     0.007547
Rotational constants in MHz :   453.802231   247.674123   226.245814

                             ****ORCA TERMINATED NORMALLY****
TOTAL RUN TIME: 0 days 0 hours 30 minutes 29 seconds 896 msec
