                         Program Version 4.2.0 -  RELEASE  -
|  1> # 12h2o.su.etal.mol2,3,4,5,6,9,10,11
|  2> ! MP2 def2-TZVP EnGrad TightSCF
|  3>
|  4> %pal
|  5>     nprocs 6
|  6> end
|  7>
|  8> %maxcore 8000
|  9>
| 10> %scf
| 11>     ConvForced true
| 12> end
| 13>
| 14> *xyz 0 1
| 15> O   0.923410000  -1.794470000  -2.768350000
| 16> H   1.359750000  -2.338250000  -3.430940000
| 17> H   1.303000000  -0.879480000  -2.865760000
| 18> O  -1.752130000  -0.741530000  -2.896280000
| 19> H  -2.036450000  -0.920500000  -1.984040000
| 20> H  -0.921210000  -1.242140000  -2.984230000
| 21> O  -0.885520000   1.737840000   0.052730000
| 22> H  -1.032320000   2.090180000  -0.841890000
| 23> H  -1.284090000   0.839590000   0.017130000
| 24> O   0.885520000  -1.737840000   0.052730000
| 25> H   1.284090000  -0.839590000   0.017130000
| 26> H   1.032320000  -2.090180000  -0.841890000
| 27> O   1.737840000   0.885520000  -0.052730000
| 28> H   2.090180000   1.032320000   0.841890000
| 29> H   0.839590000   1.284090000  -0.017130000
| 30> O   0.741530000  -1.752130000   2.896280000
| 31> H   0.920500000  -2.036450000   1.984040000
| 32> H   1.242140000  -0.921210000   2.984230000
| 33> O  -0.923410000   1.794470000  -2.768350000
| 34> H  -1.359750000   2.338250000  -3.430940000
| 35> H  -1.303000000   0.879480000  -2.865760000
| 36> O  -0.741530000   1.752130000   2.896280000
| 37> H  -0.920500000   2.036450000   1.984040000
| 38> H  -1.242140000   0.921210000   2.984230000
| 39> *
| 40>
| 41>                          ****END OF INPUT****

CARTESIAN COORDINATES (ANGSTROEM)
---------------------------------
  O      0.923410   -1.794470   -2.768350
  H      1.359750   -2.338250   -3.430940
  H      1.303000   -0.879480   -2.865760
  O     -1.752130   -0.741530   -2.896280
  H     -2.036450   -0.920500   -1.984040
  H     -0.921210   -1.242140   -2.984230
  O     -0.885520    1.737840    0.052730
  H     -1.032320    2.090180   -0.841890
  H     -1.284090    0.839590    0.017130
  O      0.885520   -1.737840    0.052730
  H      1.284090   -0.839590    0.017130
  H      1.032320   -2.090180   -0.841890
  O      1.737840    0.885520   -0.052730
  H      2.090180    1.032320    0.841890
  H      0.839590    1.284090   -0.017130
  O      0.741530   -1.752130    2.896280
  H      0.920500   -2.036450    1.984040
  H      1.242140   -0.921210    2.984230
  O     -0.923410    1.794470   -2.768350
  H     -1.359750    2.338250   -3.430940
  H     -1.303000    0.879480   -2.865760
  O     -0.741530    1.752130    2.896280
  H     -0.920500    2.036450    1.984040
  H     -1.242140    0.921210    2.984230

 Total Charge           Charge          ....    0
 Multiplicity           Mult            ....    1
 Number of Electrons    NEL             ....   80
 Basis Dimension        Dim             ....  344

ORBITAL ENERGIES
----------------

  NO   OCC          E(Eh)            E(eV)
   0   2.0000     -20.625705      -561.2540
   1   2.0000     -20.597908      -560.4976
   2   2.0000     -20.593759      -560.3847
   3   2.0000     -20.566817      -559.6515
   4   2.0000     -20.565116      -559.6053
   5   2.0000     -20.536692      -558.8318
   6   2.0000     -20.535647      -558.8034
   7   2.0000     -20.521710      -558.4241
   8   2.0000      -1.406840       -38.2821
   9   2.0000      -1.387178       -37.7470
  10   2.0000      -1.381755       -37.5995
  11   2.0000      -1.351354       -36.7722
  12   2.0000      -1.347815       -36.6759
  13   2.0000      -1.322940       -35.9990
  14   2.0000      -1.317524       -35.8516
  15   2.0000      -1.302592       -35.4453
  16   2.0000      -0.772549       -21.0221
  17   2.0000      -0.747262       -20.3340
  18   2.0000      -0.742977       -20.2174
  19   2.0000      -0.733120       -19.9492
  20   2.0000      -0.719028       -19.5658
  21   2.0000      -0.705090       -19.1865
  22   2.0000      -0.688253       -18.7283
  23   2.0000      -0.671109       -18.2618
  24   2.0000      -0.651683       -17.7332
  25   2.0000      -0.632469       -17.2104
  26   2.0000      -0.624656       -16.9977
  27   2.0000      -0.600091       -16.3293
  28   2.0000      -0.592866       -16.1327
  29   2.0000      -0.578073       -15.7302
  30   2.0000      -0.559870       -15.2348
  31   2.0000      -0.554161       -15.0795
  32   2.0000      -0.537254       -14.6194
  33   2.0000      -0.534688       -14.5496
  34   2.0000      -0.529487       -14.4081
  35   2.0000      -0.516775       -14.0622
  36   2.0000      -0.505986       -13.7686
  37   2.0000      -0.488078       -13.2813
  38   2.0000      -0.482701       -13.1350
  39   2.0000      -0.467499       -12.7213
  40   0.0000       0.079450         2.1619
  41   0.0000       0.108973         2.9653
  42   0.0000       0.131376         3.5749
  43   0.0000       0.141741         3.8570
  44   0.0000       0.170797         4.6476

MULLIKEN ATOMIC CHARGES
-----------------------
   0 O :   -0.725466
   1 H :    0.368330
   2 H :    0.384547
   3 O :   -0.697625
   4 H :    0.352547
   5 H :    0.381531
   6 O :   -0.727418
   7 H :    0.394297
   8 H :    0.341498
   9 O :   -0.747808
  10 H :    0.340854
  11 H :    0.361993
  12 O :   -0.718081
  13 H :    0.350759
  14 H :    0.381726
  15 O :   -0.702504
  16 H :    0.373164
  17 H :    0.318669
  18 O :   -0.744955
  19 H :    0.345425
  20 H :    0.370299
  21 O :   -0.703149
  22 H :    0.367612
  23 H :    0.333755
Sum of atomic charges:   -0.0000000

LOEWDIN ATOMIC CHARGES
----------------------
   0 O :   -0.288153
   1 H :    0.170213
   2 H :    0.196845
   3 O :   -0.276727
   4 H :    0.169091
   5 H :    0.155811
   6 O :   -0.282297
   7 H :    0.158719
   8 H :    0.169651
   9 O :   -0.350730
  10 H :    0.136378
  11 H :    0.144622
  12 O :   -0.310416
  13 H :    0.166827
  14 H :    0.147219
  15 O :   -0.343267
  16 H :    0.152332
  17 H :    0.154563
  18 O :   -0.342313
  19 H :    0.158011
  20 H :    0.142503
  21 O :   -0.340084
  22 H :    0.148983
  23 H :    0.162219

  Mayer bond orders larger than 0.100000
B(  0-O ,  1-H ) :   0.8295 B(  0-O ,  2-H ) :   0.8097 B(  3-O ,  4-H ) :   0.8396
B(  3-O ,  5-H ) :   0.7950 B(  3-O , 20-H ) :   0.1033 B(  6-O ,  7-H ) :   0.7781
B(  6-O ,  8-H ) :   0.8351 B(  9-O , 10-H ) :   0.7754 B(  9-O , 11-H ) :   0.8255
B( 10-H , 12-O ) :   0.1050 B( 12-O , 13-H ) :   0.8405 B( 12-O , 14-H ) :   0.7736
B( 15-O , 16-H ) :   0.8132 B( 15-O , 17-H ) :   0.8600 B( 18-O , 19-H ) :   0.8462
B( 18-O , 20-H ) :   0.7557 B( 21-O , 22-H ) :   0.8231 B( 21-O , 23-H ) :   0.8509

MP2 TOTAL ENERGY:     -610.578237181 Eh
FINAL SINGLE POINT ENERGY      -610.578237180751

DIPOLE MOMENT
-------------
                                X             Y             Z
Electronic contribution:     -0.06831      -0.02400      -0.34131
Nuclear contribution   :      0.00057      -0.11171      -2.72557
                        -----------------------------------------
Total Dipole Moment    :     -0.06774      -0.13571      -3.06688
                        -----------------------------------------
Magnitude (a.u.)       :      3.07063
Magnitude (Debye)      :      7.80492

Rotational constants in cm-1:     0.031438     0.019864     0.014742
Rotational constants in MHz :   942.499915   595.509354   441.954995

                             ****ORCA TERMINATED NORMALLY****
TOTAL RUN TIME: 0 days 0 hours 3 minutes 0 seconds 350 msec
