                         Program Version 4.2.0 -  RELEASE  -
|  1> # 12h2o.su.etal.mol3,5,6,7,9,11
|  2> ! MP2 def2-TZVP EnGrad TightSCF
|  3>
|  4> %pal
|  5>     nprocs 6
|  6> end
|  7>
|  8> %maxcore 8000
|  9>
| 10> %scf
| 11>     ConvForced true
| 12> end
| 13>
| 14> *xyz 0 1
| 15> O  -1.752130000  -0.741530000  -2.896280000
| 16> H  -2.036450000  -0.920500000  -1.984040000
| 17> H  -0.921210000  -1.242140000  -2.984230000
| 18> O   0.885520000  -1.737840000   0.052730000
| 19> H   1.284090000  -0.839590000   0.017130000
| 20> H   1.032320000  -2.090180000  -0.841890000
| 21> O   1.737840000   0.885520000  -0.052730000
| 22> H   2.090180000   1.032320000   0.841890000
| 23> H   0.839590000   1.284090000  -0.017130000
| 24> O  -1.737840000  -0.885520000  -0.052730000
| 25> H  -2.090180000  -1.032320000   0.841890000
| 26> H  -0.839590000  -1.284090000  -0.017130000
| 27> O   0.741530000  -1.752130000   2.896280000
| 28> H   0.920500000  -2.036450000   1.984040000
| 29> H   1.242140000  -0.921210000   2.984230000
| 30> O  -0.741530000   1.752130000   2.896280000
| 31> H  -0.920500000   2.036450000   1.984040000
| 32> H  -1.242140000   0.921210000   2.984230000
| 33> *
| 34>
| 35>                          ****END OF INPUT****

CARTESIAN COORDINATES (ANGSTROEM)
---------------------------------
  O     -1.752130   -0.741530   -2.896280
  H     -2.036450   -0.920500   -1.984040
  H     -0.921210   -1.242140   -2.984230
  O      0.885520   -1.737840    0.052730
  H      1.284090   -0.839590    0.017130
  H      1.032320   -2.090180   -0.841890
  O      1.737840    0.885520   -0.052730
  H      2.090180    1.032320    0.841890
  H      0.839590    1.284090   -0.017130
  O     -1.737840   -0.885520   -0.052730
  H     -2.090180   -1.032320    0.841890
  H     -0.839590   -1.284090   -0.017130
  O      0.741530   -1.752130    2.896280
  H      0.920500   -2.036450    1.984040
  H      1.242140   -0.921210    2.984230
  O     -0.741530    1.752130    2.896280
  H     -0.920500    2.036450    1.984040
  H     -1.242140    0.921210    2.984230

 Total Charge           Charge          ....    0
 Multiplicity           Mult            ....    1
 Number of Electrons    NEL             ....   60
 Basis Dimension        Dim             ....  258

ORBITAL ENERGIES
----------------

  NO   OCC          E(Eh)            E(eV)
   0   2.0000     -20.622038      -561.1542
   1   2.0000     -20.603022      -560.6367
   2   2.0000     -20.582761      -560.0854
   3   2.0000     -20.568191      -559.6889
   4   2.0000     -20.556419      -559.3686
   5   2.0000     -20.538023      -558.8680
   6   2.0000      -1.405958       -38.2581
   7   2.0000      -1.388030       -37.7702
   8   2.0000      -1.361631       -37.0519
   9   2.0000      -1.351310       -36.7710
  10   2.0000      -1.337975       -36.4082
  11   2.0000      -1.319399       -35.9027
  12   2.0000      -0.760141       -20.6845
  13   2.0000      -0.757975       -20.6255
  14   2.0000      -0.725759       -19.7489
  15   2.0000      -0.724102       -19.7038
  16   2.0000      -0.708678       -19.2841
  17   2.0000      -0.688790       -18.7429
  18   2.0000      -0.652288       -17.7497
  19   2.0000      -0.627587       -17.0775
  20   2.0000      -0.604576       -16.4513
  21   2.0000      -0.599022       -16.3002
  22   2.0000      -0.574531       -15.6338
  23   2.0000      -0.559624       -15.2281
  24   2.0000      -0.554689       -15.0939
  25   2.0000      -0.540635       -14.7114
  26   2.0000      -0.527041       -14.3415
  27   2.0000      -0.516189       -14.0462
  28   2.0000      -0.502111       -13.6631
  29   2.0000      -0.484193       -13.1756
  30   0.0000       0.066589         1.8120
  31   0.0000       0.107801         2.9334
  32   0.0000       0.121176         3.2974
  33   0.0000       0.138212         3.7609
  34   0.0000       0.184118         5.0101

MULLIKEN ATOMIC CHARGES
-----------------------
   0 O :   -0.689438
   1 H :    0.374754
   2 H :    0.307552
   3 O :   -0.732059
   4 H :    0.370017
   5 H :    0.358698
   6 O :   -0.681497
   7 H :    0.361360
   8 H :    0.364095
   9 O :   -0.730981
  10 H :    0.341707
  11 H :    0.354660
  12 O :   -0.694034
  13 H :    0.372653
  14 H :    0.321465
  15 O :   -0.677388
  16 H :    0.331380
  17 H :    0.347056
Sum of atomic charges:   -0.0000000

LOEWDIN ATOMIC CHARGES
----------------------
   0 O :   -0.338497
   1 H :    0.153902
   2 H :    0.152147
   3 O :   -0.293444
   4 H :    0.146522
   5 H :    0.170441
   6 O :   -0.282443
   7 H :    0.173781
   8 H :    0.180852
   9 O :   -0.340359
  10 H :    0.162713
  11 H :    0.140821
  12 O :   -0.335338
  13 H :    0.151635
  14 H :    0.156451
  15 O :   -0.327736
  16 H :    0.160250
  17 H :    0.168302

  Mayer bond orders larger than 0.100000
B(  0-O ,  1-H ) :   0.8158 B(  0-O ,  2-H ) :   0.8690 B(  3-O ,  4-H ) :   0.7616
B(  3-O ,  5-H ) :   0.8343 B(  6-O ,  7-H ) :   0.8336 B(  6-O ,  8-H ) :   0.8264
B(  9-O , 10-H ) :   0.8461 B(  9-O , 11-H ) :   0.7797 B( 12-O , 13-H ) :   0.8199
B( 12-O , 14-H ) :   0.8582 B( 15-O , 16-H ) :   0.8540 B( 15-O , 17-H ) :   0.8425

MP2 TOTAL ENERGY:     -457.915027218 Eh
FINAL SINGLE POINT ENERGY      -457.915027217772

DIPOLE MOMENT
-------------
                                X             Y             Z
Electronic contribution:      0.13794       0.20344       0.05122
Nuclear contribution   :      0.90891      -0.11126       0.08817
                        -----------------------------------------
Total Dipole Moment    :      1.04685       0.09218       0.13939
                        -----------------------------------------
Magnitude (a.u.)       :      1.06011
Magnitude (Debye)      :      2.69457

Rotational constants in cm-1:     0.050301     0.027630     0.025665
Rotational constants in MHz :  1507.981828   828.315090   769.403355

                             ****ORCA TERMINATED NORMALLY****
TOTAL RUN TIME: 0 days 0 hours 1 minutes 3 seconds 865 msec
