                         Program Version 4.2.0 -  RELEASE  -
|  1> # 12mecn.remya.etal.2.mol2,8,10
|  2> ! MP2 def2-TZVP EnGrad TightSCF
|  3>
|  4> %pal
|  5>     nprocs 6
|  6> end
|  7>
|  8> %maxcore 8000
|  9>
| 10> %scf
| 11>     ConvForced true
| 12> end
| 13>
| 14> *xyz 0 1
| 15> C  -4.219070000  -3.477410000  -1.501740000
| 16> H  -3.251530000  -3.803540000  -1.893830000
| 17> H  -4.452920000  -2.481700000  -1.890840000
| 18> H  -4.992170000  -4.178130000  -1.824640000
| 19> C  -4.154550000  -3.418790000  -0.058340000
| 20> N  -4.091140000  -3.354840000   1.104432000
| 21> C   1.912641000  -2.468050000  -1.750510000
| 22> H   2.876947000  -2.793500000  -2.151200000
| 23> H   1.688016000  -1.463720000  -2.122170000
| 24> H   1.123460000  -3.154780000  -2.069590000
| 25> C   1.977850000  -2.444240000  -0.306900000
| 26> N   2.036566000  -2.426130000   0.858249000
| 27> C   4.602033000   0.321019000  -1.784800000
| 28> H   4.827650000  -0.662160000  -2.207910000
| 29> H   5.320558000   1.057980000  -2.148500000
| 30> H   3.601982000   0.643751000  -2.087520000
| 31> C   4.654967000   0.244048000  -0.343060000
| 32> N   4.691648000   0.166590000   0.820757000
| 33> *
| 34>
| 35>                          ****END OF INPUT****

CARTESIAN COORDINATES (ANGSTROEM)
---------------------------------
  C     -4.219070   -3.477410   -1.501740
  H     -3.251530   -3.803540   -1.893830
  H     -4.452920   -2.481700   -1.890840
  H     -4.992170   -4.178130   -1.824640
  C     -4.154550   -3.418790   -0.058340
  N     -4.091140   -3.354840    1.104432
  C      1.912641   -2.468050   -1.750510
  H      2.876947   -2.793500   -2.151200
  H      1.688016   -1.463720   -2.122170
  H      1.123460   -3.154780   -2.069590
  C      1.977850   -2.444240   -0.306900
  N      2.036566   -2.426130    0.858249
  C      4.602033    0.321019   -1.784800
  H      4.827650   -0.662160   -2.207910
  H      5.320558    1.057980   -2.148500
  H      3.601982    0.643751   -2.087520
  C      4.654967    0.244048   -0.343060
  N      4.691648    0.166590    0.820757

 Total Charge           Charge          ....    0
 Multiplicity           Mult            ....    1
 Number of Electrons    NEL             ....   66
 Basis Dimension        Dim             ....  333

ORBITAL ENERGIES
----------------

  NO   OCC          E(Eh)            E(eV)
   0   2.0000     -15.573617      -423.7797
   1   2.0000     -15.571923      -423.7336
   2   2.0000     -15.571856      -423.7318
   3   2.0000     -11.292180      -307.2758
   4   2.0000     -11.290420      -307.2280
   5   2.0000     -11.288079      -307.1642
   6   2.0000     -11.279857      -306.9405
   7   2.0000     -11.276518      -306.8496
   8   2.0000     -11.276159      -306.8399
   9   2.0000      -1.214833       -33.0573
  10   2.0000      -1.212478       -32.9932
  11   2.0000      -1.211202       -32.9585
  12   2.0000      -1.049786       -28.5661
  13   2.0000      -1.046979       -28.4897
  14   2.0000      -1.045903       -28.4605
  15   2.0000      -0.704831       -19.1794
  16   2.0000      -0.702565       -19.1178
  17   2.0000      -0.702077       -19.1045
  18   2.0000      -0.644419       -17.5355
  19   2.0000      -0.640892       -17.4395
  20   2.0000      -0.635916       -17.3041
  21   2.0000      -0.634682       -17.2706
  22   2.0000      -0.633697       -17.2438
  23   2.0000      -0.630426       -17.1548
  24   2.0000      -0.555617       -15.1191
  25   2.0000      -0.553589       -15.0639
  26   2.0000      -0.550932       -14.9916
  27   2.0000      -0.462774       -12.5927
  28   2.0000      -0.458025       -12.4635
  29   2.0000      -0.457920       -12.4606
  30   2.0000      -0.456931       -12.4337
  31   2.0000      -0.453897       -12.3512
  32   2.0000      -0.447033       -12.1644
  33   0.0000       0.090276         2.4565
  34   0.0000       0.110081         2.9954
  35   0.0000       0.141024         3.8374
  36   0.0000       0.143605         3.9077
  37   0.0000       0.152764         4.1569

MULLIKEN ATOMIC CHARGES
-----------------------
   0 C :   -0.280698
   1 H :    0.165381
   2 H :    0.171993
   3 H :    0.173268
   4 C :   -0.145725
   5 N :   -0.084220
   6 C :   -0.283669
   7 H :    0.166854
   8 H :    0.162450
   9 H :    0.176727
  10 C :   -0.154704
  11 N :   -0.067660
  12 C :   -0.284422
  13 H :    0.163287
  14 H :    0.182338
  15 H :    0.164545
  16 C :   -0.154671
  17 N :   -0.071074
Sum of atomic charges:   -0.0000000

LOEWDIN ATOMIC CHARGES
----------------------
   0 C :   -0.285316
   1 H :    0.150405
   2 H :    0.152544
   3 H :    0.151161
   4 C :   -0.220455
   5 N :    0.051661
   6 C :   -0.289311
   7 H :    0.149849
   8 H :    0.148234
   9 H :    0.151540
  10 C :   -0.225724
  11 N :    0.065351
  12 C :   -0.288388
  13 H :    0.149057
  14 H :    0.152425
  15 H :    0.149520
  16 C :   -0.224995
  17 N :    0.062440

  Mayer bond orders larger than 0.100000
B(  0-C ,  1-H ) :   0.9184 B(  0-C ,  2-H ) :   0.9172 B(  0-C ,  3-H ) :   0.9166
B(  0-C ,  4-C ) :   0.9022 B(  4-C ,  5-N ) :   2.8325 B(  6-C ,  7-H ) :   0.9225
B(  6-C ,  8-H ) :   0.9217 B(  6-C ,  9-H ) :   0.9130 B(  6-C , 10-C ) :   0.8971
B( 10-C , 11-N ) :   2.8223 B( 12-C , 13-H ) :   0.9204 B( 12-C , 14-H ) :   0.9115
B( 12-C , 15-H ) :   0.9232 B( 12-C , 16-C ) :   0.8980 B( 16-C , 17-N ) :   2.8251

MP2 TOTAL ENERGY:     -397.445660362 Eh
FINAL SINGLE POINT ENERGY      -397.445660362180

DIPOLE MOMENT
-------------
                                X             Y             Z
Electronic contribution:      0.41071      -0.01657       9.57467
Nuclear contribution   :     -0.60322       0.01848     -13.90763
                        -----------------------------------------
Total Dipole Moment    :     -0.19251       0.00191      -4.33296
                        -----------------------------------------
Magnitude (a.u.)       :      4.33724
Magnitude (Debye)      :     11.02438

Rotational constants in cm-1:     0.076304     0.008510     0.008113
Rotational constants in MHz :  2287.544206   255.116692   243.224053

                             ****ORCA TERMINATED NORMALLY****
TOTAL RUN TIME: 0 days 0 hours 2 minutes 36 seconds 18 msec
