                         Program Version 4.2.0 -  RELEASE  -
|  1> ! MP2 def2-TZVP EnGrad TightSCF FrozenCore
|  2>
|  3> %pal
|  4>     nprocs 8
|  5> end
|  6>
|  7> %maxcore 8000
|  8>
|  9> %scf
| 10>     ConvForced true
| 11> end
| 12>
| 13> *xyz 0 1
| 14> O          0.00000        0.00000        0.00000
| 15> H          0.97030        0.00000        0.00000
| 16> H         -0.19640        0.00000       -0.95256
| 17> O          0.15611        0.85635       -2.82274
| 18> H         -0.34726        1.70614       -2.75369
| 19> H          0.04796        0.56632       -3.73654
| 20> O          0.28988        2.86664        0.11113
| 21> H         -0.00870        1.95086        0.28166
| 22> H          1.20971        2.71267       -0.16485
| 23> O          2.39616        1.31342       -1.19584
| 24> H          3.28354        1.35342       -1.57264
| 25> H          1.79492        1.16632       -1.95447
| 26> O         -1.00870        3.23681       -2.26253
| 27> H         -0.57192        3.26348       -1.37493
| 28> H         -1.95297        3.29907       -2.07104
| 29> *
| 30>
| 31>
| 32>                          ****END OF INPUT****

CARTESIAN COORDINATES (ANGSTROEM)
---------------------------------
  O      0.000000    0.000000    0.000000
  H      0.970300    0.000000    0.000000
  H     -0.196400    0.000000   -0.952560
  O      0.156110    0.856350   -2.822740
  H     -0.347260    1.706140   -2.753690
  H      0.047960    0.566320   -3.736540
  O      0.289880    2.866640    0.111130
  H     -0.008700    1.950860    0.281660
  H      1.209710    2.712670   -0.164850
  O      2.396160    1.313420   -1.195840
  H      3.283540    1.353420   -1.572640
  H      1.794920    1.166320   -1.954470
  O     -1.008700    3.236810   -2.262530
  H     -0.571920    3.263480   -1.374930
  H     -1.952970    3.299070   -2.071040

 Total Charge           Charge          ....    0
 Multiplicity           Mult            ....    1
 Number of Electrons    NEL             ....   50
 Basis Dimension        Dim             ....  215

ORBITAL ENERGIES
----------------

  NO   OCC          E(Eh)            E(eV)
   0   2.0000     -20.576137      -559.9052
   1   2.0000     -20.570145      -559.7421
   2   2.0000     -20.561316      -559.5019
   3   2.0000     -20.551833      -559.2438
   4   2.0000     -20.548422      -559.1510
   5   2.0000      -1.370526       -37.2939
   6   2.0000      -1.354499       -36.8578
   7   2.0000      -1.348381       -36.6913
   8   2.0000      -1.339672       -36.4543
   9   2.0000      -1.327896       -36.1339
  10   2.0000      -0.742565       -20.2062
  11   2.0000      -0.728832       -19.8325
  12   2.0000      -0.712380       -19.3848
  13   2.0000      -0.698017       -18.9940
  14   2.0000      -0.693642       -18.8750
  15   2.0000      -0.624692       -16.9987
  16   2.0000      -0.607772       -16.5383
  17   2.0000      -0.592285       -16.1169
  18   2.0000      -0.582578       -15.8527
  19   2.0000      -0.558156       -15.1882
  20   2.0000      -0.525973       -14.3125
  21   2.0000      -0.518643       -14.1130
  22   2.0000      -0.510474       -13.8907
  23   2.0000      -0.497731       -13.5440
  24   2.0000      -0.490274       -13.3410
  25   0.0000       0.112261         3.0548
  26   0.0000       0.145031         3.9465
  27   0.0000       0.157105         4.2750
  28   0.0000       0.193172         5.2565
  29   0.0000       0.230587         6.2746

MULLIKEN ATOMIC CHARGES
-----------------------
   0 O :   -0.708803
   1 H :    0.359018
   2 H :    0.361470
   3 O :   -0.750926
   4 H :    0.387238
   5 H :    0.351160
   6 O :   -0.730066
   7 H :    0.371863
   8 H :    0.367604
   9 O :   -0.728364
  10 H :    0.342729
  11 H :    0.367175
  12 O :   -0.729137
  13 H :    0.393129
  14 H :    0.345910
Sum of atomic charges:    0.0000000

LOEWDIN ATOMIC CHARGES
----------------------
   0 O :   -0.306289
   1 H :    0.158260
   2 H :    0.153213
   3 O :   -0.318916
   4 H :    0.152558
   5 H :    0.162541
   6 O :   -0.301418
   7 H :    0.153501
   8 H :    0.156659
   9 O :   -0.327038
  10 H :    0.161882
  11 H :    0.151358
  12 O :   -0.311620
  13 H :    0.153664
  14 H :    0.161643

  Mayer bond orders larger than 0.100000
B(  0-O ,  1-H ) :   0.8296 B(  0-O ,  2-H ) :   0.8203 B(  3-O ,  4-H ) :   0.7423
B(  3-O ,  5-H ) :   0.8414 B(  4-H , 12-O ) :   0.1069 B(  6-O ,  7-H ) :   0.7949
B(  6-O ,  8-H ) :   0.8175 B(  9-O , 10-H ) :   0.8465 B(  9-O , 11-H ) :   0.7869
B( 12-O , 13-H ) :   0.7531 B( 12-O , 14-H ) :   0.8439

MP2 TOTAL ENERGY:     -381.627731112 Eh
FINAL SINGLE POINT ENERGY      -381.627731111995

DIPOLE MOMENT
-------------
                                X             Y             Z
Electronic contribution:     -0.10308       0.10558       0.25367
Nuclear contribution   :      0.46802      -0.43962      -1.63068
                        -----------------------------------------
Total Dipole Moment    :      0.36494      -0.33404      -1.37701
                        -----------------------------------------
Magnitude (a.u.)       :      1.46319
Magnitude (Debye)      :      3.71913

Rotational constants in cm-1:     0.084925     0.064907     0.057027
Rotational constants in MHz :  2545.996716  1945.854021  1709.629832

                             ****ORCA TERMINATED NORMALLY****
TOTAL RUN TIME: 0 days 0 hours 0 minutes 41 seconds 464 msec
