                         Program Version 4.2.0 -  RELEASE  -
|  1> # 12h2o.su.etal.mol1,4,6,7,8,11
|  2> ! MP2 def2-TZVP EnGrad TightSCF
|  3>
|  4> %pal
|  5>     nprocs 6
|  6> end
|  7>
|  8> %maxcore 8000
|  9>
| 10> %scf
| 11>     ConvForced true
| 12> end
| 13>
| 14> *xyz 0 1
| 15> O  -1.794470000  -0.923410000   2.768350000
| 16> H  -2.338250000  -1.359750000   3.430940000
| 17> H  -0.879480000  -1.303000000   2.865760000
| 18> O  -0.885520000   1.737840000   0.052730000
| 19> H  -1.032320000   2.090180000  -0.841890000
| 20> H  -1.284090000   0.839590000   0.017130000
| 21> O   1.737840000   0.885520000  -0.052730000
| 22> H   2.090180000   1.032320000   0.841890000
| 23> H   0.839590000   1.284090000  -0.017130000
| 24> O  -1.737840000  -0.885520000  -0.052730000
| 25> H  -2.090180000  -1.032320000   0.841890000
| 26> H  -0.839590000  -1.284090000  -0.017130000
| 27> O   1.752130000   0.741530000  -2.896280000
| 28> H   2.036450000   0.920500000  -1.984040000
| 29> H   0.921210000   1.242140000  -2.984230000
| 30> O  -0.741530000   1.752130000   2.896280000
| 31> H  -0.920500000   2.036450000   1.984040000
| 32> H  -1.242140000   0.921210000   2.984230000
| 33> *
| 34>
| 35>                          ****END OF INPUT****

CARTESIAN COORDINATES (ANGSTROEM)
---------------------------------
  O     -1.794470   -0.923410    2.768350
  H     -2.338250   -1.359750    3.430940
  H     -0.879480   -1.303000    2.865760
  O     -0.885520    1.737840    0.052730
  H     -1.032320    2.090180   -0.841890
  H     -1.284090    0.839590    0.017130
  O      1.737840    0.885520   -0.052730
  H      2.090180    1.032320    0.841890
  H      0.839590    1.284090   -0.017130
  O     -1.737840   -0.885520   -0.052730
  H     -2.090180   -1.032320    0.841890
  H     -0.839590   -1.284090   -0.017130
  O      1.752130    0.741530   -2.896280
  H      2.036450    0.920500   -1.984040
  H      0.921210    1.242140   -2.984230
  O     -0.741530    1.752130    2.896280
  H     -0.920500    2.036450    1.984040
  H     -1.242140    0.921210    2.984230

 Total Charge           Charge          ....    0
 Multiplicity           Mult            ....    1
 Number of Electrons    NEL             ....   60
 Basis Dimension        Dim             ....  258

ORBITAL ENERGIES
----------------

  NO   OCC          E(Eh)            E(eV)
   0   2.0000     -20.630429      -561.3825
   1   2.0000     -20.590068      -560.2842
   2   2.0000     -20.584969      -560.1455
   3   2.0000     -20.551048      -559.2224
   4   2.0000     -20.528029      -558.5961
   5   2.0000     -20.526225      -558.5470
   6   2.0000      -1.411012       -38.3956
   7   2.0000      -1.381213       -37.5847
   8   2.0000      -1.365553       -37.1586
   9   2.0000      -1.334464       -36.3126
  10   2.0000      -1.311387       -35.6846
  11   2.0000      -1.309168       -35.6243
  12   2.0000      -0.776365       -21.1260
  13   2.0000      -0.740034       -20.1373
  14   2.0000      -0.736602       -20.0439
  15   2.0000      -0.708633       -19.2829
  16   2.0000      -0.692335       -18.8394
  17   2.0000      -0.678152       -18.4535
  18   2.0000      -0.654354       -17.8059
  19   2.0000      -0.622973       -16.9519
  20   2.0000      -0.611776       -16.6473
  21   2.0000      -0.589469       -16.0403
  22   2.0000      -0.568257       -15.4631
  23   2.0000      -0.546758       -14.8780
  24   2.0000      -0.540843       -14.7171
  25   2.0000      -0.530840       -14.4449
  26   2.0000      -0.522626       -14.2214
  27   2.0000      -0.499921       -13.6035
  28   2.0000      -0.475656       -12.9433
  29   2.0000      -0.474246       -12.9049
  30   0.0000       0.077065         2.0970
  31   0.0000       0.110324         3.0021
  32   0.0000       0.141340         3.8461
  33   0.0000       0.168249         4.5783
  34   0.0000       0.177648         4.8341

MULLIKEN ATOMIC CHARGES
-----------------------
   0 O :   -0.718587
   1 H :    0.371180
   2 H :    0.370836
   3 O :   -0.731667
   4 H :    0.352547
   5 H :    0.374356
   6 O :   -0.733744
   7 H :    0.344689
   8 H :    0.353271
   9 O :   -0.698062
  10 H :    0.380604
  11 H :    0.354221
  12 O :   -0.691829
  13 H :    0.374915
  14 H :    0.307591
  15 O :   -0.720507
  16 H :    0.369304
  17 H :    0.340879
Sum of atomic charges:   -0.0000000

LOEWDIN ATOMIC CHARGES
----------------------
   0 O :   -0.287913
   1 H :    0.171049
   2 H :    0.192235
   3 O :   -0.293920
   4 H :    0.167452
   5 H :    0.147509
   6 O :   -0.343322
   7 H :    0.165105
   8 H :    0.140516
   9 O :   -0.293009
  10 H :    0.153305
  11 H :    0.176654
  12 O :   -0.340076
  13 H :    0.154079
  14 H :    0.152047
  15 O :   -0.350685
  16 H :    0.149441
  17 H :    0.139533

  Mayer bond orders larger than 0.100000
B(  0-O ,  1-H ) :   0.8279 B(  0-O ,  2-H ) :   0.8202 B(  3-O ,  4-H ) :   0.8376
B(  3-O ,  5-H ) :   0.7561 B(  5-H ,  9-O ) :   0.1017 B(  6-O ,  7-H ) :   0.8447
B(  6-O ,  8-H ) :   0.7796 B(  9-O , 10-H ) :   0.8042 B(  9-O , 11-H ) :   0.8340
B( 12-O , 13-H ) :   0.8140 B( 12-O , 14-H ) :   0.8691 B( 15-O , 16-H ) :   0.8242
B( 15-O , 17-H ) :   0.8376

MP2 TOTAL ENERGY:     -457.925044444 Eh
FINAL SINGLE POINT ENERGY      -457.925044443592

DIPOLE MOMENT
-------------
                                X             Y             Z
Electronic contribution:     -0.21972      -0.20933       0.05843
Nuclear contribution   :     -1.16559      -1.02285       1.40687
                        -----------------------------------------
Total Dipole Moment    :     -1.38531      -1.23218       1.46530
                        -----------------------------------------
Magnitude (a.u.)       :      2.36314
Magnitude (Debye)      :      6.00664

Rotational constants in cm-1:     0.073770     0.027004     0.023384
Rotational constants in MHz :  2211.555454   809.560393   701.049361

                             ****ORCA TERMINATED NORMALLY****
TOTAL RUN TIME: 0 days 0 hours 1 minutes 2 seconds 240 msec
