                         Program Version 4.2.0 -  RELEASE  -
|  1> # 12meoh.boyd.etal.mol1
|  2> ! MP2 def2-TZVP EnGrad TightSCF
|  3>
|  4> %pal
|  5>     nprocs 6
|  6> end
|  7>
|  8> %maxcore 8000
|  9>
| 10> %scf
| 11>     ConvForced true
| 12> end
| 13>
| 14> *xyz 0 1
| 15> O   0.666045193  -2.600503172   0.138317521
| 16> H  -0.227115049  -2.712051982  -0.281868004
| 17> C   0.490021232  -1.851247678   1.341189459
| 18> H   1.466500502  -1.466176022   1.645844415
| 19> H   0.097564527  -2.488364683   2.146902740
| 20> H  -0.187588112  -1.000787499   1.200739571
| 21> *
| 22>
| 23>                          ****END OF INPUT****

CARTESIAN COORDINATES (ANGSTROEM)
---------------------------------
  O      0.666045   -2.600503    0.138318
  H     -0.227115   -2.712052   -0.281868
  C      0.490021   -1.851248    1.341189
  H      1.466501   -1.466176    1.645844
  H      0.097565   -2.488365    2.146903
  H     -0.187588   -1.000787    1.200740

 Total Charge           Charge          ....    0
 Multiplicity           Mult            ....    1
 Number of Electrons    NEL             ....   18
 Basis Dimension        Dim             ....   86

ORBITAL ENERGIES
----------------

  NO   OCC          E(Eh)            E(eV)
   0   2.0000     -20.557180      -559.3893
   1   2.0000     -11.271894      -306.7238
   2   2.0000      -1.345307       -36.6077
   3   2.0000      -0.920015       -25.0349
   4   2.0000      -0.680891       -18.5280
   5   2.0000      -0.616669       -16.7804
   6   2.0000      -0.590016       -16.0552
   7   2.0000      -0.501068       -13.6347
   8   2.0000      -0.449390       -12.2285
   9   0.0000       0.134688         3.6651
  10   0.0000       0.175741         4.7822
  11   0.0000       0.227127         6.1804
  12   0.0000       0.232442         6.3251
  13   0.0000       0.255528         6.9533

MULLIKEN ATOMIC CHARGES
-----------------------
   0 O :   -0.496804
   1 H :    0.321849
   2 C :   -0.175703
   3 H :    0.129260
   4 H :    0.110342
   5 H :    0.111056
Sum of atomic charges:    0.0000000

LOEWDIN ATOMIC CHARGES
----------------------
   0 O :   -0.112592
   1 H :    0.189629
   2 C :   -0.378112
   3 H :    0.109291
   4 H :    0.095986
   5 H :    0.095799

  Mayer bond orders larger than 0.100000
B(  0-O ,  1-H ) :   0.8431 B(  0-O ,  2-C ) :   0.9275 B(  2-C ,  3-H ) :   0.9381
B(  2-C ,  4-H ) :   0.9377 B(  2-C ,  5-H ) :   0.9413

MP2 TOTAL ENERGY:     -115.506326867 Eh
FINAL SINGLE POINT ENERGY      -115.506326867483

DIPOLE MOMENT
-------------
                                X             Y             Z
Electronic contribution:      0.36871      -0.93309      -1.48415
Nuclear contribution   :     -0.99304       1.18332       1.70966
                        -----------------------------------------
Total Dipole Moment    :     -0.62433       0.25023       0.22550
                        -----------------------------------------
Magnitude (a.u.)       :      0.70940
Magnitude (Debye)      :      1.80315

Rotational constants in cm-1:     4.196751     0.818276     0.787725
Rotational constants in MHz : 125815.442143 24531.308619 23615.407112

                             ****ORCA TERMINATED NORMALLY****
TOTAL RUN TIME: 0 days 0 hours 0 minutes 10 seconds 59 msec
