                         Program Version 4.2.0 -  RELEASE  -
|  1> # 12h2o.su.etal.mol1,2,3,5,6,7,9
|  2> ! MP2 def2-TZVP EnGrad TightSCF
|  3>
|  4> %pal
|  5>     nprocs 6
|  6> end
|  7>
|  8> %maxcore 8000
|  9>
| 10> %scf
| 11>     ConvForced true
| 12> end
| 13>
| 14> *xyz 0 1
| 15> O  -1.794470000  -0.923410000   2.768350000
| 16> H  -2.338250000  -1.359750000   3.430940000
| 17> H  -0.879480000  -1.303000000   2.865760000
| 18> O   0.923410000  -1.794470000  -2.768350000
| 19> H   1.359750000  -2.338250000  -3.430940000
| 20> H   1.303000000  -0.879480000  -2.865760000
| 21> O  -1.752130000  -0.741530000  -2.896280000
| 22> H  -2.036450000  -0.920500000  -1.984040000
| 23> H  -0.921210000  -1.242140000  -2.984230000
| 24> O   0.885520000  -1.737840000   0.052730000
| 25> H   1.284090000  -0.839590000   0.017130000
| 26> H   1.032320000  -2.090180000  -0.841890000
| 27> O   1.737840000   0.885520000  -0.052730000
| 28> H   2.090180000   1.032320000   0.841890000
| 29> H   0.839590000   1.284090000  -0.017130000
| 30> O  -1.737840000  -0.885520000  -0.052730000
| 31> H  -2.090180000  -1.032320000   0.841890000
| 32> H  -0.839590000  -1.284090000  -0.017130000
| 33> O   0.741530000  -1.752130000   2.896280000
| 34> H   0.920500000  -2.036450000   1.984040000
| 35> H   1.242140000  -0.921210000   2.984230000
| 36> *
| 37>
| 38>                          ****END OF INPUT****

CARTESIAN COORDINATES (ANGSTROEM)
---------------------------------
  O     -1.794470   -0.923410    2.768350
  H     -2.338250   -1.359750    3.430940
  H     -0.879480   -1.303000    2.865760
  O      0.923410   -1.794470   -2.768350
  H      1.359750   -2.338250   -3.430940
  H      1.303000   -0.879480   -2.865760
  O     -1.752130   -0.741530   -2.896280
  H     -2.036450   -0.920500   -1.984040
  H     -0.921210   -1.242140   -2.984230
  O      0.885520   -1.737840    0.052730
  H      1.284090   -0.839590    0.017130
  H      1.032320   -2.090180   -0.841890
  O      1.737840    0.885520   -0.052730
  H      2.090180    1.032320    0.841890
  H      0.839590    1.284090   -0.017130
  O     -1.737840   -0.885520   -0.052730
  H     -2.090180   -1.032320    0.841890
  H     -0.839590   -1.284090   -0.017130
  O      0.741530   -1.752130    2.896280
  H      0.920500   -2.036450    1.984040
  H      1.242140   -0.921210    2.984230

 Total Charge           Charge          ....    0
 Multiplicity           Mult            ....    1
 Number of Electrons    NEL             ....   70
 Basis Dimension        Dim             ....  301

ORBITAL ENERGIES
----------------

  NO   OCC          E(Eh)            E(eV)
   0   2.0000     -20.617146      -561.0211
   1   2.0000     -20.612402      -560.8920
   2   2.0000     -20.584175      -560.1239
   3   2.0000     -20.570548      -559.7531
   4   2.0000     -20.536341      -558.8222
   5   2.0000     -20.508931      -558.0764
   6   2.0000     -20.494037      -557.6711
   7   2.0000      -1.398897       -38.0659
   8   2.0000      -1.392657       -37.8961
   9   2.0000      -1.375020       -37.4162
  10   2.0000      -1.358223       -36.9591
  11   2.0000      -1.321300       -35.9544
  12   2.0000      -1.296054       -35.2674
  13   2.0000      -1.278237       -34.7826
  14   2.0000      -0.758711       -20.6456
  15   2.0000      -0.754876       -20.5412
  16   2.0000      -0.740895       -20.1608
  17   2.0000      -0.728564       -19.8252
  18   2.0000      -0.705595       -19.2002
  19   2.0000      -0.677461       -18.4347
  20   2.0000      -0.660537       -17.9741
  21   2.0000      -0.650768       -17.7083
  22   2.0000      -0.628542       -17.1035
  23   2.0000      -0.618929       -16.8419
  24   2.0000      -0.593722       -16.1560
  25   2.0000      -0.577953       -15.7269
  26   2.0000      -0.563610       -15.3366
  27   2.0000      -0.553383       -15.0583
  28   2.0000      -0.538746       -14.6600
  29   2.0000      -0.518120       -14.0987
  30   2.0000      -0.512653       -13.9500
  31   2.0000      -0.504226       -13.7207
  32   2.0000      -0.482398       -13.1267
  33   2.0000      -0.460723       -12.5369
  34   2.0000      -0.443740       -12.0748
  35   0.0000       0.076145         2.0720
  36   0.0000       0.106171         2.8891
  37   0.0000       0.148325         4.0361
  38   0.0000       0.158805         4.3213
  39   0.0000       0.185536         5.0487

MULLIKEN ATOMIC CHARGES
-----------------------
   0 O :   -0.737650
   1 H :    0.334335
   2 H :    0.370187
   3 O :   -0.714197
   4 H :    0.364231
   5 H :    0.374810
   6 O :   -0.729416
   7 H :    0.373930
   8 H :    0.333244
   9 O :   -0.747782
  10 H :    0.351728
  11 H :    0.385340
  12 O :   -0.691636
  13 H :    0.353191
  14 H :    0.381702
  15 O :   -0.749122
  16 H :    0.368701
  17 H :    0.340558
  18 O :   -0.688373
  19 H :    0.392315
  20 H :    0.333905
Sum of atomic charges:   -0.0000000

LOEWDIN ATOMIC CHARGES
----------------------
   0 O :   -0.342240
   1 H :    0.152382
   2 H :    0.143435
   3 O :   -0.286482
   4 H :    0.167968
   5 H :    0.193306
   6 O :   -0.358855
   7 H :    0.151542
   8 H :    0.135962
   9 O :   -0.302296
  10 H :    0.139382
  11 H :    0.153990
  12 O :   -0.289374
  13 H :    0.170701
  14 H :    0.189738
  15 O :   -0.351294
  16 H :    0.148342
  17 H :    0.134312
  18 O :   -0.273919
  19 H :    0.159088
  20 H :    0.164310

  Mayer bond orders larger than 0.100000
B(  0-O ,  1-H ) :   0.8520 B(  0-O ,  2-H ) :   0.7658 B(  3-O ,  4-H ) :   0.8322
B(  3-O ,  5-H ) :   0.8176 B(  6-O ,  7-H ) :   0.8119 B(  6-O ,  8-H ) :   0.8453
B(  9-O , 10-H ) :   0.7768 B(  9-O , 11-H ) :   0.8004 B( 12-O , 13-H ) :   0.8401
B( 12-O , 14-H ) :   0.8153 B( 15-O , 16-H ) :   0.8083 B( 15-O , 17-H ) :   0.7949
B( 18-O , 19-H ) :   0.7932 B( 18-O , 20-H ) :   0.8504

MP2 TOTAL ENERGY:     -534.254052429 Eh
FINAL SINGLE POINT ENERGY      -534.254052428578

DIPOLE MOMENT
-------------
                                X             Y             Z
Electronic contribution:      0.28034       0.04166      -0.14290
Nuclear contribution   :      2.46270      -0.02646       0.77428
                        -----------------------------------------
Total Dipole Moment    :      2.74304       0.01520       0.63138
                        -----------------------------------------
Magnitude (a.u.)       :      2.81481
Magnitude (Debye)      :      7.15467

Rotational constants in cm-1:     0.046794     0.024735     0.019974
Rotational constants in MHz :  1402.853109   741.532160   598.807470

                             ****ORCA TERMINATED NORMALLY****
TOTAL RUN TIME: 0 days 0 hours 1 minutes 53 seconds 448 msec
