                         Program Version 4.2.0 -  RELEASE  -
|  1> # 12mecn.remya.etal.2.mol3,5,10
|  2> ! MP2 def2-TZVP EnGrad TightSCF
|  3>
|  4> %pal
|  5>     nprocs 6
|  6> end
|  7>
|  8> %maxcore 8000
|  9>
| 10> %scf
| 11>     ConvForced true
| 12> end
| 13>
| 14> *xyz 0 1
| 15> C  -5.181310000   2.853865000  -1.626100000
| 16> H  -5.488260000   3.811434000  -2.053310000
| 17> H  -5.857590000   2.068112000  -1.968630000
| 18> H  -4.170750000   2.611402000  -1.966640000
| 19> C  -5.187260000   2.919160000  -0.181450000
| 20> N  -5.181700000   2.970641000   0.983640000
| 21> C  -1.955700000   2.515080000   1.698463000
| 22> H  -2.923830000   2.883163000   2.049269000
| 23> H  -1.154850000   3.171830000   2.050990000
| 24> H  -1.790380000   1.506115000   2.087896000
| 25> C  -1.948230000   2.482156000   0.253672000
| 26> N  -1.937550000   2.462523000  -0.913150000
| 27> C   4.602033000   0.321019000  -1.784800000
| 28> H   4.827650000  -0.662160000  -2.207910000
| 29> H   5.320558000   1.057980000  -2.148500000
| 30> H   3.601982000   0.643751000  -2.087520000
| 31> C   4.654967000   0.244048000  -0.343060000
| 32> N   4.691648000   0.166590000   0.820757000
| 33> *
| 34>
| 35>                          ****END OF INPUT****

CARTESIAN COORDINATES (ANGSTROEM)
---------------------------------
  C     -5.181310    2.853865   -1.626100
  H     -5.488260    3.811434   -2.053310
  H     -5.857590    2.068112   -1.968630
  H     -4.170750    2.611402   -1.966640
  C     -5.187260    2.919160   -0.181450
  N     -5.181700    2.970641    0.983640
  C     -1.955700    2.515080    1.698463
  H     -2.923830    2.883163    2.049269
  H     -1.154850    3.171830    2.050990
  H     -1.790380    1.506115    2.087896
  C     -1.948230    2.482156    0.253672
  N     -1.937550    2.462523   -0.913150
  C      4.602033    0.321019   -1.784800
  H      4.827650   -0.662160   -2.207910
  H      5.320558    1.057980   -2.148500
  H      3.601982    0.643751   -2.087520
  C      4.654967    0.244048   -0.343060
  N      4.691648    0.166590    0.820757

 Total Charge           Charge          ....    0
 Multiplicity           Mult            ....    1
 Number of Electrons    NEL             ....   66
 Basis Dimension        Dim             ....  333

ORBITAL ENERGIES
----------------

  NO   OCC          E(Eh)            E(eV)
   0   2.0000     -15.572661      -423.7537
   1   2.0000     -15.571644      -423.7260
   2   2.0000     -15.571435      -423.7203
   3   2.0000     -11.283837      -307.0488
   4   2.0000     -11.283696      -307.0450
   5   2.0000     -11.283453      -307.0384
   6   2.0000     -11.279880      -306.9411
   7   2.0000     -11.271974      -306.7260
   8   2.0000     -11.270811      -306.6944
   9   2.0000      -1.218733       -33.1634
  10   2.0000      -1.214489       -33.0479
  11   2.0000      -1.214066       -33.0364
  12   2.0000      -1.043223       -28.3875
  13   2.0000      -1.036316       -28.1996
  14   2.0000      -1.033285       -28.1171
  15   2.0000      -0.699082       -19.0230
  16   2.0000      -0.695675       -18.9303
  17   2.0000      -0.690465       -18.7885
  18   2.0000      -0.633263       -17.2320
  19   2.0000      -0.630658       -17.1611
  20   2.0000      -0.628747       -17.1091
  21   2.0000      -0.623489       -16.9660
  22   2.0000      -0.620331       -16.8801
  23   2.0000      -0.613681       -16.6991
  24   2.0000      -0.559761       -15.2319
  25   2.0000      -0.556497       -15.1431
  26   2.0000      -0.555618       -15.1191
  27   2.0000      -0.460744       -12.5375
  28   2.0000      -0.459351       -12.4996
  29   2.0000      -0.457423       -12.4471
  30   2.0000      -0.457341       -12.4449
  31   2.0000      -0.456821       -12.4307
  32   2.0000      -0.456400       -12.4193
  33   0.0000       0.120047         3.2666
  34   0.0000       0.128874         3.5069
  35   0.0000       0.143337         3.9004
  36   0.0000       0.169204         4.6043
  37   0.0000       0.172064         4.6821

MULLIKEN ATOMIC CHARGES
-----------------------
   0 C :   -0.287113
   1 H :    0.166566
   2 H :    0.166145
   3 H :    0.205330
   4 C :   -0.102350
   5 N :   -0.148955
   6 C :   -0.283302
   7 H :    0.204791
   8 H :    0.168559
   9 H :    0.168425
  10 C :   -0.101752
  11 N :   -0.156335
  12 C :   -0.279572
  13 H :    0.171836
  14 H :    0.171481
  15 H :    0.176122
  16 C :   -0.145549
  17 N :   -0.094326
Sum of atomic charges:   -0.0000000

LOEWDIN ATOMIC CHARGES
----------------------
   0 C :   -0.282621
   1 H :    0.151189
   2 H :    0.150484
   3 H :    0.157036
   4 C :   -0.206958
   5 N :    0.030901
   6 C :   -0.281478
   7 H :    0.156860
   8 H :    0.152073
   9 H :    0.153783
  10 C :   -0.207165
  11 N :    0.025901
  12 C :   -0.283323
  13 H :    0.152931
  14 H :    0.151457
  15 H :    0.154312
  16 C :   -0.219492
  17 N :    0.044110

  Mayer bond orders larger than 0.100000
B(  0-C ,  1-H ) :   0.9146 B(  0-C ,  2-H ) :   0.9163 B(  0-C ,  3-H ) :   0.9015
B(  0-C ,  4-C ) :   0.9028 B(  4-C ,  5-N ) :   2.7716 B(  6-C ,  7-H ) :   0.9015
B(  6-C ,  8-H ) :   0.9153 B(  6-C ,  9-H ) :   0.9136 B(  6-C , 10-C ) :   0.9020
B( 10-C , 11-N ) :   2.7721 B( 12-C , 13-H ) :   0.9158 B( 12-C , 14-H ) :   0.9168
B( 12-C , 15-H ) :   0.9157 B( 12-C , 16-C ) :   0.9015 B( 16-C , 17-N ) :   2.8384

MP2 TOTAL ENERGY:     -397.459962872 Eh
FINAL SINGLE POINT ENERGY      -397.459962871818

DIPOLE MOMENT
-------------
                                X             Y             Z
Electronic contribution:      0.11139      -0.08697       3.12996
Nuclear contribution   :     -0.17419       0.14199      -4.64223
                        -----------------------------------------
Total Dipole Moment    :     -0.06280       0.05502      -1.51227
                        -----------------------------------------
Magnitude (a.u.)       :      1.51457
Magnitude (Debye)      :      3.84973

Rotational constants in cm-1:     0.090814     0.007523     0.007003
Rotational constants in MHz :  2722.537632   225.548545   209.933824

                             ****ORCA TERMINATED NORMALLY****
TOTAL RUN TIME: 0 days 0 hours 2 minutes 41 seconds 494 msec
