                         Program Version 4.2.0 -  RELEASE  -
|  1> # 12mecn.remya.etal.2.mol4,10
|  2> ! MP2 def2-TZVP EnGrad TightSCF
|  3>
|  4> %pal
|  5>     nprocs 6
|  6> end
|  7>
|  8> %maxcore 8000
|  9>
| 10> %scf
| 11>     ConvForced true
| 12> end
| 13>
| 14> *xyz 0 1
| 15> C  -1.509690000  -0.693960000  -1.610140000
| 16> H  -1.327010000  -1.692700000  -2.017370000
| 17> H  -0.742170000  -0.000650000  -1.964400000
| 18> H  -2.491920000  -0.334310000  -1.929350000
| 19> C  -1.473570000  -0.748120000  -0.167200000
| 20> N  -1.447490000  -0.793720000   0.998938000
| 21> C   4.602033000   0.321019000  -1.784800000
| 22> H   4.827650000  -0.662160000  -2.207910000
| 23> H   5.320558000   1.057980000  -2.148500000
| 24> H   3.601982000   0.643751000  -2.087520000
| 25> C   4.654967000   0.244048000  -0.343060000
| 26> N   4.691648000   0.166590000   0.820757000
| 27> *
| 28>
| 29>                          ****END OF INPUT****

CARTESIAN COORDINATES (ANGSTROEM)
---------------------------------
  C     -1.509690   -0.693960   -1.610140
  H     -1.327010   -1.692700   -2.017370
  H     -0.742170   -0.000650   -1.964400
  H     -2.491920   -0.334310   -1.929350
  C     -1.473570   -0.748120   -0.167200
  N     -1.447490   -0.793720    0.998938
  C      4.602033    0.321019   -1.784800
  H      4.827650   -0.662160   -2.207910
  H      5.320558    1.057980   -2.148500
  H      3.601982    0.643751   -2.087520
  C      4.654967    0.244048   -0.343060
  N      4.691648    0.166590    0.820757

 Total Charge           Charge          ....    0
 Multiplicity           Mult            ....    1
 Number of Electrons    NEL             ....   44
 Basis Dimension        Dim             ....  222

ORBITAL ENERGIES
----------------

  NO   OCC          E(Eh)            E(eV)
   0   2.0000     -15.573696      -423.7818
   1   2.0000     -15.573497      -423.7764
   2   2.0000     -11.287610      -307.1515
   3   2.0000     -11.287524      -307.1492
   4   2.0000     -11.280047      -306.9457
   5   2.0000     -11.279856      -306.9405
   6   2.0000      -1.214578       -33.0504
   7   2.0000      -1.214193       -33.0399
   8   2.0000      -1.046234       -28.4695
   9   2.0000      -1.046195       -28.4684
  10   2.0000      -0.701880       -19.0991
  11   2.0000      -0.700896       -19.0723
  12   2.0000      -0.636711       -17.3258
  13   2.0000      -0.635601       -17.2956
  14   2.0000      -0.634050       -17.2534
  15   2.0000      -0.632402       -17.2085
  16   2.0000      -0.555676       -15.1207
  17   2.0000      -0.555375       -15.1125
  18   2.0000      -0.458027       -12.4636
  19   2.0000      -0.457550       -12.4506
  20   2.0000      -0.457486       -12.4488
  21   2.0000      -0.457157       -12.4399
  22   0.0000       0.099812         2.7160
  23   0.0000       0.125838         3.4242
  24   0.0000       0.157930         4.2975
  25   0.0000       0.169097         4.6014
  26   0.0000       0.170574         4.6416

MULLIKEN ATOMIC CHARGES
-----------------------
   0 C :   -0.278169
   1 H :    0.172235
   2 H :    0.166089
   3 H :    0.172986
   4 C :   -0.145693
   5 N :   -0.087450
   6 C :   -0.278778
   7 H :    0.172560
   8 H :    0.172972
   9 H :    0.165667
  10 C :   -0.145717
  11 N :   -0.086702
Sum of atomic charges:    0.0000000

LOEWDIN ATOMIC CHARGES
----------------------
   0 C :   -0.284712
   1 H :    0.152343
   2 H :    0.150677
   3 H :    0.153098
   4 C :   -0.221245
   5 N :    0.049838
   6 C :   -0.284711
   7 H :    0.152656
   8 H :    0.151577
   9 H :    0.150977
  10 C :   -0.220732
  11 N :    0.050233

  Mayer bond orders larger than 0.100000
B(  0-C ,  1-H ) :   0.9168 B(  0-C ,  2-H ) :   0.9184 B(  0-C ,  3-H ) :   0.9167
B(  0-C ,  4-C ) :   0.9004 B(  4-C ,  5-N ) :   2.8332 B(  6-C ,  7-H ) :   0.9164
B(  6-C ,  8-H ) :   0.9171 B(  6-C ,  9-H ) :   0.9185 B(  6-C , 10-C ) :   0.9013
B( 10-C , 11-N ) :   2.8332

MP2 TOTAL ENERGY:     -264.964967486 Eh
FINAL SINGLE POINT ENERGY      -264.964967485768

DIPOLE MOMENT
-------------
                                X             Y             Z
Electronic contribution:      0.20672      -0.31446       6.25604
Nuclear contribution   :     -0.29513       0.46497      -9.25453
                        -----------------------------------------
Total Dipole Moment    :     -0.08841       0.15050      -2.99848
                        -----------------------------------------
Magnitude (a.u.)       :      3.00356
Magnitude (Debye)      :      7.63444

Rotational constants in cm-1:     0.154299     0.021141     0.018729
Rotational constants in MHz :  4625.764789   633.794068   561.469251

                             ****ORCA TERMINATED NORMALLY****
TOTAL RUN TIME: 0 days 0 hours 0 minutes 40 seconds 577 msec
