                         Program Version 4.2.0 -  RELEASE  -
|  1> # 12h2o.su.etal.mol1,3,4,8,9
|  2> ! MP2 def2-TZVP EnGrad TightSCF
|  3>
|  4> %pal
|  5>     nprocs 6
|  6> end
|  7>
|  8> %maxcore 8000
|  9>
| 10> %scf
| 11>     ConvForced true
| 12> end
| 13>
| 14> *xyz 0 1
| 15> O  -1.794470000  -0.923410000   2.768350000
| 16> H  -2.338250000  -1.359750000   3.430940000
| 17> H  -0.879480000  -1.303000000   2.865760000
| 18> O  -1.752130000  -0.741530000  -2.896280000
| 19> H  -2.036450000  -0.920500000  -1.984040000
| 20> H  -0.921210000  -1.242140000  -2.984230000
| 21> O  -0.885520000   1.737840000   0.052730000
| 22> H  -1.032320000   2.090180000  -0.841890000
| 23> H  -1.284090000   0.839590000   0.017130000
| 24> O   1.752130000   0.741530000  -2.896280000
| 25> H   2.036450000   0.920500000  -1.984040000
| 26> H   0.921210000   1.242140000  -2.984230000
| 27> O   0.741530000  -1.752130000   2.896280000
| 28> H   0.920500000  -2.036450000   1.984040000
| 29> H   1.242140000  -0.921210000   2.984230000
| 30> *
| 31>
| 32>                          ****END OF INPUT****

CARTESIAN COORDINATES (ANGSTROEM)
---------------------------------
  O     -1.794470   -0.923410    2.768350
  H     -2.338250   -1.359750    3.430940
  H     -0.879480   -1.303000    2.865760
  O     -1.752130   -0.741530   -2.896280
  H     -2.036450   -0.920500   -1.984040
  H     -0.921210   -1.242140   -2.984230
  O     -0.885520    1.737840    0.052730
  H     -1.032320    2.090180   -0.841890
  H     -1.284090    0.839590    0.017130
  O      1.752130    0.741530   -2.896280
  H      2.036450    0.920500   -1.984040
  H      0.921210    1.242140   -2.984230
  O      0.741530   -1.752130    2.896280
  H      0.920500   -2.036450    1.984040
  H      1.242140   -0.921210    2.984230

 Total Charge           Charge          ....    0
 Multiplicity           Mult            ....    1
 Number of Electrons    NEL             ....   50
 Basis Dimension        Dim             ....  215

ORBITAL ENERGIES
----------------

  NO   OCC          E(Eh)            E(eV)
   0   2.0000     -20.605675      -560.7089
   1   2.0000     -20.575243      -559.8808
   2   2.0000     -20.569037      -559.7119
   3   2.0000     -20.567729      -559.6764
   4   2.0000     -20.527310      -558.5765
   5   2.0000      -1.390941       -37.8494
   6   2.0000      -1.354291       -36.8521
   7   2.0000      -1.348092       -36.6835
   8   2.0000      -1.343347       -36.5543
   9   2.0000      -1.309552       -35.6347
  10   2.0000      -0.748404       -20.3651
  11   2.0000      -0.717093       -19.5131
  12   2.0000      -0.710590       -19.3361
  13   2.0000      -0.705184       -19.1890
  14   2.0000      -0.700282       -19.0556
  15   2.0000      -0.625861       -17.0305
  16   2.0000      -0.591909       -16.1066
  17   2.0000      -0.586263       -15.9530
  18   2.0000      -0.582490       -15.8504
  19   2.0000      -0.566959       -15.4277
  20   2.0000      -0.523507       -14.2453
  21   2.0000      -0.520543       -14.1647
  22   2.0000      -0.512055       -13.9337
  23   2.0000      -0.509853       -13.8738
  24   2.0000      -0.477633       -12.9970
  25   0.0000       0.080242         2.1835
  26   0.0000       0.108753         2.9593
  27   0.0000       0.135278         3.6811
  28   0.0000       0.157550         4.2872
  29   0.0000       0.172279         4.6879

MULLIKEN ATOMIC CHARGES
-----------------------
   0 O :   -0.732532
   1 H :    0.328311
   2 H :    0.363862
   3 O :   -0.678524
   4 H :    0.332391
   5 H :    0.347564
   6 O :   -0.674311
   7 H :    0.332069
   8 H :    0.339031
   9 O :   -0.679884
  10 H :    0.338663
  11 H :    0.339724
  12 O :   -0.676495
  13 H :    0.355581
  14 H :    0.364549
Sum of atomic charges:   -0.0000000

LOEWDIN ATOMIC CHARGES
----------------------
   0 O :   -0.372261
   1 H :    0.150485
   2 H :    0.141350
   3 O :   -0.329186
   4 H :    0.161393
   5 H :    0.169275
   6 O :   -0.333670
   7 H :    0.161009
   8 H :    0.170091
   9 O :   -0.331326
  10 H :    0.165101
  11 H :    0.164647
  12 O :   -0.269844
  13 H :    0.173732
  14 H :    0.179203

  Mayer bond orders larger than 0.100000
B(  0-O ,  1-H ) :   0.8588 B(  0-O ,  2-H ) :   0.7879 B(  3-O ,  4-H ) :   0.8536
B(  3-O ,  5-H ) :   0.8431 B(  6-O ,  7-H ) :   0.8539 B(  6-O ,  8-H ) :   0.8452
B(  9-O , 10-H ) :   0.8511 B(  9-O , 11-H ) :   0.8479 B( 12-O , 13-H ) :   0.8388
B( 12-O , 14-H ) :   0.8328

MP2 TOTAL ENERGY:     -381.577765793 Eh
FINAL SINGLE POINT ENERGY      -381.577765792707

DIPOLE MOMENT
-------------
                                X             Y             Z
Electronic contribution:      0.22240       0.01973      -0.04365
Nuclear contribution   :      0.42069      -0.67857       0.54442
                        -----------------------------------------
Total Dipole Moment    :      0.64309      -0.65885       0.50077
                        -----------------------------------------
Magnitude (a.u.)       :      1.04805
Magnitude (Debye)      :      2.66394

Rotational constants in cm-1:     0.060806     0.022944     0.020958
Rotational constants in MHz :  1822.924754   687.857087   628.306747

                             ****ORCA TERMINATED NORMALLY****
TOTAL RUN TIME: 0 days 0 hours 0 minutes 27 seconds 978 msec
