                         Program Version 4.2.0 -  RELEASE  -
|  1> # 12mecn.remya.etal.2.mol6,11
|  2> ! MP2 def2-TZVP EnGrad TightSCF
|  3>
|  4> %pal
|  5>     nprocs 6
|  6> end
|  7>
|  8> %maxcore 8000
|  9>
| 10> %scf
| 11>     ConvForced true
| 12> end
| 13>
| 14> *xyz 0 1
| 15> C   5.300864000  -2.920090000   1.401103000
| 16> H   5.986071000  -2.139770000   1.737487000
| 17> H   5.636642000  -3.888750000   1.778233000
| 18> H   4.307359000  -2.697240000   1.799307000
| 19> C   5.234791000  -2.933140000  -0.043290000
| 20> N   5.170868000  -2.941760000  -1.207750000
| 21> C   4.214163000   3.378139000   1.593627000
| 22> H   3.242643000   3.657109000   2.012358000
| 23> H   4.969258000   4.086643000   1.941290000
| 24> H   4.482966000   2.372549000   1.931698000
| 25> C   4.130759000   3.388436000   0.150192000
| 26> N   4.050180000   3.381449000  -1.013420000
| 27> *
| 28>
| 29>                          ****END OF INPUT****

CARTESIAN COORDINATES (ANGSTROEM)
---------------------------------
  C      5.300864   -2.920090    1.401103
  H      5.986071   -2.139770    1.737487
  H      5.636642   -3.888750    1.778233
  H      4.307359   -2.697240    1.799307
  C      5.234791   -2.933140   -0.043290
  N      5.170868   -2.941760   -1.207750
  C      4.214163    3.378139    1.593627
  H      3.242643    3.657109    2.012358
  H      4.969258    4.086643    1.941290
  H      4.482966    2.372549    1.931698
  C      4.130759    3.388436    0.150192
  N      4.050180    3.381449   -1.013420

 Total Charge           Charge          ....    0
 Multiplicity           Mult            ....    1
 Number of Electrons    NEL             ....   44
 Basis Dimension        Dim             ....  222

ORBITAL ENERGIES
----------------

  NO   OCC          E(Eh)            E(eV)
   0   2.0000     -15.573864      -423.7864
   1   2.0000     -15.573563      -423.7782
   2   2.0000     -11.287709      -307.1542
   3   2.0000     -11.287030      -307.1357
   4   2.0000     -11.280294      -306.9524
   5   2.0000     -11.280001      -306.9444
   6   2.0000      -1.215069       -33.0637
   7   2.0000      -1.214847       -33.0577
   8   2.0000      -1.045647       -28.4535
   9   2.0000      -1.045581       -28.4517
  10   2.0000      -0.702816       -19.1246
  11   2.0000      -0.702420       -19.1138
  12   2.0000      -0.634872       -17.2757
  13   2.0000      -0.634334       -17.2611
  14   2.0000      -0.633205       -17.2304
  15   2.0000      -0.632182       -17.2025
  16   2.0000      -0.556031       -15.1304
  17   2.0000      -0.555817       -15.1245
  18   2.0000      -0.458310       -12.4713
  19   2.0000      -0.458221       -12.4688
  20   2.0000      -0.458114       -12.4659
  21   2.0000      -0.457742       -12.4558
  22   0.0000       0.103544         2.8176
  23   0.0000       0.124754         3.3947
  24   0.0000       0.164944         4.4884
  25   0.0000       0.169658         4.6166
  26   0.0000       0.169902         4.6233

MULLIKEN ATOMIC CHARGES
-----------------------
   0 C :   -0.283049
   1 H :    0.169203
   2 H :    0.173407
   3 H :    0.171006
   4 C :   -0.144801
   5 N :   -0.085772
   6 C :   -0.279759
   7 H :    0.172797
   8 H :    0.172857
   9 H :    0.165951
  10 C :   -0.145739
  11 N :   -0.086101
Sum of atomic charges:    0.0000000

LOEWDIN ATOMIC CHARGES
----------------------
   0 C :   -0.285069
   1 H :    0.150275
   2 H :    0.151543
   3 H :    0.152275
   4 C :   -0.219549
   5 N :    0.050523
   6 C :   -0.284977
   7 H :    0.152833
   8 H :    0.151020
   9 H :    0.151035
  10 C :   -0.220178
  11 N :    0.050269

  Mayer bond orders larger than 0.100000
B(  0-C ,  1-H ) :   0.9181 B(  0-C ,  2-H ) :   0.9160 B(  0-C ,  3-H ) :   0.9177
B(  0-C ,  4-C ) :   0.9022 B(  4-C ,  5-N ) :   2.8339 B(  6-C ,  7-H ) :   0.9167
B(  6-C ,  8-H ) :   0.9168 B(  6-C ,  9-H ) :   0.9180 B(  6-C , 10-C ) :   0.9024
B( 10-C , 11-N ) :   2.8335

MP2 TOTAL ENERGY:     -264.965219367 Eh
FINAL SINGLE POINT ENERGY      -264.965219366536

DIPOLE MOMENT
-------------
                                X             Y             Z
Electronic contribution:     -0.30863      -0.01805      -6.29155
Nuclear contribution   :      0.47396       0.03408       9.29826
                        -----------------------------------------
Total Dipole Moment    :      0.16533       0.01603       3.00671
                        -----------------------------------------
Magnitude (a.u.)       :      3.01130
Magnitude (Debye)      :      7.65411

Rotational constants in cm-1:     0.154235     0.019831     0.017689
Rotational constants in MHz :  4623.854416   594.507285   530.295652

                             ****ORCA TERMINATED NORMALLY****
TOTAL RUN TIME: 0 days 0 hours 0 minutes 41 seconds 230 msec
