                         Program Version 4.2.0 -  RELEASE  -
|  1> # 12h2o.su.etal.mol0,2,3,4,5,7,8,9
|  2> ! MP2 def2-TZVP EnGrad TightSCF
|  3>
|  4> %pal
|  5>     nprocs 6
|  6> end
|  7>
|  8> %maxcore 8000
|  9>
| 10> %scf
| 11>     ConvForced true
| 12> end
| 13>
| 14> *xyz 0 1
| 15> O   1.794470000   0.923410000   2.768350000
| 16> H   2.338250000   1.359750000   3.430940000
| 17> H   0.879480000   1.303000000   2.865760000
| 18> O   0.923410000  -1.794470000  -2.768350000
| 19> H   1.359750000  -2.338250000  -3.430940000
| 20> H   1.303000000  -0.879480000  -2.865760000
| 21> O  -1.752130000  -0.741530000  -2.896280000
| 22> H  -2.036450000  -0.920500000  -1.984040000
| 23> H  -0.921210000  -1.242140000  -2.984230000
| 24> O  -0.885520000   1.737840000   0.052730000
| 25> H  -1.032320000   2.090180000  -0.841890000
| 26> H  -1.284090000   0.839590000   0.017130000
| 27> O   0.885520000  -1.737840000   0.052730000
| 28> H   1.284090000  -0.839590000   0.017130000
| 29> H   1.032320000  -2.090180000  -0.841890000
| 30> O  -1.737840000  -0.885520000  -0.052730000
| 31> H  -2.090180000  -1.032320000   0.841890000
| 32> H  -0.839590000  -1.284090000  -0.017130000
| 33> O   1.752130000   0.741530000  -2.896280000
| 34> H   2.036450000   0.920500000  -1.984040000
| 35> H   0.921210000   1.242140000  -2.984230000
| 36> O   0.741530000  -1.752130000   2.896280000
| 37> H   0.920500000  -2.036450000   1.984040000
| 38> H   1.242140000  -0.921210000   2.984230000
| 39> *
| 40>
| 41>                          ****END OF INPUT****

CARTESIAN COORDINATES (ANGSTROEM)
---------------------------------
  O      1.794470    0.923410    2.768350
  H      2.338250    1.359750    3.430940
  H      0.879480    1.303000    2.865760
  O      0.923410   -1.794470   -2.768350
  H      1.359750   -2.338250   -3.430940
  H      1.303000   -0.879480   -2.865760
  O     -1.752130   -0.741530   -2.896280
  H     -2.036450   -0.920500   -1.984040
  H     -0.921210   -1.242140   -2.984230
  O     -0.885520    1.737840    0.052730
  H     -1.032320    2.090180   -0.841890
  H     -1.284090    0.839590    0.017130
  O      0.885520   -1.737840    0.052730
  H      1.284090   -0.839590    0.017130
  H      1.032320   -2.090180   -0.841890
  O     -1.737840   -0.885520   -0.052730
  H     -2.090180   -1.032320    0.841890
  H     -0.839590   -1.284090   -0.017130
  O      1.752130    0.741530   -2.896280
  H      2.036450    0.920500   -1.984040
  H      0.921210    1.242140   -2.984230
  O      0.741530   -1.752130    2.896280
  H      0.920500   -2.036450    1.984040
  H      1.242140   -0.921210    2.984230

 Total Charge           Charge          ....    0
 Multiplicity           Mult            ....    1
 Number of Electrons    NEL             ....   80
 Basis Dimension        Dim             ....  344

ORBITAL ENERGIES
----------------

  NO   OCC          E(Eh)            E(eV)
   0   2.0000     -20.619861      -561.0949
   1   2.0000     -20.594800      -560.4130
   2   2.0000     -20.588610      -560.2446
   3   2.0000     -20.584111      -560.1221
   4   2.0000     -20.573624      -559.8368
   5   2.0000     -20.542957      -559.0023
   6   2.0000     -20.518880      -558.3471
   7   2.0000     -20.515518      -558.2556
   8   2.0000      -1.406535       -38.2738
   9   2.0000      -1.385052       -37.6892
  10   2.0000      -1.367525       -37.2122
  11   2.0000      -1.366283       -37.1784
  12   2.0000      -1.359971       -37.0067
  13   2.0000      -1.323033       -36.0016
  14   2.0000      -1.303882       -35.4804
  15   2.0000      -1.300825       -35.3973
  16   2.0000      -0.762017       -20.7355
  17   2.0000      -0.752356       -20.4726
  18   2.0000      -0.742811       -20.2129
  19   2.0000      -0.733303       -19.9542
  20   2.0000      -0.729266       -19.8443
  21   2.0000      -0.697722       -18.9860
  22   2.0000      -0.683232       -18.5917
  23   2.0000      -0.679742       -18.4967
  24   2.0000      -0.652555       -17.7569
  25   2.0000      -0.629080       -17.1181
  26   2.0000      -0.611959       -16.6522
  27   2.0000      -0.606957       -16.5161
  28   2.0000      -0.599409       -16.3107
  29   2.0000      -0.574855       -15.6426
  30   2.0000      -0.557663       -15.1748
  31   2.0000      -0.552582       -15.0365
  32   2.0000      -0.541288       -14.7292
  33   2.0000      -0.533350       -14.5132
  34   2.0000      -0.523698       -14.2506
  35   2.0000      -0.518825       -14.1180
  36   2.0000      -0.512783       -13.9535
  37   2.0000      -0.491078       -13.3629
  38   2.0000      -0.468725       -12.7547
  39   2.0000      -0.465366       -12.6632
  40   0.0000       0.076822         2.0904
  41   0.0000       0.116305         3.1648
  42   0.0000       0.134739         3.6664
  43   0.0000       0.141917         3.8618
  44   0.0000       0.150772         4.1027

MULLIKEN ATOMIC CHARGES
-----------------------
   0 O :   -0.705070
   1 H :    0.352813
   2 H :    0.371234
   3 O :   -0.754079
   4 H :    0.356983
   5 H :    0.383300
   6 O :   -0.731836
   7 H :    0.369496
   8 H :    0.347344
   9 O :   -0.725338
  10 H :    0.326739
  11 H :    0.360657
  12 O :   -0.724439
  13 H :    0.349732
  14 H :    0.390835
  15 O :   -0.738565
  16 H :    0.363453
  17 H :    0.375104
  18 O :   -0.683465
  19 H :    0.359471
  20 H :    0.372905
  21 O :   -0.726760
  22 H :    0.364110
  23 H :    0.345379
Sum of atomic charges:    0.0000000

LOEWDIN ATOMIC CHARGES
----------------------
   0 O :   -0.314806
   1 H :    0.163606
   2 H :    0.191832
   3 O :   -0.313019
   4 H :    0.162531
   5 H :    0.146006
   6 O :   -0.354999
   7 H :    0.149207
   8 H :    0.140125
   9 O :   -0.364048
  10 H :    0.155789
  11 H :    0.141278
  12 O :   -0.279571
  13 H :    0.171831
  14 H :    0.156523
  15 O :   -0.294575
  16 H :    0.172816
  17 H :    0.147000
  18 O :   -0.264727
  19 H :    0.173153
  20 H :    0.180834
  21 O :   -0.354926
  22 H :    0.146253
  23 H :    0.141885

  Mayer bond orders larger than 0.100000
B(  0-O ,  1-H ) :   0.8415 B(  0-O ,  2-H ) :   0.8215 B(  3-O ,  4-H ) :   0.8369
B(  3-O ,  5-H ) :   0.7480 B(  6-O ,  7-H ) :   0.8226 B(  6-O ,  8-H ) :   0.8265
B(  9-O , 10-H ) :   0.8574 B(  9-O , 11-H ) :   0.7858 B( 12-O , 13-H ) :   0.8305
B( 12-O , 14-H ) :   0.7850 B( 15-O , 16-H ) :   0.8304 B( 15-O , 17-H ) :   0.7634
B( 18-O , 19-H ) :   0.8348 B( 18-O , 20-H ) :   0.8220 B( 21-O , 22-H ) :   0.8297
B( 21-O , 23-H ) :   0.8264

MP2 TOTAL ENERGY:     -610.577413098 Eh
FINAL SINGLE POINT ENERGY      -610.577413098423

DIPOLE MOMENT
-------------
                                X             Y             Z
Electronic contribution:      0.20686      -0.09446      -0.17745
Nuclear contribution   :      1.39022       0.98915      -0.08817
                        -----------------------------------------
Total Dipole Moment    :      1.59707       0.89470      -0.26562
                        -----------------------------------------
Magnitude (a.u.)       :      1.84978
Magnitude (Debye)      :      4.70176

Rotational constants in cm-1:     0.033867     0.017295     0.017101
Rotational constants in MHz :  1015.320028   518.482940   512.666925

                             ****ORCA TERMINATED NORMALLY****
TOTAL RUN TIME: 0 days 0 hours 3 minutes 5 seconds 160 msec
