                         Program Version 4.2.0 -  RELEASE  -
|  1> # 12h2o.su.etal.mol2,3,4,6,8,9,10,11
|  2> ! MP2 def2-TZVP EnGrad TightSCF
|  3>
|  4> %pal
|  5>     nprocs 6
|  6> end
|  7>
|  8> %maxcore 8000
|  9>
| 10> %scf
| 11>     ConvForced true
| 12> end
| 13>
| 14> *xyz 0 1
| 15> O   0.923410000  -1.794470000  -2.768350000
| 16> H   1.359750000  -2.338250000  -3.430940000
| 17> H   1.303000000  -0.879480000  -2.865760000
| 18> O  -1.752130000  -0.741530000  -2.896280000
| 19> H  -2.036450000  -0.920500000  -1.984040000
| 20> H  -0.921210000  -1.242140000  -2.984230000
| 21> O  -0.885520000   1.737840000   0.052730000
| 22> H  -1.032320000   2.090180000  -0.841890000
| 23> H  -1.284090000   0.839590000   0.017130000
| 24> O   1.737840000   0.885520000  -0.052730000
| 25> H   2.090180000   1.032320000   0.841890000
| 26> H   0.839590000   1.284090000  -0.017130000
| 27> O   1.752130000   0.741530000  -2.896280000
| 28> H   2.036450000   0.920500000  -1.984040000
| 29> H   0.921210000   1.242140000  -2.984230000
| 30> O   0.741530000  -1.752130000   2.896280000
| 31> H   0.920500000  -2.036450000   1.984040000
| 32> H   1.242140000  -0.921210000   2.984230000
| 33> O  -0.923410000   1.794470000  -2.768350000
| 34> H  -1.359750000   2.338250000  -3.430940000
| 35> H  -1.303000000   0.879480000  -2.865760000
| 36> O  -0.741530000   1.752130000   2.896280000
| 37> H  -0.920500000   2.036450000   1.984040000
| 38> H  -1.242140000   0.921210000   2.984230000
| 39> *
| 40>
| 41>                          ****END OF INPUT****

CARTESIAN COORDINATES (ANGSTROEM)
---------------------------------
  O      0.923410   -1.794470   -2.768350
  H      1.359750   -2.338250   -3.430940
  H      1.303000   -0.879480   -2.865760
  O     -1.752130   -0.741530   -2.896280
  H     -2.036450   -0.920500   -1.984040
  H     -0.921210   -1.242140   -2.984230
  O     -0.885520    1.737840    0.052730
  H     -1.032320    2.090180   -0.841890
  H     -1.284090    0.839590    0.017130
  O      1.737840    0.885520   -0.052730
  H      2.090180    1.032320    0.841890
  H      0.839590    1.284090   -0.017130
  O      1.752130    0.741530   -2.896280
  H      2.036450    0.920500   -1.984040
  H      0.921210    1.242140   -2.984230
  O      0.741530   -1.752130    2.896280
  H      0.920500   -2.036450    1.984040
  H      1.242140   -0.921210    2.984230
  O     -0.923410    1.794470   -2.768350
  H     -1.359750    2.338250   -3.430940
  H     -1.303000    0.879480   -2.865760
  O     -0.741530    1.752130    2.896280
  H     -0.920500    2.036450    1.984040
  H     -1.242140    0.921210    2.984230

 Total Charge           Charge          ....    0
 Multiplicity           Mult            ....    1
 Number of Electrons    NEL             ....   80
 Basis Dimension        Dim             ....  344

ORBITAL ENERGIES
----------------

  NO   OCC          E(Eh)            E(eV)
   0   2.0000     -20.605226      -560.6967
   1   2.0000     -20.592728      -560.3566
   2   2.0000     -20.588109      -560.2309
   3   2.0000     -20.562169      -559.5251
   4   2.0000     -20.561448      -559.5054
   5   2.0000     -20.551641      -559.2386
   6   2.0000     -20.548967      -559.1658
   7   2.0000     -20.546459      -559.0976
   8   2.0000      -1.395186       -37.9649
   9   2.0000      -1.386444       -37.7271
  10   2.0000      -1.367442       -37.2100
  11   2.0000      -1.351010       -36.7629
  12   2.0000      -1.341481       -36.5036
  13   2.0000      -1.341103       -36.4933
  14   2.0000      -1.328305       -36.1450
  15   2.0000      -1.326071       -36.0842
  16   2.0000      -0.756813       -20.5939
  17   2.0000      -0.751105       -20.4386
  18   2.0000      -0.743061       -20.2197
  19   2.0000      -0.720562       -19.6075
  20   2.0000      -0.712003       -19.3746
  21   2.0000      -0.708045       -19.2669
  22   2.0000      -0.704048       -19.1581
  23   2.0000      -0.698396       -19.0043
  24   2.0000      -0.652004       -17.7419
  25   2.0000      -0.627985       -17.0883
  26   2.0000      -0.610097       -16.6016
  27   2.0000      -0.604610       -16.4523
  28   2.0000      -0.587372       -15.9832
  29   2.0000      -0.579248       -15.7621
  30   2.0000      -0.567679       -15.4473
  31   2.0000      -0.555639       -15.1197
  32   2.0000      -0.540349       -14.7036
  33   2.0000      -0.534816       -14.5531
  34   2.0000      -0.533261       -14.5108
  35   2.0000      -0.511285       -13.9128
  36   2.0000      -0.506759       -13.7896
  37   2.0000      -0.500134       -13.6093
  38   2.0000      -0.496010       -13.4971
  39   2.0000      -0.492167       -13.3925
  40   0.0000       0.075719         2.0604
  41   0.0000       0.116256         3.1635
  42   0.0000       0.131922         3.5898
  43   0.0000       0.146654         3.9907
  44   0.0000       0.166465         4.5298

MULLIKEN ATOMIC CHARGES
-----------------------
   0 O :   -0.749322
   1 H :    0.341672
   2 H :    0.385296
   3 O :   -0.702452
   4 H :    0.343229
   5 H :    0.385902
   6 O :   -0.718784
   7 H :    0.394196
   8 H :    0.339447
   9 O :   -0.730904
  10 H :    0.342475
  11 H :    0.362583
  12 O :   -0.723633
  13 H :    0.389322
  14 H :    0.363206
  15 O :   -0.683317
  16 H :    0.341698
  17 H :    0.339827
  18 O :   -0.761650
  19 H :    0.358781
  20 H :    0.382895
  21 O :   -0.700516
  22 H :    0.369491
  23 H :    0.330556
Sum of atomic charges:    0.0000000

LOEWDIN ATOMIC CHARGES
----------------------
   0 O :   -0.343161
   1 H :    0.155904
   2 H :    0.145907
   3 O :   -0.278783
   4 H :    0.164946
   5 H :    0.157564
   6 O :   -0.281184
   7 H :    0.157930
   8 H :    0.170056
   9 O :   -0.339143
  10 H :    0.163934
  11 H :    0.144047
  12 O :   -0.287363
  13 H :    0.158989
  14 H :    0.147003
  15 O :   -0.332454
  16 H :    0.166132
  17 H :    0.164698
  18 O :   -0.315764
  19 H :    0.163128
  20 H :    0.145592
  21 O :   -0.338508
  22 H :    0.149783
  23 H :    0.160747

  Mayer bond orders larger than 0.100000
B(  0-O ,  1-H ) :   0.8478 B(  0-O ,  2-H ) :   0.7388 B(  2-H , 12-O ) :   0.1166
B(  3-O ,  4-H ) :   0.8461 B(  3-O ,  5-H ) :   0.7685 B(  3-O , 20-H ) :   0.1157
B(  6-O ,  7-H ) :   0.7821 B(  6-O ,  8-H ) :   0.8388 B(  9-O , 10-H ) :   0.8459
B(  9-O , 11-H ) :   0.7809 B( 12-O , 13-H ) :   0.7982 B( 12-O , 14-H ) :   0.8078
B( 15-O , 16-H ) :   0.8493 B( 15-O , 17-H ) :   0.8475 B( 18-O , 19-H ) :   0.8362
B( 18-O , 20-H ) :   0.7319 B( 21-O , 22-H ) :   0.8222 B( 21-O , 23-H ) :   0.8533

MP2 TOTAL ENERGY:     -610.585943192 Eh
FINAL SINGLE POINT ENERGY      -610.585943192473

DIPOLE MOMENT
-------------
                                X             Y             Z
Electronic contribution:      0.01965       0.11079      -0.04563
Nuclear contribution   :     -0.90834      -0.00045      -1.26519
                        -----------------------------------------
Total Dipole Moment    :     -0.88869       0.11034      -1.31082
                        -----------------------------------------
Magnitude (a.u.)       :      1.58751
Magnitude (Debye)      :      4.03514

Rotational constants in cm-1:     0.031819     0.016906     0.014710
Rotational constants in MHz :   953.916234   506.819339   440.992726

                             ****ORCA TERMINATED NORMALLY****
TOTAL RUN TIME: 0 days 0 hours 3 minutes 2 seconds 181 msec
