                         Program Version 4.2.0 -  RELEASE  -
|  1> # 12h2o.su.etal.mol1,4,9,11
|  2> ! MP2 def2-TZVP EnGrad TightSCF
|  3>
|  4> %pal
|  5>     nprocs 6
|  6> end
|  7>
|  8> %maxcore 8000
|  9>
| 10> %scf
| 11>     ConvForced true
| 12> end
| 13>
| 14> *xyz 0 1
| 15> O  -1.794470000  -0.923410000   2.768350000
| 16> H  -2.338250000  -1.359750000   3.430940000
| 17> H  -0.879480000  -1.303000000   2.865760000
| 18> O  -0.885520000   1.737840000   0.052730000
| 19> H  -1.032320000   2.090180000  -0.841890000
| 20> H  -1.284090000   0.839590000   0.017130000
| 21> O   0.741530000  -1.752130000   2.896280000
| 22> H   0.920500000  -2.036450000   1.984040000
| 23> H   1.242140000  -0.921210000   2.984230000
| 24> O  -0.741530000   1.752130000   2.896280000
| 25> H  -0.920500000   2.036450000   1.984040000
| 26> H  -1.242140000   0.921210000   2.984230000
| 27> *
| 28>
| 29>                          ****END OF INPUT****

CARTESIAN COORDINATES (ANGSTROEM)
---------------------------------
  O     -1.794470   -0.923410    2.768350
  H     -2.338250   -1.359750    3.430940
  H     -0.879480   -1.303000    2.865760
  O     -0.885520    1.737840    0.052730
  H     -1.032320    2.090180   -0.841890
  H     -1.284090    0.839590    0.017130
  O      0.741530   -1.752130    2.896280
  H      0.920500   -2.036450    1.984040
  H      1.242140   -0.921210    2.984230
  O     -0.741530    1.752130    2.896280
  H     -0.920500    2.036450    1.984040
  H     -1.242140    0.921210    2.984230

 Total Charge           Charge          ....    0
 Multiplicity           Mult            ....    1
 Number of Electrons    NEL             ....   40
 Basis Dimension        Dim             ....  172

ORBITAL ENERGIES
----------------

  NO   OCC          E(Eh)            E(eV)
   0   2.0000     -20.600265      -560.5617
   1   2.0000     -20.579513      -559.9970
   2   2.0000     -20.545496      -559.0714
   3   2.0000     -20.499689      -557.8249
   4   2.0000      -1.386007       -37.7152
   5   2.0000      -1.357863       -36.9493
   6   2.0000      -1.329635       -36.1812
   7   2.0000      -1.284723       -34.9591
   8   2.0000      -0.742607       -20.2074
   9   2.0000      -0.719924       -19.5901
  10   2.0000      -0.714977       -19.4555
  11   2.0000      -0.662800       -18.0357
  12   2.0000      -0.625235       -17.0135
  13   2.0000      -0.598859       -16.2958
  14   2.0000      -0.576296       -15.6818
  15   2.0000      -0.536009       -14.5855
  16   2.0000      -0.526782       -14.3345
  17   2.0000      -0.516182       -14.0460
  18   2.0000      -0.490057       -13.3351
  19   2.0000      -0.449846       -12.2409
  20   0.0000       0.102142         2.7794
  21   0.0000       0.130602         3.5539
  22   0.0000       0.162805         4.4302
  23   0.0000       0.186933         5.0867
  24   0.0000       0.205036         5.5793

MULLIKEN ATOMIC CHARGES
-----------------------
   0 O :   -0.739387
   1 H :    0.340462
   2 H :    0.377170
   3 O :   -0.692826
   4 H :    0.344126
   5 H :    0.351023
   6 O :   -0.685858
   7 H :    0.357148
   8 H :    0.373274
   9 O :   -0.735178
  10 H :    0.363770
  11 H :    0.346275
Sum of atomic charges:    0.0000000

LOEWDIN ATOMIC CHARGES
----------------------
   0 O :   -0.341556
   1 H :    0.155374
   2 H :    0.144560
   3 O :   -0.319007
   4 H :    0.168114
   5 H :    0.176533
   6 O :   -0.270193
   7 H :    0.174317
   8 H :    0.181537
   9 O :   -0.358973
  10 H :    0.148897
  11 H :    0.140397

  Mayer bond orders larger than 0.100000
B(  0-O ,  1-H ) :   0.8490 B(  0-O ,  2-H ) :   0.7668 B(  3-O ,  4-H ) :   0.8452
B(  3-O ,  5-H ) :   0.8371 B(  6-O ,  7-H ) :   0.8380 B(  6-O ,  8-H ) :   0.8230
B(  9-O , 10-H ) :   0.8286 B(  9-O , 11-H ) :   0.8203

MP2 TOTAL ENERGY:     -305.277968900 Eh
FINAL SINGLE POINT ENERGY      -305.277968899686

DIPOLE MOMENT
-------------
                                X             Y             Z
Electronic contribution:      0.27268      -0.05908       0.12588
Nuclear contribution   :     -0.14496      -1.13354      -1.51390
                        -----------------------------------------
Total Dipole Moment    :      0.12771      -1.19262      -1.38801
                        -----------------------------------------
Magnitude (a.u.)       :      1.83446
Magnitude (Debye)      :      4.66282

Rotational constants in cm-1:     0.147158     0.059220     0.055700
Rotational constants in MHz :  4411.686012  1775.370511  1669.838798

                             ****ORCA TERMINATED NORMALLY****
TOTAL RUN TIME: 0 days 0 hours 0 minutes 26 seconds 800 msec
