                         Program Version 4.2.0 -  RELEASE  -
|  1> # 12mecn.remya.etal.2.mol2,9,10
|  2> ! MP2 def2-TZVP EnGrad TightSCF
|  3>
|  4> %pal
|  5>     nprocs 6
|  6> end
|  7>
|  8> %maxcore 8000
|  9>
| 10> %scf
| 11>     ConvForced true
| 12> end
| 13>
| 14> *xyz 0 1
| 15> C  -4.219070000  -3.477410000  -1.501740000
| 16> H  -3.251530000  -3.803540000  -1.893830000
| 17> H  -4.452920000  -2.481700000  -1.890840000
| 18> H  -4.992170000  -4.178130000  -1.824640000
| 19> C  -4.154550000  -3.418790000  -0.058340000
| 20> N  -4.091140000  -3.354840000   1.104432000
| 21> C   0.923766000   4.000693000  -1.575910000
| 22> H   0.011949000   4.478423000  -1.939550000
| 23> H   0.947903000   2.966558000  -1.929960000
| 24> H   1.805950000   4.519548000  -1.956520000
| 25> C   0.942834000   3.994846000  -0.131200000
| 26> N   0.960035000   3.982544000   1.035639000
| 27> C   4.602033000   0.321019000  -1.784800000
| 28> H   4.827650000  -0.662160000  -2.207910000
| 29> H   5.320558000   1.057980000  -2.148500000
| 30> H   3.601982000   0.643751000  -2.087520000
| 31> C   4.654967000   0.244048000  -0.343060000
| 32> N   4.691648000   0.166590000   0.820757000
| 33> *
| 34>
| 35>                          ****END OF INPUT****

CARTESIAN COORDINATES (ANGSTROEM)
---------------------------------
  C     -4.219070   -3.477410   -1.501740
  H     -3.251530   -3.803540   -1.893830
  H     -4.452920   -2.481700   -1.890840
  H     -4.992170   -4.178130   -1.824640
  C     -4.154550   -3.418790   -0.058340
  N     -4.091140   -3.354840    1.104432
  C      0.923766    4.000693   -1.575910
  H      0.011949    4.478423   -1.939550
  H      0.947903    2.966558   -1.929960
  H      1.805950    4.519548   -1.956520
  C      0.942834    3.994846   -0.131200
  N      0.960035    3.982544    1.035639
  C      4.602033    0.321019   -1.784800
  H      4.827650   -0.662160   -2.207910
  H      5.320558    1.057980   -2.148500
  H      3.601982    0.643751   -2.087520
  C      4.654967    0.244048   -0.343060
  N      4.691648    0.166590    0.820757

 Total Charge           Charge          ....    0
 Multiplicity           Mult            ....    1
 Number of Electrons    NEL             ....   66
 Basis Dimension        Dim             ....  333

ORBITAL ENERGIES
----------------

  NO   OCC          E(Eh)            E(eV)
   0   2.0000     -15.573923      -423.7880
   1   2.0000     -15.573840      -423.7857
   2   2.0000     -15.573339      -423.7721
   3   2.0000     -11.289231      -307.1956
   4   2.0000     -11.289125      -307.1927
   5   2.0000     -11.286662      -307.1257
   6   2.0000     -11.279952      -306.9431
   7   2.0000     -11.279777      -306.9383
   8   2.0000     -11.279730      -306.9371
   9   2.0000      -1.214781       -33.0559
  10   2.0000      -1.214436       -33.0465
  11   2.0000      -1.214394       -33.0453
  12   2.0000      -1.047730       -28.5102
  13   2.0000      -1.047458       -28.5028
  14   2.0000      -1.044825       -28.4311
  15   2.0000      -0.703599       -19.1459
  16   2.0000      -0.702996       -19.1295
  17   2.0000      -0.701582       -19.0910
  18   2.0000      -0.638620       -17.3777
  19   2.0000      -0.637735       -17.3536
  20   2.0000      -0.634796       -17.2737
  21   2.0000      -0.633541       -17.2395
  22   2.0000      -0.633269       -17.2321
  23   2.0000      -0.632503       -17.2113
  24   2.0000      -0.555728       -15.1221
  25   2.0000      -0.555399       -15.1132
  26   2.0000      -0.555285       -15.1101
  27   2.0000      -0.458375       -12.4730
  28   2.0000      -0.457949       -12.4614
  29   2.0000      -0.457811       -12.4577
  30   2.0000      -0.457715       -12.4551
  31   2.0000      -0.457607       -12.4521
  32   2.0000      -0.456874       -12.4322
  33   0.0000       0.091250         2.4830
  34   0.0000       0.117268         3.1910
  35   0.0000       0.131850         3.5878
  36   0.0000       0.153510         4.1772
  37   0.0000       0.165638         4.5072

MULLIKEN ATOMIC CHARGES
-----------------------
   0 C :   -0.281177
   1 H :    0.170873
   2 H :    0.170826
   3 H :    0.172539
   4 C :   -0.145844
   5 N :   -0.087217
   6 C :   -0.284216
   7 H :    0.175062
   8 H :    0.163402
   9 H :    0.171956
  10 C :   -0.143544
  11 N :   -0.082689
  12 C :   -0.279298
  13 H :    0.174160
  14 H :    0.172538
  15 H :    0.160579
  16 C :   -0.144705
  17 N :   -0.083245
Sum of atomic charges:    0.0000000

LOEWDIN ATOMIC CHARGES
----------------------
   0 C :   -0.284802
   1 H :    0.152102
   2 H :    0.152436
   3 H :    0.151037
   4 C :   -0.219953
   5 N :    0.049180
   6 C :   -0.285811
   7 H :    0.151789
   8 H :    0.149842
   9 H :    0.151074
  10 C :   -0.220897
  11 N :    0.053970
  12 C :   -0.285364
  13 H :    0.153056
  14 H :    0.151066
  15 H :    0.149005
  16 C :   -0.221253
  17 N :    0.053523

  Mayer bond orders larger than 0.100000
B(  0-C ,  1-H ) :   0.9170 B(  0-C ,  2-H ) :   0.9171 B(  0-C ,  3-H ) :   0.9166
B(  0-C ,  4-C ) :   0.9024 B(  4-C ,  5-N ) :   2.8347 B(  6-C ,  7-H ) :   0.9162
B(  6-C ,  8-H ) :   0.9200 B(  6-C ,  9-H ) :   0.9177 B(  6-C , 10-C ) :   0.9005
B( 10-C , 11-N ) :   2.8289 B( 12-C , 13-H ) :   0.9162 B( 12-C , 14-H ) :   0.9179
B( 12-C , 15-H ) :   0.9198 B( 12-C , 16-C ) :   0.9010 B( 16-C , 17-N ) :   2.8294

MP2 TOTAL ENERGY:     -397.446959143 Eh
FINAL SINGLE POINT ENERGY      -397.446959142725

DIPOLE MOMENT
-------------
                                X             Y             Z
Electronic contribution:      0.30045      -0.04543       9.45368
Nuclear contribution   :     -0.44306       0.07460     -13.91717
                        -----------------------------------------
Total Dipole Moment    :     -0.14261       0.02918      -4.46350
                        -----------------------------------------
Magnitude (a.u.)       :      4.46587
Magnitude (Debye)      :     11.35134

Rotational constants in cm-1:     0.023242     0.007217     0.006144
Rotational constants in MHz :   696.763482   216.357999   184.203339

                             ****ORCA TERMINATED NORMALLY****
TOTAL RUN TIME: 0 days 0 hours 1 minutes 51 seconds 844 msec
