                         Program Version 4.2.0 -  RELEASE  -
|  1> # 12h2o.su.etal.mol0,1,2,3,4,6,8,9,10
|  2> ! MP2 def2-TZVP EnGrad TightSCF
|  3>
|  4> %pal
|  5>     nprocs 6
|  6> end
|  7>
|  8> %maxcore 8000
|  9>
| 10> %scf
| 11>     ConvForced true
| 12> end
| 13>
| 14> *xyz 0 1
| 15> O   1.794470000   0.923410000   2.768350000
| 16> H   2.338250000   1.359750000   3.430940000
| 17> H   0.879480000   1.303000000   2.865760000
| 18> O  -1.794470000  -0.923410000   2.768350000
| 19> H  -2.338250000  -1.359750000   3.430940000
| 20> H  -0.879480000  -1.303000000   2.865760000
| 21> O   0.923410000  -1.794470000  -2.768350000
| 22> H   1.359750000  -2.338250000  -3.430940000
| 23> H   1.303000000  -0.879480000  -2.865760000
| 24> O  -1.752130000  -0.741530000  -2.896280000
| 25> H  -2.036450000  -0.920500000  -1.984040000
| 26> H  -0.921210000  -1.242140000  -2.984230000
| 27> O  -0.885520000   1.737840000   0.052730000
| 28> H  -1.032320000   2.090180000  -0.841890000
| 29> H  -1.284090000   0.839590000   0.017130000
| 30> O   1.737840000   0.885520000  -0.052730000
| 31> H   2.090180000   1.032320000   0.841890000
| 32> H   0.839590000   1.284090000  -0.017130000
| 33> O   1.752130000   0.741530000  -2.896280000
| 34> H   2.036450000   0.920500000  -1.984040000
| 35> H   0.921210000   1.242140000  -2.984230000
| 36> O   0.741530000  -1.752130000   2.896280000
| 37> H   0.920500000  -2.036450000   1.984040000
| 38> H   1.242140000  -0.921210000   2.984230000
| 39> O  -0.923410000   1.794470000  -2.768350000
| 40> H  -1.359750000   2.338250000  -3.430940000
| 41> H  -1.303000000   0.879480000  -2.865760000
| 42> *
| 43>
| 44>                          ****END OF INPUT****

CARTESIAN COORDINATES (ANGSTROEM)
---------------------------------
  O      1.794470    0.923410    2.768350
  H      2.338250    1.359750    3.430940
  H      0.879480    1.303000    2.865760
  O     -1.794470   -0.923410    2.768350
  H     -2.338250   -1.359750    3.430940
  H     -0.879480   -1.303000    2.865760
  O      0.923410   -1.794470   -2.768350
  H      1.359750   -2.338250   -3.430940
  H      1.303000   -0.879480   -2.865760
  O     -1.752130   -0.741530   -2.896280
  H     -2.036450   -0.920500   -1.984040
  H     -0.921210   -1.242140   -2.984230
  O     -0.885520    1.737840    0.052730
  H     -1.032320    2.090180   -0.841890
  H     -1.284090    0.839590    0.017130
  O      1.737840    0.885520   -0.052730
  H      2.090180    1.032320    0.841890
  H      0.839590    1.284090   -0.017130
  O      1.752130    0.741530   -2.896280
  H      2.036450    0.920500   -1.984040
  H      0.921210    1.242140   -2.984230
  O      0.741530   -1.752130    2.896280
  H      0.920500   -2.036450    1.984040
  H      1.242140   -0.921210    2.984230
  O     -0.923410    1.794470   -2.768350
  H     -1.359750    2.338250   -3.430940
  H     -1.303000    0.879480   -2.865760

 Total Charge           Charge          ....    0
 Multiplicity           Mult            ....    1
 Number of Electrons    NEL             ....   90
 Basis Dimension        Dim             ....  387

ORBITAL ENERGIES
----------------

  NO   OCC          E(Eh)            E(eV)
   0   2.0000     -20.612577      -560.8967
   1   2.0000     -20.576786      -559.9228
   2   2.0000     -20.571135      -559.7690
   3   2.0000     -20.570070      -559.7401
   4   2.0000     -20.566169      -559.6339
   5   2.0000     -20.537366      -558.8501
   6   2.0000     -20.536888      -558.8371
   7   2.0000     -20.527776      -558.5892
   8   2.0000     -20.522964      -558.4583
   9   2.0000      -1.393146       -37.9094
  10   2.0000      -1.373151       -37.3653
  11   2.0000      -1.358723       -36.9727
  12   2.0000      -1.355678       -36.8899
  13   2.0000      -1.346642       -36.6440
  14   2.0000      -1.335199       -36.3326
  15   2.0000      -1.316314       -35.8187
  16   2.0000      -1.309739       -35.6398
  17   2.0000      -1.304639       -35.5010
  18   2.0000      -0.758648       -20.6439
  19   2.0000      -0.737008       -20.0550
  20   2.0000      -0.727522       -19.7969
  21   2.0000      -0.721043       -19.6206
  22   2.0000      -0.712761       -19.3952
  23   2.0000      -0.700892       -19.0723
  24   2.0000      -0.699502       -19.0344
  25   2.0000      -0.691830       -18.8257
  26   2.0000      -0.688979       -18.7481
  27   2.0000      -0.635155       -17.2834
  28   2.0000      -0.630860       -17.1666
  29   2.0000      -0.604780       -16.4569
  30   2.0000      -0.597336       -16.2544
  31   2.0000      -0.588655       -16.0181
  32   2.0000      -0.583622       -15.8812
  33   2.0000      -0.569791       -15.5048
  34   2.0000      -0.555072       -15.1043
  35   2.0000      -0.547234       -14.8910
  36   2.0000      -0.533860       -14.5271
  37   2.0000      -0.519144       -14.1266
  38   2.0000      -0.516392       -14.0517
  39   2.0000      -0.503888       -13.7115
  40   2.0000      -0.503240       -13.6939
  41   2.0000      -0.488568       -13.2946
  42   2.0000      -0.484115       -13.1734
  43   2.0000      -0.477803       -13.0017
  44   2.0000      -0.473803       -12.8928
  45   0.0000       0.094629         2.5750
  46   0.0000       0.113103         3.0777
  47   0.0000       0.144404         3.9294
  48   0.0000       0.157556         4.2873
  49   0.0000       0.161645         4.3986

MULLIKEN ATOMIC CHARGES
-----------------------
   0 O :   -0.723071
   1 H :    0.364061
   2 H :    0.385509
   3 O :   -0.741127
   4 H :    0.327150
   5 H :    0.365565
   6 O :   -0.747259
   7 H :    0.337520
   8 H :    0.385569
   9 O :   -0.706972
  10 H :    0.349454
  11 H :    0.383680
  12 O :   -0.700206
  13 H :    0.379655
  14 H :    0.345316
  15 O :   -0.747105
  16 H :    0.361600
  17 H :    0.348857
  18 O :   -0.727330
  19 H :    0.388792
  20 H :    0.362245
  21 O :   -0.703347
  22 H :    0.361040
  23 H :    0.373232
  24 O :   -0.757781
  25 H :    0.353148
  26 H :    0.381804
Sum of atomic charges:    0.0000000

LOEWDIN ATOMIC CHARGES
----------------------
   0 O :   -0.287878
   1 H :    0.168083
   2 H :    0.197207
   3 O :   -0.377487
   4 H :    0.149677
   5 H :    0.141034
   6 O :   -0.343010
   7 H :    0.153893
   8 H :    0.146155
   9 O :   -0.280947
  10 H :    0.167593
  11 H :    0.156752
  12 O :   -0.298998
  13 H :    0.152360
  14 H :    0.171279
  15 O :   -0.349284
  16 H :    0.145538
  17 H :    0.139420
  18 O :   -0.290671
  19 H :    0.157972
  20 H :    0.146660
  21 O :   -0.282529
  22 H :    0.174242
  23 H :    0.152556
  24 O :   -0.315545
  25 H :    0.160269
  26 H :    0.145659

  Mayer bond orders larger than 0.100000
B(  0-O ,  1-H ) :   0.8322 B(  0-O ,  2-H ) :   0.8088 B(  3-O ,  4-H ) :   0.8592
B(  3-O ,  5-H ) :   0.7734 B(  6-O ,  7-H ) :   0.8501 B(  6-O ,  8-H ) :   0.7373
B(  8-H , 18-O ) :   0.1184 B(  9-O , 10-H ) :   0.8421 B(  9-O , 11-H ) :   0.7711
B(  9-O , 26-H ) :   0.1144 B( 12-O , 13-H ) :   0.7983 B( 12-O , 14-H ) :   0.8372
B( 15-O , 16-H ) :   0.8249 B( 15-O , 17-H ) :   0.7779 B( 18-O , 19-H ) :   0.7939
B( 18-O , 20-H ) :   0.8074 B( 21-O , 22-H ) :   0.8343 B( 21-O , 23-H ) :   0.8041
B( 24-O , 25-H ) :   0.8392 B( 24-O , 26-H ) :   0.7329

MP2 TOTAL ENERGY:     -686.918143195 Eh
FINAL SINGLE POINT ENERGY      -686.918143194981

DIPOLE MOMENT
-------------
                                X             Y             Z
Electronic contribution:      0.27880       0.09580       0.03749
Nuclear contribution   :     -0.34268       0.45452       0.68611
                        -----------------------------------------
Total Dipole Moment    :     -0.06388       0.55031       0.72360
                        -----------------------------------------
Magnitude (a.u.)       :      0.91133
Magnitude (Debye)      :      2.31641

Rotational constants in cm-1:     0.027448     0.013144     0.012461
Rotational constants in MHz :   822.862166   394.034028   373.576103

                             ****ORCA TERMINATED NORMALLY****
TOTAL RUN TIME: 0 days 0 hours 4 minutes 24 seconds 448 msec
