                         Program Version 4.2.0 -  RELEASE  -
|  1> # 12h2o.su.etal.mol0,1,7,10,11
|  2> ! MP2 def2-TZVP EnGrad TightSCF
|  3>
|  4> %pal
|  5>     nprocs 6
|  6> end
|  7>
|  8> %maxcore 8000
|  9>
| 10> %scf
| 11>     ConvForced true
| 12> end
| 13>
| 14> *xyz 0 1
| 15> O   1.794470000   0.923410000   2.768350000
| 16> H   2.338250000   1.359750000   3.430940000
| 17> H   0.879480000   1.303000000   2.865760000
| 18> O  -1.794470000  -0.923410000   2.768350000
| 19> H  -2.338250000  -1.359750000   3.430940000
| 20> H  -0.879480000  -1.303000000   2.865760000
| 21> O  -1.737840000  -0.885520000  -0.052730000
| 22> H  -2.090180000  -1.032320000   0.841890000
| 23> H  -0.839590000  -1.284090000  -0.017130000
| 24> O  -0.923410000   1.794470000  -2.768350000
| 25> H  -1.359750000   2.338250000  -3.430940000
| 26> H  -1.303000000   0.879480000  -2.865760000
| 27> O  -0.741530000   1.752130000   2.896280000
| 28> H  -0.920500000   2.036450000   1.984040000
| 29> H  -1.242140000   0.921210000   2.984230000
| 30> *
| 31>
| 32>                          ****END OF INPUT****

CARTESIAN COORDINATES (ANGSTROEM)
---------------------------------
  O      1.794470    0.923410    2.768350
  H      2.338250    1.359750    3.430940
  H      0.879480    1.303000    2.865760
  O     -1.794470   -0.923410    2.768350
  H     -2.338250   -1.359750    3.430940
  H     -0.879480   -1.303000    2.865760
  O     -1.737840   -0.885520   -0.052730
  H     -2.090180   -1.032320    0.841890
  H     -0.839590   -1.284090   -0.017130
  O     -0.923410    1.794470   -2.768350
  H     -1.359750    2.338250   -3.430940
  H     -1.303000    0.879480   -2.865760
  O     -0.741530    1.752130    2.896280
  H     -0.920500    2.036450    1.984040
  H     -1.242140    0.921210    2.984230

 Total Charge           Charge          ....    0
 Multiplicity           Mult            ....    1
 Number of Electrons    NEL             ....   50
 Basis Dimension        Dim             ....  215

ORBITAL ENERGIES
----------------

  NO   OCC          E(Eh)            E(eV)
   0   2.0000     -20.620797      -561.1204
   1   2.0000     -20.567276      -559.6640
   2   2.0000     -20.548632      -559.1567
   3   2.0000     -20.545485      -559.0711
   4   2.0000     -20.514733      -558.2343
   5   2.0000      -1.401157       -38.1274
   6   2.0000      -1.356006       -36.8988
   7   2.0000      -1.324585       -36.0438
   8   2.0000      -1.323947       -36.0264
   9   2.0000      -1.296683       -35.2845
  10   2.0000      -0.766653       -20.8617
  11   2.0000      -0.719198       -19.5704
  12   2.0000      -0.696475       -18.9520
  13   2.0000      -0.691987       -18.8299
  14   2.0000      -0.684430       -18.6243
  15   2.0000      -0.638292       -17.3688
  16   2.0000      -0.600456       -16.3392
  17   2.0000      -0.575587       -15.6625
  18   2.0000      -0.560139       -15.2421
  19   2.0000      -0.548856       -14.9351
  20   2.0000      -0.541429       -14.7330
  21   2.0000      -0.498910       -13.5760
  22   2.0000      -0.492326       -13.3969
  23   2.0000      -0.490245       -13.3403
  24   2.0000      -0.465434       -12.6651
  25   0.0000       0.090105         2.4519
  26   0.0000       0.134605         3.6628
  27   0.0000       0.152729         4.1560
  28   0.0000       0.165699         4.5089
  29   0.0000       0.178855         4.8669

MULLIKEN ATOMIC CHARGES
-----------------------
   0 O :   -0.738813
   1 H :    0.324820
   2 H :    0.364935
   3 O :   -0.720258
   4 H :    0.366481
   5 H :    0.376432
   6 O :   -0.693985
   7 H :    0.361416
   8 H :    0.328983
   9 O :   -0.684482
  10 H :    0.332866
  11 H :    0.350140
  12 O :   -0.702886
  13 H :    0.364559
  14 H :    0.369792
Sum of atomic charges:    0.0000000

LOEWDIN ATOMIC CHARGES
----------------------
   0 O :   -0.376531
   1 H :    0.148194
   2 H :    0.140794
   3 O :   -0.287441
   4 H :    0.169044
   5 H :    0.194182
   6 O :   -0.344850
   7 H :    0.146517
   8 H :    0.167139
   9 O :   -0.339897
  10 H :    0.155148
  11 H :    0.183022
  12 O :   -0.282457
  13 H :    0.175935
  14 H :    0.151202

  Mayer bond orders larger than 0.100000
B(  0-O ,  1-H ) :   0.8608 B(  0-O ,  2-H ) :   0.7773 B(  3-O ,  4-H ) :   0.8306
B(  3-O ,  5-H ) :   0.8146 B(  6-O ,  7-H ) :   0.8262 B(  6-O ,  8-H ) :   0.8550
B(  9-O , 10-H ) :   0.8562 B(  9-O , 11-H ) :   0.8396 B( 12-O , 13-H ) :   0.8325
B( 12-O , 14-H ) :   0.8091

MP2 TOTAL ENERGY:     -381.588992009 Eh
FINAL SINGLE POINT ENERGY      -381.588992009112

DIPOLE MOMENT
-------------
                                X             Y             Z
Electronic contribution:     -0.28743       0.11731       0.03329
Nuclear contribution   :     -0.79041      -1.21789       0.72077
                        -----------------------------------------
Total Dipole Moment    :     -1.07784      -1.10058       0.75405
                        -----------------------------------------
Magnitude (a.u.)       :      1.71511
Magnitude (Debye)      :      4.35947

Rotational constants in cm-1:     0.062791     0.031160     0.024210
Rotational constants in MHz :  1882.440269   934.155182   725.789506

                             ****ORCA TERMINATED NORMALLY****
TOTAL RUN TIME: 0 days 0 hours 0 minutes 31 seconds 109 msec
