                         Program Version 4.2.0 -  RELEASE  -
|  1> # 12h2o.su.etal.mol0,1,2,8,10,11
|  2> ! MP2 def2-TZVP EnGrad TightSCF
|  3>
|  4> %pal
|  5>     nprocs 6
|  6> end
|  7>
|  8> %maxcore 8000
|  9>
| 10> %scf
| 11>     ConvForced true
| 12> end
| 13>
| 14> *xyz 0 1
| 15> O   1.794470000   0.923410000   2.768350000
| 16> H   2.338250000   1.359750000   3.430940000
| 17> H   0.879480000   1.303000000   2.865760000
| 18> O  -1.794470000  -0.923410000   2.768350000
| 19> H  -2.338250000  -1.359750000   3.430940000
| 20> H  -0.879480000  -1.303000000   2.865760000
| 21> O   0.923410000  -1.794470000  -2.768350000
| 22> H   1.359750000  -2.338250000  -3.430940000
| 23> H   1.303000000  -0.879480000  -2.865760000
| 24> O   1.752130000   0.741530000  -2.896280000
| 25> H   2.036450000   0.920500000  -1.984040000
| 26> H   0.921210000   1.242140000  -2.984230000
| 27> O  -0.923410000   1.794470000  -2.768350000
| 28> H  -1.359750000   2.338250000  -3.430940000
| 29> H  -1.303000000   0.879480000  -2.865760000
| 30> O  -0.741530000   1.752130000   2.896280000
| 31> H  -0.920500000   2.036450000   1.984040000
| 32> H  -1.242140000   0.921210000   2.984230000
| 33> *
| 34>
| 35>                          ****END OF INPUT****

CARTESIAN COORDINATES (ANGSTROEM)
---------------------------------
  O      1.794470    0.923410    2.768350
  H      2.338250    1.359750    3.430940
  H      0.879480    1.303000    2.865760
  O     -1.794470   -0.923410    2.768350
  H     -2.338250   -1.359750    3.430940
  H     -0.879480   -1.303000    2.865760
  O      0.923410   -1.794470   -2.768350
  H      1.359750   -2.338250   -3.430940
  H      1.303000   -0.879480   -2.865760
  O      1.752130    0.741530   -2.896280
  H      2.036450    0.920500   -1.984040
  H      0.921210    1.242140   -2.984230
  O     -0.923410    1.794470   -2.768350
  H     -1.359750    2.338250   -3.430940
  H     -1.303000    0.879480   -2.865760
  O     -0.741530    1.752130    2.896280
  H     -0.920500    2.036450    1.984040
  H     -1.242140    0.921210    2.984230

 Total Charge           Charge          ....    0
 Multiplicity           Mult            ....    1
 Number of Electrons    NEL             ....   60
 Basis Dimension        Dim             ....  258

ORBITAL ENERGIES
----------------

  NO   OCC          E(Eh)            E(eV)
   0   2.0000     -20.594942      -560.4168
   1   2.0000     -20.591886      -560.3337
   2   2.0000     -20.566422      -559.6408
   3   2.0000     -20.562512      -559.5344
   4   2.0000     -20.514125      -558.2177
   5   2.0000     -20.510449      -558.1177
   6   2.0000      -1.373326       -37.3701
   7   2.0000      -1.370817       -37.3018
   8   2.0000      -1.353925       -36.8422
   9   2.0000      -1.350620       -36.7522
  10   2.0000      -1.296068       -35.2678
  11   2.0000      -1.292407       -35.1682
  12   2.0000      -0.740336       -20.1456
  13   2.0000      -0.737861       -20.0782
  14   2.0000      -0.715546       -19.4710
  15   2.0000      -0.712458       -19.3870
  16   2.0000      -0.683794       -18.6070
  17   2.0000      -0.680133       -18.5074
  18   2.0000      -0.616539       -16.7769
  19   2.0000      -0.615678       -16.7534
  20   2.0000      -0.588598       -16.0166
  21   2.0000      -0.587094       -15.9756
  22   2.0000      -0.546230       -14.8637
  23   2.0000      -0.544239       -14.8095
  24   2.0000      -0.532287       -14.4843
  25   2.0000      -0.531280       -14.4569
  26   2.0000      -0.498111       -13.5543
  27   2.0000      -0.494347       -13.4519
  28   2.0000      -0.464886       -12.6502
  29   2.0000      -0.461169       -12.5491
  30   0.0000       0.104806         2.8519
  31   0.0000       0.112998         3.0748
  32   0.0000       0.151057         4.1105
  33   0.0000       0.162094         4.4108
  34   0.0000       0.178950         4.8695

MULLIKEN ATOMIC CHARGES
-----------------------
   0 O :   -0.737721
   1 H :    0.323920
   2 H :    0.363989
   3 O :   -0.702221
   4 H :    0.354387
   5 H :    0.372344
   6 O :   -0.737642
   7 H :    0.322921
   8 H :    0.365010
   9 O :   -0.703351
  10 H :    0.359139
  11 H :    0.371036
  12 O :   -0.703567
  13 H :    0.355147
  14 H :    0.371236
  15 O :   -0.701433
  16 H :    0.353910
  17 H :    0.372898
Sum of atomic charges:   -0.0000000

LOEWDIN ATOMIC CHARGES
----------------------
   0 O :   -0.376232
   1 H :    0.147692
   2 H :    0.140665
   3 O :   -0.310749
   4 H :    0.164739
   5 H :    0.193213
   6 O :   -0.376154
   7 H :    0.147236
   8 H :    0.140969
   9 O :   -0.284203
  10 H :    0.173813
  11 H :    0.152414
  12 O :   -0.311668
  13 H :    0.164980
  14 H :    0.192568
  15 O :   -0.284051
  16 H :    0.171563
  17 H :    0.153207

  Mayer bond orders larger than 0.100000
B(  0-O ,  1-H ) :   0.8612 B(  0-O ,  2-H ) :   0.7775 B(  3-O ,  4-H ) :   0.8406
B(  3-O ,  5-H ) :   0.8214 B(  6-O ,  7-H ) :   0.8618 B(  6-O ,  8-H ) :   0.7772
B(  9-O , 10-H ) :   0.8370 B(  9-O , 11-H ) :   0.8009 B( 12-O , 13-H ) :   0.8401
B( 12-O , 14-H ) :   0.8219 B( 15-O , 16-H ) :   0.8403 B( 15-O , 17-H ) :   0.7978

MP2 TOTAL ENERGY:     -457.916733757 Eh
FINAL SINGLE POINT ENERGY      -457.916733757472

DIPOLE MOMENT
-------------
                                X             Y             Z
Electronic contribution:     -0.34129       0.24710       0.00939
Nuclear contribution   :     -1.02062       0.11069       0.00000
                        -----------------------------------------
Total Dipole Moment    :     -1.36192       0.35778       0.00939
                        -----------------------------------------
Magnitude (a.u.)       :      1.40816
Magnitude (Debye)      :      3.57926

Rotational constants in cm-1:     0.044154     0.015598     0.015510
Rotational constants in MHz :  1323.704572   467.623420   464.981703

                             ****ORCA TERMINATED NORMALLY****
TOTAL RUN TIME: 0 days 0 hours 0 minutes 42 seconds 700 msec
