                         Program Version 4.2.0 -  RELEASE  -
|  1> # 12h2o.su.etal.mol0,1,5,6,9,10,11
|  2> ! MP2 def2-TZVP EnGrad TightSCF
|  3>
|  4> %pal
|  5>     nprocs 6
|  6> end
|  7>
|  8> %maxcore 8000
|  9>
| 10> %scf
| 11>     ConvForced true
| 12> end
| 13>
| 14> *xyz 0 1
| 15> O   1.794470000   0.923410000   2.768350000
| 16> H   2.338250000   1.359750000   3.430940000
| 17> H   0.879480000   1.303000000   2.865760000
| 18> O  -1.794470000  -0.923410000   2.768350000
| 19> H  -2.338250000  -1.359750000   3.430940000
| 20> H  -0.879480000  -1.303000000   2.865760000
| 21> O   0.885520000  -1.737840000   0.052730000
| 22> H   1.284090000  -0.839590000   0.017130000
| 23> H   1.032320000  -2.090180000  -0.841890000
| 24> O   1.737840000   0.885520000  -0.052730000
| 25> H   2.090180000   1.032320000   0.841890000
| 26> H   0.839590000   1.284090000  -0.017130000
| 27> O   0.741530000  -1.752130000   2.896280000
| 28> H   0.920500000  -2.036450000   1.984040000
| 29> H   1.242140000  -0.921210000   2.984230000
| 30> O  -0.923410000   1.794470000  -2.768350000
| 31> H  -1.359750000   2.338250000  -3.430940000
| 32> H  -1.303000000   0.879480000  -2.865760000
| 33> O  -0.741530000   1.752130000   2.896280000
| 34> H  -0.920500000   2.036450000   1.984040000
| 35> H  -1.242140000   0.921210000   2.984230000
| 36> *
| 37>
| 38>                          ****END OF INPUT****

CARTESIAN COORDINATES (ANGSTROEM)
---------------------------------
  O      1.794470    0.923410    2.768350
  H      2.338250    1.359750    3.430940
  H      0.879480    1.303000    2.865760
  O     -1.794470   -0.923410    2.768350
  H     -2.338250   -1.359750    3.430940
  H     -0.879480   -1.303000    2.865760
  O      0.885520   -1.737840    0.052730
  H      1.284090   -0.839590    0.017130
  H      1.032320   -2.090180   -0.841890
  O      1.737840    0.885520   -0.052730
  H      2.090180    1.032320    0.841890
  H      0.839590    1.284090   -0.017130
  O      0.741530   -1.752130    2.896280
  H      0.920500   -2.036450    1.984040
  H      1.242140   -0.921210    2.984230
  O     -0.923410    1.794470   -2.768350
  H     -1.359750    2.338250   -3.430940
  H     -1.303000    0.879480   -2.865760
  O     -0.741530    1.752130    2.896280
  H     -0.920500    2.036450    1.984040
  H     -1.242140    0.921210    2.984230

 Total Charge           Charge          ....    0
 Multiplicity           Mult            ....    1
 Number of Electrons    NEL             ....   70
 Basis Dimension        Dim             ....  301

ORBITAL ENERGIES
----------------

  NO   OCC          E(Eh)            E(eV)
   0   2.0000     -20.577917      -559.9536
   1   2.0000     -20.571616      -559.7821
   2   2.0000     -20.570652      -559.7559
   3   2.0000     -20.565052      -559.6035
   4   2.0000     -20.542938      -559.0018
   5   2.0000     -20.539171      -558.8992
   6   2.0000     -20.537325      -558.8490
   7   2.0000      -1.373996       -37.3883
   8   2.0000      -1.356062       -36.9003
   9   2.0000      -1.346810       -36.6486
  10   2.0000      -1.345889       -36.6235
  11   2.0000      -1.337227       -36.3878
  12   2.0000      -1.323521       -36.0148
  13   2.0000      -1.313721       -35.7482
  14   2.0000      -0.737567       -20.0702
  15   2.0000      -0.728601       -19.8262
  16   2.0000      -0.714590       -19.4450
  17   2.0000      -0.711291       -19.3552
  18   2.0000      -0.703005       -19.1297
  19   2.0000      -0.699874       -19.0445
  20   2.0000      -0.692482       -18.8434
  21   2.0000      -0.632322       -17.2064
  22   2.0000      -0.600947       -16.3526
  23   2.0000      -0.592184       -16.1141
  24   2.0000      -0.584056       -15.8930
  25   2.0000      -0.582528       -15.8514
  26   2.0000      -0.568747       -15.4764
  27   2.0000      -0.542735       -14.7686
  28   2.0000      -0.520314       -14.1585
  29   2.0000      -0.516912       -14.0659
  30   2.0000      -0.513904       -13.9840
  31   2.0000      -0.505066       -13.7436
  32   2.0000      -0.492914       -13.4129
  33   2.0000      -0.488243       -13.2858
  34   2.0000      -0.483419       -13.1545
  35   0.0000       0.098004         2.6668
  36   0.0000       0.124267         3.3815
  37   0.0000       0.150537         4.0963
  38   0.0000       0.155298         4.2259
  39   0.0000       0.162035         4.4092

MULLIKEN ATOMIC CHARGES
-----------------------
   0 O :   -0.757967
   1 H :    0.353536
   2 H :    0.381326
   3 O :   -0.745607
   4 H :    0.337319
   5 H :    0.385233
   6 O :   -0.731395
   7 H :    0.361013
   8 H :    0.336743
   9 O :   -0.692552
  10 H :    0.378269
  11 H :    0.341746
  12 O :   -0.726133
  13 H :    0.388020
  14 H :    0.362958
  15 O :   -0.687163
  16 H :    0.342119
  17 H :    0.347000
  18 O :   -0.706345
  19 H :    0.348056
  20 H :    0.383826
Sum of atomic charges:    0.0000000

LOEWDIN ATOMIC CHARGES
----------------------
   0 O :   -0.315651
   1 H :    0.160451
   2 H :    0.145519
   3 O :   -0.342090
   4 H :    0.153875
   5 H :    0.146153
   6 O :   -0.344217
   7 H :    0.144675
   8 H :    0.163132
   9 O :   -0.294950
  10 H :    0.151787
  11 H :    0.169979
  12 O :   -0.289270
  13 H :    0.158801
  14 H :    0.147041
  15 O :   -0.340340
  16 H :    0.159577
  17 H :    0.182622
  18 O :   -0.280932
  19 H :    0.167022
  20 H :    0.156817

  Mayer bond orders larger than 0.100000
B(  0-O ,  1-H ) :   0.8390 B(  0-O ,  2-H ) :   0.7333 B(  2-H , 18-O ) :   0.1140
B(  3-O ,  4-H ) :   0.8502 B(  3-O ,  5-H ) :   0.7386 B(  5-H , 12-O ) :   0.1170
B(  6-O ,  7-H ) :   0.7714 B(  6-O ,  8-H ) :   0.8507 B(  7-H ,  9-O ) :   0.1003
B(  9-O , 10-H ) :   0.7993 B(  9-O , 11-H ) :   0.8408 B( 12-O , 13-H ) :   0.7970
B( 12-O , 14-H ) :   0.8066 B( 15-O , 16-H ) :   0.8510 B( 15-O , 17-H ) :   0.8424
B( 18-O , 19-H ) :   0.8430 B( 18-O , 20-H ) :   0.7706

MP2 TOTAL ENERGY:     -534.264330803 Eh
FINAL SINGLE POINT ENERGY      -534.264330803065

DIPOLE MOMENT
-------------
                                X             Y             Z
Electronic contribution:      0.18130       0.09743       0.10050
Nuclear contribution   :     -0.67960       0.59936      -0.73962
                        -----------------------------------------
Total Dipole Moment    :     -0.49830       0.69679      -0.63911
                        -----------------------------------------
Magnitude (a.u.)       :      1.06878
Magnitude (Debye)      :      2.71661

Rotational constants in cm-1:     0.038069     0.021509     0.020655
Rotational constants in MHz :  1141.279562   644.832881   619.212981

                             ****ORCA TERMINATED NORMALLY****
TOTAL RUN TIME: 0 days 0 hours 2 minutes 21 seconds 849 msec
