                         Program Version 4.2.0 -  RELEASE  -
|  1> # 12h2o.su.etal.mol1,2,3,5,7,10
|  2> ! MP2 def2-TZVP EnGrad TightSCF
|  3>
|  4> %pal
|  5>     nprocs 6
|  6> end
|  7>
|  8> %maxcore 8000
|  9>
| 10> %scf
| 11>     ConvForced true
| 12> end
| 13>
| 14> *xyz 0 1
| 15> O  -1.794470000  -0.923410000   2.768350000
| 16> H  -2.338250000  -1.359750000   3.430940000
| 17> H  -0.879480000  -1.303000000   2.865760000
| 18> O   0.923410000  -1.794470000  -2.768350000
| 19> H   1.359750000  -2.338250000  -3.430940000
| 20> H   1.303000000  -0.879480000  -2.865760000
| 21> O  -1.752130000  -0.741530000  -2.896280000
| 22> H  -2.036450000  -0.920500000  -1.984040000
| 23> H  -0.921210000  -1.242140000  -2.984230000
| 24> O   0.885520000  -1.737840000   0.052730000
| 25> H   1.284090000  -0.839590000   0.017130000
| 26> H   1.032320000  -2.090180000  -0.841890000
| 27> O  -1.737840000  -0.885520000  -0.052730000
| 28> H  -2.090180000  -1.032320000   0.841890000
| 29> H  -0.839590000  -1.284090000  -0.017130000
| 30> O  -0.923410000   1.794470000  -2.768350000
| 31> H  -1.359750000   2.338250000  -3.430940000
| 32> H  -1.303000000   0.879480000  -2.865760000
| 33> *
| 34>
| 35>                          ****END OF INPUT****

CARTESIAN COORDINATES (ANGSTROEM)
---------------------------------
  O     -1.794470   -0.923410    2.768350
  H     -2.338250   -1.359750    3.430940
  H     -0.879480   -1.303000    2.865760
  O      0.923410   -1.794470   -2.768350
  H      1.359750   -2.338250   -3.430940
  H      1.303000   -0.879480   -2.865760
  O     -1.752130   -0.741530   -2.896280
  H     -2.036450   -0.920500   -1.984040
  H     -0.921210   -1.242140   -2.984230
  O      0.885520   -1.737840    0.052730
  H      1.284090   -0.839590    0.017130
  H      1.032320   -2.090180   -0.841890
  O     -1.737840   -0.885520   -0.052730
  H     -2.090180   -1.032320    0.841890
  H     -0.839590   -1.284090   -0.017130
  O     -0.923410    1.794470   -2.768350
  H     -1.359750    2.338250   -3.430940
  H     -1.303000    0.879480   -2.865760

 Total Charge           Charge          ....    0
 Multiplicity           Mult            ....    1
 Number of Electrons    NEL             ....   60
 Basis Dimension        Dim             ....  258

ORBITAL ENERGIES
----------------

  NO   OCC          E(Eh)            E(eV)
   0   2.0000     -20.620421      -561.1102
   1   2.0000     -20.579865      -560.0066
   2   2.0000     -20.577152      -559.9328
   3   2.0000     -20.531234      -558.6833
   4   2.0000     -20.513420      -558.1985
   5   2.0000     -20.498441      -557.7909
   6   2.0000      -1.400992       -38.1229
   7   2.0000      -1.360933       -37.0329
   8   2.0000      -1.357470       -36.9386
   9   2.0000      -1.325164       -36.0595
  10   2.0000      -1.298239       -35.3269
  11   2.0000      -1.279699       -34.8224
  12   2.0000      -0.766154       -20.8481
  13   2.0000      -0.725922       -19.7533
  14   2.0000      -0.723892       -19.6981
  15   2.0000      -0.694338       -18.8939
  16   2.0000      -0.679645       -18.4941
  17   2.0000      -0.665841       -18.1184
  18   2.0000      -0.642096       -17.4723
  19   2.0000      -0.605400       -16.4738
  20   2.0000      -0.596457       -16.2304
  21   2.0000      -0.581413       -15.8210
  22   2.0000      -0.551372       -15.0036
  23   2.0000      -0.550326       -14.9751
  24   2.0000      -0.523017       -14.2320
  25   2.0000      -0.517524       -14.0825
  26   2.0000      -0.503360       -13.6971
  27   2.0000      -0.472070       -12.8457
  28   2.0000      -0.464032       -12.6270
  29   2.0000      -0.449141       -12.2217
  30   0.0000       0.090579         2.4648
  31   0.0000       0.118870         3.2346
  32   0.0000       0.149401         4.0654
  33   0.0000       0.174849         4.7579
  34   0.0000       0.189769         5.1639

MULLIKEN ATOMIC CHARGES
-----------------------
   0 O :   -0.691310
   1 H :    0.346731
   2 H :    0.356991
   3 O :   -0.722215
   4 H :    0.367692
   5 H :    0.378200
   6 O :   -0.718253
   7 H :    0.388990
   8 H :    0.351457
   9 O :   -0.698247
  10 H :    0.349709
  11 H :    0.378065
  12 O :   -0.739951
  13 H :    0.365583
  14 H :    0.340400
  15 O :   -0.743183
  16 H :    0.318855
  17 H :    0.370486
Sum of atomic charges:   -0.0000000

LOEWDIN ATOMIC CHARGES
----------------------
   0 O :   -0.309588
   1 H :    0.160997
   2 H :    0.185937
   3 O :   -0.287739
   4 H :    0.169560
   5 H :    0.194998
   6 O :   -0.290276
   7 H :    0.158311
   8 H :    0.143316
   9 O :   -0.299729
  10 H :    0.175519
  11 H :    0.152446
  12 O :   -0.347194
  13 H :    0.148602
  14 H :    0.137076
  15 O :   -0.379204
  16 H :    0.145198
  17 H :    0.141770

  Mayer bond orders larger than 0.100000
B(  0-O ,  1-H ) :   0.8449 B(  0-O ,  2-H ) :   0.8329 B(  3-O ,  4-H ) :   0.8302
B(  3-O ,  5-H ) :   0.8132 B(  6-O ,  7-H ) :   0.7915 B(  6-O ,  8-H ) :   0.8263
B(  6-O , 17-H ) :   0.1039 B(  9-O , 10-H ) :   0.8399 B(  9-O , 11-H ) :   0.8071
B( 12-O , 13-H ) :   0.8187 B( 12-O , 14-H ) :   0.7926 B( 15-O , 16-H ) :   0.8638
B( 15-O , 17-H ) :   0.7677

MP2 TOTAL ENERGY:     -457.924441275 Eh
FINAL SINGLE POINT ENERGY      -457.924441274882

DIPOLE MOMENT
-------------
                                X             Y             Z
Electronic contribution:     -0.02109      -0.25944       0.22424
Nuclear contribution   :      1.67229      -1.24435       0.05351
                        -----------------------------------------
Total Dipole Moment    :      1.65120      -1.50380       0.27776
                        -----------------------------------------
Magnitude (a.u.)       :      2.25056
Magnitude (Debye)      :      5.72047

Rotational constants in cm-1:     0.059164     0.029315     0.023028
Rotational constants in MHz :  1773.692147   878.826901   690.350589

                             ****ORCA TERMINATED NORMALLY****
TOTAL RUN TIME: 0 days 0 hours 1 minutes 8 seconds 648 msec
