                         Program Version 4.2.0 -  RELEASE  -
|  1> # 12mecn.remya.etal.2.mol2,10,11
|  2> ! MP2 def2-TZVP EnGrad TightSCF
|  3>
|  4> %pal
|  5>     nprocs 6
|  6> end
|  7>
|  8> %maxcore 8000
|  9>
| 10> %scf
| 11>     ConvForced true
| 12> end
| 13>
| 14> *xyz 0 1
| 15> C  -4.219070000  -3.477410000  -1.501740000
| 16> H  -3.251530000  -3.803540000  -1.893830000
| 17> H  -4.452920000  -2.481700000  -1.890840000
| 18> H  -4.992170000  -4.178130000  -1.824640000
| 19> C  -4.154550000  -3.418790000  -0.058340000
| 20> N  -4.091140000  -3.354840000   1.104432000
| 21> C   4.602033000   0.321019000  -1.784800000
| 22> H   4.827650000  -0.662160000  -2.207910000
| 23> H   5.320558000   1.057980000  -2.148500000
| 24> H   3.601982000   0.643751000  -2.087520000
| 25> C   4.654967000   0.244048000  -0.343060000
| 26> N   4.691648000   0.166590000   0.820757000
| 27> C   4.214163000   3.378139000   1.593627000
| 28> H   3.242643000   3.657109000   2.012358000
| 29> H   4.969258000   4.086643000   1.941290000
| 30> H   4.482966000   2.372549000   1.931698000
| 31> C   4.130759000   3.388436000   0.150192000
| 32> N   4.050180000   3.381449000  -1.013420000
| 33> *
| 34>
| 35>                          ****END OF INPUT****

CARTESIAN COORDINATES (ANGSTROEM)
---------------------------------
  C     -4.219070   -3.477410   -1.501740
  H     -3.251530   -3.803540   -1.893830
  H     -4.452920   -2.481700   -1.890840
  H     -4.992170   -4.178130   -1.824640
  C     -4.154550   -3.418790   -0.058340
  N     -4.091140   -3.354840    1.104432
  C      4.602033    0.321019   -1.784800
  H      4.827650   -0.662160   -2.207910
  H      5.320558    1.057980   -2.148500
  H      3.601982    0.643751   -2.087520
  C      4.654967    0.244048   -0.343060
  N      4.691648    0.166590    0.820757
  C      4.214163    3.378139    1.593627
  H      3.242643    3.657109    2.012358
  H      4.969258    4.086643    1.941290
  H      4.482966    2.372549    1.931698
  C      4.130759    3.388436    0.150192
  N      4.050180    3.381449   -1.013420

 Total Charge           Charge          ....    0
 Multiplicity           Mult            ....    1
 Number of Electrons    NEL             ....   66
 Basis Dimension        Dim             ....  333

ORBITAL ENERGIES
----------------

  NO   OCC          E(Eh)            E(eV)
   0   2.0000     -15.573134      -423.7665
   1   2.0000     -15.571184      -423.7135
   2   2.0000     -15.570485      -423.6944
   3   2.0000     -11.285475      -307.0934
   4   2.0000     -11.282894      -307.0232
   5   2.0000     -11.282637      -307.0162
   6   2.0000     -11.280044      -306.9456
   7   2.0000     -11.272916      -306.7516
   8   2.0000     -11.271406      -306.7106
   9   2.0000      -1.218345       -33.1529
  10   2.0000      -1.214751       -33.0551
  11   2.0000      -1.213475       -33.0203
  12   2.0000      -1.043914       -28.4063
  13   2.0000      -1.036487       -28.2042
  14   2.0000      -1.033350       -28.1189
  15   2.0000      -0.700737       -19.0680
  16   2.0000      -0.694983       -18.9115
  17   2.0000      -0.690571       -18.7914
  18   2.0000      -0.632154       -17.2018
  19   2.0000      -0.631762       -17.1911
  20   2.0000      -0.631429       -17.1820
  21   2.0000      -0.622313       -16.9340
  22   2.0000      -0.618489       -16.8299
  23   2.0000      -0.615790       -16.7565
  24   2.0000      -0.559064       -15.2129
  25   2.0000      -0.555887       -15.1265
  26   2.0000      -0.555818       -15.1246
  27   2.0000      -0.462541       -12.5864
  28   2.0000      -0.458741       -12.4830
  29   2.0000      -0.457892       -12.4599
  30   2.0000      -0.457734       -12.4556
  31   2.0000      -0.457046       -12.4369
  32   2.0000      -0.453185       -12.3318
  33   0.0000       0.118741         3.2311
  34   0.0000       0.126301         3.4368
  35   0.0000       0.145451         3.9579
  36   0.0000       0.171012         4.6535
  37   0.0000       0.171291         4.6611

MULLIKEN ATOMIC CHARGES
-----------------------
   0 C :   -0.280514
   1 H :    0.171813
   2 H :    0.172297
   3 H :    0.172203
   4 C :   -0.145685
   5 N :   -0.090114
   6 C :   -0.258333
   7 H :    0.171061
   8 H :    0.179552
   9 H :    0.175203
  10 C :   -0.118239
  11 N :   -0.148734
  12 C :   -0.287730
  13 H :    0.167077
  14 H :    0.166370
  15 H :    0.206111
  16 C :   -0.113030
  17 N :   -0.139309
Sum of atomic charges:    0.0000000

LOEWDIN ATOMIC CHARGES
----------------------
   0 C :   -0.284165
   1 H :    0.152585
   2 H :    0.153063
   3 H :    0.151046
   4 C :   -0.219474
   5 N :    0.046945
   6 C :   -0.284868
   7 H :    0.149837
   8 H :    0.155661
   9 H :    0.156902
  10 C :   -0.210137
  11 N :    0.029414
  12 C :   -0.282327
  13 H :    0.152940
  14 H :    0.150018
  15 H :    0.157514
  16 C :   -0.209157
  17 N :    0.034204

  Mayer bond orders larger than 0.100000
B(  0-C ,  1-H ) :   0.9166 B(  0-C ,  2-H ) :   0.9165 B(  0-C ,  3-H ) :   0.9166
B(  0-C ,  4-C ) :   0.9023 B(  4-C ,  5-N ) :   2.8366 B(  6-C ,  7-H ) :   0.9097
B(  6-C ,  8-H ) :   0.9122 B(  6-C ,  9-H ) :   0.9131 B(  6-C , 10-C ) :   0.9122
B( 10-C , 11-N ) :   2.7712 B( 12-C , 13-H ) :   0.9146 B( 12-C , 14-H ) :   0.9162
B( 12-C , 15-H ) :   0.9016 B( 12-C , 16-C ) :   0.9002 B( 16-C , 17-N ) :   2.7919

MP2 TOTAL ENERGY:     -397.458991371 Eh
FINAL SINGLE POINT ENERGY      -397.458991371164

DIPOLE MOMENT
-------------
                                X             Y             Z
Electronic contribution:      0.08305      -0.04401       3.10648
Nuclear contribution   :     -0.11665       0.05764      -4.62773
                        -----------------------------------------
Total Dipole Moment    :     -0.03360       0.01363      -1.52125
                        -----------------------------------------
Magnitude (a.u.)       :      1.52168
Magnitude (Debye)      :      3.86780

Rotational constants in cm-1:     0.047952     0.005772     0.005607
Rotational constants in MHz :  1437.556157   173.032820   168.093695

                             ****ORCA TERMINATED NORMALLY****
TOTAL RUN TIME: 0 days 0 hours 3 minutes 27 seconds 237 msec
