                         Program Version 4.2.0 -  RELEASE  -
|  1> # 12h2o.su.etal.mol0,2,3,4,9
|  2> ! MP2 def2-TZVP EnGrad TightSCF
|  3>
|  4> %pal
|  5>     nprocs 6
|  6> end
|  7>
|  8> %maxcore 8000
|  9>
| 10> %scf
| 11>     ConvForced true
| 12> end
| 13>
| 14> *xyz 0 1
| 15> O   1.794470000   0.923410000   2.768350000
| 16> H   2.338250000   1.359750000   3.430940000
| 17> H   0.879480000   1.303000000   2.865760000
| 18> O   0.923410000  -1.794470000  -2.768350000
| 19> H   1.359750000  -2.338250000  -3.430940000
| 20> H   1.303000000  -0.879480000  -2.865760000
| 21> O  -1.752130000  -0.741530000  -2.896280000
| 22> H  -2.036450000  -0.920500000  -1.984040000
| 23> H  -0.921210000  -1.242140000  -2.984230000
| 24> O  -0.885520000   1.737840000   0.052730000
| 25> H  -1.032320000   2.090180000  -0.841890000
| 26> H  -1.284090000   0.839590000   0.017130000
| 27> O   0.741530000  -1.752130000   2.896280000
| 28> H   0.920500000  -2.036450000   1.984040000
| 29> H   1.242140000  -0.921210000   2.984230000
| 30> *
| 31>
| 32>                          ****END OF INPUT****

CARTESIAN COORDINATES (ANGSTROEM)
---------------------------------
  O      1.794470    0.923410    2.768350
  H      2.338250    1.359750    3.430940
  H      0.879480    1.303000    2.865760
  O      0.923410   -1.794470   -2.768350
  H      1.359750   -2.338250   -3.430940
  H      1.303000   -0.879480   -2.865760
  O     -1.752130   -0.741530   -2.896280
  H     -2.036450   -0.920500   -1.984040
  H     -0.921210   -1.242140   -2.984230
  O     -0.885520    1.737840    0.052730
  H     -1.032320    2.090180   -0.841890
  H     -1.284090    0.839590    0.017130
  O      0.741530   -1.752130    2.896280
  H      0.920500   -2.036450    1.984040
  H      1.242140   -0.921210    2.984230

 Total Charge           Charge          ....    0
 Multiplicity           Mult            ....    1
 Number of Electrons    NEL             ....   50
 Basis Dimension        Dim             ....  215

ORBITAL ENERGIES
----------------

  NO   OCC          E(Eh)            E(eV)
   0   2.0000     -20.597193      -560.4781
   1   2.0000     -20.580310      -560.0187
   2   2.0000     -20.565540      -559.6168
   3   2.0000     -20.546086      -559.0874
   4   2.0000     -20.528152      -558.5994
   5   2.0000      -1.374878       -37.4123
   6   2.0000      -1.358052       -36.9545
   7   2.0000      -1.341416       -36.5018
   8   2.0000      -1.328106       -36.1396
   9   2.0000      -1.310479       -35.6599
  10   2.0000      -0.742107       -20.1938
  11   2.0000      -0.725127       -19.7317
  12   2.0000      -0.703853       -19.1528
  13   2.0000      -0.696884       -18.9632
  14   2.0000      -0.679442       -18.4885
  15   2.0000      -0.615022       -16.7356
  16   2.0000      -0.598133       -16.2760
  17   2.0000      -0.581816       -15.8320
  18   2.0000      -0.569228       -15.4895
  19   2.0000      -0.552097       -15.0233
  20   2.0000      -0.534732       -14.5508
  21   2.0000      -0.517760       -14.0890
  22   2.0000      -0.508501       -13.8370
  23   2.0000      -0.493073       -13.4172
  24   2.0000      -0.475914       -12.9503
  25   0.0000       0.090651         2.4667
  26   0.0000       0.117150         3.1878
  27   0.0000       0.131713         3.5841
  28   0.0000       0.166431         4.5288
  29   0.0000       0.175689         4.7807

MULLIKEN ATOMIC CHARGES
-----------------------
   0 O :   -0.696061
   1 H :    0.348861
   2 H :    0.368047
   3 O :   -0.696731
   4 H :    0.356181
   5 H :    0.362130
   6 O :   -0.700787
   7 H :    0.322196
   8 H :    0.360196
   9 O :   -0.680824
  10 H :    0.344706
  11 H :    0.334080
  12 O :   -0.707786
  13 H :    0.328731
  14 H :    0.357061
Sum of atomic charges:    0.0000000

LOEWDIN ATOMIC CHARGES
----------------------
   0 O :   -0.310642
   1 H :    0.161992
   2 H :    0.190725
   3 O :   -0.310871
   4 H :    0.165277
   5 H :    0.189043
   6 O :   -0.344672
   7 H :    0.155659
   8 H :    0.148340
   9 O :   -0.337911
  10 H :    0.167863
  11 H :    0.168707
  12 O :   -0.350349
  13 H :    0.159896
  14 H :    0.146942

  Mayer bond orders larger than 0.100000
B(  0-O ,  1-H ) :   0.8436 B(  0-O ,  2-H ) :   0.8245 B(  3-O ,  4-H ) :   0.8396
B(  3-O ,  5-H ) :   0.8295 B(  6-O ,  7-H ) :   0.8605 B(  6-O ,  8-H ) :   0.8145
B(  9-O , 10-H ) :   0.8478 B(  9-O , 11-H ) :   0.8507 B( 12-O , 13-H ) :   0.8584
B( 12-O , 14-H ) :   0.8169

MP2 TOTAL ENERGY:     -381.583934848 Eh
FINAL SINGLE POINT ENERGY      -381.583934848136

DIPOLE MOMENT
-------------
                                X             Y             Z
Electronic contribution:      0.11852       0.06036       0.05347
Nuclear contribution   :      0.93685       0.42305      -0.77428
                        -----------------------------------------
Total Dipole Moment    :      1.05536       0.48341      -0.72081
                        -----------------------------------------
Magnitude (a.u.)       :      1.36640
Magnitude (Debye)      :      3.47310

Rotational constants in cm-1:     0.063487     0.023364     0.019856
Rotational constants in MHz :  1903.298700   700.422733   595.260752

                             ****ORCA TERMINATED NORMALLY****
TOTAL RUN TIME: 0 days 0 hours 0 minutes 23 seconds 703 msec
