                         Program Version 4.2.0 -  RELEASE  -
|  1> # 12h2o.su.etal.mol0,3,6,7,8,11
|  2> ! MP2 def2-TZVP EnGrad TightSCF
|  3>
|  4> %pal
|  5>     nprocs 6
|  6> end
|  7>
|  8> %maxcore 8000
|  9>
| 10> %scf
| 11>     ConvForced true
| 12> end
| 13>
| 14> *xyz 0 1
| 15> O   1.794470000   0.923410000   2.768350000
| 16> H   2.338250000   1.359750000   3.430940000
| 17> H   0.879480000   1.303000000   2.865760000
| 18> O  -1.752130000  -0.741530000  -2.896280000
| 19> H  -2.036450000  -0.920500000  -1.984040000
| 20> H  -0.921210000  -1.242140000  -2.984230000
| 21> O   1.737840000   0.885520000  -0.052730000
| 22> H   2.090180000   1.032320000   0.841890000
| 23> H   0.839590000   1.284090000  -0.017130000
| 24> O  -1.737840000  -0.885520000  -0.052730000
| 25> H  -2.090180000  -1.032320000   0.841890000
| 26> H  -0.839590000  -1.284090000  -0.017130000
| 27> O   1.752130000   0.741530000  -2.896280000
| 28> H   2.036450000   0.920500000  -1.984040000
| 29> H   0.921210000   1.242140000  -2.984230000
| 30> O  -0.741530000   1.752130000   2.896280000
| 31> H  -0.920500000   2.036450000   1.984040000
| 32> H  -1.242140000   0.921210000   2.984230000
| 33> *
| 34>
| 35>                          ****END OF INPUT****

CARTESIAN COORDINATES (ANGSTROEM)
---------------------------------
  O      1.794470    0.923410    2.768350
  H      2.338250    1.359750    3.430940
  H      0.879480    1.303000    2.865760
  O     -1.752130   -0.741530   -2.896280
  H     -2.036450   -0.920500   -1.984040
  H     -0.921210   -1.242140   -2.984230
  O      1.737840    0.885520   -0.052730
  H      2.090180    1.032320    0.841890
  H      0.839590    1.284090   -0.017130
  O     -1.737840   -0.885520   -0.052730
  H     -2.090180   -1.032320    0.841890
  H     -0.839590   -1.284090   -0.017130
  O      1.752130    0.741530   -2.896280
  H      2.036450    0.920500   -1.984040
  H      0.921210    1.242140   -2.984230
  O     -0.741530    1.752130    2.896280
  H     -0.920500    2.036450    1.984040
  H     -1.242140    0.921210    2.984230

 Total Charge           Charge          ....    0
 Multiplicity           Mult            ....    1
 Number of Electrons    NEL             ....   60
 Basis Dimension        Dim             ....  258

ORBITAL ENERGIES
----------------

  NO   OCC          E(Eh)            E(eV)
   0   2.0000     -20.628587      -561.3324
   1   2.0000     -20.606664      -560.7358
   2   2.0000     -20.563726      -559.5674
   3   2.0000     -20.563639      -559.5651
   4   2.0000     -20.532102      -558.7069
   5   2.0000     -20.522122      -558.4353
   6   2.0000      -1.413952       -38.4756
   7   2.0000      -1.384821       -37.6829
   8   2.0000      -1.352317       -36.7984
   9   2.0000      -1.340755       -36.4838
  10   2.0000      -1.313982       -35.7553
  11   2.0000      -1.303789       -35.4779
  12   2.0000      -0.771100       -20.9827
  13   2.0000      -0.746813       -20.3218
  14   2.0000      -0.734920       -19.9982
  15   2.0000      -0.712910       -19.3993
  16   2.0000      -0.685646       -18.6574
  17   2.0000      -0.672004       -18.2861
  18   2.0000      -0.651464       -17.7272
  19   2.0000      -0.622530       -16.9399
  20   2.0000      -0.604677       -16.4541
  21   2.0000      -0.586267       -15.9531
  22   2.0000      -0.558385       -15.1944
  23   2.0000      -0.553105       -15.0508
  24   2.0000      -0.542257       -14.7556
  25   2.0000      -0.540502       -14.7078
  26   2.0000      -0.512597       -13.9485
  27   2.0000      -0.507292       -13.8041
  28   2.0000      -0.479368       -13.0443
  29   2.0000      -0.467816       -12.7299
  30   0.0000       0.059014         1.6059
  31   0.0000       0.115537         3.1439
  32   0.0000       0.128743         3.5033
  33   0.0000       0.145191         3.9508
  34   0.0000       0.177869         4.8401

MULLIKEN ATOMIC CHARGES
-----------------------
   0 O :   -0.737002
   1 H :    0.343325
   2 H :    0.367554
   3 O :   -0.700148
   4 H :    0.363993
   5 H :    0.332751
   6 O :   -0.707114
   7 H :    0.380882
   8 H :    0.313431
   9 O :   -0.697869
  10 H :    0.339435
  11 H :    0.361834
  12 O :   -0.703762
  13 H :    0.371059
  14 H :    0.324881
  15 O :   -0.669876
  16 H :    0.359326
  17 H :    0.357301
Sum of atomic charges:    0.0000000

LOEWDIN ATOMIC CHARGES
----------------------
   0 O :   -0.339524
   1 H :    0.156970
   2 H :    0.142502
   3 O :   -0.339380
   4 H :    0.150492
   5 H :    0.161899
   6 O :   -0.324894
   7 H :    0.154810
   8 H :    0.157224
   9 O :   -0.317578
  10 H :    0.164608
  11 H :    0.180640
  12 O :   -0.342797
  13 H :    0.151758
  14 H :    0.157901
  15 O :   -0.263291
  16 H :    0.173227
  17 H :    0.175435

  Mayer bond orders larger than 0.100000
B(  0-O ,  1-H ) :   0.8473 B(  0-O ,  2-H ) :   0.7726 B(  3-O ,  4-H ) :   0.8277
B(  3-O ,  5-H ) :   0.8518 B(  6-O ,  7-H ) :   0.7958 B(  6-O ,  8-H ) :   0.8552
B(  9-O , 10-H ) :   0.8469 B(  9-O , 11-H ) :   0.8273 B( 12-O , 13-H ) :   0.8177
B( 12-O , 14-H ) :   0.8566 B( 15-O , 16-H ) :   0.8353 B( 15-O , 17-H ) :   0.8361

MP2 TOTAL ENERGY:     -457.909812833 Eh
FINAL SINGLE POINT ENERGY      -457.909812832558

DIPOLE MOMENT
-------------
                                X             Y             Z
Electronic contribution:     -0.08648       0.01494       0.09547
Nuclear contribution   :     -0.87464       0.22418       2.86726
                        -----------------------------------------
Total Dipole Moment    :     -0.96112       0.23912       2.96272
                        -----------------------------------------
Magnitude (a.u.)       :      3.12389
Magnitude (Debye)      :      7.94029

Rotational constants in cm-1:     0.050922     0.025038     0.018034
Rotational constants in MHz :  1526.594669   750.610859   540.649582

                             ****ORCA TERMINATED NORMALLY****
TOTAL RUN TIME: 0 days 0 hours 0 minutes 55 seconds 957 msec
