                         Program Version 4.2.0 -  RELEASE  -
|  1> # 12h2o.su.etal.mol0,4,7,8,9,10,11
|  2> ! MP2 def2-TZVP EnGrad TightSCF
|  3>
|  4> %pal
|  5>     nprocs 6
|  6> end
|  7>
|  8> %maxcore 8000
|  9>
| 10> %scf
| 11>     ConvForced true
| 12> end
| 13>
| 14> *xyz 0 1
| 15> O   1.794470000   0.923410000   2.768350000
| 16> H   2.338250000   1.359750000   3.430940000
| 17> H   0.879480000   1.303000000   2.865760000
| 18> O  -0.885520000   1.737840000   0.052730000
| 19> H  -1.032320000   2.090180000  -0.841890000
| 20> H  -1.284090000   0.839590000   0.017130000
| 21> O  -1.737840000  -0.885520000  -0.052730000
| 22> H  -2.090180000  -1.032320000   0.841890000
| 23> H  -0.839590000  -1.284090000  -0.017130000
| 24> O   1.752130000   0.741530000  -2.896280000
| 25> H   2.036450000   0.920500000  -1.984040000
| 26> H   0.921210000   1.242140000  -2.984230000
| 27> O   0.741530000  -1.752130000   2.896280000
| 28> H   0.920500000  -2.036450000   1.984040000
| 29> H   1.242140000  -0.921210000   2.984230000
| 30> O  -0.923410000   1.794470000  -2.768350000
| 31> H  -1.359750000   2.338250000  -3.430940000
| 32> H  -1.303000000   0.879480000  -2.865760000
| 33> O  -0.741530000   1.752130000   2.896280000
| 34> H  -0.920500000   2.036450000   1.984040000
| 35> H  -1.242140000   0.921210000   2.984230000
| 36> *
| 37>
| 38>                          ****END OF INPUT****

CARTESIAN COORDINATES (ANGSTROEM)
---------------------------------
  O      1.794470    0.923410    2.768350
  H      2.338250    1.359750    3.430940
  H      0.879480    1.303000    2.865760
  O     -0.885520    1.737840    0.052730
  H     -1.032320    2.090180   -0.841890
  H     -1.284090    0.839590    0.017130
  O     -1.737840   -0.885520   -0.052730
  H     -2.090180   -1.032320    0.841890
  H     -0.839590   -1.284090   -0.017130
  O      1.752130    0.741530   -2.896280
  H      2.036450    0.920500   -1.984040
  H      0.921210    1.242140   -2.984230
  O      0.741530   -1.752130    2.896280
  H      0.920500   -2.036450    1.984040
  H      1.242140   -0.921210    2.984230
  O     -0.923410    1.794470   -2.768350
  H     -1.359750    2.338250   -3.430940
  H     -1.303000    0.879480   -2.865760
  O     -0.741530    1.752130    2.896280
  H     -0.920500    2.036450    1.984040
  H     -1.242140    0.921210    2.984230

 Total Charge           Charge          ....    0
 Multiplicity           Mult            ....    1
 Number of Electrons    NEL             ....   70
 Basis Dimension        Dim             ....  301

ORBITAL ENERGIES
----------------

  NO   OCC          E(Eh)            E(eV)
   0   2.0000     -20.616437      -561.0018
   1   2.0000     -20.612181      -560.8860
   2   2.0000     -20.569365      -559.7209
   3   2.0000     -20.545132      -559.0615
   4   2.0000     -20.541161      -558.9534
   5   2.0000     -20.536530      -558.8274
   6   2.0000     -20.536481      -558.8261
   7   2.0000      -1.396785       -38.0085
   8   2.0000      -1.392665       -37.8963
   9   2.0000      -1.360046       -37.0087
  10   2.0000      -1.330304       -36.1994
  11   2.0000      -1.326838       -36.1051
  12   2.0000      -1.318994       -35.8917
  13   2.0000      -1.315456       -35.7954
  14   2.0000      -0.762283       -20.7428
  15   2.0000      -0.750675       -20.4269
  16   2.0000      -0.722517       -19.6607
  17   2.0000      -0.709120       -19.2961
  18   2.0000      -0.705003       -19.1841
  19   2.0000      -0.690314       -18.7844
  20   2.0000      -0.688852       -18.7446
  21   2.0000      -0.642878       -17.4936
  22   2.0000      -0.628532       -17.1032
  23   2.0000      -0.608473       -16.5574
  24   2.0000      -0.590355       -16.0644
  25   2.0000      -0.575167       -15.6511
  26   2.0000      -0.562739       -15.3129
  27   2.0000      -0.551043       -14.9947
  28   2.0000      -0.543873       -14.7995
  29   2.0000      -0.535128       -14.5616
  30   2.0000      -0.507273       -13.8036
  31   2.0000      -0.496218       -13.5028
  32   2.0000      -0.490434       -13.3454
  33   2.0000      -0.484108       -13.1733
  34   2.0000      -0.484016       -13.1707
  35   0.0000       0.078589         2.1385
  36   0.0000       0.104660         2.8479
  37   0.0000       0.136050         3.7021
  38   0.0000       0.154568         4.2060
  39   0.0000       0.170458         4.6384

MULLIKEN ATOMIC CHARGES
-----------------------
   0 O :   -0.741707
   1 H :    0.337010
   2 H :    0.385384
   3 O :   -0.740937
   4 H :    0.369380
   5 H :    0.339484
   6 O :   -0.684900
   7 H :    0.361085
   8 H :    0.361279
   9 O :   -0.708274
  10 H :    0.338705
  11 H :    0.354324
  12 O :   -0.710794
  13 H :    0.316231
  14 H :    0.367855
  15 O :   -0.714539
  16 H :    0.364558
  17 H :    0.374587
  18 O :   -0.699069
  19 H :    0.392384
  20 H :    0.337954
Sum of atomic charges:   -0.0000000

LOEWDIN ATOMIC CHARGES
----------------------
   0 O :   -0.340836
   1 H :    0.153809
   2 H :    0.146332
   3 O :   -0.345734
   4 H :    0.148972
   5 H :    0.136895
   6 O :   -0.289483
   7 H :    0.173567
   8 H :    0.180325
   9 O :   -0.348064
  10 H :    0.163926
  11 H :    0.144932
  12 O :   -0.349143
  13 H :    0.152197
  14 H :    0.149798
  15 O :   -0.286646
  16 H :    0.168180
  17 H :    0.193080
  18 O :   -0.276797
  19 H :    0.160445
  20 H :    0.164246

  Mayer bond orders larger than 0.100000
B(  0-O ,  1-H ) :   0.8505 B(  0-O ,  2-H ) :   0.7545 B(  3-O ,  4-H ) :   0.8183
B(  3-O ,  5-H ) :   0.7920 B(  6-O ,  7-H ) :   0.8345 B(  6-O ,  8-H ) :   0.8295
B(  9-O , 10-H ) :   0.8515 B(  9-O , 11-H ) :   0.8270 B( 12-O , 13-H ) :   0.8636
B( 12-O , 14-H ) :   0.7949 B( 15-O , 16-H ) :   0.8318 B( 15-O , 17-H ) :   0.8182
B( 18-O , 19-H ) :   0.7888 B( 18-O , 20-H ) :   0.8459

MP2 TOTAL ENERGY:     -534.245986391 Eh
FINAL SINGLE POINT ENERGY      -534.245986391032

DIPOLE MOMENT
-------------
                                X             Y             Z
Electronic contribution:     -0.21390       0.18867      -0.23690
Nuclear contribution   :     -1.44265       0.02748      -0.68611
                        -----------------------------------------
Total Dipole Moment    :     -1.65655       0.21615      -0.92300
                        -----------------------------------------
Magnitude (a.u.)       :      1.90861
Magnitude (Debye)      :      4.85131

Rotational constants in cm-1:     0.041615     0.018234     0.017618
Rotational constants in MHz :  1247.583099   546.643062   528.168250

                             ****ORCA TERMINATED NORMALLY****
TOTAL RUN TIME: 0 days 0 hours 2 minutes 2 seconds 335 msec
