                         Program Version 4.2.0 -  RELEASE  -
|  1> ! MP2 def2-TZVP EnGrad TightSCF FrozenCore
|  2>
|  3> %pal
|  4>     nprocs 12
|  5> end
|  6>
|  7> %maxcore 8000
|  8>
|  9> %scf
| 10>     ConvForced true
| 11> end
| 12>
| 13> *xyz 0 1
| 14> C     2.345126    -2.892957     0.527451
| 15> H     3.169651    -2.812550    -0.185989
| 16> H     1.409905    -3.093560    -0.003975
| 17> H     2.541612    -3.712089     1.223983
| 18> C     2.212622    -1.636525     1.259615
| 19> N     2.108809    -0.633236     1.836924
| 20> C     0.950915    -0.328339    -2.010373
| 21> H     0.463829    -0.499541    -1.044928
| 22> H     0.611461    -1.095491    -2.711219
| 23> H     0.643084     0.655310    -2.371435
| 24> C     2.401067    -0.378658    -1.850413
| 25> N     3.552767    -0.427270    -1.697218
| 26> C     3.515103     2.059126     0.790425
| 27> H     3.502654     1.739729     1.835003
| 28> H     4.057853     3.002681     0.691334
| 29> H     4.008634     1.285279     0.194907
| 30> C     2.142579     2.222471     0.320211
| 31> N     1.052376     2.361935    -0.058126
| 32> C    -2.343623     2.890222    -0.532383
| 33> H    -1.410014     3.086851     0.003423
| 34> H    -3.172052     2.815126     0.177098
| 35> H    -2.532271     3.709325    -1.231107
| 36> C    -2.213721     1.631999    -1.261963
| 37> N    -2.111661     0.627068    -1.836751
| 38> C    -0.946938     0.336282     1.990761
| 39> H    -0.638490    -0.630103     2.395385
| 40> H    -0.594549     1.135094     2.648632
| 41> H    -0.472001     0.457787     1.012006
| 42> C    -2.398744     0.386548     1.846412
| 43> N    -3.551929     0.434838     1.704640
| 44> C    -3.519089    -2.063555    -0.775220
| 45> H    -4.011667    -1.292415    -0.175409
| 46> H    -4.059813    -3.008353    -0.676931
| 47> H    -3.511294    -1.740976    -1.818880
| 48> C    -2.144322    -2.225953    -0.311264
| 49> N    -1.052132    -2.364203     0.061751
| 50> *
| 51>
| 52>                          ****END OF INPUT****

CARTESIAN COORDINATES (ANGSTROEM)
---------------------------------
  C      2.345126   -2.892957    0.527451
  H      3.169651   -2.812550   -0.185989
  H      1.409905   -3.093560   -0.003975
  H      2.541612   -3.712089    1.223983
  C      2.212622   -1.636525    1.259615
  N      2.108809   -0.633236    1.836924
  C      0.950915   -0.328339   -2.010373
  H      0.463829   -0.499541   -1.044928
  H      0.611461   -1.095491   -2.711219
  H      0.643084    0.655310   -2.371435
  C      2.401067   -0.378658   -1.850413
  N      3.552767   -0.427270   -1.697218
  C      3.515103    2.059126    0.790425
  H      3.502654    1.739729    1.835003
  H      4.057853    3.002681    0.691334
  H      4.008634    1.285279    0.194907
  C      2.142579    2.222471    0.320211
  N      1.052376    2.361935   -0.058126
  C     -2.343623    2.890222   -0.532383
  H     -1.410014    3.086851    0.003423
  H     -3.172052    2.815126    0.177098
  H     -2.532271    3.709325   -1.231107
  C     -2.213721    1.631999   -1.261963
  N     -2.111661    0.627068   -1.836751
  C     -0.946938    0.336282    1.990761
  H     -0.638490   -0.630103    2.395385
  H     -0.594549    1.135094    2.648632
  H     -0.472001    0.457787    1.012006
  C     -2.398744    0.386548    1.846412
  N     -3.551929    0.434838    1.704640
  C     -3.519089   -2.063555   -0.775220
  H     -4.011667   -1.292415   -0.175409
  H     -4.059813   -3.008353   -0.676931
  H     -3.511294   -1.740976   -1.818880
  C     -2.144322   -2.225953   -0.311264
  N     -1.052132   -2.364203    0.061751

 Total Charge           Charge          ....    0
 Multiplicity           Mult            ....    1
 Number of Electrons    NEL             ....  132
 Basis Dimension        Dim             ....  666

ORBITAL ENERGIES
----------------

  NO   OCC          E(Eh)            E(eV)
   0   2.0000     -15.569166      -423.6586
   1   2.0000     -15.569059      -423.6556
   2   2.0000     -15.568204      -423.6324
   3   2.0000     -15.567988      -423.6265
   4   2.0000     -15.564962      -423.5441
   5   2.0000     -15.564876      -423.5418
   6   2.0000     -11.285111      -307.0835
   7   2.0000     -11.285014      -307.0809
   8   2.0000     -11.282356      -307.0085
   9   2.0000     -11.282155      -307.0030
  10   2.0000     -11.277251      -306.8696
  11   2.0000     -11.277126      -306.8662
  12   2.0000     -11.268434      -306.6297
  13   2.0000     -11.268300      -306.6260
  14   2.0000     -11.265874      -306.5600
  15   2.0000     -11.265769      -306.5572
  16   2.0000     -11.257627      -306.3356
  17   2.0000     -11.257402      -306.3295
  18   2.0000      -1.220544       -33.2127
  19   2.0000      -1.219598       -33.1869
  20   2.0000      -1.217411       -33.1274
  21   2.0000      -1.216750       -33.1094
  22   2.0000      -1.213135       -33.0111
  23   2.0000      -1.212897       -33.0046
  24   2.0000      -1.028737       -27.9934
  25   2.0000      -1.028270       -27.9807
  26   2.0000      -1.026073       -27.9209
  27   2.0000      -1.025602       -27.9081
  28   2.0000      -1.018493       -27.7146
  29   2.0000      -1.017367       -27.6840
  30   2.0000      -0.690347       -18.7853
  31   2.0000      -0.688567       -18.7369
  32   2.0000      -0.686181       -18.6719
  33   2.0000      -0.686036       -18.6680
  34   2.0000      -0.679655       -18.4944
  35   2.0000      -0.679466       -18.4892
  36   2.0000      -0.627312       -17.0700
  37   2.0000      -0.622882       -16.9495
  38   2.0000      -0.622365       -16.9354
  39   2.0000      -0.620693       -16.8899
  40   2.0000      -0.619263       -16.8510
  41   2.0000      -0.616610       -16.7788
  42   2.0000      -0.615588       -16.7510
  43   2.0000      -0.615419       -16.7464
  44   2.0000      -0.602681       -16.3998
  45   2.0000      -0.601523       -16.3683
  46   2.0000      -0.599978       -16.3262
  47   2.0000      -0.595376       -16.2010
  48   2.0000      -0.559460       -15.2237
  49   2.0000      -0.558547       -15.1988
  50   2.0000      -0.557772       -15.1777
  51   2.0000      -0.557381       -15.1671
  52   2.0000      -0.551789       -15.0149
  53   2.0000      -0.550744       -14.9865
  54   2.0000      -0.469121       -12.7654
  55   2.0000      -0.468060       -12.7365
  56   2.0000      -0.464631       -12.6432
  57   2.0000      -0.462430       -12.5834
  58   2.0000      -0.461113       -12.5475
  59   2.0000      -0.460108       -12.5202
  60   2.0000      -0.458487       -12.4761
  61   2.0000      -0.456699       -12.4274
  62   2.0000      -0.452090       -12.3020
  63   2.0000      -0.450261       -12.2522
  64   2.0000      -0.449539       -12.2326
  65   2.0000      -0.448167       -12.1952
  66   0.0000       0.124862         3.3977
  67   0.0000       0.142681         3.8826
  68   0.0000       0.145385         3.9561
  69   0.0000       0.156930         4.2703
  70   0.0000       0.158864         4.3229

MULLIKEN ATOMIC CHARGES
-----------------------
   0 C :   -0.302379
   1 H :    0.190473
   2 H :    0.195019
   3 H :    0.169476
   4 C :   -0.069320
   5 N :   -0.182059
   6 C :   -0.282235
   7 H :    0.162886
   8 H :    0.172488
   9 H :    0.185933
  10 C :   -0.104736
  11 N :   -0.141798
  12 C :   -0.285663
  13 H :    0.182877
  14 H :    0.167769
  15 H :    0.197799
  16 C :   -0.071145
  17 N :   -0.185733
  18 C :   -0.302115
  19 H :    0.195077
  20 H :    0.190446
  21 H :    0.169600
  22 C :   -0.070175
  23 N :   -0.181635
  24 C :   -0.281054
  25 H :    0.185407
  26 H :    0.172225
  27 H :    0.163430
  28 C :   -0.106254
  29 N :   -0.140845
  30 C :   -0.286228
  31 H :    0.197759
  32 H :    0.167827
  33 H :    0.183126
  34 C :   -0.070471
  35 N :   -0.185776
Sum of atomic charges:   -0.0000000

LOEWDIN ATOMIC CHARGES
----------------------
   0 C :   -0.283620
   1 H :    0.153892
   2 H :    0.152983
   3 H :    0.149487
   4 C :   -0.199830
   5 N :    0.039030
   6 C :   -0.287977
   7 H :    0.151320
   8 H :    0.150916
   9 H :    0.154837
  10 C :   -0.210257
  11 N :    0.025063
  12 C :   -0.281910
  13 H :    0.154043
  14 H :    0.147263
  15 H :    0.157013
  16 C :   -0.195931
  17 N :    0.023846
  18 C :   -0.283550
  19 H :    0.153035
  20 H :    0.153958
  21 H :    0.149505
  22 C :   -0.199974
  23 N :    0.038929
  24 C :   -0.288165
  25 H :    0.154854
  26 H :    0.150891
  27 H :    0.151272
  28 C :   -0.210458
  29 N :    0.025010
  30 C :   -0.281823
  31 H :    0.157033
  32 H :    0.147291
  33 H :    0.154101
  34 C :   -0.195864
  35 N :    0.023788

  Mayer bond orders larger than 0.100000
B(  0-C ,  1-H ) :   0.9157 B(  0-C ,  2-H ) :   0.9075 B(  0-C ,  3-H ) :   0.9112
B(  0-C ,  4-C ) :   0.8873 B(  4-C ,  5-N ) :   2.7176 B(  6-C ,  7-H ) :   0.9102
B(  6-C ,  8-H ) :   0.9145 B(  6-C ,  9-H ) :   0.9078 B(  6-C , 10-C ) :   0.9119
B( 10-C , 11-N ) :   2.7630 B( 12-C , 13-H ) :   0.9149 B( 12-C , 14-H ) :   0.9104
B( 12-C , 15-H ) :   0.9076 B( 12-C , 16-C ) :   0.8915 B( 16-C , 17-N ) :   2.7280
B( 18-C , 19-H ) :   0.9073 B( 18-C , 20-H ) :   0.9157 B( 18-C , 21-H ) :   0.9111
B( 18-C , 22-C ) :   0.8875 B( 22-C , 23-N ) :   2.7177 B( 24-C , 25-H ) :   0.9072
B( 24-C , 26-H ) :   0.9143 B( 24-C , 27-H ) :   0.9104 B( 24-C , 28-C ) :   0.9131
B( 28-C , 29-N ) :   2.7647 B( 30-C , 31-H ) :   0.9077 B( 30-C , 32-H ) :   0.9105
B( 30-C , 33-H ) :   0.9148 B( 30-C , 34-C ) :   0.8912 B( 34-C , 35-N ) :   2.7275

MP2 TOTAL ENERGY:     -794.955532083 Eh
FINAL SINGLE POINT ENERGY      -794.955532082522

DIPOLE MOMENT
-------------
                                X             Y             Z
Electronic contribution:     -0.00502      -0.00283       0.02663
Nuclear contribution   :      0.00656       0.00211      -0.03828
                        -----------------------------------------
Total Dipole Moment    :      0.00155      -0.00072      -0.01165
                        -----------------------------------------
Magnitude (a.u.)       :      0.01177
Magnitude (Debye)      :      0.02992

Rotational constants in cm-1:     0.013888     0.008822     0.007608
Rotational constants in MHz :   416.346731   264.478005   228.068225

                             ****ORCA TERMINATED NORMALLY****
TOTAL RUN TIME: 0 days 0 hours 33 minutes 13 seconds 662 msec
