                         Program Version 4.2.0 -  RELEASE  -
|  1> # 12meoh.boyd.etal.mol2,4,6
|  2> ! MP2 def2-TZVP EnGrad TightSCF
|  3>
|  4> %pal
|  5>     nprocs 6
|  6> end
|  7>
|  8> %maxcore 8000
|  9>
| 10> %scf
| 11>     ConvForced true
| 12> end
| 13>
| 14> *xyz 0 1
| 15> O  -3.839777402   2.233595098   0.660436763
| 16> H  -2.958345897   1.907036203   0.973588449
| 17> C  -3.600368059   3.168790682  -0.390480452
| 18> H  -4.551709193   3.344148967  -0.901254863
| 19> H  -2.868237594   2.789240199  -1.113617525
| 20> H  -3.243594915   4.128998607   0.009549480
| 21> O  -1.358578914   1.232360421   1.189721000
| 22> H  -1.058250183   1.216459361   0.238591307
| 23> C  -0.389763452   1.957872567   1.943072362
| 24> H  -0.747220771   2.012806578   2.975200343
| 25> H  -0.260410585   2.982763209   1.565366540
| 26> H   0.585220638   1.453754179   1.934070793
| 27> O   2.622209273  -1.703002590  -1.445859723
| 28> H   1.828551432  -1.986513781  -0.909754968
| 29> C   2.781117675  -2.615822239  -2.525472890
| 30> H   3.691063626  -2.339003544  -3.065143454
| 31> H   1.934727323  -2.559520367  -3.223226661
| 32> H   2.879948338  -3.653846211  -2.177750170
| 33> *
| 34>
| 35>                          ****END OF INPUT****

CARTESIAN COORDINATES (ANGSTROEM)
---------------------------------
  O     -3.839777    2.233595    0.660437
  H     -2.958346    1.907036    0.973588
  C     -3.600368    3.168791   -0.390480
  H     -4.551709    3.344149   -0.901255
  H     -2.868238    2.789240   -1.113618
  H     -3.243595    4.128999    0.009549
  O     -1.358579    1.232360    1.189721
  H     -1.058250    1.216459    0.238591
  C     -0.389763    1.957873    1.943072
  H     -0.747221    2.012807    2.975200
  H     -0.260411    2.982763    1.565367
  H      0.585221    1.453754    1.934071
  O      2.622209   -1.703003   -1.445860
  H      1.828551   -1.986514   -0.909755
  C      2.781118   -2.615822   -2.525473
  H      3.691064   -2.339004   -3.065143
  H      1.934727   -2.559520   -3.223227
  H      2.879948   -3.653846   -2.177750

 Total Charge           Charge          ....    0
 Multiplicity           Mult            ....    1
 Number of Electrons    NEL             ....   54
 Basis Dimension        Dim             ....  258

ORBITAL ENERGIES
----------------

  NO   OCC          E(Eh)            E(eV)
   0   2.0000     -20.590245      -560.2891
   1   2.0000     -20.564039      -559.5760
   2   2.0000     -20.519966      -558.3767
   3   2.0000     -11.290725      -307.2363
   4   2.0000     -11.276521      -306.8497
   5   2.0000     -11.257499      -306.3321
   6   2.0000      -1.381311       -37.5874
   7   2.0000      -1.352093       -36.7923
   8   2.0000      -1.316291       -35.8181
   9   2.0000      -0.942213       -25.6389
  10   2.0000      -0.924486       -25.1566
  11   2.0000      -0.903075       -24.5739
  12   2.0000      -0.710298       -19.3282
  13   2.0000      -0.686679       -18.6855
  14   2.0000      -0.679189       -18.4817
  15   2.0000      -0.633548       -17.2397
  16   2.0000      -0.622353       -16.9351
  17   2.0000      -0.612585       -16.6693
  18   2.0000      -0.597916       -16.2701
  19   2.0000      -0.596865       -16.2415
  20   2.0000      -0.567082       -15.4311
  21   2.0000      -0.527489       -14.3537
  22   2.0000      -0.505383       -13.7522
  23   2.0000      -0.491789       -13.3823
  24   2.0000      -0.461787       -12.5659
  25   2.0000      -0.454787       -12.3754
  26   2.0000      -0.423267       -11.5177
  27   0.0000       0.104624         2.8470
  28   0.0000       0.133306         3.6274
  29   0.0000       0.158970         4.3258
  30   0.0000       0.166055         4.5186
  31   0.0000       0.182545         4.9673

MULLIKEN ATOMIC CHARGES
-----------------------
   0 O :   -0.520318
   1 H :    0.353940
   2 C :   -0.179702
   3 H :    0.127294
   4 H :    0.081588
   5 H :    0.102536
   6 O :   -0.516414
   7 H :    0.339676
   8 C :   -0.188146
   9 H :    0.145106
  10 H :    0.125130
  11 H :    0.129269
  12 O :   -0.502084
  13 H :    0.321927
  14 C :   -0.172160
  15 H :    0.130494
  16 H :    0.109822
  17 H :    0.112042
Sum of atomic charges:    0.0000000

LOEWDIN ATOMIC CHARGES
----------------------
   0 O :   -0.120042
   1 H :    0.159069
   2 C :   -0.394443
   3 H :    0.107485
   4 H :    0.085611
   5 H :    0.092056
   6 O :   -0.078479
   7 H :    0.199247
   8 C :   -0.372539
   9 H :    0.116004
  10 H :    0.101380
  11 H :    0.104627
  12 O :   -0.113165
  13 H :    0.192252
  14 C :   -0.381612
  15 H :    0.110722
  16 H :    0.095427
  17 H :    0.096399

  Mayer bond orders larger than 0.100000
B(  0-O ,  1-H ) :   0.7962 B(  0-O ,  2-C ) :   0.9449 B(  2-C ,  3-H ) :   0.9429
B(  2-C ,  4-H ) :   0.9372 B(  2-C ,  5-H ) :   0.9385 B(  6-O ,  7-H ) :   0.8294
B(  6-O ,  8-C ) :   0.8726 B(  8-C ,  9-H ) :   0.9389 B(  8-C , 10-H ) :   0.9364
B(  8-C , 11-H ) :   0.9351 B( 12-O , 13-H ) :   0.8411 B( 12-O , 14-C ) :   0.9226
B( 14-C , 15-H ) :   0.9372 B( 14-C , 16-H ) :   0.9391 B( 14-C , 17-H ) :   0.9393

MP2 TOTAL ENERGY:     -346.528310846 Eh
FINAL SINGLE POINT ENERGY      -346.528310846360

DIPOLE MOMENT
-------------
                                X             Y             Z
Electronic contribution:     -1.50461      -1.01865       1.96694
Nuclear contribution   :      2.60715       0.78352      -2.40874
                        -----------------------------------------
Total Dipole Moment    :      1.10253      -0.23513      -0.44180
                        -----------------------------------------
Magnitude (a.u.)       :      1.21081
Magnitude (Debye)      :      3.07763

Rotational constants in cm-1:     0.108674     0.014008     0.012848
Rotational constants in MHz :  3257.962075   419.960751   385.174376

                             ****ORCA TERMINATED NORMALLY****
TOTAL RUN TIME: 0 days 0 hours 1 minutes 1 seconds 546 msec
