                         Program Version 4.2.0 -  RELEASE  -
|  1> # 12meoh.boyd.etal.mol5,7,11
|  2> ! MP2 def2-TZVP EnGrad TightSCF
|  3>
|  4> %pal
|  5>     nprocs 6
|  6> end
|  7>
|  8> %maxcore 8000
|  9>
| 10> %scf
| 11>     ConvForced true
| 12> end
| 13>
| 14> *xyz 0 1
| 15> O  -0.662721750   1.449094618  -1.383082065
| 16> H   0.064188300   2.119867608  -1.465650660
| 17> C  -0.353319239   0.341218776  -2.229326771
| 18> H  -1.072358530  -0.454743281  -2.019906495
| 19> H   0.657636746  -0.044472139  -2.042736771
| 20> H  -0.434616607   0.624733901  -3.287793021
| 21> O   4.310535586  -1.588322800   0.656128299
| 22> H   3.804372199  -1.630404735  -0.196849819
| 23> C   4.312298137  -2.894980854   1.222112691
| 24> H   4.713177833  -2.819907076   2.237066773
| 25> H   4.957796734  -3.574699304   0.648211180
| 26> H   3.302735989  -3.324433205   1.269756773
| 27> O   3.252955559   0.588596242   1.858934315
| 28> H   3.621209177  -0.251605199   1.476063364
| 29> C   4.040824528   0.944288422   2.989639460
| 30> H   3.670521436   1.902573549   3.363847391
| 31> H   5.103749934   1.055868619   2.734277559
| 32> H   3.948540682   0.200279590   3.792908518
| 33> *
| 34>
| 35>                          ****END OF INPUT****

CARTESIAN COORDINATES (ANGSTROEM)
---------------------------------
  O     -0.662722    1.449095   -1.383082
  H      0.064188    2.119868   -1.465651
  C     -0.353319    0.341219   -2.229327
  H     -1.072359   -0.454743   -2.019906
  H      0.657637   -0.044472   -2.042737
  H     -0.434617    0.624734   -3.287793
  O      4.310536   -1.588323    0.656128
  H      3.804372   -1.630405   -0.196850
  C      4.312298   -2.894981    1.222113
  H      4.713178   -2.819907    2.237067
  H      4.957797   -3.574699    0.648211
  H      3.302736   -3.324433    1.269757
  O      3.252956    0.588596    1.858934
  H      3.621209   -0.251605    1.476063
  C      4.040825    0.944288    2.989639
  H      3.670521    1.902574    3.363847
  H      5.103750    1.055869    2.734278
  H      3.948541    0.200280    3.792909

 Total Charge           Charge          ....    0
 Multiplicity           Mult            ....    1
 Number of Electrons    NEL             ....   54
 Basis Dimension        Dim             ....  258

ORBITAL ENERGIES
----------------

  NO   OCC          E(Eh)            E(eV)
   0   2.0000     -20.591725      -560.3293
   1   2.0000     -20.551254      -559.2281
   2   2.0000     -20.515156      -558.2458
   3   2.0000     -11.293275      -307.3056
   4   2.0000     -11.269874      -306.6689
   5   2.0000     -11.249649      -306.1185
   6   2.0000      -1.385212       -37.6935
   7   2.0000      -1.339642       -36.4535
   8   2.0000      -1.311806       -35.6961
   9   2.0000      -0.945218       -25.7207
  10   2.0000      -0.917306       -24.9612
  11   2.0000      -0.896131       -24.3850
  12   2.0000      -0.716063       -19.4851
  13   2.0000      -0.676181       -18.3998
  14   2.0000      -0.675178       -18.3725
  15   2.0000      -0.637621       -17.3505
  16   2.0000      -0.613389       -16.6912
  17   2.0000      -0.612044       -16.6546
  18   2.0000      -0.591200       -16.0874
  19   2.0000      -0.586516       -15.9599
  20   2.0000      -0.562637       -15.3101
  21   2.0000      -0.531294       -14.4573
  22   2.0000      -0.496594       -13.5130
  23   2.0000      -0.488802       -13.3010
  24   2.0000      -0.458445       -12.4749
  25   2.0000      -0.444869       -12.1055
  26   2.0000      -0.417813       -11.3693
  27   0.0000       0.104296         2.8381
  28   0.0000       0.140745         3.8299
  29   0.0000       0.154671         4.2088
  30   0.0000       0.172228         4.6866
  31   0.0000       0.181991         4.9522

MULLIKEN ATOMIC CHARGES
-----------------------
   0 O :   -0.495012
   1 H :    0.324901
   2 C :   -0.167275
   3 H :    0.128242
   4 H :    0.099689
   5 H :    0.109261
   6 O :   -0.512494
   7 H :    0.342741
   8 C :   -0.184791
   9 H :    0.141208
  10 H :    0.124701
  11 H :    0.129567
  12 O :   -0.532611
  13 H :    0.339180
  14 C :   -0.164364
  15 H :    0.121771
  16 H :    0.101859
  17 H :    0.093427
Sum of atomic charges:    0.0000000

LOEWDIN ATOMIC CHARGES
----------------------
   0 O :   -0.109980
   1 H :    0.190774
   2 C :   -0.377961
   3 H :    0.109221
   4 H :    0.092828
   5 H :    0.095055
   6 O :   -0.074673
   7 H :    0.199261
   8 C :   -0.372246
   9 H :    0.114641
  10 H :    0.104042
  11 H :    0.102717
  12 O :   -0.126228
  13 H :    0.156750
  14 C :   -0.392969
  15 H :    0.105914
  16 H :    0.092802
  17 H :    0.090051

  Mayer bond orders larger than 0.100000
B(  0-O ,  1-H ) :   0.8405 B(  0-O ,  2-C ) :   0.9325 B(  2-C ,  3-H ) :   0.9378
B(  2-C ,  4-H ) :   0.9398 B(  2-C ,  5-H ) :   0.9392 B(  6-O ,  7-H ) :   0.8287
B(  6-O ,  8-C ) :   0.8716 B(  8-C ,  9-H ) :   0.9397 B(  8-C , 10-H ) :   0.9331
B(  8-C , 11-H ) :   0.9397 B( 12-O , 13-H ) :   0.7927 B( 12-O , 14-C ) :   0.9401
B( 14-C , 15-H ) :   0.9419 B( 14-C , 16-H ) :   0.9378 B( 14-C , 17-H ) :   0.9391

MP2 TOTAL ENERGY:     -346.528698769 Eh
FINAL SINGLE POINT ENERGY      -346.528698768977

DIPOLE MOMENT
-------------
                                X             Y             Z
Electronic contribution:     -1.44434       2.34038      -1.05860
Nuclear contribution   :      2.32804      -3.64506       0.42292
                        -----------------------------------------
Total Dipole Moment    :      0.88370      -1.30468      -0.63568
                        -----------------------------------------
Magnitude (a.u.)       :      1.69918
Magnitude (Debye)      :      4.31897

Rotational constants in cm-1:     0.074019     0.021628     0.017181
Rotational constants in MHz :  2219.032349   648.403006   515.081602

                             ****ORCA TERMINATED NORMALLY****
TOTAL RUN TIME: 0 days 0 hours 1 minutes 6 seconds 236 msec
