                         Program Version 4.2.0 -  RELEASE  -
|  1> # Functional Basis-set
|  2> ! RI-MP2 Def2-SVP
|  3>
|  4> # Type of calculation
|  5> ! OPT
|  6>
|  7> # Options
|  8> ! RIJCOSX def2/J def2-svp/C TightSCF
|  9>
| 10> %pal nprocs 12 end
| 11>
| 12> %scf maxiter 800 end
| 13>
| 14> *xyz  0  1
| 15>     O     -0.42870326     -1.43541542     -0.55149115
| 16>     H     -0.64442014     -0.93801424      0.23736253
| 17>     H     -0.18379452     -2.30269179     -0.22887177
| 18>     O     -0.50349768      0.45465316      1.45631215
| 19>     H     -1.00067143      1.20287148      1.78679583
| 20>     H      0.09904506      0.83128889      0.81497011
| 21>     O      0.96489656      0.92086506     -0.84636228
| 22>     H      1.09721609      1.24762792     -1.73627768
| 23>     H      0.58207550      0.05152250     -0.96435979
| 24> *
| 25>
| 26>                          ****END OF INPUT****
 Total Charge           Charge          ....    0
 Multiplicity           Mult            ....    1
 Number of Electrons    NEL             ....   30
MP2 TOTAL ENERGY:     -228.520975590 Eh
FINAL SINGLE POINT ENERGY      -228.520975590094
MP2 TOTAL ENERGY:     -228.521903102 Eh
FINAL SINGLE POINT ENERGY      -228.521903102354
MP2 TOTAL ENERGY:     -228.522079692 Eh
FINAL SINGLE POINT ENERGY      -228.522079691750
MP2 TOTAL ENERGY:     -228.522773373 Eh
FINAL SINGLE POINT ENERGY      -228.522773372715
MP2 TOTAL ENERGY:     -228.522916998 Eh
FINAL SINGLE POINT ENERGY      -228.522916997513
MP2 TOTAL ENERGY:     -228.522980717 Eh
FINAL SINGLE POINT ENERGY      -228.522980717023
FINAL SINGLE POINT ENERGY      -228.523018864900
FINAL SINGLE POINT ENERGY      -228.523066459581
FINAL SINGLE POINT ENERGY      -228.523202678469
FINAL SINGLE POINT ENERGY      -228.523566820204
FINAL SINGLE POINT ENERGY      -228.525314858646
FINAL SINGLE POINT ENERGY      -228.525346564531
FINAL SINGLE POINT ENERGY      -228.525356716210
FINAL SINGLE POINT ENERGY      -228.525369320715
MP2 TOTAL ENERGY:     -228.525379453 Eh
FINAL SINGLE POINT ENERGY      -228.525379453040
MP2 TOTAL ENERGY:     -228.525400128 Eh
FINAL SINGLE POINT ENERGY      -228.525400127818
MP2 TOTAL ENERGY:     -228.525427739 Eh
FINAL SINGLE POINT ENERGY      -228.525427738920
MP2 TOTAL ENERGY:     -228.525441920 Eh
FINAL SINGLE POINT ENERGY      -228.525441920255
MP2 TOTAL ENERGY:     -228.525441856 Eh
FINAL SINGLE POINT ENERGY      -228.525441856483
                    ***********************HURRAY********************

CARTESIAN COORDINATES (ANGSTROEM)
---------------------------------
  O     -0.547252   -1.403108   -0.546677
  H     -0.705862   -0.900689    0.277759
  H     -0.107932   -2.202248   -0.235116
  O     -0.397704    0.474267    1.475929
  H     -1.072584    1.160512    1.509990
  H      0.250680    0.822416    0.832664
  O      1.113703    0.789530   -0.824028
  H      0.797832    1.349806   -1.541258
  H      0.651266   -0.057779   -0.981184

 Multiplicity           Mult            ....    1
 Number of Electrons    NEL             ....   30
 Basis Dimension        Dim             ....   72

ORBITAL ENERGIES
----------------

  NO   OCC          E(Eh)            E(eV)
   0   2.0000     -20.554496      -559.3163
   1   2.0000     -20.551956      -559.2472
   2   2.0000     -20.551903      -559.2457
   3   2.0000      -1.338741       -36.4290
   4   2.0000      -1.315387       -35.7935
   5   2.0000      -1.314148       -35.7598
   6   2.0000      -0.729111       -19.8401
   7   2.0000      -0.698864       -19.0171
   8   2.0000      -0.696410       -18.9503
   9   2.0000      -0.595429       -16.2024
  10   2.0000      -0.590374       -16.0649
  11   2.0000      -0.564180       -15.3521
  12   2.0000      -0.508210       -13.8291
  13   2.0000      -0.497558       -13.5393
  14   2.0000      -0.495215       -13.4755
  15   0.0000       0.166613         4.5338
  16   0.0000       0.209790         5.7087
  17   0.0000       0.213554         5.8111
  18   0.0000       0.352641         9.5959
  19   0.0000       0.360338         9.8053

MULLIKEN ATOMIC CHARGES
-----------------------
   0 O :   -0.348232
   1 H :    0.169125
   2 H :    0.180880
   3 O :   -0.341369
   4 H :    0.173195
   5 H :    0.174029
   6 O :   -0.350850
   7 H :    0.174679
   8 H :    0.168542
Sum of atomic charges:   -0.0000000

LOEWDIN ATOMIC CHARGES
----------------------
   0 O :   -0.130256
   1 H :    0.049134
   2 H :    0.081609
   3 O :   -0.125320
   4 H :    0.077713
   5 H :    0.052536
   6 O :   -0.132975
   7 H :    0.078276
   8 H :    0.049282

  Mayer bond orders larger than 0.100000
B(  0-O ,  1-H ) :   0.8881 B(  0-O ,  2-H ) :   0.9480 B(  0-O ,  8-H ) :   0.1478
B(  1-H ,  3-O ) :   0.1449 B(  3-O ,  4-H ) :   0.9510 B(  3-O ,  5-H ) :   0.8911
B(  5-H ,  6-O ) :   0.1329 B(  6-O ,  7-H ) :   0.9510 B(  6-O ,  8-H ) :   0.8845

MP2 TOTAL ENERGY:     -228.525449956 Eh
FINAL SINGLE POINT ENERGY      -228.525449955885

DIPOLE MOMENT
-------------
                                X             Y             Z
Electronic contribution:      0.06995      -0.07187       0.06429
Nuclear contribution   :     -0.43624       0.37510      -0.28932
                        -----------------------------------------
Total Dipole Moment    :     -0.36629       0.30323      -0.22503
                        -----------------------------------------
Magnitude (a.u.)       :      0.52607
Magnitude (Debye)      :      1.33717

Rotational constants in cm-1:     0.236021     0.234324     0.120934
Rotational constants in MHz :  7075.726858  7024.870543  3625.525086

                             ****ORCA TERMINATED NORMALLY****
TOTAL RUN TIME: 0 days 0 hours 4 minutes 10 seconds 773 msec
