                         Program Version 4.2.0 -  RELEASE  -
|  1> # 12h2o.su.etal.mol0,1,4,5,6,8,10
|  2> ! MP2 def2-TZVP EnGrad TightSCF
|  3>
|  4> %pal
|  5>     nprocs 6
|  6> end
|  7>
|  8> %maxcore 8000
|  9>
| 10> %scf
| 11>     ConvForced true
| 12> end
| 13>
| 14> *xyz 0 1
| 15> O   1.794470000   0.923410000   2.768350000
| 16> H   2.338250000   1.359750000   3.430940000
| 17> H   0.879480000   1.303000000   2.865760000
| 18> O  -1.794470000  -0.923410000   2.768350000
| 19> H  -2.338250000  -1.359750000   3.430940000
| 20> H  -0.879480000  -1.303000000   2.865760000
| 21> O  -0.885520000   1.737840000   0.052730000
| 22> H  -1.032320000   2.090180000  -0.841890000
| 23> H  -1.284090000   0.839590000   0.017130000
| 24> O   0.885520000  -1.737840000   0.052730000
| 25> H   1.284090000  -0.839590000   0.017130000
| 26> H   1.032320000  -2.090180000  -0.841890000
| 27> O   1.737840000   0.885520000  -0.052730000
| 28> H   2.090180000   1.032320000   0.841890000
| 29> H   0.839590000   1.284090000  -0.017130000
| 30> O   1.752130000   0.741530000  -2.896280000
| 31> H   2.036450000   0.920500000  -1.984040000
| 32> H   0.921210000   1.242140000  -2.984230000
| 33> O  -0.923410000   1.794470000  -2.768350000
| 34> H  -1.359750000   2.338250000  -3.430940000
| 35> H  -1.303000000   0.879480000  -2.865760000
| 36> *
| 37>
| 38>                          ****END OF INPUT****

CARTESIAN COORDINATES (ANGSTROEM)
---------------------------------
  O      1.794470    0.923410    2.768350
  H      2.338250    1.359750    3.430940
  H      0.879480    1.303000    2.865760
  O     -1.794470   -0.923410    2.768350
  H     -2.338250   -1.359750    3.430940
  H     -0.879480   -1.303000    2.865760
  O     -0.885520    1.737840    0.052730
  H     -1.032320    2.090180   -0.841890
  H     -1.284090    0.839590    0.017130
  O      0.885520   -1.737840    0.052730
  H      1.284090   -0.839590    0.017130
  H      1.032320   -2.090180   -0.841890
  O      1.737840    0.885520   -0.052730
  H      2.090180    1.032320    0.841890
  H      0.839590    1.284090   -0.017130
  O      1.752130    0.741530   -2.896280
  H      2.036450    0.920500   -1.984040
  H      0.921210    1.242140   -2.984230
  O     -0.923410    1.794470   -2.768350
  H     -1.359750    2.338250   -3.430940
  H     -1.303000    0.879480   -2.865760

 Total Charge           Charge          ....    0
 Multiplicity           Mult            ....    1
 Number of Electrons    NEL             ....   70
 Basis Dimension        Dim             ....  301

ORBITAL ENERGIES
----------------

  NO   OCC          E(Eh)            E(eV)
   0   2.0000     -20.617203      -561.0226
   1   2.0000     -20.584310      -560.1276
   2   2.0000     -20.570773      -559.7592
   3   2.0000     -20.557411      -559.3956
   4   2.0000     -20.538359      -558.8772
   5   2.0000     -20.511189      -558.1378
   6   2.0000     -20.507170      -558.0285
   7   2.0000      -1.397653       -38.0321
   8   2.0000      -1.362909       -37.0867
   9   2.0000      -1.355307       -36.8798
  10   2.0000      -1.332767       -36.2664
  11   2.0000      -1.328719       -36.1563
  12   2.0000      -1.292825       -35.1796
  13   2.0000      -1.290871       -35.1264
  14   2.0000      -0.763025       -20.7630
  15   2.0000      -0.729170       -19.8417
  16   2.0000      -0.718421       -19.5492
  17   2.0000      -0.703127       -19.1331
  18   2.0000      -0.700643       -19.0655
  19   2.0000      -0.673065       -18.3150
  20   2.0000      -0.665527       -18.1099
  21   2.0000      -0.637767       -17.3545
  22   2.0000      -0.609260       -16.5788
  23   2.0000      -0.594204       -16.1691
  24   2.0000      -0.582377       -15.8473
  25   2.0000      -0.570050       -15.5118
  26   2.0000      -0.554324       -15.0839
  27   2.0000      -0.542455       -14.7610
  28   2.0000      -0.528849       -14.3907
  29   2.0000      -0.518468       -14.1082
  30   2.0000      -0.506492       -13.7823
  31   2.0000      -0.500814       -13.6278
  32   2.0000      -0.481900       -13.1132
  33   2.0000      -0.459995       -12.5171
  34   2.0000      -0.456657       -12.4263
  35   0.0000       0.091141         2.4801
  36   0.0000       0.112084         3.0500
  37   0.0000       0.141464         3.8494
  38   0.0000       0.156651         4.2627
  39   0.0000       0.187367         5.0985

MULLIKEN ATOMIC CHARGES
-----------------------
   0 O :   -0.700585
   1 H :    0.349481
   2 H :    0.366858
   3 O :   -0.696594
   4 H :    0.336411
   5 H :    0.360856
   6 O :   -0.704894
   7 H :    0.376066
   8 H :    0.360671
   9 O :   -0.730715
  10 H :    0.363977
  11 H :    0.327750
  12 O :   -0.748385
  13 H :    0.377528
  14 H :    0.355486
  15 O :   -0.725259
  16 H :    0.371122
  17 H :    0.337469
  18 O :   -0.714983
  19 H :    0.366656
  20 H :    0.371085
Sum of atomic charges:   -0.0000000

LOEWDIN ATOMIC CHARGES
----------------------
   0 O :   -0.310823
   1 H :    0.162503
   2 H :    0.189133
   3 O :   -0.343289
   4 H :    0.157201
   5 H :    0.186475
   6 O :   -0.297471
   7 H :    0.151583
   8 H :    0.177856
   9 O :   -0.367697
  10 H :    0.141108
  11 H :    0.157238
  12 O :   -0.302420
  13 H :    0.151230
  14 H :    0.140671
  15 O :   -0.354771
  16 H :    0.149441
  17 H :    0.138005
  18 O :   -0.287189
  19 H :    0.168851
  20 H :    0.192363

  Mayer bond orders larger than 0.100000
B(  0-O ,  1-H ) :   0.8433 B(  0-O ,  2-H ) :   0.8241 B(  3-O ,  4-H ) :   0.8539
B(  3-O ,  5-H ) :   0.8303 B(  6-O ,  7-H ) :   0.8082 B(  6-O ,  8-H ) :   0.8277
B(  9-O , 10-H ) :   0.7869 B(  9-O , 11-H ) :   0.8570 B( 12-O , 13-H ) :   0.8041
B( 12-O , 14-H ) :   0.7705 B( 15-O , 16-H ) :   0.8175 B( 15-O , 17-H ) :   0.8409
B( 18-O , 19-H ) :   0.8306 B( 18-O , 20-H ) :   0.8200

MP2 TOTAL ENERGY:     -534.242753024 Eh
FINAL SINGLE POINT ENERGY      -534.242753023553

DIPOLE MOMENT
-------------
                                X             Y             Z
Electronic contribution:     -0.03476       0.27183       0.09612
Nuclear contribution   :     -1.58851       0.71062       0.54442
                        -----------------------------------------
Total Dipole Moment    :     -1.62327       0.98245       0.64054
                        -----------------------------------------
Magnitude (a.u.)       :      2.00262
Magnitude (Debye)      :      5.09026

Rotational constants in cm-1:     0.041481     0.021729     0.019304
Rotational constants in MHz :  1243.576756   651.427590   578.723748

                             ****ORCA TERMINATED NORMALLY****
TOTAL RUN TIME: 0 days 0 hours 2 minutes 15 seconds 805 msec
