                         Program Version 4.2.0 -  RELEASE  -
|  1> # 12meoh.boyd.etal.mol4,7,11
|  2> ! MP2 def2-TZVP EnGrad TightSCF
|  3>
|  4> %pal
|  5>     nprocs 6
|  6> end
|  7>
|  8> %maxcore 8000
|  9>
| 10> %scf
| 11>     ConvForced true
| 12> end
| 13>
| 14> *xyz 0 1
| 15> O  -1.358578914   1.232360421   1.189721000
| 16> H  -1.058250183   1.216459361   0.238591307
| 17> C  -0.389763452   1.957872567   1.943072362
| 18> H  -0.747220771   2.012806578   2.975200343
| 19> H  -0.260410585   2.982763209   1.565366540
| 20> H   0.585220638   1.453754179   1.934070793
| 21> O   4.310535586  -1.588322800   0.656128299
| 22> H   3.804372199  -1.630404735  -0.196849819
| 23> C   4.312298137  -2.894980854   1.222112691
| 24> H   4.713177833  -2.819907076   2.237066773
| 25> H   4.957796734  -3.574699304   0.648211180
| 26> H   3.302735989  -3.324433205   1.269756773
| 27> O   3.252955559   0.588596242   1.858934315
| 28> H   3.621209177  -0.251605199   1.476063364
| 29> C   4.040824528   0.944288422   2.989639460
| 30> H   3.670521436   1.902573549   3.363847391
| 31> H   5.103749934   1.055868619   2.734277559
| 32> H   3.948540682   0.200279590   3.792908518
| 33> *
| 34>
| 35>                          ****END OF INPUT****

CARTESIAN COORDINATES (ANGSTROEM)
---------------------------------
  O     -1.358579    1.232360    1.189721
  H     -1.058250    1.216459    0.238591
  C     -0.389763    1.957873    1.943072
  H     -0.747221    2.012807    2.975200
  H     -0.260411    2.982763    1.565367
  H      0.585221    1.453754    1.934071
  O      4.310536   -1.588323    0.656128
  H      3.804372   -1.630405   -0.196850
  C      4.312298   -2.894981    1.222113
  H      4.713178   -2.819907    2.237067
  H      4.957797   -3.574699    0.648211
  H      3.302736   -3.324433    1.269757
  O      3.252956    0.588596    1.858934
  H      3.621209   -0.251605    1.476063
  C      4.040825    0.944288    2.989639
  H      3.670521    1.902574    3.363847
  H      5.103750    1.055869    2.734278
  H      3.948541    0.200280    3.792909

 Total Charge           Charge          ....    0
 Multiplicity           Mult            ....    1
 Number of Electrons    NEL             ....   54
 Basis Dimension        Dim             ....  258

ORBITAL ENERGIES
----------------

  NO   OCC          E(Eh)            E(eV)
   0   2.0000     -20.593220      -560.3700
   1   2.0000     -20.543244      -559.0101
   2   2.0000     -20.521447      -558.4170
   3   2.0000     -11.294268      -307.3327
   4   2.0000     -11.254400      -306.2478
   5   2.0000     -11.251984      -306.1820
   6   2.0000      -1.386719       -37.7346
   7   2.0000      -1.330622       -36.2081
   8   2.0000      -1.317928       -35.8626
   9   2.0000      -0.946350       -25.7515
  10   2.0000      -0.901446       -24.5296
  11   2.0000      -0.900958       -24.5163
  12   2.0000      -0.717600       -19.5269
  13   2.0000      -0.679327       -18.4854
  14   2.0000      -0.664462       -18.0809
  15   2.0000      -0.639310       -17.3965
  16   2.0000      -0.614513       -16.7217
  17   2.0000      -0.599622       -16.3166
  18   2.0000      -0.595762       -16.2115
  19   2.0000      -0.574429       -15.6310
  20   2.0000      -0.568138       -15.4598
  21   2.0000      -0.532903       -14.5010
  22   2.0000      -0.491920       -13.3858
  23   2.0000      -0.483896       -13.1675
  24   2.0000      -0.462923       -12.5968
  25   2.0000      -0.432899       -11.7798
  26   2.0000      -0.423056       -11.5119
  27   0.0000       0.115217         3.1352
  28   0.0000       0.149189         4.0596
  29   0.0000       0.152301         4.1443
  30   0.0000       0.166655         4.5349
  31   0.0000       0.191680         5.2159

MULLIKEN ATOMIC CHARGES
-----------------------
   0 O :   -0.507384
   1 H :    0.318144
   2 C :   -0.187751
   3 H :    0.117689
   4 H :    0.101492
   5 H :    0.147861
   6 O :   -0.513117
   7 H :    0.344170
   8 C :   -0.184572
   9 H :    0.140850
  10 H :    0.125577
  11 H :    0.130670
  12 O :   -0.529104
  13 H :    0.337436
  14 C :   -0.165499
  15 H :    0.121387
  16 H :    0.105858
  17 H :    0.096291
Sum of atomic charges:   -0.0000000

LOEWDIN ATOMIC CHARGES
----------------------
   0 O :   -0.117636
   1 H :    0.189698
   2 C :   -0.383453
   3 H :    0.107147
   4 H :    0.093734
   5 H :    0.103103
   6 O :   -0.075069
   7 H :    0.200065
   8 C :   -0.371975
   9 H :    0.114529
  10 H :    0.104430
  11 H :    0.103071
  12 O :   -0.124213
  13 H :    0.157552
  14 C :   -0.392614
  15 H :    0.105702
  16 H :    0.094883
  17 H :    0.091046

  Mayer bond orders larger than 0.100000
B(  0-O ,  1-H ) :   0.8444 B(  0-O ,  2-C ) :   0.9082 B(  2-C ,  3-H ) :   0.9351
B(  2-C ,  4-H ) :   0.9393 B(  2-C ,  5-H ) :   0.9334 B(  6-O ,  7-H ) :   0.8279
B(  6-O ,  8-C ) :   0.8703 B(  8-C ,  9-H ) :   0.9398 B(  8-C , 10-H ) :   0.9328
B(  8-C , 11-H ) :   0.9398 B( 12-O , 13-H ) :   0.7878 B( 12-O , 14-C ) :   0.9309
B( 14-C , 15-H ) :   0.9430 B( 14-C , 16-H ) :   0.9349 B( 14-C , 17-H ) :   0.9390

MP2 TOTAL ENERGY:     -346.531360886 Eh
FINAL SINGLE POINT ENERGY      -346.531360885651

DIPOLE MOMENT
-------------
                                X             Y             Z
Electronic contribution:     -2.08759       0.03540      -2.99007
Nuclear contribution   :      3.10815      -1.08082       2.45733
                        -----------------------------------------
Total Dipole Moment    :      1.02056      -1.04542      -0.53274
                        -----------------------------------------
Magnitude (a.u.)       :      1.55507
Magnitude (Debye)      :      3.95268

Rotational constants in cm-1:     0.096638     0.023527     0.019770
Rotational constants in MHz :  2897.143382   705.320499   592.700588

                             ****ORCA TERMINATED NORMALLY****
TOTAL RUN TIME: 0 days 0 hours 1 minutes 13 seconds 811 msec
