                         Program Version 4.2.0 -  RELEASE  -
|  1> # 12h2o.su.etal.mol0,1,2,4,6,8,9
|  2> ! MP2 def2-TZVP EnGrad TightSCF
|  3>
|  4> %pal
|  5>     nprocs 6
|  6> end
|  7>
|  8> %maxcore 8000
|  9>
| 10> %scf
| 11>     ConvForced true
| 12> end
| 13>
| 14> *xyz 0 1
| 15> O   1.794470000   0.923410000   2.768350000
| 16> H   2.338250000   1.359750000   3.430940000
| 17> H   0.879480000   1.303000000   2.865760000
| 18> O  -1.794470000  -0.923410000   2.768350000
| 19> H  -2.338250000  -1.359750000   3.430940000
| 20> H  -0.879480000  -1.303000000   2.865760000
| 21> O   0.923410000  -1.794470000  -2.768350000
| 22> H   1.359750000  -2.338250000  -3.430940000
| 23> H   1.303000000  -0.879480000  -2.865760000
| 24> O  -0.885520000   1.737840000   0.052730000
| 25> H  -1.032320000   2.090180000  -0.841890000
| 26> H  -1.284090000   0.839590000   0.017130000
| 27> O   1.737840000   0.885520000  -0.052730000
| 28> H   2.090180000   1.032320000   0.841890000
| 29> H   0.839590000   1.284090000  -0.017130000
| 30> O   1.752130000   0.741530000  -2.896280000
| 31> H   2.036450000   0.920500000  -1.984040000
| 32> H   0.921210000   1.242140000  -2.984230000
| 33> O   0.741530000  -1.752130000   2.896280000
| 34> H   0.920500000  -2.036450000   1.984040000
| 35> H   1.242140000  -0.921210000   2.984230000
| 36> *
| 37>
| 38>                          ****END OF INPUT****

CARTESIAN COORDINATES (ANGSTROEM)
---------------------------------
  O      1.794470    0.923410    2.768350
  H      2.338250    1.359750    3.430940
  H      0.879480    1.303000    2.865760
  O     -1.794470   -0.923410    2.768350
  H     -2.338250   -1.359750    3.430940
  H     -0.879480   -1.303000    2.865760
  O      0.923410   -1.794470   -2.768350
  H      1.359750   -2.338250   -3.430940
  H      1.303000   -0.879480   -2.865760
  O     -0.885520    1.737840    0.052730
  H     -1.032320    2.090180   -0.841890
  H     -1.284090    0.839590    0.017130
  O      1.737840    0.885520   -0.052730
  H      2.090180    1.032320    0.841890
  H      0.839590    1.284090   -0.017130
  O      1.752130    0.741530   -2.896280
  H      2.036450    0.920500   -1.984040
  H      0.921210    1.242140   -2.984230
  O      0.741530   -1.752130    2.896280
  H      0.920500   -2.036450    1.984040
  H      1.242140   -0.921210    2.984230

 Total Charge           Charge          ....    0
 Multiplicity           Mult            ....    1
 Number of Electrons    NEL             ....   70
 Basis Dimension        Dim             ....  301

ORBITAL ENERGIES
----------------

  NO   OCC          E(Eh)            E(eV)
   0   2.0000     -20.617500      -561.0307
   1   2.0000     -20.600058      -560.5561
   2   2.0000     -20.569114      -559.7140
   3   2.0000     -20.563366      -559.5576
   4   2.0000     -20.539939      -558.9201
   5   2.0000     -20.521558      -558.4200
   6   2.0000     -20.504314      -557.9508
   7   2.0000      -1.397994       -38.0414
   8   2.0000      -1.380827       -37.5742
   9   2.0000      -1.357894       -36.9502
  10   2.0000      -1.353070       -36.8189
  11   2.0000      -1.324615       -36.0446
  12   2.0000      -1.303253       -35.4633
  13   2.0000      -1.286413       -35.0051
  14   2.0000      -0.763481       -20.7754
  15   2.0000      -0.737960       -20.0809
  16   2.0000      -0.720522       -19.6064
  17   2.0000      -0.717146       -19.5145
  18   2.0000      -0.703554       -19.1447
  19   2.0000      -0.690442       -18.7879
  20   2.0000      -0.674603       -18.3569
  21   2.0000      -0.641385       -17.4530
  22   2.0000      -0.622954       -16.9514
  23   2.0000      -0.602396       -16.3920
  24   2.0000      -0.595955       -16.2168
  25   2.0000      -0.575900       -15.6710
  26   2.0000      -0.554631       -15.0923
  27   2.0000      -0.545298       -14.8383
  28   2.0000      -0.537075       -14.6146
  29   2.0000      -0.526570       -14.3287
  30   2.0000      -0.502610       -13.6767
  31   2.0000      -0.495089       -13.4721
  32   2.0000      -0.488742       -13.2993
  33   2.0000      -0.472342       -12.8531
  34   2.0000      -0.454881       -12.3780
  35   0.0000       0.086223         2.3463
  36   0.0000       0.106670         2.9026
  37   0.0000       0.146180         3.9778
  38   0.0000       0.165568         4.5053
  39   0.0000       0.180532         4.9125

MULLIKEN ATOMIC CHARGES
-----------------------
   0 O :   -0.722865
   1 H :    0.365480
   2 H :    0.383699
   3 O :   -0.742370
   4 H :    0.327857
   5 H :    0.366403
   6 O :   -0.737681
   7 H :    0.320565
   8 H :    0.369231
   9 O :   -0.687893
  10 H :    0.348286
  11 H :    0.382332
  12 O :   -0.739505
  13 H :    0.366407
  14 H :    0.340188
  15 O :   -0.690153
  16 H :    0.390162
  17 H :    0.327688
  18 O :   -0.704191
  19 H :    0.364845
  20 H :    0.371516
Sum of atomic charges:   -0.0000000

LOEWDIN ATOMIC CHARGES
----------------------
   0 O :   -0.287626
   1 H :    0.168787
   2 H :    0.196500
   3 O :   -0.377698
   4 H :    0.150003
   5 H :    0.141188
   6 O :   -0.375901
   7 H :    0.146087
   8 H :    0.142390
   9 O :   -0.290289
  10 H :    0.168541
  11 H :    0.189853
  12 O :   -0.345665
  13 H :    0.147682
  14 H :    0.137331
  15 O :   -0.277716
  16 H :    0.159789
  17 H :    0.161338
  18 O :   -0.282328
  19 H :    0.175928
  20 H :    0.151805

  Mayer bond orders larger than 0.100000
B(  0-O ,  1-H ) :   0.8314 B(  0-O ,  2-H ) :   0.8102 B(  3-O ,  4-H ) :   0.8590
B(  3-O ,  5-H ) :   0.7734 B(  6-O ,  7-H ) :   0.8632 B(  6-O ,  8-H ) :   0.7798
B(  9-O , 10-H ) :   0.8427 B(  9-O , 11-H ) :   0.8159 B( 12-O , 13-H ) :   0.8215
B( 12-O , 14-H ) :   0.7887 B( 15-O , 16-H ) :   0.7906 B( 15-O , 17-H ) :   0.8542
B( 18-O , 19-H ) :   0.8321 B( 18-O , 20-H ) :   0.8066

MP2 TOTAL ENERGY:     -534.244216179 Eh
FINAL SINGLE POINT ENERGY      -534.244216178502

DIPOLE MOMENT
-------------
                                X             Y             Z
Electronic contribution:      0.26100       0.20739       0.32833
Nuclear contribution   :     -0.11850       1.32916       0.63259
                        -----------------------------------------
Total Dipole Moment    :      0.14249       1.53655       0.96093
                        -----------------------------------------
Magnitude (a.u.)       :      1.81787
Magnitude (Debye)      :      4.62066

Rotational constants in cm-1:     0.041020     0.018383     0.017335
Rotational constants in MHz :  1229.760899   551.107809   519.686616

                             ****ORCA TERMINATED NORMALLY****
TOTAL RUN TIME: 0 days 0 hours 1 minutes 41 seconds 113 msec
