                         Program Version 4.2.0 -  RELEASE  -
|  1> ! MP2 def2-TZVP EnGrad TightSCF FrozenCore
|  2>
|  3> %pal
|  4>     nprocs 8
|  5> end
|  6>
|  7> %maxcore 8000
|  8>
|  9> %scf
| 10>     ConvForced true
| 11> end
| 12>
| 13> *xyz 0 1
| 14> O          0.00000        0.00000        0.00000
| 15> H          0.96480        0.00000        0.00000
| 16> H         -0.25843        0.00000       -0.95712
| 17> O         -0.86294       -0.30199       -2.53839
| 18> H         -1.53197        0.32379       -2.88765
| 19> H         -1.35865       -1.13465       -2.44859
| 20> O         -3.06066        1.20799       -3.40959
| 21> H         -3.20556        1.39136       -4.34576
| 22> H         -3.72786        0.52581       -3.18022
| 23> O         -4.63872       -0.94098       -2.61873
| 24> H         -3.99410       -1.56206       -2.21911
| 25> H         -5.34960       -0.86465       -1.97107
| 26> O         -1.52520       -2.08756        0.78425
| 27> H         -0.90932       -1.33224        0.61024
| 28> H         -2.05805       -1.80638        1.53794
| 29> O         -2.55701       -2.52691       -1.66620
| 30> H         -2.46576       -3.46508       -1.87338
| 31> H         -2.24524       -2.43117       -0.73019
| 32> *
| 33>
| 34>
| 35>                          ****END OF INPUT****

CARTESIAN COORDINATES (ANGSTROEM)
---------------------------------
  O      0.000000    0.000000    0.000000
  H      0.964800    0.000000    0.000000
  H     -0.258430    0.000000   -0.957120
  O     -0.862940   -0.301990   -2.538390
  H     -1.531970    0.323790   -2.887650
  H     -1.358650   -1.134650   -2.448590
  O     -3.060660    1.207990   -3.409590
  H     -3.205560    1.391360   -4.345760
  H     -3.727860    0.525810   -3.180220
  O     -4.638720   -0.940980   -2.618730
  H     -3.994100   -1.562060   -2.219110
  H     -5.349600   -0.864650   -1.971070
  O     -1.525200   -2.087560    0.784250
  H     -0.909320   -1.332240    0.610240
  H     -2.058050   -1.806380    1.537940
  O     -2.557010   -2.526910   -1.666200
  H     -2.465760   -3.465080   -1.873380
  H     -2.245240   -2.431170   -0.730190

 Total Charge           Charge          ....    0
 Multiplicity           Mult            ....    1
 Number of Electrons    NEL             ....   60
 Basis Dimension        Dim             ....  258

ORBITAL ENERGIES
----------------

  NO   OCC          E(Eh)            E(eV)
   0   2.0000     -20.572987      -559.8194
   1   2.0000     -20.561509      -559.5071
   2   2.0000     -20.559945      -559.4645
   3   2.0000     -20.548464      -559.1521
   4   2.0000     -20.547816      -559.1345
   5   2.0000     -20.535364      -558.7957
   6   2.0000      -1.367272       -37.2054
   7   2.0000      -1.351368       -36.7726
   8   2.0000      -1.345865       -36.6229
   9   2.0000      -1.336815       -36.3766
  10   2.0000      -1.331376       -36.2286
  11   2.0000      -1.315687       -35.8017
  12   2.0000      -0.735922       -20.0254
  13   2.0000      -0.723863       -19.6973
  14   2.0000      -0.719683       -19.5836
  15   2.0000      -0.708637       -19.2830
  16   2.0000      -0.703985       -19.1564
  17   2.0000      -0.690515       -18.7899
  18   2.0000      -0.631117       -17.1736
  19   2.0000      -0.603144       -16.4124
  20   2.0000      -0.590380       -16.0651
  21   2.0000      -0.578299       -15.7363
  22   2.0000      -0.564390       -15.3578
  23   2.0000      -0.542457       -14.7610
  24   2.0000      -0.519859       -14.1461
  25   2.0000      -0.509545       -13.8654
  26   2.0000      -0.509032       -13.8515
  27   2.0000      -0.497337       -13.5332
  28   2.0000      -0.494171       -13.4471
  29   2.0000      -0.483723       -13.1628
  30   0.0000       0.115588         3.1453
  31   0.0000       0.145866         3.9692
  32   0.0000       0.155518         4.2319
  33   0.0000       0.163631         4.4526
  34   0.0000       0.171938         4.6787

MULLIKEN ATOMIC CHARGES
-----------------------
   0 O :   -0.737897
   1 H :    0.343276
   2 H :    0.395599
   3 O :   -0.748558
   4 H :    0.395383
   5 H :    0.355693
   6 O :   -0.725442
   7 H :    0.341245
   8 H :    0.380522
   9 O :   -0.724326
  10 H :    0.382265
  11 H :    0.343855
  12 O :   -0.735507
  13 H :    0.392373
  14 H :    0.346064
  15 O :   -0.757578
  16 H :    0.356066
  17 H :    0.396966
Sum of atomic charges:   -0.0000000

LOEWDIN ATOMIC CHARGES
----------------------
   0 O :   -0.315404
   1 H :    0.159906
   2 H :    0.152670
   3 O :   -0.310468
   4 H :    0.154636
   5 H :    0.146639
   6 O :   -0.314874
   7 H :    0.160077
   8 H :    0.151436
   9 O :   -0.312133
  10 H :    0.151936
  11 H :    0.161336
  12 O :   -0.310852
  13 H :    0.153149
  14 H :    0.161372
  15 O :   -0.306587
  16 H :    0.164604
  17 H :    0.152558

  Mayer bond orders larger than 0.100000
B(  0-O ,  1-H ) :   0.8455 B(  0-O ,  2-H ) :   0.7451 B(  0-O , 13-H ) :   0.1067
B(  2-H ,  3-O ) :   0.1023 B(  3-O ,  4-H ) :   0.7759 B(  3-O ,  5-H ) :   0.8150
B(  6-O ,  7-H ) :   0.8479 B(  6-O ,  8-H ) :   0.7803 B(  9-O , 10-H ) :   0.7816
B(  9-O , 11-H ) :   0.8466 B( 12-O , 13-H ) :   0.7458 B( 12-O , 14-H ) :   0.8444
B( 12-O , 17-H ) :   0.1090 B( 15-O , 16-H ) :   0.8380 B( 15-O , 17-H ) :   0.7339

MP2 TOTAL ENERGY:     -457.960166615 Eh
FINAL SINGLE POINT ENERGY      -457.960166615460

DIPOLE MOMENT
-------------
                                X             Y             Z
Electronic contribution:      0.08464       0.10125      -0.02554
Nuclear contribution   :     -0.70807      -0.87928       0.35992
                        -----------------------------------------
Total Dipole Moment    :     -0.62343      -0.77803       0.33438
                        -----------------------------------------
Magnitude (a.u.)       :      1.05158
Magnitude (Debye)      :      2.67289

Rotational constants in cm-1:     0.063551     0.036736     0.026850
Rotational constants in MHz :  1905.224308  1101.318206   804.935063

                             ****ORCA TERMINATED NORMALLY****
TOTAL RUN TIME: 0 days 0 hours 1 minutes 59 seconds 956 msec
