                         Program Version 4.2.0 -  RELEASE  -
|  1> # 12h2o.su.etal.mol1,3,5,6,7,9,11
|  2> ! MP2 def2-TZVP EnGrad TightSCF
|  3>
|  4> %pal
|  5>     nprocs 6
|  6> end
|  7>
|  8> %maxcore 8000
|  9>
| 10> %scf
| 11>     ConvForced true
| 12> end
| 13>
| 14> *xyz 0 1
| 15> O  -1.794470000  -0.923410000   2.768350000
| 16> H  -2.338250000  -1.359750000   3.430940000
| 17> H  -0.879480000  -1.303000000   2.865760000
| 18> O  -1.752130000  -0.741530000  -2.896280000
| 19> H  -2.036450000  -0.920500000  -1.984040000
| 20> H  -0.921210000  -1.242140000  -2.984230000
| 21> O   0.885520000  -1.737840000   0.052730000
| 22> H   1.284090000  -0.839590000   0.017130000
| 23> H   1.032320000  -2.090180000  -0.841890000
| 24> O   1.737840000   0.885520000  -0.052730000
| 25> H   2.090180000   1.032320000   0.841890000
| 26> H   0.839590000   1.284090000  -0.017130000
| 27> O  -1.737840000  -0.885520000  -0.052730000
| 28> H  -2.090180000  -1.032320000   0.841890000
| 29> H  -0.839590000  -1.284090000  -0.017130000
| 30> O   0.741530000  -1.752130000   2.896280000
| 31> H   0.920500000  -2.036450000   1.984040000
| 32> H   1.242140000  -0.921210000   2.984230000
| 33> O  -0.741530000   1.752130000   2.896280000
| 34> H  -0.920500000   2.036450000   1.984040000
| 35> H  -1.242140000   0.921210000   2.984230000
| 36> *
| 37>
| 38>                          ****END OF INPUT****

CARTESIAN COORDINATES (ANGSTROEM)
---------------------------------
  O     -1.794470   -0.923410    2.768350
  H     -2.338250   -1.359750    3.430940
  H     -0.879480   -1.303000    2.865760
  O     -1.752130   -0.741530   -2.896280
  H     -2.036450   -0.920500   -1.984040
  H     -0.921210   -1.242140   -2.984230
  O      0.885520   -1.737840    0.052730
  H      1.284090   -0.839590    0.017130
  H      1.032320   -2.090180   -0.841890
  O      1.737840    0.885520   -0.052730
  H      2.090180    1.032320    0.841890
  H      0.839590    1.284090   -0.017130
  O     -1.737840   -0.885520   -0.052730
  H     -2.090180   -1.032320    0.841890
  H     -0.839590   -1.284090   -0.017130
  O      0.741530   -1.752130    2.896280
  H      0.920500   -2.036450    1.984040
  H      1.242140   -0.921210    2.984230
  O     -0.741530    1.752130    2.896280
  H     -0.920500    2.036450    1.984040
  H     -1.242140    0.921210    2.984230

 Total Charge           Charge          ....    0
 Multiplicity           Mult            ....    1
 Number of Electrons    NEL             ....   70
 Basis Dimension        Dim             ....  301

ORBITAL ENERGIES
----------------

  NO   OCC          E(Eh)            E(eV)
   0   2.0000     -20.619276      -561.0790
   1   2.0000     -20.604114      -560.6665
   2   2.0000     -20.596650      -560.4633
   3   2.0000     -20.572020      -559.7931
   4   2.0000     -20.550609      -559.2105
   5   2.0000     -20.536201      -558.8184
   6   2.0000     -20.528517      -558.6093
   7   2.0000      -1.404765       -38.2256
   8   2.0000      -1.391028       -37.8518
   9   2.0000      -1.382705       -37.6253
  10   2.0000      -1.357685       -36.9445
  11   2.0000      -1.332119       -36.2488
  12   2.0000      -1.323992       -36.0277
  13   2.0000      -1.308738       -35.6126
  14   2.0000      -0.761898       -20.7323
  15   2.0000      -0.756650       -20.5895
  16   2.0000      -0.744512       -20.2592
  17   2.0000      -0.739259       -20.1162
  18   2.0000      -0.705276       -19.1915
  19   2.0000      -0.700852       -19.0711
  20   2.0000      -0.678456       -18.4617
  21   2.0000      -0.658957       -17.9311
  22   2.0000      -0.633115       -17.2279
  23   2.0000      -0.619186       -16.8489
  24   2.0000      -0.605148       -16.4669
  25   2.0000      -0.585362       -15.9285
  26   2.0000      -0.567804       -15.4507
  27   2.0000      -0.556511       -15.1434
  28   2.0000      -0.549908       -14.9638
  29   2.0000      -0.534224       -14.5370
  30   2.0000      -0.533549       -14.5186
  31   2.0000      -0.515164       -14.0183
  32   2.0000      -0.497911       -13.5489
  33   2.0000      -0.487880       -13.2759
  34   2.0000      -0.474522       -12.9124
  35   0.0000       0.072880         1.9832
  36   0.0000       0.111876         3.0443
  37   0.0000       0.133665         3.6372
  38   0.0000       0.136238         3.7072
  39   0.0000       0.185122         5.0374

MULLIKEN ATOMIC CHARGES
-----------------------
   0 O :   -0.752939
   1 H :    0.351416
   2 H :    0.385481
   3 O :   -0.692239
   4 H :    0.376888
   5 H :    0.303669
   6 O :   -0.736208
   7 H :    0.370725
   8 H :    0.362375
   9 O :   -0.683836
  10 H :    0.358265
  11 H :    0.369683
  12 O :   -0.746479
  13 H :    0.371302
  14 H :    0.336115
  15 O :   -0.695134
  16 H :    0.392038
  17 H :    0.347800
  18 O :   -0.712096
  19 H :    0.325715
  20 H :    0.367460
Sum of atomic charges:   -0.0000000

LOEWDIN ATOMIC CHARGES
----------------------
   0 O :   -0.313354
   1 H :    0.159842
   2 H :    0.146594
   3 O :   -0.341364
   4 H :    0.153614
   5 H :    0.150115
   6 O :   -0.296461
   7 H :    0.146427
   8 H :    0.172577
   9 O :   -0.283052
  10 H :    0.172286
  11 H :    0.183364
  12 O :   -0.348486
  13 H :    0.148343
  14 H :    0.133763
  15 O :   -0.270875
  16 H :    0.159932
  17 H :    0.169160
  18 O :   -0.347181
  19 H :    0.156061
  20 H :    0.148695

  Mayer bond orders larger than 0.100000
B(  0-O ,  1-H ) :   0.8398 B(  0-O ,  2-H ) :   0.7433 B(  3-O ,  4-H ) :   0.8098
B(  3-O ,  5-H ) :   0.8711 B(  6-O ,  7-H ) :   0.7605 B(  6-O ,  8-H ) :   0.8329
B(  9-O , 10-H ) :   0.8354 B(  9-O , 11-H ) :   0.8216 B( 12-O , 13-H ) :   0.8101
B( 12-O , 14-H ) :   0.7965 B( 15-O , 16-H ) :   0.7981 B( 15-O , 17-H ) :   0.8394
B( 18-O , 19-H ) :   0.8575 B( 18-O , 20-H ) :   0.8052

MP2 TOTAL ENERGY:     -534.255032171 Eh
FINAL SINGLE POINT ENERGY      -534.255032170791

DIPOLE MOMENT
-------------
                                X             Y             Z
Electronic contribution:      0.27088       0.07190       0.13267
Nuclear contribution   :      1.21789      -0.79041       0.72077
                        -----------------------------------------
Total Dipole Moment    :      1.48877      -0.71851       0.85344
                        -----------------------------------------
Magnitude (a.u.)       :      1.86039
Magnitude (Debye)      :      4.72874

Rotational constants in cm-1:     0.040215     0.024156     0.022483
Rotational constants in MHz :  1205.623250   724.186314   674.019894

                             ****ORCA TERMINATED NORMALLY****
TOTAL RUN TIME: 0 days 0 hours 2 minutes 36 seconds 608 msec
