                         Program Version 4.2.0 -  RELEASE  -
|  1> # 12h2o.su.etal.mol1,3,4,6,10
|  2> ! MP2 def2-TZVP EnGrad TightSCF
|  3>
|  4> %pal
|  5>     nprocs 6
|  6> end
|  7>
|  8> %maxcore 8000
|  9>
| 10> %scf
| 11>     ConvForced true
| 12> end
| 13>
| 14> *xyz 0 1
| 15> O  -1.794470000  -0.923410000   2.768350000
| 16> H  -2.338250000  -1.359750000   3.430940000
| 17> H  -0.879480000  -1.303000000   2.865760000
| 18> O  -1.752130000  -0.741530000  -2.896280000
| 19> H  -2.036450000  -0.920500000  -1.984040000
| 20> H  -0.921210000  -1.242140000  -2.984230000
| 21> O  -0.885520000   1.737840000   0.052730000
| 22> H  -1.032320000   2.090180000  -0.841890000
| 23> H  -1.284090000   0.839590000   0.017130000
| 24> O   1.737840000   0.885520000  -0.052730000
| 25> H   2.090180000   1.032320000   0.841890000
| 26> H   0.839590000   1.284090000  -0.017130000
| 27> O  -0.923410000   1.794470000  -2.768350000
| 28> H  -1.359750000   2.338250000  -3.430940000
| 29> H  -1.303000000   0.879480000  -2.865760000
| 30> *
| 31>
| 32>                          ****END OF INPUT****

CARTESIAN COORDINATES (ANGSTROEM)
---------------------------------
  O     -1.794470   -0.923410    2.768350
  H     -2.338250   -1.359750    3.430940
  H     -0.879480   -1.303000    2.865760
  O     -1.752130   -0.741530   -2.896280
  H     -2.036450   -0.920500   -1.984040
  H     -0.921210   -1.242140   -2.984230
  O     -0.885520    1.737840    0.052730
  H     -1.032320    2.090180   -0.841890
  H     -1.284090    0.839590    0.017130
  O      1.737840    0.885520   -0.052730
  H      2.090180    1.032320    0.841890
  H      0.839590    1.284090   -0.017130
  O     -0.923410    1.794470   -2.768350
  H     -1.359750    2.338250   -3.430940
  H     -1.303000    0.879480   -2.865760

 Total Charge           Charge          ....    0
 Multiplicity           Mult            ....    1
 Number of Electrons    NEL             ....   50
 Basis Dimension        Dim             ....  215

ORBITAL ENERGIES
----------------

  NO   OCC          E(Eh)            E(eV)
   0   2.0000     -20.610110      -560.8296
   1   2.0000     -20.571484      -559.7786
   2   2.0000     -20.551769      -559.2421
   3   2.0000     -20.546775      -559.1062
   4   2.0000     -20.511494      -558.1461
   5   2.0000      -1.395577       -37.9756
   6   2.0000      -1.346744       -36.6468
   7   2.0000      -1.339820       -36.4584
   8   2.0000      -1.326999       -36.1095
   9   2.0000      -1.292120       -35.1604
  10   2.0000      -0.752660       -20.4809
  11   2.0000      -0.717591       -19.5266
  12   2.0000      -0.715128       -19.4596
  13   2.0000      -0.697941       -18.9919
  14   2.0000      -0.666397       -18.1336
  15   2.0000      -0.633931       -17.2502
  16   2.0000      -0.590953       -16.0807
  17   2.0000      -0.583168       -15.8688
  18   2.0000      -0.571531       -15.5522
  19   2.0000      -0.542340       -14.7578
  20   2.0000      -0.532469       -14.4892
  21   2.0000      -0.514743       -14.0069
  22   2.0000      -0.495188       -13.4748
  23   2.0000      -0.487643       -13.2695
  24   2.0000      -0.460064       -12.5190
  25   0.0000       0.089212         2.4276
  26   0.0000       0.118821         3.2333
  27   0.0000       0.159043         4.3278
  28   0.0000       0.164127         4.4661
  29   0.0000       0.169593         4.6149

MULLIKEN ATOMIC CHARGES
-----------------------
   0 O :   -0.686276
   1 H :    0.341438
   2 H :    0.346633
   3 O :   -0.677798
   4 H :    0.355590
   5 H :    0.371358
   6 O :   -0.691419
   7 H :    0.378937
   8 H :    0.327627
   9 O :   -0.723640
  10 H :    0.319447
  11 H :    0.362397
  12 O :   -0.730110
  13 H :    0.338111
  14 H :    0.367703
Sum of atomic charges:   -0.0000000

LOEWDIN ATOMIC CHARGES
----------------------
   0 O :   -0.339935
   1 H :    0.159234
   2 H :    0.182428
   3 O :   -0.267301
   4 H :    0.172255
   5 H :    0.182524
   6 O :   -0.296873
   7 H :    0.152920
   8 H :    0.163703
   9 O :   -0.367870
  10 H :    0.154126
  11 H :    0.143064
  12 O :   -0.336219
  13 H :    0.154731
  14 H :    0.143214

  Mayer bond orders larger than 0.100000
B(  0-O ,  1-H ) :   0.8513 B(  0-O ,  2-H ) :   0.8426 B(  3-O ,  4-H ) :   0.8381
B(  3-O ,  5-H ) :   0.8285 B(  6-O ,  7-H ) :   0.7951 B(  6-O ,  8-H ) :   0.8493
B(  9-O , 10-H ) :   0.8629 B(  9-O , 11-H ) :   0.7895 B( 12-O , 13-H ) :   0.8500
B( 12-O , 14-H ) :   0.7719

MP2 TOTAL ENERGY:     -381.590423864 Eh
FINAL SINGLE POINT ENERGY      -381.590423864260

DIPOLE MOMENT
-------------
                                X             Y             Z
Electronic contribution:     -0.21412       0.04889      -0.35418
Nuclear contribution   :     -0.82354      -1.55423       0.68611
                        -----------------------------------------
Total Dipole Moment    :     -1.03765      -1.50534       0.33192
                        -----------------------------------------
Magnitude (a.u.)       :      1.85821
Magnitude (Debye)      :      4.72321

Rotational constants in cm-1:     0.064602     0.034335     0.027374
Rotational constants in MHz :  1936.726101  1029.328393   820.656003

                             ****ORCA TERMINATED NORMALLY****
TOTAL RUN TIME: 0 days 0 hours 0 minutes 28 seconds 750 msec
