                         Program Version 4.2.0 -  RELEASE  -
|  1> # 12meoh.boyd.etal.mol2,8,10
|  2> ! MP2 def2-TZVP EnGrad TightSCF
|  3>
|  4> %pal
|  5>     nprocs 6
|  6> end
|  7>
|  8> %maxcore 8000
|  9>
| 10> %scf
| 11>     ConvForced true
| 12> end
| 13>
| 14> *xyz 0 1
| 15> O  -3.839777402   2.233595098   0.660436763
| 16> H  -2.958345897   1.907036203   0.973588449
| 17> C  -3.600368059   3.168790682  -0.390480452
| 18> H  -4.551709193   3.344148967  -0.901254863
| 19> H  -2.868237594   2.789240199  -1.113617525
| 20> H  -3.243594915   4.128998607   0.009549480
| 21> O   3.570084754   2.361662577  -0.202416728
| 22> H   3.393280933   1.755669977   0.560634073
| 23> C   4.368082883   1.644741793  -1.143112807
| 24> H   4.552851717   2.311801738  -1.989632421
| 25> H   3.862427494   0.740851663  -1.508095690
| 26> H   5.333949674   1.357289092  -0.706288100
| 27> O  -5.201143618   0.064582726  -0.172223772
| 28> H  -4.686891530   0.869258890   0.107806143
| 29> C  -6.513192168   0.171391798   0.359883449
| 30> H  -7.049381312  -0.749234190   0.111361174
| 31> H  -7.057741163   1.017801101  -0.081819420
| 32> H  -6.514770575   0.292264928   1.453058834
| 33> *
| 34>
| 35>                          ****END OF INPUT****

CARTESIAN COORDINATES (ANGSTROEM)
---------------------------------
  O     -3.839777    2.233595    0.660437
  H     -2.958346    1.907036    0.973588
  C     -3.600368    3.168791   -0.390480
  H     -4.551709    3.344149   -0.901255
  H     -2.868238    2.789240   -1.113618
  H     -3.243595    4.128999    0.009549
  O      3.570085    2.361663   -0.202417
  H      3.393281    1.755670    0.560634
  C      4.368083    1.644742   -1.143113
  H      4.552852    2.311802   -1.989632
  H      3.862427    0.740852   -1.508096
  H      5.333950    1.357289   -0.706288
  O     -5.201144    0.064583   -0.172224
  H     -4.686892    0.869259    0.107806
  C     -6.513192    0.171392    0.359883
  H     -7.049381   -0.749234    0.111361
  H     -7.057741    1.017801   -0.081819
  H     -6.514771    0.292265    1.453059

 Total Charge           Charge          ....    0
 Multiplicity           Mult            ....    1
 Number of Electrons    NEL             ....   54
 Basis Dimension        Dim             ....  258

ORBITAL ENERGIES
----------------

  NO   OCC          E(Eh)            E(eV)
   0   2.0000     -20.589210      -560.2609
   1   2.0000     -20.561441      -559.5053
   2   2.0000     -20.513773      -558.2081
   3   2.0000     -11.289425      -307.2009
   4   2.0000     -11.275353      -306.8180
   5   2.0000     -11.247622      -306.0634
   6   2.0000      -1.382875       -37.6299
   7   2.0000      -1.350909       -36.7601
   8   2.0000      -1.311352       -35.6837
   9   2.0000      -0.941229       -25.6121
  10   2.0000      -0.923572       -25.1317
  11   2.0000      -0.894136       -24.3307
  12   2.0000      -0.714615       -19.4457
  13   2.0000      -0.685866       -18.6634
  14   2.0000      -0.674086       -18.3428
  15   2.0000      -0.632418       -17.2090
  16   2.0000      -0.620827       -16.8936
  17   2.0000      -0.608999       -16.5717
  18   2.0000      -0.593607       -16.1529
  19   2.0000      -0.589333       -16.0366
  20   2.0000      -0.561507       -15.2794
  21   2.0000      -0.528649       -14.3853
  22   2.0000      -0.505517       -13.7558
  23   2.0000      -0.488487       -13.2924
  24   2.0000      -0.454743       -12.3742
  25   2.0000      -0.453810       -12.3488
  26   2.0000      -0.415861       -11.3162
  27   0.0000       0.120708         3.2846
  28   0.0000       0.131214         3.5705
  29   0.0000       0.162489         4.4216
  30   0.0000       0.171981         4.6799
  31   0.0000       0.172924         4.7055

MULLIKEN ATOMIC CHARGES
-----------------------
   0 O :   -0.511289
   1 H :    0.342977
   2 C :   -0.192971
   3 H :    0.143047
   4 H :    0.133347
   5 H :    0.126766
   6 O :   -0.498018
   7 H :    0.320258
   8 C :   -0.174710
   9 H :    0.130301
  10 H :    0.110934
  11 H :    0.111235
  12 O :   -0.535122
  13 H :    0.338570
  14 C :   -0.157020
  15 H :    0.119342
  16 H :    0.092111
  17 H :    0.100240
Sum of atomic charges:   -0.0000000

LOEWDIN ATOMIC CHARGES
----------------------
   0 O :   -0.075039
   1 H :    0.197861
   2 C :   -0.370647
   3 H :    0.115390
   4 H :    0.103969
   5 H :    0.104516
   6 O :   -0.111110
   7 H :    0.187266
   8 C :   -0.378520
   9 H :    0.110693
  10 H :    0.095639
  11 H :    0.096032
  12 O :   -0.124636
  13 H :    0.156363
  14 C :   -0.395794
  15 H :    0.105091
  16 H :    0.090213
  17 H :    0.092712

  Mayer bond orders larger than 0.100000
B(  0-O ,  1-H ) :   0.8288 B(  0-O ,  2-C ) :   0.8695 B(  0-O , 13-H ) :   0.1032
B(  2-C ,  3-H ) :   0.9395 B(  2-C ,  4-H ) :   0.9411 B(  2-C ,  5-H ) :   0.9327
B(  6-O ,  7-H ) :   0.8443 B(  6-O ,  8-C ) :   0.9230 B(  8-C ,  9-H ) :   0.9377
B(  8-C , 10-H ) :   0.9381 B(  8-C , 11-H ) :   0.9395 B( 12-O , 13-H ) :   0.7893
B( 12-O , 14-C ) :   0.9417 B( 14-C , 15-H ) :   0.9415 B( 14-C , 16-H ) :   0.9367
B( 14-C , 17-H ) :   0.9411

MP2 TOTAL ENERGY:     -346.529994131 Eh
FINAL SINGLE POINT ENERGY      -346.529994130883

DIPOLE MOMENT
-------------
                                X             Y             Z
Electronic contribution:      0.47455      -0.09539       1.64658
Nuclear contribution   :      0.46588       0.46364      -1.40423
                        -----------------------------------------
Total Dipole Moment    :      0.94043       0.36825       0.24235
                        -----------------------------------------
Magnitude (a.u.)       :      1.03863
Magnitude (Debye)      :      2.63998

Rotational constants in cm-1:     0.130329     0.009443     0.009022
Rotational constants in MHz :  3907.161252   283.099904   270.487453

                             ****ORCA TERMINATED NORMALLY****
TOTAL RUN TIME: 0 days 0 hours 0 minutes 57 seconds 664 msec
