                         Program Version 4.2.0 -  RELEASE  -
|  1> # 12meoh.boyd.etal.mol3,6,7
|  2> ! MP2 def2-TZVP EnGrad TightSCF
|  3>
|  4> %pal
|  5>     nprocs 6
|  6> end
|  7>
|  8> %maxcore 8000
|  9>
| 10> %scf
| 11>     ConvForced true
| 12> end
| 13>
| 14> *xyz 0 1
| 15> O  -3.821405976  -2.118091637   0.596795346
| 16> H  -4.342989117  -1.344303030   0.251966383
| 17> C  -3.443883586  -1.809641231   1.934889393
| 18> H  -2.831494349  -2.637429600   2.305201764
| 19> H  -4.325601146  -1.719364371   2.585074667
| 20> H  -2.858527126  -0.882644791   1.996110694
| 21> O   2.622209273  -1.703002590  -1.445859723
| 22> H   1.828551432  -1.986513781  -0.909754968
| 23> C   2.781117675  -2.615822239  -2.525472890
| 24> H   3.691063626  -2.339003544  -3.065143454
| 25> H   1.934727323  -2.559520367  -3.223226661
| 26> H   2.879948338  -3.653846211  -2.177750170
| 27> O   4.310535586  -1.588322800   0.656128299
| 28> H   3.804372199  -1.630404735  -0.196849819
| 29> C   4.312298137  -2.894980854   1.222112691
| 30> H   4.713177833  -2.819907076   2.237066773
| 31> H   4.957796734  -3.574699304   0.648211180
| 32> H   3.302735989  -3.324433205   1.269756773
| 33> *
| 34>
| 35>                          ****END OF INPUT****

CARTESIAN COORDINATES (ANGSTROEM)
---------------------------------
  O     -3.821406   -2.118092    0.596795
  H     -4.342989   -1.344303    0.251966
  C     -3.443884   -1.809641    1.934889
  H     -2.831494   -2.637430    2.305202
  H     -4.325601   -1.719364    2.585075
  H     -2.858527   -0.882645    1.996111
  O      2.622209   -1.703003   -1.445860
  H      1.828551   -1.986514   -0.909755
  C      2.781118   -2.615822   -2.525473
  H      3.691064   -2.339004   -3.065143
  H      1.934727   -2.559520   -3.223227
  H      2.879948   -3.653846   -2.177750
  O      4.310536   -1.588323    0.656128
  H      3.804372   -1.630405   -0.196850
  C      4.312298   -2.894981    1.222113
  H      4.713178   -2.819907    2.237067
  H      4.957797   -3.574699    0.648211
  H      3.302736   -3.324433    1.269757

 Total Charge           Charge          ....    0
 Multiplicity           Mult            ....    1
 Number of Electrons    NEL             ....   54
 Basis Dimension        Dim             ....  258

ORBITAL ENERGIES
----------------

  NO   OCC          E(Eh)            E(eV)
   0   2.0000     -20.588932      -560.2533
   1   2.0000     -20.562269      -559.5278
   2   2.0000     -20.517537      -558.3106
   3   2.0000     -11.290145      -307.2205
   4   2.0000     -11.275643      -306.8259
   5   2.0000     -11.255031      -306.2650
   6   2.0000      -1.381077       -37.5810
   7   2.0000      -1.351361       -36.7724
   8   2.0000      -1.314590       -35.7718
   9   2.0000      -0.941972       -25.6324
  10   2.0000      -0.923273       -25.1235
  11   2.0000      -0.900638       -24.5076
  12   2.0000      -0.710050       -19.3214
  13   2.0000      -0.685595       -18.6560
  14   2.0000      -0.678921       -18.4744
  15   2.0000      -0.632861       -17.2210
  16   2.0000      -0.621740       -16.9184
  17   2.0000      -0.611932       -16.6515
  18   2.0000      -0.596045       -16.2192
  19   2.0000      -0.594516       -16.1776
  20   2.0000      -0.565536       -15.3890
  21   2.0000      -0.525954       -14.3119
  22   2.0000      -0.505119       -13.7450
  23   2.0000      -0.490863       -13.3571
  24   2.0000      -0.458291       -12.4707
  25   2.0000      -0.453890       -12.3510
  26   2.0000      -0.420919       -11.4538
  27   0.0000       0.114709         3.1214
  28   0.0000       0.131407         3.5758
  29   0.0000       0.159865         4.3501
  30   0.0000       0.172707         4.6996
  31   0.0000       0.176538         4.8039

MULLIKEN ATOMIC CHARGES
-----------------------
   0 O :   -0.497716
   1 H :    0.322308
   2 C :   -0.176417
   3 H :    0.127967
   4 H :    0.111608
   5 H :    0.112252
   6 O :   -0.515282
   7 H :    0.342518
   8 C :   -0.187489
   9 H :    0.144087
  10 H :    0.128250
  11 H :    0.124723
  12 O :   -0.523448
  13 H :    0.353750
  14 C :   -0.177796
  15 H :    0.126149
  16 H :    0.101389
  17 H :    0.083148
Sum of atomic charges:   -0.0000000

LOEWDIN ATOMIC CHARGES
----------------------
   0 O :   -0.111190
   1 H :    0.191107
   2 C :   -0.382089
   3 H :    0.109989
   4 H :    0.096351
   5 H :    0.095832
   6 O :   -0.073709
   7 H :    0.202312
   8 C :   -0.375174
   9 H :    0.115775
  10 H :    0.104656
  11 H :    0.100703
  12 O :   -0.119884
  13 H :    0.158100
  14 C :   -0.397612
  15 H :    0.106998
  16 H :    0.091630
  17 H :    0.086207

  Mayer bond orders larger than 0.100000
B(  0-O ,  1-H ) :   0.8423 B(  0-O ,  2-C ) :   0.9247 B(  2-C ,  3-H ) :   0.9376
B(  2-C ,  4-H ) :   0.9394 B(  2-C ,  5-H ) :   0.9383 B(  6-O ,  7-H ) :   0.8270
B(  6-O ,  8-C ) :   0.8735 B(  8-C ,  9-H ) :   0.9391 B(  8-C , 10-H ) :   0.9355
B(  8-C , 11-H ) :   0.9368 B( 12-O , 13-H ) :   0.7920 B( 12-O , 14-C ) :   0.9468
B( 14-C , 15-H ) :   0.9423 B( 14-C , 16-H ) :   0.9407 B( 14-C , 17-H ) :   0.9356

MP2 TOTAL ENERGY:     -346.528474486 Eh
FINAL SINGLE POINT ENERGY      -346.528474485611

DIPOLE MOMENT
-------------
                                X             Y             Z
Electronic contribution:     -0.58483       2.45416      -1.28692
Nuclear contribution   :     -0.50728      -2.90301       0.87856
                        -----------------------------------------
Total Dipole Moment    :     -1.09210      -0.44885      -0.40835
                        -----------------------------------------
Magnitude (a.u.)       :      1.24936
Magnitude (Debye)      :      3.17563

Rotational constants in cm-1:     0.076252     0.013984     0.012273
Rotational constants in MHz :  2285.969672   419.228667   367.940935

                             ****ORCA TERMINATED NORMALLY****
TOTAL RUN TIME: 0 days 0 hours 1 minutes 1 seconds 943 msec
