                         Program Version 4.2.0 -  RELEASE  -
|  1> # 12h2o.su.etal.mol0,1,7,8,10,11
|  2> ! MP2 def2-TZVP EnGrad TightSCF
|  3>
|  4> %pal
|  5>     nprocs 6
|  6> end
|  7>
|  8> %maxcore 8000
|  9>
| 10> %scf
| 11>     ConvForced true
| 12> end
| 13>
| 14> *xyz 0 1
| 15> O   1.794470000   0.923410000   2.768350000
| 16> H   2.338250000   1.359750000   3.430940000
| 17> H   0.879480000   1.303000000   2.865760000
| 18> O  -1.794470000  -0.923410000   2.768350000
| 19> H  -2.338250000  -1.359750000   3.430940000
| 20> H  -0.879480000  -1.303000000   2.865760000
| 21> O  -1.737840000  -0.885520000  -0.052730000
| 22> H  -2.090180000  -1.032320000   0.841890000
| 23> H  -0.839590000  -1.284090000  -0.017130000
| 24> O   1.752130000   0.741530000  -2.896280000
| 25> H   2.036450000   0.920500000  -1.984040000
| 26> H   0.921210000   1.242140000  -2.984230000
| 27> O  -0.923410000   1.794470000  -2.768350000
| 28> H  -1.359750000   2.338250000  -3.430940000
| 29> H  -1.303000000   0.879480000  -2.865760000
| 30> O  -0.741530000   1.752130000   2.896280000
| 31> H  -0.920500000   2.036450000   1.984040000
| 32> H  -1.242140000   0.921210000   2.984230000
| 33> *
| 34>
| 35>                          ****END OF INPUT****

CARTESIAN COORDINATES (ANGSTROEM)
---------------------------------
  O      1.794470    0.923410    2.768350
  H      2.338250    1.359750    3.430940
  H      0.879480    1.303000    2.865760
  O     -1.794470   -0.923410    2.768350
  H     -2.338250   -1.359750    3.430940
  H     -0.879480   -1.303000    2.865760
  O     -1.737840   -0.885520   -0.052730
  H     -2.090180   -1.032320    0.841890
  H     -0.839590   -1.284090   -0.017130
  O      1.752130    0.741530   -2.896280
  H      2.036450    0.920500   -1.984040
  H      0.921210    1.242140   -2.984230
  O     -0.923410    1.794470   -2.768350
  H     -1.359750    2.338250   -3.430940
  H     -1.303000    0.879480   -2.865760
  O     -0.741530    1.752130    2.896280
  H     -0.920500    2.036450    1.984040
  H     -1.242140    0.921210    2.984230

 Total Charge           Charge          ....    0
 Multiplicity           Mult            ....    1
 Number of Electrons    NEL             ....   60
 Basis Dimension        Dim             ....  258

ORBITAL ENERGIES
----------------

  NO   OCC          E(Eh)            E(eV)
   0   2.0000     -20.623971      -561.2068
   1   2.0000     -20.577504      -559.9424
   2   2.0000     -20.572672      -559.8109
   3   2.0000     -20.549635      -559.1840
   4   2.0000     -20.521532      -558.4193
   5   2.0000     -20.520173      -558.3823
   6   2.0000      -1.404362       -38.2146
   7   2.0000      -1.361362       -37.0445
   8   2.0000      -1.355207       -36.8770
   9   2.0000      -1.328668       -36.1549
  10   2.0000      -1.303936       -35.4819
  11   2.0000      -1.302103       -35.4320
  12   2.0000      -0.769889       -20.9497
  13   2.0000      -0.724410       -19.7122
  14   2.0000      -0.722174       -19.6514
  15   2.0000      -0.700244       -19.0546
  16   2.0000      -0.689829       -18.7712
  17   2.0000      -0.673146       -18.3172
  18   2.0000      -0.641947       -17.4683
  19   2.0000      -0.605181       -16.4678
  20   2.0000      -0.594815       -16.1857
  21   2.0000      -0.579833       -15.7781
  22   2.0000      -0.553402       -15.0588
  23   2.0000      -0.546828       -14.8800
  24   2.0000      -0.546099       -14.8601
  25   2.0000      -0.514096       -13.9893
  26   2.0000      -0.504283       -13.7222
  27   2.0000      -0.494977       -13.4690
  28   2.0000      -0.470935       -12.8148
  29   2.0000      -0.469366       -12.7721
  30   0.0000       0.086166         2.3447
  31   0.0000       0.119180         3.2431
  32   0.0000       0.145187         3.9507
  33   0.0000       0.160801         4.3756
  34   0.0000       0.171511         4.6670

MULLIKEN ATOMIC CHARGES
-----------------------
   0 O :   -0.740426
   1 H :    0.326799
   2 H :    0.364543
   3 O :   -0.721346
   4 H :    0.367522
   5 H :    0.376951
   6 O :   -0.697685
   7 H :    0.362553
   8 H :    0.331213
   9 O :   -0.710169
  10 H :    0.333215
  11 H :    0.355638
  12 O :   -0.696618
  13 H :    0.347988
  14 H :    0.368604
  15 O :   -0.701330
  16 H :    0.361718
  17 H :    0.370832
Sum of atomic charges:    0.0000000

LOEWDIN ATOMIC CHARGES
----------------------
   0 O :   -0.377195
   1 H :    0.149085
   2 H :    0.140571
   3 O :   -0.287678
   4 H :    0.169556
   5 H :    0.194409
   6 O :   -0.346232
   7 H :    0.146884
   8 H :    0.167883
   9 O :   -0.351076
  10 H :    0.161795
  11 H :    0.146376
  12 O :   -0.311122
  13 H :    0.161533
  14 H :    0.190839
  15 O :   -0.281912
  16 H :    0.174698
  17 H :    0.151585

  Mayer bond orders larger than 0.100000
B(  0-O ,  1-H ) :   0.8598 B(  0-O ,  2-H ) :   0.7773 B(  3-O ,  4-H ) :   0.8299
B(  3-O ,  5-H ) :   0.8143 B(  6-O ,  7-H ) :   0.8254 B(  6-O ,  8-H ) :   0.8532
B(  9-O , 10-H ) :   0.8558 B(  9-O , 11-H ) :   0.8187 B( 12-O , 13-H ) :   0.8440
B( 12-O , 14-H ) :   0.8238 B( 15-O , 16-H ) :   0.8342 B( 15-O , 17-H ) :   0.8080

MP2 TOTAL ENERGY:     -457.912155814 Eh
FINAL SINGLE POINT ENERGY      -457.912155813597

DIPOLE MOMENT
-------------
                                X             Y             Z
Electronic contribution:     -0.41350       0.08105      -0.06044
Nuclear contribution   :     -1.24538      -0.65224       1.40687
                        -----------------------------------------
Total Dipole Moment    :     -1.65888      -0.57119       1.34643
                        -----------------------------------------
Magnitude (a.u.)       :      2.21157
Magnitude (Debye)      :      5.62135

Rotational constants in cm-1:     0.046634     0.020646     0.017124
Rotational constants in MHz :  1398.043579   618.943566   513.364050

                             ****ORCA TERMINATED NORMALLY****
TOTAL RUN TIME: 0 days 0 hours 0 minutes 50 seconds 787 msec
