                         Program Version 4.2.0 -  RELEASE  -
|  1> # 12meoh.boyd.etal.mol7,9,10
|  2> ! MP2 def2-TZVP EnGrad TightSCF
|  3>
|  4> %pal
|  5>     nprocs 6
|  6> end
|  7>
|  8> %maxcore 8000
|  9>
| 10> %scf
| 11>     ConvForced true
| 12> end
| 13>
| 14> *xyz 0 1
| 15> O   4.310535586  -1.588322800   0.656128299
| 16> H   3.804372199  -1.630404735  -0.196849819
| 17> C   4.312298137  -2.894980854   1.222112691
| 18> H   4.713177833  -2.819907076   2.237066773
| 19> H   4.957796734  -3.574699304   0.648211180
| 20> H   3.302735989  -3.324433205   1.269756773
| 21> O   1.390610024   3.194080770  -1.536658882
| 22> H   2.162932299   2.881562730  -0.993525056
| 23> C   1.202977189   4.580367182  -1.302880219
| 24> H   0.374773115   4.915764831  -1.934164643
| 25> H   2.098649340   5.157710875  -1.570472348
| 26> H   0.950320401   4.800436015  -0.254328827
| 27> O  -5.201143618   0.064582726  -0.172223772
| 28> H  -4.686891530   0.869258890   0.107806143
| 29> C  -6.513192168   0.171391798   0.359883449
| 30> H  -7.049381312  -0.749234190   0.111361174
| 31> H  -7.057741163   1.017801101  -0.081819420
| 32> H  -6.514770575   0.292264928   1.453058834
| 33> *
| 34>
| 35>                          ****END OF INPUT****

CARTESIAN COORDINATES (ANGSTROEM)
---------------------------------
  O      4.310536   -1.588323    0.656128
  H      3.804372   -1.630405   -0.196850
  C      4.312298   -2.894981    1.222113
  H      4.713178   -2.819907    2.237067
  H      4.957797   -3.574699    0.648211
  H      3.302736   -3.324433    1.269757
  O      1.390610    3.194081   -1.536659
  H      2.162932    2.881563   -0.993525
  C      1.202977    4.580367   -1.302880
  H      0.374773    4.915765   -1.934165
  H      2.098649    5.157711   -1.570472
  H      0.950320    4.800436   -0.254329
  O     -5.201144    0.064583   -0.172224
  H     -4.686892    0.869259    0.107806
  C     -6.513192    0.171392    0.359883
  H     -7.049381   -0.749234    0.111361
  H     -7.057741    1.017801   -0.081819
  H     -6.514771    0.292265    1.453059

 Total Charge           Charge          ....    0
 Multiplicity           Mult            ....    1
 Number of Electrons    NEL             ....   54
 Basis Dimension        Dim             ....  258

ORBITAL ENERGIES
----------------

  NO   OCC          E(Eh)            E(eV)
   0   2.0000     -20.557619      -559.4013
   1   2.0000     -20.556587      -559.3732
   2   2.0000     -20.555936      -559.3555
   3   2.0000     -11.271575      -306.7151
   4   2.0000     -11.270941      -306.6979
   5   2.0000     -11.270158      -306.6766
   6   2.0000      -1.347320       -36.6624
   7   2.0000      -1.347315       -36.6623
   8   2.0000      -1.346046       -36.6278
   9   2.0000      -0.919557       -25.0224
  10   2.0000      -0.918858       -25.0034
  11   2.0000      -0.917889       -24.9770
  12   2.0000      -0.682010       -18.5584
  13   2.0000      -0.681974       -18.5574
  14   2.0000      -0.680774       -18.5248
  15   2.0000      -0.616979       -16.7889
  16   2.0000      -0.616364       -16.7721
  17   2.0000      -0.615454       -16.7474
  18   2.0000      -0.591662       -16.1000
  19   2.0000      -0.591065       -16.0837
  20   2.0000      -0.590034       -16.0556
  21   2.0000      -0.501127       -13.6364
  22   2.0000      -0.498601       -13.5676
  23   2.0000      -0.498429       -13.5629
  24   2.0000      -0.449260       -12.2250
  25   2.0000      -0.447818       -12.1857
  26   2.0000      -0.447081       -12.1657
  27   0.0000       0.128166         3.4876
  28   0.0000       0.136884         3.7248
  29   0.0000       0.142516         3.8781
  30   0.0000       0.172657         4.6982
  31   0.0000       0.177245         4.8231

MULLIKEN ATOMIC CHARGES
-----------------------
   0 O :   -0.499620
   1 H :    0.322955
   2 C :   -0.174040
   3 H :    0.128510
   4 H :    0.109823
   5 H :    0.112390
   6 O :   -0.499160
   7 H :    0.324294
   8 C :   -0.170726
   9 H :    0.128190
  10 H :    0.109546
  11 H :    0.107837
  12 O :   -0.495715
  13 H :    0.322665
  14 C :   -0.172455
  15 H :    0.128691
  16 H :    0.108440
  17 H :    0.108374
Sum of atomic charges:   -0.0000000

LOEWDIN ATOMIC CHARGES
----------------------
   0 O :   -0.110736
   1 H :    0.189965
   2 C :   -0.380967
   3 H :    0.109818
   4 H :    0.095602
   5 H :    0.096328
   6 O :   -0.106337
   7 H :    0.191601
   8 C :   -0.385878
   9 H :    0.110108
  10 H :    0.095464
  11 H :    0.095033
  12 O :   -0.106534
  13 H :    0.191531
  14 C :   -0.385321
  15 H :    0.110229
  16 H :    0.095004
  17 H :    0.095091

  Mayer bond orders larger than 0.100000
B(  0-O ,  1-H ) :   0.8423 B(  0-O ,  2-C ) :   0.9253 B(  2-C ,  3-H ) :   0.9378
B(  2-C ,  4-H ) :   0.9384 B(  2-C ,  5-H ) :   0.9402 B(  6-O ,  7-H ) :   0.8404
B(  6-O ,  8-C ) :   0.9280 B(  8-C ,  9-H ) :   0.9375 B(  8-C , 10-H ) :   0.9403
B(  8-C , 11-H ) :   0.9375 B( 12-O , 13-H ) :   0.8414 B( 12-O , 14-C ) :   0.9286
B( 14-C , 15-H ) :   0.9377 B( 14-C , 16-H ) :   0.9389 B( 14-C , 17-H ) :   0.9385

MP2 TOTAL ENERGY:     -346.520357381 Eh
FINAL SINGLE POINT ENERGY      -346.520357381417

DIPOLE MOMENT
-------------
                                X             Y             Z
Electronic contribution:      1.81590      -0.34317      -1.70020
Nuclear contribution   :     -1.93697       0.68321       2.22318
                        -----------------------------------------
Total Dipole Moment    :     -0.12107       0.34004       0.52298
                        -----------------------------------------
Magnitude (a.u.)       :      0.63544
Magnitude (Debye)      :      1.61517

Rotational constants in cm-1:     0.023606     0.009368     0.006770
Rotational constants in MHz :   707.697609   280.838981   202.965995

                             ****ORCA TERMINATED NORMALLY****
TOTAL RUN TIME: 0 days 0 hours 0 minutes 37 seconds 34 msec
