                         Program Version 4.2.0 -  RELEASE  -
|  1> # 12mecn.remya.etal.2.mol2,6,9
|  2> ! MP2 def2-TZVP EnGrad TightSCF
|  3>
|  4> %pal
|  5>     nprocs 6
|  6> end
|  7>
|  8> %maxcore 8000
|  9>
| 10> %scf
| 11>     ConvForced true
| 12> end
| 13>
| 14> *xyz 0 1
| 15> C  -4.219070000  -3.477410000  -1.501740000
| 16> H  -3.251530000  -3.803540000  -1.893830000
| 17> H  -4.452920000  -2.481700000  -1.890840000
| 18> H  -4.992170000  -4.178130000  -1.824640000
| 19> C  -4.154550000  -3.418790000  -0.058340000
| 20> N  -4.091140000  -3.354840000   1.104432000
| 21> C   5.300864000  -2.920090000   1.401103000
| 22> H   5.986071000  -2.139770000   1.737487000
| 23> H   5.636642000  -3.888750000   1.778233000
| 24> H   4.307359000  -2.697240000   1.799307000
| 25> C   5.234791000  -2.933140000  -0.043290000
| 26> N   5.170868000  -2.941760000  -1.207750000
| 27> C   0.923766000   4.000693000  -1.575910000
| 28> H   0.011949000   4.478423000  -1.939550000
| 29> H   0.947903000   2.966558000  -1.929960000
| 30> H   1.805950000   4.519548000  -1.956520000
| 31> C   0.942834000   3.994846000  -0.131200000
| 32> N   0.960035000   3.982544000   1.035639000
| 33> *
| 34>
| 35>                          ****END OF INPUT****

CARTESIAN COORDINATES (ANGSTROEM)
---------------------------------
  C     -4.219070   -3.477410   -1.501740
  H     -3.251530   -3.803540   -1.893830
  H     -4.452920   -2.481700   -1.890840
  H     -4.992170   -4.178130   -1.824640
  C     -4.154550   -3.418790   -0.058340
  N     -4.091140   -3.354840    1.104432
  C      5.300864   -2.920090    1.401103
  H      5.986071   -2.139770    1.737487
  H      5.636642   -3.888750    1.778233
  H      4.307359   -2.697240    1.799307
  C      5.234791   -2.933140   -0.043290
  N      5.170868   -2.941760   -1.207750
  C      0.923766    4.000693   -1.575910
  H      0.011949    4.478423   -1.939550
  H      0.947903    2.966558   -1.929960
  H      1.805950    4.519548   -1.956520
  C      0.942834    3.994846   -0.131200
  N      0.960035    3.982544    1.035639

 Total Charge           Charge          ....    0
 Multiplicity           Mult            ....    1
 Number of Electrons    NEL             ....   66
 Basis Dimension        Dim             ....  333

ORBITAL ENERGIES
----------------

  NO   OCC          E(Eh)            E(eV)
   0   2.0000     -15.573251      -423.7697
   1   2.0000     -15.573249      -423.7696
   2   2.0000     -15.573120      -423.7662
   3   2.0000     -11.285470      -307.0932
   4   2.0000     -11.284509      -307.0671
   5   2.0000     -11.283494      -307.0395
   6   2.0000     -11.280619      -306.9612
   7   2.0000     -11.280178      -306.9492
   8   2.0000     -11.280124      -306.9478
   9   2.0000      -1.215121       -33.0651
  10   2.0000      -1.214882       -33.0586
  11   2.0000      -1.214309       -33.0430
  12   2.0000      -1.044168       -28.4132
  13   2.0000      -1.043945       -28.4072
  14   2.0000      -1.042935       -28.3797
  15   2.0000      -0.700772       -19.0690
  16   2.0000      -0.700394       -19.0587
  17   2.0000      -0.700329       -19.0569
  18   2.0000      -0.633956       -17.2508
  19   2.0000      -0.632146       -17.2016
  20   2.0000      -0.631692       -17.1892
  21   2.0000      -0.631459       -17.1829
  22   2.0000      -0.629965       -17.1422
  23   2.0000      -0.628864       -17.1123
  24   2.0000      -0.556596       -15.1457
  25   2.0000      -0.556029       -15.1303
  26   2.0000      -0.555817       -15.1246
  27   2.0000      -0.458451       -12.4751
  28   2.0000      -0.458016       -12.4632
  29   2.0000      -0.457860       -12.4590
  30   2.0000      -0.457831       -12.4582
  31   2.0000      -0.457822       -12.4580
  32   2.0000      -0.457024       -12.4362
  33   0.0000       0.118779         3.2321
  34   0.0000       0.119416         3.2495
  35   0.0000       0.120904         3.2900
  36   0.0000       0.170902         4.6505
  37   0.0000       0.171398         4.6640

MULLIKEN ATOMIC CHARGES
-----------------------
   0 C :   -0.280736
   1 H :    0.173159
   2 H :    0.171353
   3 H :    0.172281
   4 C :   -0.145708
   5 N :   -0.090349
   6 C :   -0.280042
   7 H :    0.172694
   8 H :    0.172215
   9 H :    0.175237
  10 C :   -0.145674
  11 N :   -0.094431
  12 C :   -0.279076
  13 H :    0.171646
  14 H :    0.172889
  15 H :    0.172529
  16 C :   -0.145623
  17 N :   -0.092364
Sum of atomic charges:    0.0000000

LOEWDIN ATOMIC CHARGES
----------------------
   0 C :   -0.284121
   1 H :    0.152951
   2 H :    0.152808
   3 H :    0.151097
   4 C :   -0.219480
   5 N :    0.046744
   6 C :   -0.282997
   7 H :    0.151991
   8 H :    0.151534
   9 H :    0.154232
  10 C :   -0.218333
  11 N :    0.043573
  12 C :   -0.283464
  13 H :    0.151345
  14 H :    0.153678
  15 H :    0.152127
  16 C :   -0.219398
  17 N :    0.045713

  Mayer bond orders larger than 0.100000
B(  0-C ,  1-H ) :   0.9163 B(  0-C ,  2-H ) :   0.9167 B(  0-C ,  3-H ) :   0.9165
B(  0-C ,  4-C ) :   0.9022 B(  4-C ,  5-N ) :   2.8368 B(  6-C ,  7-H ) :   0.9164
B(  6-C ,  8-H ) :   0.9160 B(  6-C ,  9-H ) :   0.9158 B(  6-C , 10-C ) :   0.9025
B( 10-C , 11-N ) :   2.8396 B( 12-C , 13-H ) :   0.9165 B( 12-C , 14-H ) :   0.9168
B( 12-C , 15-H ) :   0.9162 B( 12-C , 16-C ) :   0.9017 B( 16-C , 17-N ) :   2.8370

MP2 TOTAL ENERGY:     -397.449987616 Eh
FINAL SINGLE POINT ENERGY      -397.449987616172

DIPOLE MOMENT
-------------
                                X             Y             Z
Electronic contribution:      0.04139       0.09096       3.12612
Nuclear contribution   :     -0.06231      -0.14164      -4.63471
                        -----------------------------------------
Total Dipole Moment    :     -0.02092      -0.05068      -1.50859
                        -----------------------------------------
Magnitude (a.u.)       :      1.50958
Magnitude (Debye)      :      3.83705

Rotational constants in cm-1:     0.011142     0.008244     0.005201
Rotational constants in MHz :   334.025074   247.162771   155.909375

                             ****ORCA TERMINATED NORMALLY****
TOTAL RUN TIME: 0 days 0 hours 1 minutes 40 seconds 670 msec
