                         Program Version 4.2.0 -  RELEASE  -
|  1> # 12h2o.su.etal.mol3,7,9,10,11
|  2> ! MP2 def2-TZVP EnGrad TightSCF
|  3>
|  4> %pal
|  5>     nprocs 6
|  6> end
|  7>
|  8> %maxcore 8000
|  9>
| 10> %scf
| 11>     ConvForced true
| 12> end
| 13>
| 14> *xyz 0 1
| 15> O  -1.752130000  -0.741530000  -2.896280000
| 16> H  -2.036450000  -0.920500000  -1.984040000
| 17> H  -0.921210000  -1.242140000  -2.984230000
| 18> O  -1.737840000  -0.885520000  -0.052730000
| 19> H  -2.090180000  -1.032320000   0.841890000
| 20> H  -0.839590000  -1.284090000  -0.017130000
| 21> O   0.741530000  -1.752130000   2.896280000
| 22> H   0.920500000  -2.036450000   1.984040000
| 23> H   1.242140000  -0.921210000   2.984230000
| 24> O  -0.923410000   1.794470000  -2.768350000
| 25> H  -1.359750000   2.338250000  -3.430940000
| 26> H  -1.303000000   0.879480000  -2.865760000
| 27> O  -0.741530000   1.752130000   2.896280000
| 28> H  -0.920500000   2.036450000   1.984040000
| 29> H  -1.242140000   0.921210000   2.984230000
| 30> *
| 31>
| 32>                          ****END OF INPUT****

CARTESIAN COORDINATES (ANGSTROEM)
---------------------------------
  O     -1.752130   -0.741530   -2.896280
  H     -2.036450   -0.920500   -1.984040
  H     -0.921210   -1.242140   -2.984230
  O     -1.737840   -0.885520   -0.052730
  H     -2.090180   -1.032320    0.841890
  H     -0.839590   -1.284090   -0.017130
  O      0.741530   -1.752130    2.896280
  H      0.920500   -2.036450    1.984040
  H      1.242140   -0.921210    2.984230
  O     -0.923410    1.794470   -2.768350
  H     -1.359750    2.338250   -3.430940
  H     -1.303000    0.879480   -2.865760
  O     -0.741530    1.752130    2.896280
  H     -0.920500    2.036450    1.984040
  H     -1.242140    0.921210    2.984230

 Total Charge           Charge          ....    0
 Multiplicity           Mult            ....    1
 Number of Electrons    NEL             ....   50
 Basis Dimension        Dim             ....  215

ORBITAL ENERGIES
----------------

  NO   OCC          E(Eh)            E(eV)
   0   2.0000     -20.608583      -560.7881
   1   2.0000     -20.583860      -560.1153
   2   2.0000     -20.576753      -559.9219
   3   2.0000     -20.565471      -559.6149
   4   2.0000     -20.511723      -558.1524
   5   2.0000      -1.387407       -37.7533
   6   2.0000      -1.364000       -37.1163
   7   2.0000      -1.362778       -37.0831
   8   2.0000      -1.344538       -36.5867
   9   2.0000      -1.293962       -35.2105
  10   2.0000      -0.750833       -20.4312
  11   2.0000      -0.726157       -19.7597
  12   2.0000      -0.724716       -19.7205
  13   2.0000      -0.706975       -19.2378
  14   2.0000      -0.683138       -18.5891
  15   2.0000      -0.633619       -17.2416
  16   2.0000      -0.600279       -16.3344
  17   2.0000      -0.595278       -16.1983
  18   2.0000      -0.582469       -15.8498
  19   2.0000      -0.551904       -15.0181
  20   2.0000      -0.545559       -14.8454
  21   2.0000      -0.528031       -14.3684
  22   2.0000      -0.509061       -13.8523
  23   2.0000      -0.502530       -13.6745
  24   2.0000      -0.462276       -12.5792
  25   0.0000       0.068293         1.8583
  26   0.0000       0.123200         3.3524
  27   0.0000       0.128820         3.5054
  28   0.0000       0.158839         4.3222
  29   0.0000       0.180363         4.9079

MULLIKEN ATOMIC CHARGES
-----------------------
   0 O :   -0.688702
   1 H :    0.384968
   2 H :    0.340380
   3 O :   -0.687082
   4 H :    0.356368
   5 H :    0.337212
   6 O :   -0.676839
   7 H :    0.324495
   8 H :    0.355062
   9 O :   -0.736686
  10 H :    0.323016
  11 H :    0.367527
  12 O :   -0.679881
  13 H :    0.348374
  14 H :    0.331790
Sum of atomic charges:   -0.0000000

LOEWDIN ATOMIC CHARGES
----------------------
   0 O :   -0.274813
   1 H :    0.159271
   2 H :    0.167879
   3 O :   -0.311936
   4 H :    0.172245
   5 H :    0.171029
   6 O :   -0.328445
   7 H :    0.158016
   8 H :    0.172770
   9 O :   -0.374963
  10 H :    0.147262
  11 H :    0.141956
  12 O :   -0.330715
  13 H :    0.169325
  14 H :    0.161120

  Mayer bond orders larger than 0.100000
B(  0-O ,  1-H ) :   0.8043 B(  0-O ,  2-H ) :   0.8476 B(  3-O ,  4-H ) :   0.8377
B(  3-O ,  5-H ) :   0.8439 B(  6-O ,  7-H ) :   0.8588 B(  6-O ,  8-H ) :   0.8384
B(  9-O , 10-H ) :   0.8619 B(  9-O , 11-H ) :   0.7832 B( 12-O , 13-H ) :   0.8456
B( 12-O , 14-H ) :   0.8529

MP2 TOTAL ENERGY:     -381.582736890 Eh
FINAL SINGLE POINT ENERGY      -381.582736889613

DIPOLE MOMENT
-------------
                                X             Y             Z
Electronic contribution:     -0.14283      -0.05890       0.30967
Nuclear contribution   :      0.23021      -1.32858      -0.54442
                        -----------------------------------------
Total Dipole Moment    :      0.08738      -1.38748      -0.23475
                        -----------------------------------------
Magnitude (a.u.)       :      1.40991
Magnitude (Debye)      :      3.58371

Rotational constants in cm-1:     0.073884     0.025220     0.020721
Rotational constants in MHz :  2214.986858   756.089622   621.188606

                             ****ORCA TERMINATED NORMALLY****
TOTAL RUN TIME: 0 days 0 hours 0 minutes 25 seconds 952 msec
