                         Program Version 4.2.0 -  RELEASE  -
|  1> # 12h2o.su.etal.mol1,2,6,7,8,11
|  2> ! MP2 def2-TZVP EnGrad TightSCF
|  3>
|  4> %pal
|  5>     nprocs 6
|  6> end
|  7>
|  8> %maxcore 8000
|  9>
| 10> %scf
| 11>     ConvForced true
| 12> end
| 13>
| 14> *xyz 0 1
| 15> O  -1.794470000  -0.923410000   2.768350000
| 16> H  -2.338250000  -1.359750000   3.430940000
| 17> H  -0.879480000  -1.303000000   2.865760000
| 18> O   0.923410000  -1.794470000  -2.768350000
| 19> H   1.359750000  -2.338250000  -3.430940000
| 20> H   1.303000000  -0.879480000  -2.865760000
| 21> O   1.737840000   0.885520000  -0.052730000
| 22> H   2.090180000   1.032320000   0.841890000
| 23> H   0.839590000   1.284090000  -0.017130000
| 24> O  -1.737840000  -0.885520000  -0.052730000
| 25> H  -2.090180000  -1.032320000   0.841890000
| 26> H  -0.839590000  -1.284090000  -0.017130000
| 27> O   1.752130000   0.741530000  -2.896280000
| 28> H   2.036450000   0.920500000  -1.984040000
| 29> H   0.921210000   1.242140000  -2.984230000
| 30> O  -0.741530000   1.752130000   2.896280000
| 31> H  -0.920500000   2.036450000   1.984040000
| 32> H  -1.242140000   0.921210000   2.984230000
| 33> *
| 34>
| 35>                          ****END OF INPUT****

CARTESIAN COORDINATES (ANGSTROEM)
---------------------------------
  O     -1.794470   -0.923410    2.768350
  H     -2.338250   -1.359750    3.430940
  H     -0.879480   -1.303000    2.865760
  O      0.923410   -1.794470   -2.768350
  H      1.359750   -2.338250   -3.430940
  H      1.303000   -0.879480   -2.865760
  O      1.737840    0.885520   -0.052730
  H      2.090180    1.032320    0.841890
  H      0.839590    1.284090   -0.017130
  O     -1.737840   -0.885520   -0.052730
  H     -2.090180   -1.032320    0.841890
  H     -0.839590   -1.284090   -0.017130
  O      1.752130    0.741530   -2.896280
  H      2.036450    0.920500   -1.984040
  H      0.921210    1.242140   -2.984230
  O     -0.741530    1.752130    2.896280
  H     -0.920500    2.036450    1.984040
  H     -1.242140    0.921210    2.984230

 Total Charge           Charge          ....    0
 Multiplicity           Mult            ....    1
 Number of Electrons    NEL             ....   60
 Basis Dimension        Dim             ....  258

ORBITAL ENERGIES
----------------

  NO   OCC          E(Eh)            E(eV)
   0   2.0000     -20.621727      -561.1457
   1   2.0000     -20.592994      -560.3638
   2   2.0000     -20.565460      -559.6146
   3   2.0000     -20.554658      -559.3207
   4   2.0000     -20.538738      -558.8875
   5   2.0000     -20.504260      -557.9493
   6   2.0000      -1.401880       -38.1471
   7   2.0000      -1.372262       -37.3411
   8   2.0000      -1.352508       -36.8036
   9   2.0000      -1.336762       -36.3751
  10   2.0000      -1.317775       -35.8585
  11   2.0000      -1.286314       -35.0024
  12   2.0000      -0.767654       -20.8889
  13   2.0000      -0.735664       -20.0184
  14   2.0000      -0.713608       -19.4183
  15   2.0000      -0.707007       -19.2386
  16   2.0000      -0.689900       -18.7731
  17   2.0000      -0.674826       -18.3630
  18   2.0000      -0.636554       -17.3215
  19   2.0000      -0.619836       -16.8666
  20   2.0000      -0.589834       -16.0502
  21   2.0000      -0.583978       -15.8909
  22   2.0000      -0.563592       -15.3361
  23   2.0000      -0.541867       -14.7449
  24   2.0000      -0.537991       -14.6395
  25   2.0000      -0.535620       -14.5750
  26   2.0000      -0.501725       -13.6526
  27   2.0000      -0.493023       -13.4158
  28   2.0000      -0.484048       -13.1716
  29   2.0000      -0.454691       -12.3728
  30   0.0000       0.079829         2.1722
  31   0.0000       0.109266         2.9733
  32   0.0000       0.150063         4.0834
  33   0.0000       0.153457         4.1758
  34   0.0000       0.170639         4.6433

MULLIKEN ATOMIC CHARGES
-----------------------
   0 O :   -0.713560
   1 H :    0.367098
   2 H :    0.367689
   3 O :   -0.732519
   4 H :    0.319329
   5 H :    0.368759
   6 O :   -0.698216
   7 H :    0.358325
   8 H :    0.344299
   9 O :   -0.699577
  10 H :    0.356962
  11 H :    0.337941
  12 O :   -0.692526
  13 H :    0.384217
  14 H :    0.344910
  15 O :   -0.701017
  16 H :    0.327294
  17 H :    0.360592
Sum of atomic charges:    0.0000000

LOEWDIN ATOMIC CHARGES
----------------------
   0 O :   -0.286867
   1 H :    0.169160
   2 H :    0.190747
   3 O :   -0.373171
   4 H :    0.146185
   5 H :    0.142688
   6 O :   -0.316107
   7 H :    0.173913
   8 H :    0.171999
   9 O :   -0.344928
  10 H :    0.144431
  11 H :    0.167934
  12 O :   -0.276586
  13 H :    0.159033
  14 H :    0.169829
  15 O :   -0.343277
  16 H :    0.157293
  17 H :    0.147725

  Mayer bond orders larger than 0.100000
B(  0-O ,  1-H ) :   0.8299 B(  0-O ,  2-H ) :   0.8225 B(  3-O ,  4-H ) :   0.8633
B(  3-O ,  5-H ) :   0.7801 B(  6-O ,  7-H ) :   0.8368 B(  6-O ,  8-H ) :   0.8360
B(  9-O , 10-H ) :   0.8293 B(  9-O , 11-H ) :   0.8445 B( 12-O , 13-H ) :   0.8037
B( 12-O , 14-H ) :   0.8451 B( 15-O , 16-H ) :   0.8571 B( 15-O , 17-H ) :   0.8199

MP2 TOTAL ENERGY:     -457.909542180 Eh
FINAL SINGLE POINT ENERGY      -457.909542180245

DIPOLE MOMENT
-------------
                                X             Y             Z
Electronic contribution:     -0.00404       0.15009       0.11392
Nuclear contribution   :     -0.03250      -0.25948       1.54856
                        -----------------------------------------
Total Dipole Moment    :     -0.03654      -0.10939       1.66248
                        -----------------------------------------
Magnitude (a.u.)       :      1.66647
Magnitude (Debye)      :      4.23584

Rotational constants in cm-1:     0.063603     0.021915     0.017481
Rotational constants in MHz :  1906.761264   657.004170   524.067794

                             ****ORCA TERMINATED NORMALLY****
TOTAL RUN TIME: 0 days 0 hours 1 minutes 30 seconds 392 msec
