                         Program Version 3.0.3 - RELEASE   -
|  1> ! B3LYP Def2-TZVP def2-TZVP/J RIJCOSX TightSCF Grid4 D3BJ
|  2>
|  3> %pal nprocs 12 end
|  4>
|  5> %scf
|  6>         maxiter 400
|  7> end
|  8>
|  9> * xyz  0  1
| 10> O  -0.120773	0.748703	-1.716064
| 11> H  0.271924	-0.144357	-1.428471
| 12> H  -0.916510	0.488866	-2.217033
| 13> O  -0.782403	1.533492	0.719098
| 14> H  -0.593444	1.307127	-0.254226
| 15> H  -0.171956	2.273031	0.897693
| 16> O  0.749904	-1.539640	-0.728407
| 17> H  1.723706	-1.596020	-0.730125
| 18> H  0.528902	-1.328921	0.241607
| 19> O  0.149095	-0.728141	1.714061
| 20> H  -0.207066	0.181709	1.430402
| 21> H  -0.647936	-1.187444	2.038651
| 22> **                         ****END OF INPUT****

CARTESIAN COORDINATES (ANGSTROEM)
---------------------------------
  O     -0.120773    0.748703   -1.716064
  H      0.271924   -0.144357   -1.428471
  H     -0.916510    0.488866   -2.217033
  O     -0.782403    1.533492    0.719098
  H     -0.593444    1.307127   -0.254226
  H     -0.171956    2.273031    0.897693
  O      0.749904   -1.539640   -0.728407
  H      1.723706   -1.596020   -0.730125
  H      0.528902   -1.328921    0.241607
  O      0.149095   -0.728141    1.714061
  H     -0.207066    0.181709    1.430402
  H     -0.647936   -1.187444    2.038651

 Total Charge           Charge          ....    0
 Multiplicity           Mult            ....    1
 Number of Electrons    NEL             ....   40
 Basis Dimension        Dim             ....  172

ORBITAL ENERGIES
----------------

  NO   OCC          E(Eh)            E(eV)
   0   2.0000     -19.127091      -520.4746
   1   2.0000     -19.126963      -520.4711
   2   2.0000     -19.126756      -520.4655
   3   2.0000     -19.126741      -520.4651
   4   2.0000      -1.024127       -27.8679
   5   2.0000      -1.004607       -27.3368
   6   2.0000      -1.004419       -27.3316
   7   2.0000      -0.985252       -26.8101
   8   2.0000      -0.535204       -14.5636
   9   2.0000      -0.523241       -14.2381
  10   2.0000      -0.522747       -14.2247
  11   2.0000      -0.517734       -14.0882
  12   2.0000      -0.441189       -12.0054
  13   2.0000      -0.402654       -10.9568
  14   2.0000      -0.401501       -10.9254
  15   2.0000      -0.368869       -10.0374
  16   2.0000      -0.319062        -8.6821
  17   2.0000      -0.318406        -8.6643
  18   2.0000      -0.318142        -8.6571
  19   2.0000      -0.312805        -8.5119
  20   0.0000       0.006878         0.1871
  21   0.0000       0.046030         1.2525
  22   0.0000       0.046335         1.2608
  23   0.0000       0.064250         1.7483
  24   0.0000       0.180275         4.9055

MULLIKEN ATOMIC CHARGES
-----------------------
   0 O :   -0.683793
   1 H :    0.357764
   2 H :    0.327192
   3 O :   -0.684622
   4 H :    0.356584
   5 H :    0.327628
   6 O :   -0.685686
   7 H :    0.327838
   8 H :    0.356429
   9 O :   -0.684230
  10 H :    0.357681
  11 H :    0.327215
Sum of atomic charges:   -0.0000000

LOEWDIN ATOMIC CHARGES
----------------------
   0 O :   -0.305557
   1 H :    0.144692
   2 H :    0.160996
   3 O :   -0.305436
   4 H :    0.144664
   5 H :    0.161144
   6 O :   -0.305921
   7 H :    0.161136
   8 H :    0.144685
   9 O :   -0.306043
  10 H :    0.144764
  11 H :    0.160876

  Mayer bond orders larger than 0.1
B(  0-O ,  1-H ) :   0.7636 B(  0-O ,  2-H ) :   0.8975 B(  0-O ,  4-H ) :   0.1710
B(  1-H ,  6-O ) :   0.1691 B(  3-O ,  4-H ) :   0.7627 B(  3-O ,  5-H ) :   0.8970
B(  3-O , 10-H ) :   0.1695 B(  6-O ,  7-H ) :   0.8967 B(  6-O ,  8-H ) :   0.7626
B(  8-H ,  9-O ) :   0.1709 B(  9-O , 10-H ) :   0.7630 B(  9-O , 11-H ) :   0.8973

Dispersion correction           -0.008273090
FINAL SINGLE POINT ENERGY      -305.755790476015

DIPOLE MOMENT
-------------
                                X             Y             Z
Electronic contribution:      0.00303       0.00731      -0.00063
Nuclear contribution   :     -0.00335      -0.02900       0.00093
                        -----------------------------------------
Total Dipole Moment    :     -0.00032      -0.02169       0.00030
                        -----------------------------------------
Magnitude (a.u.)       :      0.02169
Magnitude (Debye)      :      0.05514

                             ****ORCA TERMINATED NORMALLY****
TOTAL RUN TIME: 0 days 0 hours 0 minutes 51 seconds 76 msec
