                         Program Version 3.0.3 - RELEASE   -
|  1> ! wB97X-D3 Def2-TZVP def2-TZVP/J RIJCOSX TightSCF Grid4 COSMO
|  2>
|  3> %pal nprocs 12 end
|  4>
|  5> %scf
|  6>         maxiter 400
|  7> end
|  8>
|  9> %cosmo
| 10>         SMD true
| 11>         solvent "WATER"
| 12> end
| 13>
| 14> * xyz  0  1
| 15> O  -0.199050	0.711236	-1.840163
| 16> H  0.206244	-0.132999	-1.502754
| 17> H  -1.072092	0.434878	-2.160883
| 18> O  -0.672001	1.573688	0.669279
| 19> H  -0.526608	1.329953	-0.283268
| 20> H  0.052843	2.188340	0.861395
| 21> O  0.838456	-1.484920	-0.673793
| 22> H  1.797433	-1.347180	-0.633139
| 23> H  0.537390	-1.308383	0.257353
| 24> O  0.051691	-0.788408	1.808654
| 25> H  -0.256343	0.099932	1.484041
| 26> H  -0.774520	-1.267731	1.980460
| 27> **                         ****END OF INPUT****

CARTESIAN COORDINATES (ANGSTROEM)
---------------------------------
  O     -0.199050    0.711236   -1.840163
  H      0.206244   -0.132999   -1.502754
  H     -1.072092    0.434878   -2.160883
  O     -0.672001    1.573688    0.669279
  H     -0.526608    1.329953   -0.283268
  H      0.052843    2.188340    0.861395
  O      0.838456   -1.484920   -0.673793
  H      1.797433   -1.347180   -0.633139
  H      0.537390   -1.308383    0.257353
  O      0.051691   -0.788408    1.808654
  H     -0.256343    0.099932    1.484041
  H     -0.774520   -1.267731    1.980460

 Total Charge           Charge          ....    0
 Multiplicity           Mult            ....    1
 Number of Electrons    NEL             ....   40
 Basis Dimension        Dim             ....  172

ORBITAL ENERGIES
----------------

  NO   OCC          E(Eh)            E(eV)
   0   2.0000     -19.233570      -523.3721
   1   2.0000     -19.232388      -523.3399
   2   2.0000     -19.232316      -523.3379
   3   2.0000     -19.231591      -523.3182
   4   2.0000      -1.139752       -31.0142
   5   2.0000      -1.123068       -30.5602
   6   2.0000      -1.121267       -30.5112
   7   2.0000      -1.105272       -30.0760
   8   2.0000      -0.633392       -17.2355
   9   2.0000      -0.628303       -17.0970
  10   2.0000      -0.624712       -16.9993
  11   2.0000      -0.622756       -16.9461
  12   2.0000      -0.537118       -14.6157
  13   2.0000      -0.506825       -13.7914
  14   2.0000      -0.503267       -13.6946
  15   2.0000      -0.482307       -13.1242
  16   2.0000      -0.422147       -11.4872
  17   2.0000      -0.421261       -11.4631
  18   2.0000      -0.420189       -11.4339
  19   2.0000      -0.415642       -11.3102
  20   0.0000       0.108902         2.9634
  21   0.0000       0.160294         4.3618
  22   0.0000       0.162802         4.4301
  23   0.0000       0.178814         4.8658
  24   0.0000       0.276597         7.5266

MULLIKEN ATOMIC CHARGES
-----------------------
   0 O :   -0.767286
   1 H :    0.374126
   2 H :    0.398228
   3 O :   -0.771013
   4 H :    0.365927
   5 H :    0.397364
   6 O :   -0.769464
   7 H :    0.397828
   8 H :    0.366324
   9 O :   -0.762355
  10 H :    0.371723
  11 H :    0.398599
Sum of atomic charges:    0.0000000

LOEWDIN ATOMIC CHARGES
----------------------
   0 O :   -0.325423
   1 H :    0.141801
   2 H :    0.182989
   3 O :   -0.327065
   4 H :    0.139781
   5 H :    0.182269
   6 O :   -0.322501
   7 H :    0.182569
   8 H :    0.140653
   9 O :   -0.323475
  10 H :    0.144427
  11 H :    0.183977

  Mayer bond orders larger than 0.1
B(  0-O ,  1-H ) :   0.7874 B(  0-O ,  2-H ) :   0.8500 B(  0-O ,  4-H ) :   0.1358
B(  1-H ,  6-O ) :   0.1252 B(  3-O ,  4-H ) :   0.7850 B(  3-O ,  5-H ) :   0.8506
B(  3-O , 10-H ) :   0.1193 B(  6-O ,  7-H ) :   0.8504 B(  6-O ,  8-H ) :   0.7831
B(  8-H ,  9-O ) :   0.1386 B(  9-O , 10-H ) :   0.7934 B(  9-O , 11-H ) :   0.8496

Dispersion correction           -0.003093789
FINAL SINGLE POINT ENERGY      -305.829365929863

DIPOLE MOMENT
-------------
                                X             Y             Z
Electronic contribution:      0.00342      -0.01797       0.01012
Nuclear contribution   :     -0.06147      -0.02196       0.06264
                        -----------------------------------------
Total Dipole Moment    :     -0.05805      -0.03993       0.07275
                        -----------------------------------------
Magnitude (a.u.)       :      0.10128
Magnitude (Debye)      :      0.25742

                             ****ORCA TERMINATED NORMALLY****
TOTAL RUN TIME: 0 days 0 hours 0 minutes 53 seconds 392 msec
