                         Program Version 3.0.3 - RELEASE   -
|  1> ! wB97X-D3 Def2-TZVP def2-TZVP/J RIJCOSX TightSCF Grid4
|  2>
|  3> %pal nprocs 12 end
|  4>
|  5> %scf
|  6>         maxiter 400
|  7> end
|  8>
|  9> * xyz  0  1
| 10> O  -0.133349	0.831269	-1.892466
| 11> H  0.265026	-0.019382	-1.565621
| 12> H  -0.944759	0.547767	-2.337163
| 13> O  -0.717714	1.453271	0.663083
| 14> H  -0.580494	1.221984	-0.293318
| 15> H  -0.102583	2.185629	0.804098
| 16> O  0.740226	-1.384505	-0.674928
| 17> H  1.687322	-1.576105	-0.677432
| 18> H  0.516139	-1.282790	0.288661
| 19> O  0.126707	-0.797403	1.865767
| 20> H  -0.227525	0.079156	1.554568
| 21> H  -0.645552	-1.250484	2.231934
| 22> **                         ****END OF INPUT****

CARTESIAN COORDINATES (ANGSTROEM)
---------------------------------
  O     -0.133349    0.831269   -1.892466
  H      0.265026   -0.019382   -1.565621
  H     -0.944759    0.547767   -2.337163
  O     -0.717714    1.453271    0.663083
  H     -0.580494    1.221984   -0.293318
  H     -0.102583    2.185629    0.804098
  O      0.740226   -1.384505   -0.674928
  H      1.687322   -1.576105   -0.677432
  H      0.516139   -1.282790    0.288661
  O      0.126707   -0.797403    1.865767
  H     -0.227525    0.079156    1.554568
  H     -0.645552   -1.250484    2.231934

 Total Charge           Charge          ....    0
 Multiplicity           Mult            ....    1
 Number of Electrons    NEL             ....   40
 Basis Dimension        Dim             ....  172

ORBITAL ENERGIES
----------------

  NO   OCC          E(Eh)            E(eV)
   0   2.0000     -19.232862      -523.3528
   1   2.0000     -19.232579      -523.3451
   2   2.0000     -19.231455      -523.3145
   3   2.0000     -19.231367      -523.3121
   4   2.0000      -1.140915       -31.0459
   5   2.0000      -1.124006       -30.5858
   6   2.0000      -1.122366       -30.5411
   7   2.0000      -1.106533       -30.1103
   8   2.0000      -0.643405       -17.5080
   9   2.0000      -0.635023       -17.2799
  10   2.0000      -0.623723       -16.9724
  11   2.0000      -0.623144       -16.9566
  12   2.0000      -0.539055       -14.6684
  13   2.0000      -0.506338       -13.7782
  14   2.0000      -0.496741       -13.5170
  15   2.0000      -0.468115       -12.7381
  16   2.0000      -0.421128       -11.4595
  17   2.0000      -0.418652       -11.3921
  18   2.0000      -0.414834       -11.2882
  19   2.0000      -0.413074       -11.2403
  20   0.0000       0.096330         2.6213
  21   0.0000       0.135859         3.6969
  22   0.0000       0.139448         3.7946
  23   0.0000       0.155717         4.2373
  24   0.0000       0.264510         7.1977

MULLIKEN ATOMIC CHARGES
-----------------------
   0 O :   -0.690397
   1 H :    0.367486
   2 H :    0.340312
   3 O :   -0.703459
   4 H :    0.346189
   5 H :    0.343465
   6 O :   -0.712581
   7 H :    0.342218
   8 H :    0.357379
   9 O :   -0.696232
  10 H :    0.365511
  11 H :    0.340109
Sum of atomic charges:   -0.0000000

LOEWDIN ATOMIC CHARGES
----------------------
   0 O :   -0.297624
   1 H :    0.140652
   2 H :    0.158814
   3 O :   -0.299382
   4 H :    0.138119
   5 H :    0.159994
   6 O :   -0.302044
   7 H :    0.159393
   8 H :    0.140402
   9 O :   -0.299673
  10 H :    0.142377
  11 H :    0.158972

  Mayer bond orders larger than 0.1
B(  0-O ,  1-H ) :   0.8003 B(  0-O ,  2-H ) :   0.8933 B(  0-O ,  4-H ) :   0.1583
B(  1-H ,  6-O ) :   0.1157 B(  3-O ,  4-H ) :   0.7868 B(  3-O ,  5-H ) :   0.8918
B(  3-O , 10-H ) :   0.1193 B(  6-O ,  7-H ) :   0.8915 B(  6-O ,  8-H ) :   0.7869
B(  8-H ,  9-O ) :   0.1416 B(  9-O , 10-H ) :   0.7977 B(  9-O , 11-H ) :   0.8921

Dispersion correction           -0.003019465
FINAL SINGLE POINT ENERGY      -305.804219710614

DIPOLE MOMENT
-------------
                                X             Y             Z
Electronic contribution:      0.01931       0.04501      -0.00996
Nuclear contribution   :     -0.05341      -0.24928       0.06893
                        -----------------------------------------
Total Dipole Moment    :     -0.03410      -0.20428       0.05897
                        -----------------------------------------
Magnitude (a.u.)       :      0.21534
Magnitude (Debye)      :      0.54734

                             ****ORCA TERMINATED NORMALLY****
TOTAL RUN TIME: 0 days 0 hours 0 minutes 52 seconds 91 msec
