                         Program Version 3.0.3 - RELEASE   -
|  1> ! B3LYP Def2-TZVP def2-TZVP/J RIJCOSX TightSCF Grid4 D3BJ COSMO
|  2>
|  3> %pal nprocs 12 end
|  4>
|  5> %scf
|  6>         maxiter 400
|  7> end
|  8>
|  9> %cosmo
| 10>         SMD true
| 11>         solvent "WATER"
| 12> end
| 13>
| 14> * xyz  0  1
| 15> O  -0.199050	0.711236	-1.840163
| 16> H  0.206244	-0.132999	-1.502754
| 17> H  -1.072092	0.434878	-2.160883
| 18> O  -0.672001	1.573688	0.669279
| 19> H  -0.526608	1.329953	-0.283268
| 20> H  0.052843	2.188340	0.861395
| 21> O  0.838456	-1.484920	-0.673793
| 22> H  1.797433	-1.347180	-0.633139
| 23> H  0.537390	-1.308383	0.257353
| 24> O  0.051691	-0.788408	1.808654
| 25> H  -0.256343	0.099932	1.484041
| 26> H  -0.774520	-1.267731	1.980460
| 27> **                         ****END OF INPUT****

CARTESIAN COORDINATES (ANGSTROEM)
---------------------------------
  O     -0.199050    0.711236   -1.840163
  H      0.206244   -0.132999   -1.502754
  H     -1.072092    0.434878   -2.160883
  O     -0.672001    1.573688    0.669279
  H     -0.526608    1.329953   -0.283268
  H      0.052843    2.188340    0.861395
  O      0.838456   -1.484920   -0.673793
  H      1.797433   -1.347180   -0.633139
  H      0.537390   -1.308383    0.257353
  O      0.051691   -0.788408    1.808654
  H     -0.256343    0.099932    1.484041
  H     -0.774520   -1.267731    1.980460

 Total Charge           Charge          ....    0
 Multiplicity           Mult            ....    1
 Number of Electrons    NEL             ....   40
 Basis Dimension        Dim             ....  172

ORBITAL ENERGIES
----------------

  NO   OCC          E(Eh)            E(eV)
   0   2.0000     -19.125747      -520.4380
   1   2.0000     -19.124585      -520.4064
   2   2.0000     -19.124395      -520.4012
   3   2.0000     -19.123662      -520.3813
   4   2.0000      -1.023345       -27.8466
   5   2.0000      -1.007201       -27.4073
   6   2.0000      -1.005386       -27.3580
   7   2.0000      -0.989824       -26.9345
   8   2.0000      -0.529709       -14.4141
   9   2.0000      -0.525088       -14.2884
  10   2.0000      -0.521295       -14.1852
  11   2.0000      -0.519928       -14.1480
  12   2.0000      -0.433280       -11.7901
  13   2.0000      -0.404458       -11.0059
  14   2.0000      -0.401146       -10.9157
  15   2.0000      -0.380390       -10.3509
  16   2.0000      -0.322670        -8.7803
  17   2.0000      -0.322250        -8.7689
  18   2.0000      -0.320648        -8.7253
  19   2.0000      -0.316195        -8.6041
  20   0.0000       0.022113         0.6017
  21   0.0000       0.069736         1.8976
  22   0.0000       0.072151         1.9633
  23   0.0000       0.088648         2.4122
  24   0.0000       0.189798         5.1647

MULLIKEN ATOMIC CHARGES
-----------------------
   0 O :   -0.747116
   1 H :    0.370336
   2 H :    0.381664
   3 O :   -0.749901
   4 H :    0.361840
   5 H :    0.380436
   6 O :   -0.747917
   7 H :    0.380857
   8 H :    0.362039
   9 O :   -0.742641
  10 H :    0.368439
  11 H :    0.381965
Sum of atomic charges:   -0.0000000

LOEWDIN ATOMIC CHARGES
----------------------
   0 O :   -0.322907
   1 H :    0.141336
   2 H :    0.181039
   3 O :   -0.324572
   4 H :    0.139228
   5 H :    0.180218
   6 O :   -0.319914
   7 H :    0.180522
   8 H :    0.140069
   9 O :   -0.321007
  10 H :    0.143987
  11 H :    0.182000

  Mayer bond orders larger than 0.1
B(  0-O ,  1-H ) :   0.7828 B(  0-O ,  2-H ) :   0.8603 B(  0-O ,  4-H ) :   0.1461
B(  1-H ,  6-O ) :   0.1356 B(  3-O ,  4-H ) :   0.7806 B(  3-O ,  5-H ) :   0.8612
B(  3-O , 10-H ) :   0.1294 B(  6-O ,  7-H ) :   0.8610 B(  6-O ,  8-H ) :   0.7790
B(  8-H ,  9-O ) :   0.1492 B(  9-O , 10-H ) :   0.7886 B(  9-O , 11-H ) :   0.8600

Dispersion correction           -0.008169907
FINAL SINGLE POINT ENERGY      -305.782243953096

DIPOLE MOMENT
-------------
                                X             Y             Z
Electronic contribution:      0.00448      -0.01773       0.00910
Nuclear contribution   :     -0.06147      -0.02196       0.06264
                        -----------------------------------------
Total Dipole Moment    :     -0.05698      -0.03969       0.07174
                        -----------------------------------------
Magnitude (a.u.)       :      0.09984
Magnitude (Debye)      :      0.25378

                             ****ORCA TERMINATED NORMALLY****
TOTAL RUN TIME: 0 days 0 hours 0 minutes 53 seconds 314 msec
