                         Program Version 3.0.3 - RELEASE   -
|  1> ! wB97X-D3 MA-Def2-TZVP def2-TZVP/J RIJCOSX TightSCF Grid4
|  2>
|  3> %pal nprocs 1 end
|  4>
|  5> %scf
|  6>         maxiter 400
|  7> end
|  8>
|  9> * xyz  0  1
| 10> O  -0.133349	0.831269	-1.892466
| 11> H  0.265026	-0.019382	-1.565621
| 12> H  -0.944759	0.547767	-2.337163
| 13> O  -0.717714	1.453271	0.663083
| 14> H  -0.580494	1.221984	-0.293318
| 15> H  -0.102583	2.185629	0.804098
| 16> O  0.740226	-1.384505	-0.674928
| 17> H  1.687322	-1.576105	-0.677432
| 18> H  0.516139	-1.282790	0.288661
| 19> O  0.126707	-0.797403	1.865767
| 20> H  -0.227525	0.079156	1.554568
| 21> H  -0.645552	-1.250484	2.231934
| 22> **                         ****END OF INPUT****

CARTESIAN COORDINATES (ANGSTROEM)
---------------------------------
  O     -0.133349    0.831269   -1.892466
  H      0.265026   -0.019382   -1.565621
  H     -0.944759    0.547767   -2.337163
  O     -0.717714    1.453271    0.663083
  H     -0.580494    1.221984   -0.293318
  H     -0.102583    2.185629    0.804098
  O      0.740226   -1.384505   -0.674928
  H      1.687322   -1.576105   -0.677432
  H      0.516139   -1.282790    0.288661
  O      0.126707   -0.797403    1.865767
  H     -0.227525    0.079156    1.554568
  H     -0.645552   -1.250484    2.231934

 Total Charge           Charge          ....    0
 Multiplicity           Mult            ....    1
 Number of Electrons    NEL             ....   40
 Basis Dimension        Dim             ....  188

ORBITAL ENERGIES
----------------

  NO   OCC          E(Eh)            E(eV)
   0   2.0000     -19.237778      -523.4866
   1   2.0000     -19.237528      -523.4797
   2   2.0000     -19.236236      -523.4446
   3   2.0000     -19.235669      -523.4292
   4   2.0000      -1.144374       -31.1400
   5   2.0000      -1.127367       -30.6772
   6   2.0000      -1.125881       -30.6368
   7   2.0000      -1.109947       -30.2032
   8   2.0000      -0.646713       -17.5980
   9   2.0000      -0.638169       -17.3655
  10   2.0000      -0.627091       -17.0640
  11   2.0000      -0.626376       -17.0446
  12   2.0000      -0.542520       -14.7627
  13   2.0000      -0.509774       -13.8717
  14   2.0000      -0.500068       -13.6075
  15   2.0000      -0.471420       -12.8280
  16   2.0000      -0.424806       -11.5596
  17   2.0000      -0.422103       -11.4860
  18   2.0000      -0.418307       -11.3827
  19   2.0000      -0.416443       -11.3320
  20   0.0000       0.063857         1.7376
  21   0.0000       0.101528         2.7627
  22   0.0000       0.103585         2.8187
  23   0.0000       0.115482         3.1424
  24   0.0000       0.145142         3.9495

MULLIKEN ATOMIC CHARGES
-----------------------
   0 O :   -0.700060
   1 H :    0.388779
   2 H :    0.347511
   3 O :   -0.742712
   4 H :    0.362386
   5 H :    0.350418
   6 O :   -0.755890
   7 H :    0.346320
   8 H :    0.385254
   9 O :   -0.717007
  10 H :    0.388603
  11 H :    0.346397
Sum of atomic charges:   -0.0000000

LOEWDIN ATOMIC CHARGES
----------------------
   0 O :   -0.372205
   1 H :    0.186439
   2 H :    0.189353
   3 O :   -0.376651
   4 H :    0.183773
   5 H :    0.190920
   6 O :   -0.379703
   7 H :    0.189529
   8 H :    0.186690
   9 O :   -0.374697
  10 H :    0.187708
  11 H :    0.188846

  Mayer bond orders larger than 0.1
B(  0-O ,  1-H ) :   0.8133 B(  0-O ,  2-H ) :   0.8966 B(  0-O ,  4-H ) :   0.1187
B(  3-O ,  4-H ) :   0.7974 B(  3-O ,  5-H ) :   0.8927 B(  6-O ,  7-H ) :   0.8898
B(  6-O ,  8-H ) :   0.7982 B(  9-O , 10-H ) :   0.8104 B(  9-O , 11-H ) :   0.8926

Dispersion correction           -0.003019465
FINAL SINGLE POINT ENERGY      -305.807479041873

DIPOLE MOMENT
-------------
                                X             Y             Z
Electronic contribution:      0.01313       0.04418      -0.01067
Nuclear contribution   :     -0.05341      -0.24928       0.06893
                        -----------------------------------------
Total Dipole Moment    :     -0.04028      -0.20510       0.05826
                        -----------------------------------------
Magnitude (a.u.)       :      0.21699
Magnitude (Debye)      :      0.55155

                             ****ORCA TERMINATED NORMALLY****
TOTAL RUN TIME: 0 days 0 hours 1 minutes 14 seconds 467 msec
