                         Program Version 3.0.3 - RELEASE   -
|  1> ! B3LYP Def2-TZVP def2-TZVP/J RIJCOSX TightSCF Grid4 D3BJ COSMO
|  2>
|  3> %pal nprocs 12 end
|  4>
|  5> %scf
|  6>         maxiter 400
|  7> end
|  8>
|  9> %cosmo
| 10>         SMD true
| 11>         solvent "WATER"
| 12> end
| 13>
| 14> * xyz  0  1
| 15> O  -0.141248	0.697631	-1.730432
| 16> H  0.242814	-0.189673	-1.416835
| 17> H  -1.005119	0.443947	-2.112489
| 18> O  -0.762131	1.584050	0.692328
| 19> H  -0.532969	1.308254	-0.258852
| 20> H  -0.047081	2.212817	0.917375
| 21> O  0.792236	-1.564224	-0.701763
| 22> H  1.763203	-1.445515	-0.726941
| 23> H  0.554182	-1.307118	0.251915
| 24> O  0.096569	-0.710534	1.716314
| 25> H  -0.260506	0.189212	1.406428
| 26> H  -0.716508	-1.210441	1.930137
| 27> **                         ****END OF INPUT****

CARTESIAN COORDINATES (ANGSTROEM)
---------------------------------
  O     -0.141248    0.697631   -1.730432
  H      0.242814   -0.189673   -1.416835
  H     -1.005119    0.443947   -2.112489
  O     -0.762131    1.584050    0.692328
  H     -0.532969    1.308254   -0.258852
  H     -0.047081    2.212817    0.917375
  O      0.792236   -1.564224   -0.701763
  H      1.763203   -1.445515   -0.726941
  H      0.554182   -1.307118    0.251915
  O      0.096569   -0.710534    1.716314
  H     -0.260506    0.189212    1.406428
  H     -0.716508   -1.210441    1.930137

 Total Charge           Charge          ....    0
 Multiplicity           Mult            ....    1
 Number of Electrons    NEL             ....   40
 Basis Dimension        Dim             ....  172

ORBITAL ENERGIES
----------------

  NO   OCC          E(Eh)            E(eV)
   0   2.0000     -19.126147      -520.4489
   1   2.0000     -19.125893      -520.4420
   2   2.0000     -19.125776      -520.4388
   3   2.0000     -19.125725      -520.4374
   4   2.0000      -1.022221       -27.8160
   5   2.0000      -1.002557       -27.2810
   6   2.0000      -1.002285       -27.2736
   7   2.0000      -0.983010       -26.7491
   8   2.0000      -0.526480       -14.3262
   9   2.0000      -0.518263       -14.1026
  10   2.0000      -0.517809       -14.0903
  11   2.0000      -0.517124       -14.0717
  12   2.0000      -0.437214       -11.8972
  13   2.0000      -0.404829       -11.0160
  14   2.0000      -0.403371       -10.9763
  15   2.0000      -0.380234       -10.3467
  16   2.0000      -0.321596        -8.7511
  17   2.0000      -0.321104        -8.7377
  18   2.0000      -0.318644        -8.6708
  19   2.0000      -0.315287        -8.5794
  20   0.0000       0.021633         0.5887
  21   0.0000       0.069555         1.8927
  22   0.0000       0.069867         1.9012
  23   0.0000       0.089567         2.4373
  24   0.0000       0.192395         5.2353

MULLIKEN ATOMIC CHARGES
-----------------------
   0 O :   -0.750197
   1 H :    0.367438
   2 H :    0.383419
   3 O :   -0.750655
   4 H :    0.366637
   5 H :    0.383276
   6 O :   -0.750416
   7 H :    0.383691
   8 H :    0.367497
   9 O :   -0.751008
  10 H :    0.367186
  11 H :    0.383131
Sum of atomic charges:   -0.0000000

LOEWDIN ATOMIC CHARGES
----------------------
   0 O :   -0.330349
   1 H :    0.146342
   2 H :    0.185130
   3 O :   -0.332337
   4 H :    0.145646
   5 H :    0.185072
   6 O :   -0.331220
   7 H :    0.185368
   8 H :    0.146255
   9 O :   -0.331557
  10 H :    0.146593
  11 H :    0.185056

  Mayer bond orders larger than 0.1
B(  0-O ,  1-H ) :   0.7578 B(  0-O ,  2-H ) :   0.8581 B(  0-O ,  4-H ) :   0.1654
B(  1-H ,  6-O ) :   0.1663 B(  3-O ,  4-H ) :   0.7586 B(  3-O ,  5-H ) :   0.8582
B(  3-O , 10-H ) :   0.1650 B(  6-O ,  7-H ) :   0.8580 B(  6-O ,  8-H ) :   0.7594
B(  8-H ,  9-O ) :   0.1640 B(  9-O , 10-H ) :   0.7584 B(  9-O , 11-H ) :   0.8582

Dispersion correction           -0.008363627
FINAL SINGLE POINT ENERGY      -305.784923025205

DIPOLE MOMENT
-------------
                                X             Y             Z
Electronic contribution:     -0.00243      -0.00363      -0.00455
Nuclear contribution   :      0.02261      -0.01029       0.03150
                        -----------------------------------------
Total Dipole Moment    :      0.02018      -0.01392       0.02695
                        -----------------------------------------
Magnitude (a.u.)       :      0.03643
Magnitude (Debye)      :      0.09260

                             ****ORCA TERMINATED NORMALLY****
TOTAL RUN TIME: 0 days 0 hours 0 minutes 53 seconds 982 msec
