                         Program Version 3.0.3 - RELEASE   -
|  1> ! wB97X-D3 Def2-TZVP def2-TZVP/J RIJCOSX TightSCF Grid4
|  2>
|  3> %pal nprocs 12 end
|  4>
|  5> %scf
|  6>         maxiter 400
|  7> end
|  8>
|  9> * xyz  0  1
| 10> O  -0.120773	0.748703	-1.716064
| 11> H  0.271924	-0.144357	-1.428471
| 12> H  -0.916510	0.488866	-2.217033
| 13> O  -0.782403	1.533492	0.719098
| 14> H  -0.593444	1.307127	-0.254226
| 15> H  -0.171956	2.273031	0.897693
| 16> O  0.749904	-1.539640	-0.728407
| 17> H  1.723706	-1.596020	-0.730125
| 18> H  0.528902	-1.328921	0.241607
| 19> O  0.149095	-0.728141	1.714061
| 20> H  -0.207066	0.181709	1.430402
| 21> H  -0.647936	-1.187444	2.038651
| 22> **                         ****END OF INPUT****

CARTESIAN COORDINATES (ANGSTROEM)
---------------------------------
  O     -0.120773    0.748703   -1.716064
  H      0.271924   -0.144357   -1.428471
  H     -0.916510    0.488866   -2.217033
  O     -0.782403    1.533492    0.719098
  H     -0.593444    1.307127   -0.254226
  H     -0.171956    2.273031    0.897693
  O      0.749904   -1.539640   -0.728407
  H      1.723706   -1.596020   -0.730125
  H      0.528902   -1.328921    0.241607
  O      0.149095   -0.728141    1.714061
  H     -0.207066    0.181709    1.430402
  H     -0.647936   -1.187444    2.038651

 Total Charge           Charge          ....    0
 Multiplicity           Mult            ....    1
 Number of Electrons    NEL             ....   40
 Basis Dimension        Dim             ....  172

ORBITAL ENERGIES
----------------

  NO   OCC          E(Eh)            E(eV)
   0   2.0000     -19.234079      -523.3859
   1   2.0000     -19.233920      -523.3816
   2   2.0000     -19.233666      -523.3746
   3   2.0000     -19.233660      -523.3745
   4   2.0000      -1.139680       -31.0123
   5   2.0000      -1.119630       -30.4667
   6   2.0000      -1.119396       -30.4603
   7   2.0000      -1.099803       -29.9272
   8   2.0000      -0.638278       -17.3684
   9   2.0000      -0.625419       -17.0185
  10   2.0000      -0.624911       -17.0047
  11   2.0000      -0.620460       -16.8836
  12   2.0000      -0.543935       -14.8012
  13   2.0000      -0.503744       -13.7076
  14   2.0000      -0.502539       -13.6748
  15   2.0000      -0.469479       -12.7752
  16   2.0000      -0.416835       -11.3427
  17   2.0000      -0.416490       -11.3333
  18   2.0000      -0.416392       -11.3306
  19   2.0000      -0.411237       -11.1903
  20   0.0000       0.094467         2.5706
  21   0.0000       0.136326         3.7096
  22   0.0000       0.136663         3.7188
  23   0.0000       0.154764         4.2113
  24   0.0000       0.267091         7.2679

MULLIKEN ATOMIC CHARGES
-----------------------
   0 O :   -0.704175
   1 H :    0.362953
   2 H :    0.342329
   3 O :   -0.705206
   4 H :    0.361848
   5 H :    0.342902
   6 O :   -0.706330
   7 H :    0.343211
   8 H :    0.361807
   9 O :   -0.704618
  10 H :    0.362912
  11 H :    0.342368
Sum of atomic charges:   -0.0000000

LOEWDIN ATOMIC CHARGES
----------------------
   0 O :   -0.308459
   1 H :    0.145529
   2 H :    0.162997
   3 O :   -0.308299
   4 H :    0.145499
   5 H :    0.163192
   6 O :   -0.308775
   7 H :    0.163214
   8 H :    0.145540
   9 O :   -0.308928
  10 H :    0.145597
  11 H :    0.162893

  Mayer bond orders larger than 0.1
B(  0-O ,  1-H ) :   0.7681 B(  0-O ,  2-H ) :   0.8907 B(  0-O ,  4-H ) :   0.1602
B(  1-H ,  6-O ) :   0.1584 B(  3-O ,  4-H ) :   0.7672 B(  3-O ,  5-H ) :   0.8902
B(  3-O , 10-H ) :   0.1586 B(  6-O ,  7-H ) :   0.8898 B(  6-O ,  8-H ) :   0.7670
B(  8-H ,  9-O ) :   0.1599 B(  9-O , 10-H ) :   0.7675 B(  9-O , 11-H ) :   0.8906

Dispersion correction           -0.003068250
FINAL SINGLE POINT ENERGY      -305.801260861942

DIPOLE MOMENT
-------------
                                X             Y             Z
Electronic contribution:      0.00290       0.00657      -0.00058
Nuclear contribution   :     -0.00335      -0.02900       0.00093
                        -----------------------------------------
Total Dipole Moment    :     -0.00045      -0.02243       0.00035
                        -----------------------------------------
Magnitude (a.u.)       :      0.02243
Magnitude (Debye)      :      0.05702

                             ****ORCA TERMINATED NORMALLY****
TOTAL RUN TIME: 0 days 0 hours 0 minutes 52 seconds 500 msec
