                         Program Version 3.0.3 - RELEASE   -
|  1> ! wB97X-D3 Def2-TZVP def2-TZVP/J RIJCOSX TightSCF Grid4 COSMO
|  2>
|  3> %pal nprocs 12 end
|  4>
|  5> %scf
|  6>         maxiter 400
|  7> end
|  8>
|  9> %cosmo
| 10>         SMD true
| 11>         solvent "WATER"
| 12> end
| 13>
| 14> * xyz  0  1
| 15> O  -0.141248	0.697631	-1.730432
| 16> H  0.242814	-0.189673	-1.416835
| 17> H  -1.005119	0.443947	-2.112489
| 18> O  -0.762131	1.584050	0.692328
| 19> H  -0.532969	1.308254	-0.258852
| 20> H  -0.047081	2.212817	0.917375
| 21> O  0.792236	-1.564224	-0.701763
| 22> H  1.763203	-1.445515	-0.726941
| 23> H  0.554182	-1.307118	0.251915
| 24> O  0.096569	-0.710534	1.716314
| 25> H  -0.260506	0.189212	1.406428
| 26> H  -0.716508	-1.210441	1.930137
| 27> **                         ****END OF INPUT****

CARTESIAN COORDINATES (ANGSTROEM)
---------------------------------
  O     -0.141248    0.697631   -1.730432
  H      0.242814   -0.189673   -1.416835
  H     -1.005119    0.443947   -2.112489
  O     -0.762131    1.584050    0.692328
  H     -0.532969    1.308254   -0.258852
  H     -0.047081    2.212817    0.917375
  O      0.792236   -1.564224   -0.701763
  H      1.763203   -1.445515   -0.726941
  H      0.554182   -1.307118    0.251915
  O      0.096569   -0.710534    1.716314
  H     -0.260506    0.189212    1.406428
  H     -0.716508   -1.210441    1.930137

 Total Charge           Charge          ....    0
 Multiplicity           Mult            ....    1
 Number of Electrons    NEL             ....   40
 Basis Dimension        Dim             ....  172

ORBITAL ENERGIES
----------------

  NO   OCC          E(Eh)            E(eV)
   0   2.0000     -19.234011      -523.3840
   1   2.0000     -19.233790      -523.3780
   2   2.0000     -19.233639      -523.3739
   3   2.0000     -19.233625      -523.3736
   4   2.0000      -1.138710       -30.9859
   5   2.0000      -1.118477       -30.4353
   6   2.0000      -1.118208       -30.4280
   7   2.0000      -1.098471       -29.8909
   8   2.0000      -0.630357       -17.1529
   9   2.0000      -0.621389       -16.9089
  10   2.0000      -0.621355       -16.9079
  11   2.0000      -0.620423       -16.8826
  12   2.0000      -0.540936       -14.7196
  13   2.0000      -0.507120       -13.7994
  14   2.0000      -0.505596       -13.7580
  15   2.0000      -0.482244       -13.1225
  16   2.0000      -0.420673       -11.4471
  17   2.0000      -0.420224       -11.4349
  18   2.0000      -0.416807       -11.3419
  19   2.0000      -0.414362       -11.2754
  20   0.0000       0.108527         2.9532
  21   0.0000       0.160085         4.3561
  22   0.0000       0.160410         4.3650
  23   0.0000       0.180039         4.8991
  24   0.0000       0.279270         7.5993

MULLIKEN ATOMIC CHARGES
-----------------------
   0 O :   -0.771483
   1 H :    0.372529
   2 H :    0.399856
   3 O :   -0.771339
   4 H :    0.370751
   5 H :    0.399602
   6 O :   -0.771589
   7 H :    0.400001
   8 H :    0.372318
   9 O :   -0.772375
  10 H :    0.372173
  11 H :    0.399554
Sum of atomic charges:   -0.0000000

LOEWDIN ATOMIC CHARGES
----------------------
   0 O :   -0.333292
   1 H :    0.147206
   2 H :    0.187285
   3 O :   -0.335277
   4 H :    0.146367
   5 H :    0.187199
   6 O :   -0.334193
   7 H :    0.187492
   8 H :    0.147052
   9 O :   -0.334504
  10 H :    0.147440
  11 H :    0.187224

  Mayer bond orders larger than 0.1
B(  0-O ,  1-H ) :   0.7625 B(  0-O ,  2-H ) :   0.8479 B(  0-O ,  4-H ) :   0.1544
B(  1-H ,  6-O ) :   0.1548 B(  3-O ,  4-H ) :   0.7639 B(  3-O ,  5-H ) :   0.8481
B(  3-O , 10-H ) :   0.1536 B(  6-O ,  7-H ) :   0.8478 B(  6-O ,  8-H ) :   0.7643
B(  8-H ,  9-O ) :   0.1525 B(  9-O , 10-H ) :   0.7632 B(  9-O , 11-H ) :   0.8480

Dispersion correction           -0.003132312
FINAL SINGLE POINT ENERGY      -305.825279089978

DIPOLE MOMENT
-------------
                                X             Y             Z
Electronic contribution:     -0.00229      -0.00402      -0.00411
Nuclear contribution   :      0.02261      -0.01029       0.03150
                        -----------------------------------------
Total Dipole Moment    :      0.02032      -0.01431       0.02739
                        -----------------------------------------
Magnitude (a.u.)       :      0.03698
Magnitude (Debye)      :      0.09400

                             ****ORCA TERMINATED NORMALLY****
TOTAL RUN TIME: 0 days 0 hours 0 minutes 53 seconds 414 msec
