                         Program Version 4.2.0 -  RELEASE  -
|  1> # 12h2o.su.etal.mol2,3,7
|  2> ! MP2 def2-TZVP EnGrad TightSCF
|  3>
|  4> %pal
|  5>     nprocs 6
|  6> end
|  7>
|  8> %maxcore 8000
|  9>
| 10> %scf
| 11>     ConvForced true
| 12> end
| 13>
| 14> *xyz 0 1
| 15> O   0.923410000  -1.794470000  -2.768350000
| 16> H   1.359750000  -2.338250000  -3.430940000
| 17> H   1.303000000  -0.879480000  -2.865760000
| 18> O  -1.752130000  -0.741530000  -2.896280000
| 19> H  -2.036450000  -0.920500000  -1.984040000
| 20> H  -0.921210000  -1.242140000  -2.984230000
| 21> O  -1.737840000  -0.885520000  -0.052730000
| 22> H  -2.090180000  -1.032320000   0.841890000
| 23> H  -0.839590000  -1.284090000  -0.017130000
| 24> *
| 25>
| 26>                          ****END OF INPUT****

CARTESIAN COORDINATES (ANGSTROEM)
---------------------------------
  O      0.923410   -1.794470   -2.768350
  H      1.359750   -2.338250   -3.430940
  H      1.303000   -0.879480   -2.865760
  O     -1.752130   -0.741530   -2.896280
  H     -2.036450   -0.920500   -1.984040
  H     -0.921210   -1.242140   -2.984230
  O     -1.737840   -0.885520   -0.052730
  H     -2.090180   -1.032320    0.841890
  H     -0.839590   -1.284090   -0.017130

 Total Charge           Charge          ....    0
 Multiplicity           Mult            ....    1
 Number of Electrons    NEL             ....   30
 Basis Dimension        Dim             ....  129

ORBITAL ENERGIES
----------------

  NO   OCC          E(Eh)            E(eV)
   0   2.0000     -20.590133      -560.2860
   1   2.0000     -20.577361      -559.9385
   2   2.0000     -20.500668      -557.8515
   3   2.0000      -1.367765       -37.2188
   4   2.0000      -1.355666       -36.8895
   5   2.0000      -1.286056       -34.9954
   6   2.0000      -0.734865       -19.9967
   7   2.0000      -0.717888       -19.5347
   8   2.0000      -0.664751       -18.0888
   9   2.0000      -0.609878       -16.5956
  10   2.0000      -0.591201       -16.0874
  11   2.0000      -0.541498       -14.7349
  12   2.0000      -0.523200       -14.2370
  13   2.0000      -0.509042       -13.8518
  14   2.0000      -0.450576       -12.2608
  15   0.0000       0.105701         2.8763
  16   0.0000       0.131583         3.5806
  17   0.0000       0.183823         5.0021
  18   0.0000       0.203663         5.5419
  19   0.0000       0.250638         6.8202

MULLIKEN ATOMIC CHARGES
-----------------------
   0 O :   -0.697664
   1 H :    0.354107
   2 H :    0.361589
   3 O :   -0.724720
   4 H :    0.363985
   5 H :    0.338840
   6 O :   -0.689510
   7 H :    0.344022
   8 H :    0.349352
Sum of atomic charges:    0.0000000

LOEWDIN ATOMIC CHARGES
----------------------
   0 O :   -0.312802
   1 H :    0.164083
   2 H :    0.188529
   3 O :   -0.355340
   4 H :    0.149578
   5 H :    0.139420
   6 O :   -0.317646
   7 H :    0.168215
   8 H :    0.175963

  Mayer bond orders larger than 0.100000
B(  0-O ,  1-H ) :   0.8409 B(  0-O ,  2-H ) :   0.8299 B(  3-O ,  4-H ) :   0.8283
B(  3-O ,  5-H ) :   0.8341 B(  6-O ,  7-H ) :   0.8454 B(  6-O ,  8-H ) :   0.8390

MP2 TOTAL ENERGY:     -228.951323356 Eh
FINAL SINGLE POINT ENERGY      -228.951323356342

DIPOLE MOMENT
-------------
                                X             Y             Z
Electronic contribution:     -0.09554       0.06192      -0.00533
Nuclear contribution   :      1.58851      -0.71062       0.82779
                        -----------------------------------------
Total Dipole Moment    :      1.49297      -0.64870       0.82246
                        -----------------------------------------
Magnitude (a.u.)       :      1.82379
Magnitude (Debye)      :      4.63571

Rotational constants in cm-1:     0.316196     0.115003     0.085383
Rotational constants in MHz :  9479.323415  3447.696429  2559.708548

                             ****ORCA TERMINATED NORMALLY****
TOTAL RUN TIME: 0 days 0 hours 0 minutes 26 seconds 751 msec
