                         Program Version 4.2.0 -  RELEASE  -
|  1> # 12h2o.su.etal.mol0,2,3,7,11
|  2> ! MP2 def2-TZVP EnGrad TightSCF
|  3>
|  4> %pal
|  5>     nprocs 6
|  6> end
|  7>
|  8> %maxcore 8000
|  9>
| 10> %scf
| 11>     ConvForced true
| 12> end
| 13>
| 14> *xyz 0 1
| 15> O   1.794470000   0.923410000   2.768350000
| 16> H   2.338250000   1.359750000   3.430940000
| 17> H   0.879480000   1.303000000   2.865760000
| 18> O   0.923410000  -1.794470000  -2.768350000
| 19> H   1.359750000  -2.338250000  -3.430940000
| 20> H   1.303000000  -0.879480000  -2.865760000
| 21> O  -1.752130000  -0.741530000  -2.896280000
| 22> H  -2.036450000  -0.920500000  -1.984040000
| 23> H  -0.921210000  -1.242140000  -2.984230000
| 24> O  -1.737840000  -0.885520000  -0.052730000
| 25> H  -2.090180000  -1.032320000   0.841890000
| 26> H  -0.839590000  -1.284090000  -0.017130000
| 27> O  -0.741530000   1.752130000   2.896280000
| 28> H  -0.920500000   2.036450000   1.984040000
| 29> H  -1.242140000   0.921210000   2.984230000
| 30> *
| 31>
| 32>                          ****END OF INPUT****

CARTESIAN COORDINATES (ANGSTROEM)
---------------------------------
  O      1.794470    0.923410    2.768350
  H      2.338250    1.359750    3.430940
  H      0.879480    1.303000    2.865760
  O      0.923410   -1.794470   -2.768350
  H      1.359750   -2.338250   -3.430940
  H      1.303000   -0.879480   -2.865760
  O     -1.752130   -0.741530   -2.896280
  H     -2.036450   -0.920500   -1.984040
  H     -0.921210   -1.242140   -2.984230
  O     -1.737840   -0.885520   -0.052730
  H     -2.090180   -1.032320    0.841890
  H     -0.839590   -1.284090   -0.017130
  O     -0.741530    1.752130    2.896280
  H     -0.920500    2.036450    1.984040
  H     -1.242140    0.921210    2.984230

 Total Charge           Charge          ....    0
 Multiplicity           Mult            ....    1
 Number of Electrons    NEL             ....   50
 Basis Dimension        Dim             ....  215

ORBITAL ENERGIES
----------------

  NO   OCC          E(Eh)            E(eV)
   0   2.0000     -20.602810      -560.6310
   1   2.0000     -20.588854      -560.2512
   2   2.0000     -20.588608      -560.2445
   3   2.0000     -20.522921      -558.4571
   4   2.0000     -20.504610      -557.9588
   5   2.0000      -1.388017       -37.7699
   6   2.0000      -1.367251       -37.2048
   7   2.0000      -1.365963       -37.1698
   8   2.0000      -1.305345       -35.5202
   9   2.0000      -1.289995       -35.1026
  10   2.0000      -0.745577       -20.2882
  11   2.0000      -0.733410       -19.9571
  12   2.0000      -0.728989       -19.8368
  13   2.0000      -0.696469       -18.9519
  14   2.0000      -0.669070       -18.2063
  15   2.0000      -0.622868       -16.9491
  16   2.0000      -0.613480       -16.6937
  17   2.0000      -0.596376       -16.2282
  18   2.0000      -0.563316       -15.3286
  19   2.0000      -0.544110       -14.8060
  20   2.0000      -0.531226       -14.4554
  21   2.0000      -0.519734       -14.1427
  22   2.0000      -0.512652       -13.9500
  23   2.0000      -0.473337       -12.8801
  24   2.0000      -0.454515       -12.3680
  25   0.0000       0.081744         2.2244
  26   0.0000       0.113230         3.0811
  27   0.0000       0.149615         4.0712
  28   0.0000       0.169552         4.6137
  29   0.0000       0.176058         4.7908

MULLIKEN ATOMIC CHARGES
-----------------------
   0 O :   -0.733555
   1 H :    0.327076
   2 H :    0.363468
   3 O :   -0.697996
   4 H :    0.354301
   5 H :    0.362876
   6 O :   -0.724350
   7 H :    0.362149
   8 H :    0.340847
   9 O :   -0.692239
  10 H :    0.335389
  11 H :    0.361208
  12 O :   -0.674314
  13 H :    0.365709
  14 H :    0.349432
Sum of atomic charges:   -0.0000000

LOEWDIN ATOMIC CHARGES
----------------------
   0 O :   -0.373151
   1 H :    0.149364
   2 H :    0.141138
   3 O :   -0.312654
   4 H :    0.164258
   5 H :    0.189210
   6 O :   -0.355084
   7 H :    0.148772
   8 H :    0.140252
   9 O :   -0.316865
  10 H :    0.162937
  11 H :    0.181127
  12 O :   -0.268406
  13 H :    0.177485
  14 H :    0.171616

  Mayer bond orders larger than 0.100000
B(  0-O ,  1-H ) :   0.8598 B(  0-O ,  2-H ) :   0.7896 B(  3-O ,  4-H ) :   0.8408
B(  3-O ,  5-H ) :   0.8291 B(  6-O ,  7-H ) :   0.8310 B(  6-O ,  8-H ) :   0.8317
B(  9-O , 10-H ) :   0.8492 B(  9-O , 11-H ) :   0.8311 B( 12-O , 13-H ) :   0.8318
B( 12-O , 14-H ) :   0.8413

MP2 TOTAL ENERGY:     -381.585523539 Eh
FINAL SINGLE POINT ENERGY      -381.585523538508

DIPOLE MOMENT
-------------
                                X             Y             Z
Electronic contribution:     -0.22899       0.10481      -0.04342
Nuclear contribution   :      0.71387      -0.48644       0.77428
                        -----------------------------------------
Total Dipole Moment    :      0.48489      -0.38163       0.73086
                        -----------------------------------------
Magnitude (a.u.)       :      0.95651
Magnitude (Debye)      :      2.43125

Rotational constants in cm-1:     0.086069     0.022560     0.018790
Rotational constants in MHz :  2580.291513   676.321209   563.308473

                             ****ORCA TERMINATED NORMALLY****
TOTAL RUN TIME: 0 days 0 hours 0 minutes 29 seconds 510 msec
