                         Program Version 3.0.3 - RELEASE   -
|  1> ! B3LYP Def2-SVP def2-SVP/J RIJCOSX TightSCF Grid4 D3BJ OPT
|  2>
|  3> %pal nprocs 12 end
|  4>
|  5> %scf
|  6>         maxiter 400
|  7> end
|  8>
|  9> * xyz  0  1
| 10>   O      1.194445   -1.406486    0.303896
| 11>   H      0.931018   -2.327616    0.171773
| 12>   H      0.488454   -1.031778    0.898411
| 13>   O     -1.172892    1.452911   -0.258761
| 14>   H     -2.011800    1.211212   -0.676343
| 15>   H     -0.490434    1.094336   -0.887836
| 16>   O      0.603354    0.158110   -1.778081
| 17>   H      1.405873    0.633756   -2.030001
| 18>   H      0.901958   -0.479410   -1.074077
| 19>   O     -0.665768   -0.176304    1.792417
| 20>   H     -0.928446    0.487864    1.097490
| 21>   H     -0.214226    0.354463    2.463196
| 22> **                         ****END OF INPUT****
 Total Charge           Charge          ....    0
 Multiplicity           Mult            ....    1
 Number of Electrons    NEL             ....   40
Dispersion correction           -0.008078101
FINAL SINGLE POINT ENERGY      -305.364914233027
Dispersion correction            ...
                    ***********************HURRAY********************

CARTESIAN COORDINATES (ANGSTROEM)
---------------------------------
  O      1.193840   -1.405299    0.303535
  H      0.931398   -2.326670    0.171088
  H      0.487996   -1.031228    0.898777
  O     -1.172771    1.453159   -0.259000
  H     -2.011338    1.211346   -0.677342
  H     -0.490458    1.093952   -0.887884
  O      0.603253    0.157796   -1.778521
  H      1.406183    0.632912   -2.030125
  H      0.901719   -0.479489   -1.074138
  O     -0.665675   -0.176646    1.793117
  H     -0.928522    0.487544    1.098441
  H     -0.214087    0.353681    2.464138

 Multiplicity           Mult            ....    1
 Number of Electrons    NEL             ....   40
 Basis Dimension        Dim             ....   96

ORBITAL ENERGIES
----------------

  NO   OCC          E(Eh)            E(eV)
   0   2.0000     -19.120184      -520.2867
   1   2.0000     -19.119803      -520.2763
   2   2.0000     -19.119589      -520.2705
   3   2.0000     -19.118797      -520.2489
   4   2.0000      -0.995162       -27.0797
   5   2.0000      -0.977416       -26.5968
   6   2.0000      -0.976633       -26.5755
   7   2.0000      -0.959284       -26.1034
   8   2.0000      -0.523927       -14.2568
   9   2.0000      -0.512329       -13.9412
  10   2.0000      -0.510776       -13.8989
  11   2.0000      -0.505611       -13.7584
  12   2.0000      -0.415302       -11.3009
  13   2.0000      -0.379875       -10.3369
  14   2.0000      -0.378970       -10.3123
  15   2.0000      -0.346187        -9.4202
  16   2.0000      -0.301757        -8.2112
  17   2.0000      -0.299209        -8.1419
  18   2.0000      -0.298214        -8.1148
  19   2.0000      -0.293962        -7.9991
  20   0.0000       0.040096         1.0911
  21   0.0000       0.077459         2.1078
  22   0.0000       0.077812         2.1174
  23   0.0000       0.097637         2.6568
  24   0.0000       0.214718         5.8428

MULLIKEN ATOMIC CHARGES
-----------------------
   0 O :   -0.313374
   1 H :    0.166341
   2 H :    0.144087
   3 O :   -0.310183
   4 H :    0.165951
   5 H :    0.147860
   6 O :   -0.315674
   7 H :    0.165917
   8 H :    0.145924
   9 O :   -0.310969
  10 H :    0.148604
  11 H :    0.165517
Sum of atomic charges:   -0.0000000

LOEWDIN ATOMIC CHARGES
----------------------
   0 O :   -0.115179
   1 H :    0.079202
   2 H :    0.035780
   3 O :   -0.112557
   4 H :    0.080211
   5 H :    0.036169
   6 O :   -0.116724
   7 H :    0.078701
   8 H :    0.034966
   9 O :   -0.115081
  10 H :    0.035344
  11 H :    0.079168

  Mayer bond orders larger than 0.1
B(  0-O ,  1-H ) :   0.9923 B(  0-O ,  2-H ) :   0.8769 B(  0-O ,  8-H ) :   0.2212
B(  2-H ,  9-O ) :   0.2249 B(  3-O ,  4-H ) :   0.9927 B(  3-O ,  5-H ) :   0.8826
B(  3-O , 10-H ) :   0.2205 B(  5-H ,  6-O ) :   0.2173 B(  6-O ,  7-H ) :   0.9923
B(  6-O ,  8-H ) :   0.8785 B(  9-O , 10-H ) :   0.8789 B(  9-O , 11-H ) :   0.9929

Dispersion correction           -0.008078275
FINAL SINGLE POINT ENERGY      -305.364915916997

DIPOLE MOMENT
-------------
                                X             Y             Z
Electronic contribution:     -0.03091       0.02257       0.03062
Nuclear contribution   :      0.13784      -0.09653      -0.12927
                        -----------------------------------------
Total Dipole Moment    :      0.10692      -0.07396      -0.09865
                        -----------------------------------------
Magnitude (a.u.)       :      0.16320
Magnitude (Debye)      :      0.41482

                             ****ORCA TERMINATED NORMALLY****
TOTAL RUN TIME: 0 days 0 hours 1 minutes 38 seconds 523 msec
