                         Program Version 3.0.3 - RELEASE   -
|  1> ! B3LYP Def2-SVP def2-SVP/J RIJCOSX TightSCF Grid4 D3BJ COSMO OPT
|  2>
|  3> %pal nprocs 12 end
|  4>
|  5> %scf
|  6>         maxiter 800
|  7> end
|  8>
|  9> %cosmo
| 10>         SMD true
| 11>         solvent "WATER"
| 12> end
| 13>
| 14> * xyz  0  1
| 15>   O      0.535942   -1.796953    0.036612
| 16>   H      1.373627   -2.050811    0.456631
| 17>   H      0.140578   -1.170621    0.700262
| 18>   O     -1.269781    1.441820   -0.320341
| 19>   H     -2.064505    1.024550   -0.691342
| 20>   H     -0.542512    1.069422   -0.889152
| 21>   O      0.733669    0.278240   -1.680397
| 22>   H      1.535794    0.771938   -1.447761
| 23>   H      0.776596   -0.545789   -1.120328
| 24>   O     -0.538957   -0.038043    1.789774
| 25>   H     -0.899772    0.569695    1.088732
| 26>   H      0.260858    0.417609    2.099394
| 27> **                         ****END OF INPUT****
 Total Charge           Charge          ....    0
 Multiplicity           Mult            ....    1
 Number of Electrons    NEL             ....   40
Dispersion correction           -0.008393638
FINAL SINGLE POINT ENERGY      -305.386467692129
Dispersion correction            ...
Dispersion correction           -0.008391086
FINAL SINGLE POINT ENERGY      -305.386523947316
Dispersion correction            ...
Dispersion correction           -0.008374903
FINAL SINGLE POINT ENERGY      -305.386574456703
Dispersion correction            ...
FINAL SINGLE POINT ENERGY      -305.386598837674
FINAL SINGLE POINT ENERGY      -305.386737968084
FINAL SINGLE POINT ENERGY      -305.386733294705
FINAL SINGLE POINT ENERGY      -305.386805200656
FINAL SINGLE POINT ENERGY      -305.386854548874
FINAL SINGLE POINT ENERGY      -305.392698269456
FINAL SINGLE POINT ENERGY      -305.386919365125
FINAL SINGLE POINT ENERGY      -305.387146783377
FINAL SINGLE POINT ENERGY      -305.387150389987
FINAL SINGLE POINT ENERGY      -305.387148285684
FINAL SINGLE POINT ENERGY      -305.387150998380
FINAL SINGLE POINT ENERGY      -305.387144678950
FINAL SINGLE POINT ENERGY      -305.387134915008
FINAL SINGLE POINT ENERGY      -305.387131308380
Dispersion correction            ...
Dispersion correction           -0.008305384
FINAL SINGLE POINT ENERGY      -305.387132274819
Dispersion correction            ...
Dispersion correction           -0.008308865
FINAL SINGLE POINT ENERGY      -305.387137928139
Dispersion correction            ...
                    ***********************HURRAY********************

CARTESIAN COORDINATES (ANGSTROEM)
---------------------------------
  O      0.622517   -1.808000    0.079574
  H      1.532563   -1.885193    0.408205
  H      0.168042   -1.257531    0.772180
  O     -1.197437    1.518376   -0.297079
  H     -2.027428    1.180900   -0.671827
  H     -0.505499    1.113438   -0.888291
  O      0.657673    0.212541   -1.712580
  H      1.503544    0.664754   -1.567361
  H      0.707499   -0.586110   -1.121583
  O     -0.616341   -0.097500    1.761577
  H     -0.900244    0.534390    1.046199
  H      0.096650    0.380991    2.213069

 Multiplicity           Mult            ....    1
 Number of Electrons    NEL             ....   40
 Basis Dimension        Dim             ....   96

ORBITAL ENERGIES
----------------

  NO   OCC          E(Eh)            E(eV)
   0   2.0000     -19.123867      -520.3869
   1   2.0000     -19.123418      -520.3747
   2   2.0000     -19.122285      -520.3438
   3   2.0000     -19.122088      -520.3385
   4   2.0000      -0.997011       -27.1301
   5   2.0000      -0.978506       -26.6265
   6   2.0000      -0.978340       -26.6220
   7   2.0000      -0.960425       -26.1345
   8   2.0000      -0.519314       -14.1313
   9   2.0000      -0.510263       -13.8850
  10   2.0000      -0.509131       -13.8542
  11   2.0000      -0.505617       -13.7585
  12   2.0000      -0.413072       -11.2403
  13   2.0000      -0.388114       -10.5611
  14   2.0000      -0.384011       -10.4495
  15   2.0000      -0.366970        -9.9858
  16   2.0000      -0.307183        -8.3589
  17   2.0000      -0.305862        -8.3229
  18   2.0000      -0.304487        -8.2855
  19   2.0000      -0.297128        -8.0853
  20   0.0000       0.048592         1.3223
  21   0.0000       0.095521         2.5993
  22   0.0000       0.101298         2.7565
  23   0.0000       0.124320         3.3829
  24   0.0000       0.213475         5.8090

MULLIKEN ATOMIC CHARGES
-----------------------
   0 O :   -0.355778
   1 H :    0.205486
   2 H :    0.150586
   3 O :   -0.355402
   4 H :    0.206963
   5 H :    0.151527
   6 O :   -0.353444
   7 H :    0.206451
   8 H :    0.148848
   9 O :   -0.357695
  10 H :    0.149057
  11 H :    0.203403
Sum of atomic charges:   -0.0000000

LOEWDIN ATOMIC CHARGES
----------------------
   0 O :   -0.140672
   1 H :    0.102318
   2 H :    0.037431
   3 O :   -0.140036
   4 H :    0.104083
   5 H :    0.035640
   6 O :   -0.133690
   7 H :    0.102928
   8 H :    0.037447
   9 O :   -0.142091
  10 H :    0.035494
  11 H :    0.101147

  Mayer bond orders larger than 0.1
B(  0-O ,  1-H ) :   0.9741 B(  0-O ,  2-H ) :   0.8828 B(  0-O ,  8-H ) :   0.2194
B(  2-H ,  9-O ) :   0.2172 B(  3-O ,  4-H ) :   0.9745 B(  3-O ,  5-H ) :   0.8791
B(  3-O , 10-H ) :   0.2262 B(  5-H ,  6-O ) :   0.2213 B(  6-O ,  7-H ) :   0.9738
B(  6-O ,  8-H ) :   0.8822 B(  9-O , 10-H ) :   0.8779 B(  9-O , 11-H ) :   0.9756

Dispersion correction           -0.008310142
FINAL SINGLE POINT ENERGY      -305.387143726808

DIPOLE MOMENT
-------------
                                X             Y             Z
Electronic contribution:     -0.07775      -0.02011      -0.04780
Nuclear contribution   :      1.36699       0.41186       0.43916
                        -----------------------------------------
Total Dipole Moment    :      1.28924       0.39174       0.39136
                        -----------------------------------------
Magnitude (a.u.)       :      1.40313
Magnitude (Debye)      :      3.56647

                             ****ORCA TERMINATED NORMALLY****
TOTAL RUN TIME: 0 days 0 hours 33 minutes 1 seconds 879 msec
