                         Program Version 3.0.3 - RELEASE   -
|  1> ! BP86 Def2-SVP TightSCF Opt D3BJ COSMO
|  2>
|  3> %pal nprocs 12 end
|  4>
|  5> %scf
|  6>         maxiter 800
|  7> end
|  8>
|  9> %cosmo
| 10> 	SMD true
| 11>         solvent "WATER"
| 12> end
| 13>
| 14> * xyz  0  1
| 15>   O      1.134494   -1.580086    0.161334
| 16>   H      1.507211   -2.296362    0.675399
| 17>   H      0.500713   -1.167853    0.748375
| 18>   O     -1.189894    1.590910   -0.175744
| 19>   H     -1.980325    1.674465   -0.709101
| 20>   H     -0.531952    1.238881   -0.775260
| 21>   O      0.612653    0.297327   -1.768991
| 22>   H      1.294017    0.266195   -2.440559
| 23>   H      0.841158   -0.407027   -1.162441
| 24>   O     -0.633317   -0.255150    1.742956
| 25>   H     -0.901708    0.429983    1.130754
| 26>   H     -0.611514    0.179774    2.595363
| 27> **                         ****END OF INPUT****
 Total Charge           Charge          ....    0
 Multiplicity           Mult            ....    1
 Number of Electrons    NEL             ....   40
 Basis Dimension        Dim             ....   96

ORBITAL ENERGIES
----------------

  NO   OCC          E(Eh)            E(eV)
   0   2.0000     -18.765324      -510.6304
   1   2.0000     -18.763469      -510.5799
   2   2.0000     -18.760812      -510.5077
   3   2.0000     -18.757452      -510.4162
   4   2.0000      -0.913026       -24.8447
   5   2.0000      -0.899462       -24.4756
   6   2.0000      -0.898797       -24.4575
   7   2.0000      -0.885757       -24.1027
   8   2.0000      -0.488847       -13.3022
   9   2.0000      -0.469713       -12.7815
  10   2.0000      -0.466837       -12.7033
  11   2.0000      -0.446953       -12.1622
  12   2.0000      -0.366702        -9.9785
  13   2.0000      -0.331234        -9.0133
  14   2.0000      -0.327744        -8.9184
  15   2.0000      -0.296711        -8.0739
  16   2.0000      -0.255882        -6.9629
  17   2.0000      -0.251911        -6.8549
  18   2.0000      -0.248762        -6.7692
  19   2.0000      -0.240325        -6.5396
  20   0.0000       0.037441         1.0188
  21   0.0000       0.078919         2.1475
  22   0.0000       0.079310         2.1581
  23   0.0000       0.103591         2.8188
  24   0.0000       0.188636         5.1331

MULLIKEN ATOMIC CHARGES
-----------------------
   0 O :   -0.328543
   1 H :    0.192327
   2 H :    0.120728
   3 O :   -0.316641
   4 H :    0.199418
   5 H :    0.130985
   6 O :   -0.320011
   7 H :    0.197800
   8 H :    0.124604
   9 O :   -0.322026
  10 H :    0.124572
  11 H :    0.196788
Sum of atomic charges:   -0.0000000

LOEWDIN ATOMIC CHARGES
----------------------
   0 O :   -0.138564
   1 H :    0.096624
   2 H :    0.020208
   3 O :   -0.110874
   4 H :    0.097971
   5 H :    0.027033
   6 O :   -0.123310
   7 H :    0.099253
   8 H :    0.032390
   9 O :   -0.117378
  10 H :    0.019869
  11 H :    0.096780

  Mayer bond orders larger than 0.1
B(  0-O ,  1-H ) :   0.9732 B(  0-O ,  2-H ) :   0.9182 B(  0-O ,  8-H ) :   0.1633
B(  2-H ,  9-O ) :   0.1890 B(  3-O ,  4-H ) :   0.9787 B(  3-O ,  5-H ) :   0.9271
B(  3-O , 10-H ) :   0.1968 B(  5-H ,  6-O ) :   0.1724 B(  6-O ,  7-H ) :   0.9733
B(  6-O ,  8-H ) :   0.9304 B(  9-O , 10-H ) :   0.9158 B(  9-O , 11-H ) :   0.9770

Dispersion correction           -0.006732153
FINAL SINGLE POINT ENERGY      -305.525549154872
Dispersion correction            ...
Dispersion correction           -0.006625818
FINAL SINGLE POINT ENERGY      -305.531435922708
Dispersion correction            ...
Dispersion correction           -0.006722897
FINAL SINGLE POINT ENERGY      -305.532249137638
Dispersion correction            ...
FINAL SINGLE POINT ENERGY      -305.533065935059
FINAL SINGLE POINT ENERGY      -305.533433976373
FINAL SINGLE POINT ENERGY      -305.534008745745
FINAL SINGLE POINT ENERGY      -305.534826180480
FINAL SINGLE POINT ENERGY      -305.535502360102
FINAL SINGLE POINT ENERGY      -305.535946822181
FINAL SINGLE POINT ENERGY      -305.536185286117
FINAL SINGLE POINT ENERGY      -305.546149971459
FINAL SINGLE POINT ENERGY      -305.551912837308
FINAL SINGLE POINT ENERGY      -305.546245710249
FINAL SINGLE POINT ENERGY      -305.546256374663
FINAL SINGLE POINT ENERGY      -305.546280024873
FINAL SINGLE POINT ENERGY      -305.546302036529
FINAL SINGLE POINT ENERGY      -305.546309980151
Dispersion correction           -0.007359020
FINAL SINGLE POINT ENERGY      -305.546314701065
Dispersion correction            ...
Dispersion correction           -0.007362387
FINAL SINGLE POINT ENERGY      -305.546326058550
Dispersion correction            ...

CARTESIAN COORDINATES (ANGSTROEM)
---------------------------------
  O      1.247365   -1.368293    0.352914
  H      0.919104   -2.260412    0.121800
  H      0.488571   -0.983911    0.909244
  O     -1.110492    1.494166   -0.263267
  H     -1.980432    1.261024   -0.645265
  H     -0.460478    1.012623   -0.879814
  O      0.556468    0.076304   -1.764708
  H      1.321189    0.659021   -1.945257
  H      0.891907   -0.505808   -1.001169
  O     -0.703968   -0.207492    1.735398
  H     -0.927803    0.474035    1.015097
  H     -0.199894    0.319801    2.387112

Dispersion correction           -0.007366883
FINAL SINGLE POINT ENERGY      -305.546334658127
Dispersion correction            ...

DIPOLE MOMENT
-------------
                                X             Y             Z
Electronic contribution:     -0.00228       0.00284       0.00446
Nuclear contribution   :      0.06059      -0.02151      -0.12311
                        -----------------------------------------
Total Dipole Moment    :      0.05830      -0.01867      -0.11865
                        -----------------------------------------
Magnitude (a.u.)       :      0.13351
Magnitude (Debye)      :      0.33937

                             ****ORCA TERMINATED NORMALLY****
TOTAL RUN TIME: 0 days 0 hours 41 minutes 45 seconds 580 msec
