                         Program Version 3.0.3 - RELEASE   -
|  1> ! B3LYP Def2-SVP def2-SVP/J RIJCOSX TightSCF Grid4 D3BJ OPT
|  2>
|  3> %pal nprocs 12 end
|  4>
|  5> %scf
|  6>         maxiter 400
|  7> end
|  8>
|  9> * xyz  0  1
| 10>   O      1.134494   -1.580086    0.161334
| 11>   H      1.507211   -2.296362    0.675399
| 12>   H      0.500713   -1.167853    0.748375
| 13>   O     -1.189894    1.590910   -0.175744
| 14>   H     -1.980325    1.674465   -0.709101
| 15>   H     -0.531952    1.238881   -0.775260
| 16>   O      0.612653    0.297327   -1.768991
| 17>   H      1.294017    0.266195   -2.440559
| 18>   H      0.841158   -0.407027   -1.162441
| 19>   O     -0.633317   -0.255150    1.742956
| 20>   H     -0.901708    0.429983    1.130754
| 21>   H     -0.611514    0.179774    2.595363
| 22> **                         ****END OF INPUT****
 Total Charge           Charge          ....    0
 Multiplicity           Mult            ....    1
 Number of Electrons    NEL             ....   40
 Basis Dimension        Dim             ....   96

ORBITAL ENERGIES
----------------

  NO   OCC          E(Eh)            E(eV)
   0   2.0000     -19.115036      -520.1466
   1   2.0000     -19.113111      -520.0942
   2   2.0000     -19.111162      -520.0412
   3   2.0000     -19.104888      -519.8704
   4   2.0000      -0.992568       -27.0091
   5   2.0000      -0.978758       -26.6334
   6   2.0000      -0.977194       -26.5908
   7   2.0000      -0.963773       -26.2256
   8   2.0000      -0.537633       -14.6297
   9   2.0000      -0.517358       -14.0780
  10   2.0000      -0.515144       -14.0178
  11   2.0000      -0.493011       -13.4155
  12   2.0000      -0.411786       -11.2053
  13   2.0000      -0.374113       -10.1801
  14   2.0000      -0.369885       -10.0651
  15   2.0000      -0.337171        -9.1749
  16   2.0000      -0.299107        -8.1391
  17   2.0000      -0.294950        -8.0260
  18   2.0000      -0.292554        -7.9608
  19   2.0000      -0.282410        -7.6848
  20   0.0000       0.045308         1.2329
  21   0.0000       0.079544         2.1645
  22   0.0000       0.081111         2.2071
  23   0.0000       0.101447         2.7605
  24   0.0000       0.207838         5.6556

MULLIKEN ATOMIC CHARGES
-----------------------
   0 O :   -0.292565
   1 H :    0.151071
   2 H :    0.128063
   3 O :   -0.282922
   4 H :    0.159108
   5 H :    0.139695
   6 O :   -0.288316
   7 H :    0.156737
   8 H :    0.132839
   9 O :   -0.287720
  10 H :    0.128015
  11 H :    0.155995
Sum of atomic charges:   -0.0000000

LOEWDIN ATOMIC CHARGES
----------------------
   0 O :   -0.124311
   1 H :    0.076327
   2 H :    0.028004
   3 O :   -0.097910
   4 H :    0.077504
   5 H :    0.035256
   6 O :   -0.111781
   7 H :    0.078889
   8 H :    0.040490
   9 O :   -0.104816
  10 H :    0.026277
  11 H :    0.076071

  Mayer bond orders larger than 0.1
B(  0-O ,  1-H ) :   0.9907 B(  0-O ,  2-H ) :   0.9239 B(  0-O ,  8-H ) :   0.1509
B(  2-H ,  9-O ) :   0.1740 B(  3-O ,  4-H ) :   0.9955 B(  3-O ,  5-H ) :   0.9311
B(  3-O , 10-H ) :   0.1871 B(  5-H ,  6-O ) :   0.1577 B(  6-O ,  7-H ) :   0.9910
B(  6-O ,  8-H ) :   0.9347 B(  9-O , 10-H ) :   0.9203 B(  9-O , 11-H ) :   0.9944

Dispersion correction           -0.007565485
FINAL SINGLE POINT ENERGY      -305.352234702486
Dispersion correction            ...
Dispersion correction           -0.007514188
FINAL SINGLE POINT ENERGY      -305.355165884322
Dispersion correction            ...
Dispersion correction           -0.007644416
FINAL SINGLE POINT ENERGY      -305.355839629176
Dispersion correction            ...
FINAL SINGLE POINT ENERGY      -305.356344028439
FINAL SINGLE POINT ENERGY      -305.356656393217
FINAL SINGLE POINT ENERGY      -305.357500759364
FINAL SINGLE POINT ENERGY      -305.357960976843
FINAL SINGLE POINT ENERGY      -305.358212577988
FINAL SINGLE POINT ENERGY      -305.358377012804
FINAL SINGLE POINT ENERGY      -305.358585436420
FINAL SINGLE POINT ENERGY      -305.364626799953
FINAL SINGLE POINT ENERGY      -305.364753729141
FINAL SINGLE POINT ENERGY      -305.364782489484
FINAL SINGLE POINT ENERGY      -305.364821722327
FINAL SINGLE POINT ENERGY      -305.364848017568
FINAL SINGLE POINT ENERGY      -305.364878780215
FINAL SINGLE POINT ENERGY      -305.364901317871
Dispersion correction           -0.008076205
FINAL SINGLE POINT ENERGY      -305.364916260586
Dispersion correction            ...
Dispersion correction           -0.008077452
FINAL SINGLE POINT ENERGY      -305.364918386293
Dispersion correction            ...

CARTESIAN COORDINATES (ANGSTROEM)
---------------------------------
  O      1.194445   -1.406486    0.303896
  H      0.931018   -2.327616    0.171773
  H      0.488454   -1.031778    0.898411
  O     -1.172892    1.452911   -0.258761
  H     -2.011800    1.211212   -0.676343
  H     -0.490434    1.094336   -0.887836
  O      0.603354    0.158110   -1.778081
  H      1.405873    0.633756   -2.030001
  H      0.901958   -0.479410   -1.074077
  O     -0.665768   -0.176304    1.792417
  H     -0.928446    0.487864    1.097490
  H     -0.214226    0.354463    2.463196

Dispersion correction           -0.008078101
FINAL SINGLE POINT ENERGY      -305.364914232793
Dispersion correction            ...

DIPOLE MOMENT
-------------
                                X             Y             Z
Electronic contribution:     -0.03139       0.02583       0.02871
Nuclear contribution   :      0.13769      -0.09990      -0.12995
                        -----------------------------------------
Total Dipole Moment    :      0.10630      -0.07407      -0.10124
                        -----------------------------------------
Magnitude (a.u.)       :      0.16442
Magnitude (Debye)      :      0.41793

                             ****ORCA TERMINATED NORMALLY****
TOTAL RUN TIME: 0 days 0 hours 41 minutes 43 seconds 614 msec
