                         Program Version 4.2.0 -  RELEASE  -
|  1> # 12meoh.boyd.etal.mol9,11
|  2> ! MP2 def2-TZVP EnGrad TightSCF
|  3>
|  4> %pal
|  5>     nprocs 6
|  6> end
|  7>
|  8> %maxcore 8000
|  9>
| 10> %scf
| 11>     ConvForced true
| 12> end
| 13>
| 14> *xyz 0 1
| 15> O   1.390610024   3.194080770  -1.536658882
| 16> H   2.162932299   2.881562730  -0.993525056
| 17> C   1.202977189   4.580367182  -1.302880219
| 18> H   0.374773115   4.915764831  -1.934164643
| 19> H   2.098649340   5.157710875  -1.570472348
| 20> H   0.950320401   4.800436015  -0.254328827
| 21> O   3.252955559   0.588596242   1.858934315
| 22> H   3.621209177  -0.251605199   1.476063364
| 23> C   4.040824528   0.944288422   2.989639460
| 24> H   3.670521436   1.902573549   3.363847391
| 25> H   5.103749934   1.055868619   2.734277559
| 26> H   3.948540682   0.200279590   3.792908518
| 27> *
| 28>
| 29>                          ****END OF INPUT****

CARTESIAN COORDINATES (ANGSTROEM)
---------------------------------
  O      1.390610    3.194081   -1.536659
  H      2.162932    2.881563   -0.993525
  C      1.202977    4.580367   -1.302880
  H      0.374773    4.915765   -1.934165
  H      2.098649    5.157711   -1.570472
  H      0.950320    4.800436   -0.254329
  O      3.252956    0.588596    1.858934
  H      3.621209   -0.251605    1.476063
  C      4.040825    0.944288    2.989639
  H      3.670521    1.902574    3.363847
  H      5.103750    1.055869    2.734278
  H      3.948541    0.200280    3.792909

 Total Charge           Charge          ....    0
 Multiplicity           Mult            ....    1
 Number of Electrons    NEL             ....   36
 Basis Dimension        Dim             ....  172

ORBITAL ENERGIES
----------------

  NO   OCC          E(Eh)            E(eV)
   0   2.0000     -20.562932      -559.5458
   1   2.0000     -20.548709      -559.1588
   2   2.0000     -11.276282      -306.8432
   3   2.0000     -11.264846      -306.5321
   4   2.0000      -1.352077       -36.7919
   5   2.0000      -1.339600       -36.4524
   6   2.0000      -0.924513       -25.1573
   7   2.0000      -0.912414       -24.8280
   8   2.0000      -0.686845       -18.6900
   9   2.0000      -0.674729       -18.3603
  10   2.0000      -0.621947       -16.9240
  11   2.0000      -0.609672       -16.5900
  12   2.0000      -0.596092       -16.2205
  13   2.0000      -0.584688       -15.9102
  14   2.0000      -0.505308       -13.7501
  15   2.0000      -0.491773       -13.3818
  16   2.0000      -0.454388       -12.3645
  17   2.0000      -0.440597       -11.9892
  18   0.0000       0.123855         3.3703
  19   0.0000       0.149678         4.0730
  20   0.0000       0.169862         4.6222
  21   0.0000       0.186014         5.0617
  22   0.0000       0.223240         6.0747

MULLIKEN ATOMIC CHARGES
-----------------------
   0 O :   -0.500091
   1 H :    0.327286
   2 C :   -0.169472
   3 H :    0.126386
   4 H :    0.105462
   5 H :    0.108456
   6 O :   -0.499676
   7 H :    0.324053
   8 C :   -0.174058
   9 H :    0.129167
  10 H :    0.110411
  11 H :    0.112076
Sum of atomic charges:   -0.0000000

LOEWDIN ATOMIC CHARGES
----------------------
   0 O :   -0.105944
   1 H :    0.192696
   2 C :   -0.386667
   3 H :    0.109393
   4 H :    0.094023
   5 H :    0.095214
   6 O :   -0.110653
   7 H :    0.191167
   8 C :   -0.381504
   9 H :    0.110193
  10 H :    0.095574
  11 H :    0.096509

  Mayer bond orders larger than 0.100000
B(  0-O ,  1-H ) :   0.8371 B(  0-O ,  2-C ) :   0.9322 B(  2-C ,  3-H ) :   0.9380
B(  2-C ,  4-H ) :   0.9403 B(  2-C ,  5-H ) :   0.9374 B(  6-O ,  7-H ) :   0.8406
B(  6-O ,  8-C ) :   0.9224 B(  8-C ,  9-H ) :   0.9379 B(  8-C , 10-H ) :   0.9385
B(  8-C , 11-H ) :   0.9383

MP2 TOTAL ENERGY:     -231.014577545 Eh
FINAL SINGLE POINT ENERGY      -231.014577544634

DIPOLE MOMENT
-------------
                                X             Y             Z
Electronic contribution:     -0.94015      -2.11673      -1.75201
Nuclear contribution   :      1.90344       2.07413       2.43809
                        -----------------------------------------
Total Dipole Moment    :      0.96329      -0.04260       0.68607
                        -----------------------------------------
Magnitude (a.u.)       :      1.18340
Magnitude (Debye)      :      3.00797

Rotational constants in cm-1:     0.559480     0.033948     0.032500
Rotational constants in MHz : 16772.801675  1017.727454   974.329599

                             ****ORCA TERMINATED NORMALLY****
TOTAL RUN TIME: 0 days 0 hours 0 minutes 25 seconds 147 msec
