                         Program Version 4.2.0 -  RELEASE  -
|  1> # 12h2o.su.etal.mol0,4,5,7,9,10
|  2> ! MP2 def2-TZVP EnGrad TightSCF
|  3>
|  4> %pal
|  5>     nprocs 6
|  6> end
|  7>
|  8> %maxcore 8000
|  9>
| 10> %scf
| 11>     ConvForced true
| 12> end
| 13>
| 14> *xyz 0 1
| 15> O   1.794470000   0.923410000   2.768350000
| 16> H   2.338250000   1.359750000   3.430940000
| 17> H   0.879480000   1.303000000   2.865760000
| 18> O  -0.885520000   1.737840000   0.052730000
| 19> H  -1.032320000   2.090180000  -0.841890000
| 20> H  -1.284090000   0.839590000   0.017130000
| 21> O   0.885520000  -1.737840000   0.052730000
| 22> H   1.284090000  -0.839590000   0.017130000
| 23> H   1.032320000  -2.090180000  -0.841890000
| 24> O  -1.737840000  -0.885520000  -0.052730000
| 25> H  -2.090180000  -1.032320000   0.841890000
| 26> H  -0.839590000  -1.284090000  -0.017130000
| 27> O   0.741530000  -1.752130000   2.896280000
| 28> H   0.920500000  -2.036450000   1.984040000
| 29> H   1.242140000  -0.921210000   2.984230000
| 30> O  -0.923410000   1.794470000  -2.768350000
| 31> H  -1.359750000   2.338250000  -3.430940000
| 32> H  -1.303000000   0.879480000  -2.865760000
| 33> *
| 34>
| 35>                          ****END OF INPUT****

CARTESIAN COORDINATES (ANGSTROEM)
---------------------------------
  O      1.794470    0.923410    2.768350
  H      2.338250    1.359750    3.430940
  H      0.879480    1.303000    2.865760
  O     -0.885520    1.737840    0.052730
  H     -1.032320    2.090180   -0.841890
  H     -1.284090    0.839590    0.017130
  O      0.885520   -1.737840    0.052730
  H      1.284090   -0.839590    0.017130
  H      1.032320   -2.090180   -0.841890
  O     -1.737840   -0.885520   -0.052730
  H     -2.090180   -1.032320    0.841890
  H     -0.839590   -1.284090   -0.017130
  O      0.741530   -1.752130    2.896280
  H      0.920500   -2.036450    1.984040
  H      1.242140   -0.921210    2.984230
  O     -0.923410    1.794470   -2.768350
  H     -1.359750    2.338250   -3.430940
  H     -1.303000    0.879480   -2.865760

 Total Charge           Charge          ....    0
 Multiplicity           Mult            ....    1
 Number of Electrons    NEL             ....   60
 Basis Dimension        Dim             ....  258

ORBITAL ENERGIES
----------------

  NO   OCC          E(Eh)            E(eV)
   0   2.0000     -20.610302      -560.8348
   1   2.0000     -20.582720      -560.0843
   2   2.0000     -20.577360      -559.9384
   3   2.0000     -20.557201      -559.3899
   4   2.0000     -20.512753      -558.1804
   5   2.0000     -20.499960      -557.8323
   6   2.0000      -1.393577       -37.9212
   7   2.0000      -1.360622       -37.0244
   8   2.0000      -1.355090       -36.8739
   9   2.0000      -1.342711       -36.5370
  10   2.0000      -1.297925       -35.3183
  11   2.0000      -1.284120       -34.9427
  12   2.0000      -0.750686       -20.4272
  13   2.0000      -0.727562       -19.7980
  14   2.0000      -0.722116       -19.6498
  15   2.0000      -0.713769       -19.4226
  16   2.0000      -0.678782       -18.4706
  17   2.0000      -0.666869       -18.1464
  18   2.0000      -0.630833       -17.1658
  19   2.0000      -0.603026       -16.4092
  20   2.0000      -0.594715       -16.1830
  21   2.0000      -0.588232       -16.0066
  22   2.0000      -0.552563       -15.0360
  23   2.0000      -0.542932       -14.7739
  24   2.0000      -0.534968       -14.5572
  25   2.0000      -0.514952       -14.0126
  26   2.0000      -0.511883       -13.9290
  27   2.0000      -0.490138       -13.3373
  28   2.0000      -0.462468       -12.5844
  29   2.0000      -0.451090       -12.2748
  30   0.0000       0.096680         2.6308
  31   0.0000       0.123567         3.3624
  32   0.0000       0.132194         3.5972
  33   0.0000       0.165970         4.5163
  34   0.0000       0.189353         5.1525

MULLIKEN ATOMIC CHARGES
-----------------------
   0 O :   -0.702661
   1 H :    0.350079
   2 H :    0.372937
   3 O :   -0.743090
   4 H :    0.359041
   5 H :    0.338746
   6 O :   -0.715931
   7 H :    0.383113
   8 H :    0.363330
   9 O :   -0.718651
  10 H :    0.357456
  11 H :    0.365526
  12 O :   -0.724413
  13 H :    0.359330
  14 H :    0.347325
  15 O :   -0.695127
  16 H :    0.347529
  17 H :    0.355460
Sum of atomic charges:   -0.0000000

LOEWDIN ATOMIC CHARGES
----------------------
   0 O :   -0.313445
   1 H :    0.162495
   2 H :    0.192643
   3 O :   -0.375875
   4 H :    0.143754
   5 H :    0.133402
   6 O :   -0.275876
   7 H :    0.188581
   8 H :    0.175163
   9 O :   -0.314186
  10 H :    0.170616
  11 H :    0.143384
  12 O :   -0.353435
  13 H :    0.145786
  14 H :    0.142950
  15 O :   -0.312079
  16 H :    0.161061
  17 H :    0.185060

  Mayer bond orders larger than 0.100000
B(  0-O ,  1-H ) :   0.8431 B(  0-O ,  2-H ) :   0.8200 B(  3-O ,  4-H ) :   0.8289
B(  3-O ,  5-H ) :   0.8021 B(  6-O ,  7-H ) :   0.8101 B(  6-O ,  8-H ) :   0.8314
B(  9-O , 10-H ) :   0.8374 B(  9-O , 11-H ) :   0.7885 B( 12-O , 13-H ) :   0.8351
B( 12-O , 14-H ) :   0.8230 B( 15-O , 16-H ) :   0.8442 B( 15-O , 17-H ) :   0.8333

MP2 TOTAL ENERGY:     -457.918263857 Eh
FINAL SINGLE POINT ENERGY      -457.918263856596

DIPOLE MOMENT
-------------
                                X             Y             Z
Electronic contribution:      0.22972      -0.13359      -0.01059
Nuclear contribution   :      0.03192       0.37119      -1.46039
                        -----------------------------------------
Total Dipole Moment    :      0.26164       0.23760      -1.47097
                        -----------------------------------------
Magnitude (a.u.)       :      1.51284
Magnitude (Debye)      :      3.84533

Rotational constants in cm-1:     0.063824     0.026346     0.022180
Rotational constants in MHz :  1913.395015   789.825213   664.934390

                             ****ORCA TERMINATED NORMALLY****
TOTAL RUN TIME: 0 days 0 hours 1 minutes 8 seconds 719 msec
