                         Program Version 4.2.0 -  RELEASE  -
|  1> # 12mecn.remya.etal.2.mol5,9,10
|  2> ! MP2 def2-TZVP EnGrad TightSCF
|  3>
|  4> %pal
|  5>     nprocs 6
|  6> end
|  7>
|  8> %maxcore 8000
|  9>
| 10> %scf
| 11>     ConvForced true
| 12> end
| 13>
| 14> *xyz 0 1
| 15> C  -1.955700000   2.515080000   1.698463000
| 16> H  -2.923830000   2.883163000   2.049269000
| 17> H  -1.154850000   3.171830000   2.050990000
| 18> H  -1.790380000   1.506115000   2.087896000
| 19> C  -1.948230000   2.482156000   0.253672000
| 20> N  -1.937550000   2.462523000  -0.913150000
| 21> C   0.923766000   4.000693000  -1.575910000
| 22> H   0.011949000   4.478423000  -1.939550000
| 23> H   0.947903000   2.966558000  -1.929960000
| 24> H   1.805950000   4.519548000  -1.956520000
| 25> C   0.942834000   3.994846000  -0.131200000
| 26> N   0.960035000   3.982544000   1.035639000
| 27> C   4.602033000   0.321019000  -1.784800000
| 28> H   4.827650000  -0.662160000  -2.207910000
| 29> H   5.320558000   1.057980000  -2.148500000
| 30> H   3.601982000   0.643751000  -2.087520000
| 31> C   4.654967000   0.244048000  -0.343060000
| 32> N   4.691648000   0.166590000   0.820757000
| 33> *
| 34>
| 35>                          ****END OF INPUT****

CARTESIAN COORDINATES (ANGSTROEM)
---------------------------------
  C     -1.955700    2.515080    1.698463
  H     -2.923830    2.883163    2.049269
  H     -1.154850    3.171830    2.050990
  H     -1.790380    1.506115    2.087896
  C     -1.948230    2.482156    0.253672
  N     -1.937550    2.462523   -0.913150
  C      0.923766    4.000693   -1.575910
  H      0.011949    4.478423   -1.939550
  H      0.947903    2.966558   -1.929960
  H      1.805950    4.519548   -1.956520
  C      0.942834    3.994846   -0.131200
  N      0.960035    3.982544    1.035639
  C      4.602033    0.321019   -1.784800
  H      4.827650   -0.662160   -2.207910
  H      5.320558    1.057980   -2.148500
  H      3.601982    0.643751   -2.087520
  C      4.654967    0.244048   -0.343060
  N      4.691648    0.166590    0.820757

 Total Charge           Charge          ....    0
 Multiplicity           Mult            ....    1
 Number of Electrons    NEL             ....   66
 Basis Dimension        Dim             ....  333

ORBITAL ENERGIES
----------------

  NO   OCC          E(Eh)            E(eV)
   0   2.0000     -15.573286      -423.7706
   1   2.0000     -15.572520      -423.7498
   2   2.0000     -15.570782      -423.7025
   3   2.0000     -11.286882      -307.1317
   4   2.0000     -11.283809      -307.0481
   5   2.0000     -11.282348      -307.0083
   6   2.0000     -11.279741      -306.9374
   7   2.0000     -11.277612      -306.8794
   8   2.0000     -11.270509      -306.6862
   9   2.0000      -1.218274       -33.1509
  10   2.0000      -1.214207       -33.0402
  11   2.0000      -1.213803       -33.0293
  12   2.0000      -1.045664       -28.4540
  13   2.0000      -1.039754       -28.2932
  14   2.0000      -1.033522       -28.1236
  15   2.0000      -0.701323       -19.0840
  16   2.0000      -0.697496       -18.9798
  17   2.0000      -0.690378       -18.7861
  18   2.0000      -0.636155       -17.3106
  19   2.0000      -0.632973       -17.2241
  20   2.0000      -0.631847       -17.1934
  21   2.0000      -0.625168       -17.0117
  22   2.0000      -0.620194       -16.8763
  23   2.0000      -0.617203       -16.7949
  24   2.0000      -0.559277       -15.2187
  25   2.0000      -0.556259       -15.1366
  26   2.0000      -0.555427       -15.1139
  27   2.0000      -0.462714       -12.5911
  28   2.0000      -0.459245       -12.4967
  29   2.0000      -0.457518       -12.4497
  30   2.0000      -0.457356       -12.4453
  31   2.0000      -0.456987       -12.4353
  32   2.0000      -0.453845       -12.3498
  33   0.0000       0.098449         2.6789
  34   0.0000       0.132977         3.6185
  35   0.0000       0.145289         3.9535
  36   0.0000       0.160992         4.3808
  37   0.0000       0.168049         4.5728

MULLIKEN ATOMIC CHARGES
-----------------------
   0 C :   -0.283383
   1 H :    0.166169
   2 H :    0.204829
   3 H :    0.168497
   4 C :   -0.119275
   5 N :   -0.138742
   6 C :   -0.265505
   7 H :    0.183061
   8 H :    0.168439
   9 H :    0.171594
  10 C :   -0.111846
  11 N :   -0.143810
  12 C :   -0.279317
  13 H :    0.174205
  14 H :    0.171989
  15 H :    0.165874
  16 C :   -0.144334
  17 N :   -0.088446
Sum of atomic charges:    0.0000000

LOEWDIN ATOMIC CHARGES
----------------------
   0 C :   -0.282096
   1 H :    0.150790
   2 H :    0.157396
   3 H :    0.153725
   4 C :   -0.211114
   5 N :    0.030712
   6 C :   -0.284822
   7 H :    0.156433
   8 H :    0.154531
   9 H :    0.148834
  10 C :   -0.209884
  11 N :    0.035483
  12 C :   -0.284359
  13 H :    0.153369
  14 H :    0.151157
  15 H :    0.150779
  16 C :   -0.220472
  17 N :    0.049539

  Mayer bond orders larger than 0.100000
B(  0-C ,  1-H ) :   0.9165 B(  0-C ,  2-H ) :   0.9015 B(  0-C ,  3-H ) :   0.9141
B(  0-C ,  4-C ) :   0.8998 B(  4-C ,  5-N ) :   2.8000 B(  6-C ,  7-H ) :   0.9106
B(  6-C ,  8-H ) :   0.9167 B(  6-C ,  9-H ) :   0.9121 B(  6-C , 10-C ) :   0.9099
B( 10-C , 11-N ) :   2.7625 B( 12-C , 13-H ) :   0.9159 B( 12-C , 14-H ) :   0.9176
B( 12-C , 15-H ) :   0.9184 B( 12-C , 16-C ) :   0.9007 B( 16-C , 17-N ) :   2.8324

MP2 TOTAL ENERGY:     -397.458320264 Eh
FINAL SINGLE POINT ENERGY      -397.458320263987

DIPOLE MOMENT
-------------
                                X             Y             Z
Electronic contribution:      0.19607      -0.22020       3.17778
Nuclear contribution   :     -0.25842       0.35852      -4.63360
                        -----------------------------------------
Total Dipole Moment    :     -0.06235       0.13832      -1.45582
                        -----------------------------------------
Magnitude (a.u.)       :      1.46371
Magnitude (Debye)      :      3.72045

Rotational constants in cm-1:     0.054132     0.014142     0.013502
Rotational constants in MHz :  1622.831766   423.957667   404.770678

                             ****ORCA TERMINATED NORMALLY****
TOTAL RUN TIME: 0 days 0 hours 3 minutes 12 seconds 709 msec
