                         Program Version 4.2.0 -  RELEASE  -
|  1> # 12h2o.su.etal.mol1,4,5,8,11
|  2> ! MP2 def2-TZVP EnGrad TightSCF
|  3>
|  4> %pal
|  5>     nprocs 6
|  6> end
|  7>
|  8> %maxcore 8000
|  9>
| 10> %scf
| 11>     ConvForced true
| 12> end
| 13>
| 14> *xyz 0 1
| 15> O  -1.794470000  -0.923410000   2.768350000
| 16> H  -2.338250000  -1.359750000   3.430940000
| 17> H  -0.879480000  -1.303000000   2.865760000
| 18> O  -0.885520000   1.737840000   0.052730000
| 19> H  -1.032320000   2.090180000  -0.841890000
| 20> H  -1.284090000   0.839590000   0.017130000
| 21> O   0.885520000  -1.737840000   0.052730000
| 22> H   1.284090000  -0.839590000   0.017130000
| 23> H   1.032320000  -2.090180000  -0.841890000
| 24> O   1.752130000   0.741530000  -2.896280000
| 25> H   2.036450000   0.920500000  -1.984040000
| 26> H   0.921210000   1.242140000  -2.984230000
| 27> O  -0.741530000   1.752130000   2.896280000
| 28> H  -0.920500000   2.036450000   1.984040000
| 29> H  -1.242140000   0.921210000   2.984230000
| 30> *
| 31>
| 32>                          ****END OF INPUT****

CARTESIAN COORDINATES (ANGSTROEM)
---------------------------------
  O     -1.794470   -0.923410    2.768350
  H     -2.338250   -1.359750    3.430940
  H     -0.879480   -1.303000    2.865760
  O     -0.885520    1.737840    0.052730
  H     -1.032320    2.090180   -0.841890
  H     -1.284090    0.839590    0.017130
  O      0.885520   -1.737840    0.052730
  H      1.284090   -0.839590    0.017130
  H      1.032320   -2.090180   -0.841890
  O      1.752130    0.741530   -2.896280
  H      2.036450    0.920500   -1.984040
  H      0.921210    1.242140   -2.984230
  O     -0.741530    1.752130    2.896280
  H     -0.920500    2.036450    1.984040
  H     -1.242140    0.921210    2.984230

 Total Charge           Charge          ....    0
 Multiplicity           Mult            ....    1
 Number of Electrons    NEL             ....   50
 Basis Dimension        Dim             ....  215

ORBITAL ENERGIES
----------------

  NO   OCC          E(Eh)            E(eV)
   0   2.0000     -20.591235      -560.3160
   1   2.0000     -20.581318      -560.0461
   2   2.0000     -20.581270      -560.0448
   3   2.0000     -20.572489      -559.8059
   4   2.0000     -20.503783      -557.9363
   5   2.0000      -1.369420       -37.2638
   6   2.0000      -1.360199       -37.0129
   7   2.0000      -1.358976       -36.9796
   8   2.0000      -1.348263       -36.6881
   9   2.0000      -1.289146       -35.0795
  10   2.0000      -0.731285       -19.8993
  11   2.0000      -0.726014       -19.7558
  12   2.0000      -0.723110       -19.6768
  13   2.0000      -0.710122       -19.3234
  14   2.0000      -0.668195       -18.1825
  15   2.0000      -0.612496       -16.6669
  16   2.0000      -0.597506       -16.2590
  17   2.0000      -0.592654       -16.1269
  18   2.0000      -0.588495       -16.0138
  19   2.0000      -0.542857       -14.7719
  20   2.0000      -0.530412       -14.4332
  21   2.0000      -0.524693       -14.2776
  22   2.0000      -0.515272       -14.0213
  23   2.0000      -0.509577       -13.8663
  24   2.0000      -0.453741       -12.3469
  25   0.0000       0.075730         2.0607
  26   0.0000       0.119489         3.2515
  27   0.0000       0.129607         3.5268
  28   0.0000       0.161615         4.3978
  29   0.0000       0.177274         4.8239

MULLIKEN ATOMIC CHARGES
-----------------------
   0 O :   -0.700516
   1 H :    0.350865
   2 H :    0.368838
   3 O :   -0.696037
   4 H :    0.336271
   5 H :    0.361672
   6 O :   -0.682479
   7 H :    0.337182
   8 H :    0.345398
   9 O :   -0.667546
  10 H :    0.335718
  11 H :    0.332648
  12 O :   -0.725544
  13 H :    0.361296
  14 H :    0.342234
Sum of atomic charges:   -0.0000000

LOEWDIN ATOMIC CHARGES
----------------------
   0 O :   -0.313161
   1 H :    0.162712
   2 H :    0.190814
   3 O :   -0.316856
   4 H :    0.163197
   5 H :    0.179356
   6 O :   -0.336453
   7 H :    0.168311
   8 H :    0.168209
   9 O :   -0.325971
  10 H :    0.162491
  11 H :    0.164057
  12 O :   -0.355720
  13 H :    0.148214
  14 H :    0.140800

  Mayer bond orders larger than 0.100000
B(  0-O ,  1-H ) :   0.8427 B(  0-O ,  2-H ) :   0.8238 B(  3-O ,  4-H ) :   0.8481
B(  3-O ,  5-H ) :   0.8276 B(  6-O ,  7-H ) :   0.8470 B(  6-O ,  8-H ) :   0.8472
B(  9-O , 10-H ) :   0.8518 B(  9-O , 11-H ) :   0.8546 B( 12-O , 13-H ) :   0.8321
B( 12-O , 14-H ) :   0.8294

MP2 TOTAL ENERGY:     -381.582491408 Eh
FINAL SINGLE POINT ENERGY      -381.582491407914

DIPOLE MOMENT
-------------
                                X             Y             Z
Electronic contribution:      0.06784      -0.10911       0.01240
Nuclear contribution   :     -0.71164      -0.56846      -0.91596
                        -----------------------------------------
Total Dipole Moment    :     -0.64381      -0.67757      -0.90357
                        -----------------------------------------
Magnitude (a.u.)       :      1.30001
Magnitude (Debye)      :      3.30435

Rotational constants in cm-1:     0.078335     0.030268     0.023661
Rotational constants in MHz :  2348.418650   907.414164   709.335273

                             ****ORCA TERMINATED NORMALLY****
TOTAL RUN TIME: 0 days 0 hours 0 minutes 30 seconds 612 msec
