                         Program Version 4.2.0 -  RELEASE  -
|  1> # 12h2o.su.etal.mol5,8,9
|  2> ! MP2 def2-TZVP EnGrad TightSCF
|  3>
|  4> %pal
|  5>     nprocs 6
|  6> end
|  7>
|  8> %maxcore 8000
|  9>
| 10> %scf
| 11>     ConvForced true
| 12> end
| 13>
| 14> *xyz 0 1
| 15> O   0.885520000  -1.737840000   0.052730000
| 16> H   1.284090000  -0.839590000   0.017130000
| 17> H   1.032320000  -2.090180000  -0.841890000
| 18> O   1.752130000   0.741530000  -2.896280000
| 19> H   2.036450000   0.920500000  -1.984040000
| 20> H   0.921210000   1.242140000  -2.984230000
| 21> O   0.741530000  -1.752130000   2.896280000
| 22> H   0.920500000  -2.036450000   1.984040000
| 23> H   1.242140000  -0.921210000   2.984230000
| 24> *
| 25>
| 26>                          ****END OF INPUT****

CARTESIAN COORDINATES (ANGSTROEM)
---------------------------------
  O      0.885520   -1.737840    0.052730
  H      1.284090   -0.839590    0.017130
  H      1.032320   -2.090180   -0.841890
  O      1.752130    0.741530   -2.896280
  H      2.036450    0.920500   -1.984040
  H      0.921210    1.242140   -2.984230
  O      0.741530   -1.752130    2.896280
  H      0.920500   -2.036450    1.984040
  H      1.242140   -0.921210    2.984230

 Total Charge           Charge          ....    0
 Multiplicity           Mult            ....    1
 Number of Electrons    NEL             ....   30
 Basis Dimension        Dim             ....  129

ORBITAL ENERGIES
----------------

  NO   OCC          E(Eh)            E(eV)
   0   2.0000     -20.592187      -560.3419
   1   2.0000     -20.584825      -560.1416
   2   2.0000     -20.534082      -558.7608
   3   2.0000      -1.370437       -37.2915
   4   2.0000      -1.363763       -37.1099
   5   2.0000      -1.315892       -35.8072
   6   2.0000      -0.733300       -19.9541
   7   2.0000      -0.726495       -19.7689
   8   2.0000      -0.685469       -18.6526
   9   2.0000      -0.611407       -16.6372
  10   2.0000      -0.600737       -16.3469
  11   2.0000      -0.553382       -15.0583
  12   2.0000      -0.533212       -14.5094
  13   2.0000      -0.527949       -14.3662
  14   2.0000      -0.480300       -13.0696
  15   0.0000       0.079743         2.1699
  16   0.0000       0.136799         3.7225
  17   0.0000       0.161304         4.3893
  18   0.0000       0.171405         4.6642
  19   0.0000       0.238993         6.5033

MULLIKEN ATOMIC CHARGES
-----------------------
   0 O :   -0.684848
   1 H :    0.328467
   2 H :    0.358006
   3 O :   -0.667957
   4 H :    0.326550
   5 H :    0.344896
   6 O :   -0.689677
   7 H :    0.370212
   8 H :    0.314350
Sum of atomic charges:    0.0000000

LOEWDIN ATOMIC CHARGES
----------------------
   0 O :   -0.314289
   1 H :    0.167082
   2 H :    0.173606
   3 O :   -0.326923
   4 H :    0.159072
   5 H :    0.170483
   6 O :   -0.337949
   7 H :    0.153066
   8 H :    0.155852

  Mayer bond orders larger than 0.100000
B(  0-O ,  1-H ) :   0.8491 B(  0-O ,  2-H ) :   0.8371 B(  3-O ,  4-H ) :   0.8578
B(  3-O ,  5-H ) :   0.8481 B(  6-O ,  7-H ) :   0.8217 B(  6-O ,  8-H ) :   0.8658

MP2 TOTAL ENERGY:     -228.943891544 Eh
FINAL SINGLE POINT ENERGY      -228.943891543540

DIPOLE MOMENT
-------------
                                X             Y             Z
Electronic contribution:     -0.12693      -0.27466      -0.10348
Nuclear contribution   :      0.56463       1.47502      -0.77428
                        -----------------------------------------
Total Dipole Moment    :      0.43770       1.20036      -0.87776
                        -----------------------------------------
Magnitude (a.u.)       :      1.55013
Magnitude (Debye)      :      3.94013

Rotational constants in cm-1:     0.850872     0.046376     0.044229
Rotational constants in MHz : 25508.505975  1390.308908  1325.965373

                             ****ORCA TERMINATED NORMALLY****
TOTAL RUN TIME: 0 days 0 hours 0 minutes 26 seconds 139 msec
