                         Program Version 4.2.0 -  RELEASE  -
|  1> ! MP2 def2-TZVP EnGrad TightSCF FrozenCore
|  2>
|  3> %pal
|  4>     nprocs 12
|  5> end
|  6>
|  7> %maxcore 8000
|  8>
|  9> %scf
| 10>     ConvForced true
| 11> end
| 12>
| 13> *xyz 0 1
| 14> O    -0.2225138669    -0.6252736395    -1.3958413754
| 15> H     0.7433101253    -0.7002342678    -1.177151187
| 16> C    -0.3681210683    -0.6422158999    -2.8213504762
| 17> H    -1.3901007134    -0.3293506225    -3.0496562284
| 18> H    -0.2141859266    -1.6541509813    -3.2119736806
| 19> H     0.3334746613     0.0502494425    -3.3023344663
| 20> O    -1.0142105757    -3.3377021604    -1.1045697316
| 21> H    -0.823367705     -2.3859595072    -0.9975919662
| 22> C    -2.3747113581    -3.5483131369    -0.7864822647
| 23> H    -2.5840536865    -4.612939641     -0.9316778152
| 24> H    -3.0613388096    -2.9790547644    -1.4353681736
| 25> H    -2.6133386738    -3.2980465284     0.2604970935
| 26> O     0.2002615177     1.5753910653     0.1998574776
| 27> H    -0.2402983027     0.907913775     -0.3762156535
| 28> C     0.008966939      2.8846193083    -0.3433769843
| 29> H     0.3824574348     3.5897816475     0.4012506341
| 30> H    -1.0542851595     3.0904790823    -0.519165814
| 31> H     0.56085986       3.0173625723    -1.2830588996
| 32> O     2.2706935373    -0.1431817212    -0.5063435018
| 33> H     1.832311125      0.6326245558    -0.0944594662
| 34> C     2.9148086182    -0.9034626073     0.5159587638
| 35> H     3.3386212496    -1.7902244027     0.0388946394
| 36> H     2.2139501127    -1.2248882193     1.2982927586
| 37> H     3.7283679243    -0.3321215108     0.9808712469
| 38> O     0.0435579111     2.371981675      2.8999891023
| 39> H     0.0617863865     1.8770877199     2.0593131767
| 40> C    -1.2708656468     2.2988557985     3.4134961514
| 41> H    -1.2956878202     2.8874867858     4.3360369396
| 42> H    -1.5763679104     1.2691571267     3.6629020089
| 43> H    -2.0248872643     2.7182052072     2.7263879446
| 44> *
| 45>
| 46>                          ****END OF INPUT****

CARTESIAN COORDINATES (ANGSTROEM)
---------------------------------
  O     -0.222514   -0.625274   -1.395841
  H      0.743310   -0.700234   -1.177151
  C     -0.368121   -0.642216   -2.821350
  H     -1.390101   -0.329351   -3.049656
  H     -0.214186   -1.654151   -3.211974
  H      0.333475    0.050249   -3.302334
  O     -1.014211   -3.337702   -1.104570
  H     -0.823368   -2.385960   -0.997592
  C     -2.374711   -3.548313   -0.786482
  H     -2.584054   -4.612940   -0.931678
  H     -3.061339   -2.979055   -1.435368
  H     -2.613339   -3.298047    0.260497
  O      0.200262    1.575391    0.199857
  H     -0.240298    0.907914   -0.376216
  C      0.008967    2.884619   -0.343377
  H      0.382457    3.589782    0.401251
  H     -1.054285    3.090479   -0.519166
  H      0.560860    3.017363   -1.283059
  O      2.270694   -0.143182   -0.506344
  H      1.832311    0.632625   -0.094459
  C      2.914809   -0.903463    0.515959
  H      3.338621   -1.790224    0.038895
  H      2.213950   -1.224888    1.298293
  H      3.728368   -0.332122    0.980871
  O      0.043558    2.371982    2.899989
  H      0.061786    1.877088    2.059313
  C     -1.270866    2.298856    3.413496
  H     -1.295688    2.887487    4.336037
  H     -1.576368    1.269157    3.662902
  H     -2.024887    2.718205    2.726388

 Total Charge           Charge          ....    0
 Multiplicity           Mult            ....    1
 Number of Electrons    NEL             ....   90
 Basis Dimension        Dim             ....  430

ORBITAL ENERGIES
----------------

  NO   OCC          E(Eh)            E(eV)
   0   2.0000     -20.577405      -559.9396
   1   2.0000     -20.574684      -559.8656
   2   2.0000     -20.569044      -559.7121
   3   2.0000     -20.533138      -558.7351
   4   2.0000     -20.532525      -558.7184
   5   2.0000     -11.285687      -307.0992
   6   2.0000     -11.283846      -307.0491
   7   2.0000     -11.278975      -306.9165
   8   2.0000     -11.259952      -306.3989
   9   2.0000     -11.259706      -306.3922
  10   2.0000      -1.387089       -37.7446
  11   2.0000      -1.368561       -37.2404
  12   2.0000      -1.361516       -37.0487
  13   2.0000      -1.334596       -36.3162
  14   2.0000      -1.334223       -36.3060
  15   2.0000      -0.945998       -25.7419
  16   2.0000      -0.934346       -25.4248
  17   2.0000      -0.930068       -25.3084
  18   2.0000      -0.907680       -24.6992
  19   2.0000      -0.907362       -24.6906
  20   2.0000      -0.722691       -19.6654
  21   2.0000      -0.713650       -19.4194
  22   2.0000      -0.705308       -19.1924
  23   2.0000      -0.681967       -18.5573
  24   2.0000      -0.674287       -18.3483
  25   2.0000      -0.634912       -17.2768
  26   2.0000      -0.628384       -17.0992
  27   2.0000      -0.627335       -17.0707
  28   2.0000      -0.613060       -16.6822
  29   2.0000      -0.604956       -16.4617
  30   2.0000      -0.603080       -16.4107
  31   2.0000      -0.601411       -16.3652
  32   2.0000      -0.600830       -16.3494
  33   2.0000      -0.576718       -15.6933
  34   2.0000      -0.576073       -15.6758
  35   2.0000      -0.530955       -14.4480
  36   2.0000      -0.527134       -14.3440
  37   2.0000      -0.511570       -13.9205
  38   2.0000      -0.491174       -13.3655
  39   2.0000      -0.485179       -13.2024
  40   2.0000      -0.471169       -12.8212
  41   2.0000      -0.461589       -12.5605
  42   2.0000      -0.459504       -12.5037
  43   2.0000      -0.431392       -11.7388
  44   2.0000      -0.430972       -11.7273
  45   0.0000       0.116443         3.1686
  46   0.0000       0.141770         3.8577
  47   0.0000       0.149361         4.0643
  48   0.0000       0.160710         4.3731
  49   0.0000       0.179287         4.8787

MULLIKEN ATOMIC CHARGES
-----------------------
   0 O :   -0.605274
   1 H :    0.384028
   2 C :   -0.200235
   3 H :    0.132177
   4 H :    0.154957
   5 H :    0.132113
   6 O :   -0.511680
   7 H :    0.343994
   8 C :   -0.171323
   9 H :    0.122802
  10 H :    0.096925
  11 H :    0.106103
  12 O :   -0.591664
  13 H :    0.374069
  14 C :   -0.198750
  15 H :    0.160265
  16 H :    0.129151
  17 H :    0.126411
  18 O :   -0.549429
  19 H :    0.360450
  20 C :   -0.178549
  21 H :    0.136628
  22 H :    0.127458
  23 H :    0.128072
  24 O :   -0.512079
  25 H :    0.351300
  26 C :   -0.173884
  27 H :    0.123120
  28 H :    0.106354
  29 H :    0.096490
Sum of atomic charges:   -0.0000000

LOEWDIN ATOMIC CHARGES
----------------------
   0 O :   -0.099230
   1 H :    0.170266
   2 C :   -0.376553
   3 H :    0.110103
   4 H :    0.109636
   5 H :    0.104381
   6 O :   -0.095577
   7 H :    0.162160
   8 C :   -0.396881
   9 H :    0.107583
  10 H :    0.092027
  11 H :    0.094269
  12 O :   -0.096236
  13 H :    0.169031
  14 C :   -0.374822
  15 H :    0.116651
  16 H :    0.104624
  17 H :    0.102273
  18 O :   -0.087363
  19 H :    0.170494
  20 C :   -0.371610
  21 H :    0.112234
  22 H :    0.102509
  23 H :    0.104942
  24 O :   -0.094456
  25 H :    0.163571
  26 C :   -0.397693
  27 H :    0.107563
  28 H :    0.094315
  29 H :    0.091787

  Mayer bond orders larger than 0.100000
B(  0-O ,  1-H ) :   0.7360 B(  0-O ,  2-C ) :   0.8401 B(  1-H , 18-O ) :   0.1063
B(  2-C ,  3-H ) :   0.9415 B(  2-C ,  4-H ) :   0.9363 B(  2-C ,  5-H ) :   0.9348
B(  6-O ,  7-H ) :   0.8087 B(  6-O ,  8-C ) :   0.9461 B(  8-C ,  9-H ) :   0.9404
B(  8-C , 10-H ) :   0.9333 B(  8-C , 11-H ) :   0.9437 B( 12-O , 13-H ) :   0.7676
B( 12-O , 14-C ) :   0.8470 B( 14-C , 15-H ) :   0.9371 B( 14-C , 16-H ) :   0.9400
B( 14-C , 17-H ) :   0.9327 B( 18-O , 19-H ) :   0.7880 B( 18-O , 20-C ) :   0.8754
B( 20-C , 21-H ) :   0.9405 B( 20-C , 22-H ) :   0.9363 B( 20-C , 23-H ) :   0.9383
B( 24-O , 25-H ) :   0.8122 B( 24-O , 26-C ) :   0.9437 B( 26-C , 27-H ) :   0.9408
B( 26-C , 28-H ) :   0.9431 B( 26-C , 29-H ) :   0.9329

MP2 TOTAL ENERGY:     -577.587709491 Eh
FINAL SINGLE POINT ENERGY      -577.587709491085

DIPOLE MOMENT
-------------
                                X             Y             Z
Electronic contribution:      3.45061      -0.22404      -0.09887
Nuclear contribution   :     -3.86419       0.77110      -0.64646
                        -----------------------------------------
Total Dipole Moment    :     -0.41358       0.54705      -0.74533
                        -----------------------------------------
Magnitude (a.u.)       :      1.01284
Magnitude (Debye)      :      2.57443

Rotational constants in cm-1:     0.027721     0.013366     0.011996
Rotational constants in MHz :   831.059252   400.701163   359.620591

                             ****ORCA TERMINATED NORMALLY****
TOTAL RUN TIME: 0 days 0 hours 6 minutes 23 seconds 271 msec
