                         Program Version 4.2.0 -  RELEASE  -
|  1> # 12h2o.su.etal.mol0,2,4,5,7,8,9,10
|  2> ! MP2 def2-TZVP EnGrad TightSCF
|  3>
|  4> %pal
|  5>     nprocs 6
|  6> end
|  7>
|  8> %maxcore 8000
|  9>
| 10> %scf
| 11>     ConvForced true
| 12> end
| 13>
| 14> *xyz 0 1
| 15> O   1.794470000   0.923410000   2.768350000
| 16> H   2.338250000   1.359750000   3.430940000
| 17> H   0.879480000   1.303000000   2.865760000
| 18> O   0.923410000  -1.794470000  -2.768350000
| 19> H   1.359750000  -2.338250000  -3.430940000
| 20> H   1.303000000  -0.879480000  -2.865760000
| 21> O  -0.885520000   1.737840000   0.052730000
| 22> H  -1.032320000   2.090180000  -0.841890000
| 23> H  -1.284090000   0.839590000   0.017130000
| 24> O   0.885520000  -1.737840000   0.052730000
| 25> H   1.284090000  -0.839590000   0.017130000
| 26> H   1.032320000  -2.090180000  -0.841890000
| 27> O  -1.737840000  -0.885520000  -0.052730000
| 28> H  -2.090180000  -1.032320000   0.841890000
| 29> H  -0.839590000  -1.284090000  -0.017130000
| 30> O   1.752130000   0.741530000  -2.896280000
| 31> H   2.036450000   0.920500000  -1.984040000
| 32> H   0.921210000   1.242140000  -2.984230000
| 33> O   0.741530000  -1.752130000   2.896280000
| 34> H   0.920500000  -2.036450000   1.984040000
| 35> H   1.242140000  -0.921210000   2.984230000
| 36> O  -0.923410000   1.794470000  -2.768350000
| 37> H  -1.359750000   2.338250000  -3.430940000
| 38> H  -1.303000000   0.879480000  -2.865760000
| 39> *
| 40>
| 41>                          ****END OF INPUT****

CARTESIAN COORDINATES (ANGSTROEM)
---------------------------------
  O      1.794470    0.923410    2.768350
  H      2.338250    1.359750    3.430940
  H      0.879480    1.303000    2.865760
  O      0.923410   -1.794470   -2.768350
  H      1.359750   -2.338250   -3.430940
  H      1.303000   -0.879480   -2.865760
  O     -0.885520    1.737840    0.052730
  H     -1.032320    2.090180   -0.841890
  H     -1.284090    0.839590    0.017130
  O      0.885520   -1.737840    0.052730
  H      1.284090   -0.839590    0.017130
  H      1.032320   -2.090180   -0.841890
  O     -1.737840   -0.885520   -0.052730
  H     -2.090180   -1.032320    0.841890
  H     -0.839590   -1.284090   -0.017130
  O      1.752130    0.741530   -2.896280
  H      2.036450    0.920500   -1.984040
  H      0.921210    1.242140   -2.984230
  O      0.741530   -1.752130    2.896280
  H      0.920500   -2.036450    1.984040
  H      1.242140   -0.921210    2.984230
  O     -0.923410    1.794470   -2.768350
  H     -1.359750    2.338250   -3.430940
  H     -1.303000    0.879480   -2.865760

 Total Charge           Charge          ....    0
 Multiplicity           Mult            ....    1
 Number of Electrons    NEL             ....   80
 Basis Dimension        Dim             ....  344

ORBITAL ENERGIES
----------------

  NO   OCC          E(Eh)            E(eV)
   0   2.0000     -20.615222      -560.9687
   1   2.0000     -20.588221      -560.2340
   2   2.0000     -20.578382      -559.9662
   3   2.0000     -20.576258      -559.9084
   4   2.0000     -20.557172      -559.3891
   5   2.0000     -20.547821      -559.1346
   6   2.0000     -20.510965      -558.1317
   7   2.0000     -20.504636      -557.9595
   8   2.0000      -1.396419       -37.9985
   9   2.0000      -1.377115       -37.4732
  10   2.0000      -1.364942       -37.1420
  11   2.0000      -1.356057       -36.9002
  12   2.0000      -1.338837       -36.4316
  13   2.0000      -1.332616       -36.2623
  14   2.0000      -1.294582       -35.2274
  15   2.0000      -1.289938       -35.1010
  16   2.0000      -0.762107       -20.7380
  17   2.0000      -0.737522       -20.0690
  18   2.0000      -0.727008       -19.7829
  19   2.0000      -0.723059       -19.6754
  20   2.0000      -0.721926       -19.6446
  21   2.0000      -0.701963       -19.1014
  22   2.0000      -0.679473       -18.4894
  23   2.0000      -0.668040       -18.1783
  24   2.0000      -0.639714       -17.4075
  25   2.0000      -0.619968       -16.8702
  26   2.0000      -0.611453       -16.6385
  27   2.0000      -0.594385       -16.1740
  28   2.0000      -0.582795       -15.8587
  29   2.0000      -0.579365       -15.7653
  30   2.0000      -0.562371       -15.3029
  31   2.0000      -0.537134       -14.6162
  32   2.0000      -0.532909       -14.5012
  33   2.0000      -0.525979       -14.3126
  34   2.0000      -0.515443       -14.0259
  35   2.0000      -0.509444       -13.8627
  36   2.0000      -0.504786       -13.7359
  37   2.0000      -0.487111       -13.2550
  38   2.0000      -0.461951       -12.5703
  39   2.0000      -0.454600       -12.3703
  40   0.0000       0.090577         2.4647
  41   0.0000       0.116933         3.1819
  42   0.0000       0.132335         3.6010
  43   0.0000       0.153033         4.1642
  44   0.0000       0.163163         4.4399

MULLIKEN ATOMIC CHARGES
-----------------------
   0 O :   -0.702911
   1 H :    0.349570
   2 H :    0.372056
   3 O :   -0.743020
   4 H :    0.342422
   5 H :    0.370129
   6 O :   -0.741514
   7 H :    0.352490
   8 H :    0.343086
   9 O :   -0.727723
  10 H :    0.348265
  11 H :    0.389304
  12 O :   -0.723858
  13 H :    0.353076
  14 H :    0.378893
  15 O :   -0.700434
  16 H :    0.354995
  17 H :    0.380495
  18 O :   -0.728750
  19 H :    0.364298
  20 H :    0.344376
  21 O :   -0.722966
  22 H :    0.364186
  23 H :    0.383538
Sum of atomic charges:    0.0000000

LOEWDIN ATOMIC CHARGES
----------------------
   0 O :   -0.314047
   1 H :    0.162098
   2 H :    0.192157
   3 O :   -0.342154
   4 H :    0.156546
   5 H :    0.142559
   6 O :   -0.374270
   7 H :    0.140041
   8 H :    0.135252
   9 O :   -0.282233
  10 H :    0.171172
  11 H :    0.156744
  12 O :   -0.314454
  13 H :    0.168548
  14 H :    0.146504
  15 O :   -0.278280
  16 H :    0.170093
  17 H :    0.155514
  18 O :   -0.356469
  19 H :    0.146508
  20 H :    0.141510
  21 O :   -0.287961
  22 H :    0.168147
  23 H :    0.196473

  Mayer bond orders larger than 0.100000
B(  0-O ,  1-H ) :   0.8433 B(  0-O ,  2-H ) :   0.8207 B(  3-O ,  4-H ) :   0.8478
B(  3-O ,  5-H ) :   0.7561 B(  5-H , 15-O ) :   0.1029 B(  6-O ,  7-H ) :   0.8369
B(  6-O ,  8-H ) :   0.7909 B(  8-H , 12-O ) :   0.1030 B(  9-O , 10-H ) :   0.8309
B(  9-O , 11-H ) :   0.7827 B( 12-O , 13-H ) :   0.8393 B( 12-O , 14-H ) :   0.7746
B( 15-O , 16-H ) :   0.8378 B( 15-O , 17-H ) :   0.7951 B( 18-O , 19-H ) :   0.8280
B( 18-O , 20-H ) :   0.8272 B( 21-O , 22-H ) :   0.8315 B( 21-O , 23-H ) :   0.8100

MP2 TOTAL ENERGY:     -610.577472610 Eh
FINAL SINGLE POINT ENERGY      -610.577472610486

DIPOLE MOMENT
-------------
                                X             Y             Z
Electronic contribution:      0.05993       0.02603      -0.28557
Nuclear contribution   :      0.25610       1.24583      -1.40687
                        -----------------------------------------
Total Dipole Moment    :      0.31603       1.27186      -1.69244
                        -----------------------------------------
Magnitude (a.u.)       :      2.14053
Magnitude (Debye)      :      5.44079

Rotational constants in cm-1:     0.032500     0.018028     0.016040
Rotational constants in MHz :   974.319572   540.475516   480.854818

                             ****ORCA TERMINATED NORMALLY****
TOTAL RUN TIME: 0 days 0 hours 3 minutes 3 seconds 429 msec
