                         Program Version 4.2.0 -  RELEASE  -
|  1> # 12h2o.su.etal.mol2,6,7,10,11
|  2> ! MP2 def2-TZVP EnGrad TightSCF
|  3>
|  4> %pal
|  5>     nprocs 6
|  6> end
|  7>
|  8> %maxcore 8000
|  9>
| 10> %scf
| 11>     ConvForced true
| 12> end
| 13>
| 14> *xyz 0 1
| 15> O   0.923410000  -1.794470000  -2.768350000
| 16> H   1.359750000  -2.338250000  -3.430940000
| 17> H   1.303000000  -0.879480000  -2.865760000
| 18> O   1.737840000   0.885520000  -0.052730000
| 19> H   2.090180000   1.032320000   0.841890000
| 20> H   0.839590000   1.284090000  -0.017130000
| 21> O  -1.737840000  -0.885520000  -0.052730000
| 22> H  -2.090180000  -1.032320000   0.841890000
| 23> H  -0.839590000  -1.284090000  -0.017130000
| 24> O  -0.923410000   1.794470000  -2.768350000
| 25> H  -1.359750000   2.338250000  -3.430940000
| 26> H  -1.303000000   0.879480000  -2.865760000
| 27> O  -0.741530000   1.752130000   2.896280000
| 28> H  -0.920500000   2.036450000   1.984040000
| 29> H  -1.242140000   0.921210000   2.984230000
| 30> *
| 31>
| 32>                          ****END OF INPUT****

CARTESIAN COORDINATES (ANGSTROEM)
---------------------------------
  O      0.923410   -1.794470   -2.768350
  H      1.359750   -2.338250   -3.430940
  H      1.303000   -0.879480   -2.865760
  O      1.737840    0.885520   -0.052730
  H      2.090180    1.032320    0.841890
  H      0.839590    1.284090   -0.017130
  O     -1.737840   -0.885520   -0.052730
  H     -2.090180   -1.032320    0.841890
  H     -0.839590   -1.284090   -0.017130
  O     -0.923410    1.794470   -2.768350
  H     -1.359750    2.338250   -3.430940
  H     -1.303000    0.879480   -2.865760
  O     -0.741530    1.752130    2.896280
  H     -0.920500    2.036450    1.984040
  H     -1.242140    0.921210    2.984230

 Total Charge           Charge          ....    0
 Multiplicity           Mult            ....    1
 Number of Electrons    NEL             ....   50
 Basis Dimension        Dim             ....  215

ORBITAL ENERGIES
----------------

  NO   OCC          E(Eh)            E(eV)
   0   2.0000     -20.571772      -559.7864
   1   2.0000     -20.566636      -559.6466
   2   2.0000     -20.558016      -559.4120
   3   2.0000     -20.555397      -559.3408
   4   2.0000     -20.555318      -559.3386
   5   2.0000      -1.350753       -36.7559
   6   2.0000      -1.342463       -36.5303
   7   2.0000      -1.333385       -36.2832
   8   2.0000      -1.331174       -36.2231
   9   2.0000      -1.330671       -36.2094
  10   2.0000      -0.713731       -19.4216
  11   2.0000      -0.704721       -19.1764
  12   2.0000      -0.701570       -19.0907
  13   2.0000      -0.698071       -18.9955
  14   2.0000      -0.692638       -18.8476
  15   2.0000      -0.588389       -16.0109
  16   2.0000      -0.582128       -15.8405
  17   2.0000      -0.571466       -15.5504
  18   2.0000      -0.570380       -15.5208
  19   2.0000      -0.567731       -15.4488
  20   2.0000      -0.515710       -14.0332
  21   2.0000      -0.509582       -13.8664
  22   2.0000      -0.501747       -13.6532
  23   2.0000      -0.498983       -13.5780
  24   2.0000      -0.497217       -13.5300
  25   0.0000       0.087499         2.3810
  26   0.0000       0.123534         3.3615
  27   0.0000       0.144026         3.9192
  28   0.0000       0.149330         4.0635
  29   0.0000       0.174770         4.7557

MULLIKEN ATOMIC CHARGES
-----------------------
   0 O :   -0.694231
   1 H :    0.335999
   2 H :    0.358933
   3 O :   -0.683143
   4 H :    0.338850
   5 H :    0.342732
   6 O :   -0.683167
   7 H :    0.324282
   8 H :    0.359105
   9 O :   -0.694461
  10 H :    0.336692
  11 H :    0.358408
  12 O :   -0.671105
  13 H :    0.338826
  14 H :    0.332281
Sum of atomic charges:    0.0000000

LOEWDIN ATOMIC CHARGES
----------------------
   0 O :   -0.342156
   1 H :    0.156948
   2 H :    0.185662
   3 O :   -0.336336
   4 H :    0.165143
   5 H :    0.169527
   6 O :   -0.336148
   7 H :    0.158480
   8 H :    0.178476
   9 O :   -0.342218
  10 H :    0.157237
  11 H :    0.185428
  12 O :   -0.327595
  13 H :    0.163736
  14 H :    0.163816

  Mayer bond orders larger than 0.100000
B(  0-O ,  1-H ) :   0.8542 B(  0-O ,  2-H ) :   0.8319 B(  3-O ,  4-H ) :   0.8507
B(  3-O ,  5-H ) :   0.8422 B(  6-O ,  7-H ) :   0.8583 B(  6-O ,  8-H ) :   0.8323
B(  9-O , 10-H ) :   0.8537 B(  9-O , 11-H ) :   0.8322 B( 12-O , 13-H ) :   0.8498
B( 12-O , 14-H ) :   0.8546

MP2 TOTAL ENERGY:     -381.573956683 Eh
FINAL SINGLE POINT ENERGY      -381.573956683360

DIPOLE MOMENT
-------------
                                X             Y             Z
Electronic contribution:      0.11009       0.06582       0.02491
Nuclear contribution   :     -0.56566      -0.45497      -0.40274
                        -----------------------------------------
Total Dipole Moment    :     -0.45557      -0.38915      -0.37782
                        -----------------------------------------
Magnitude (a.u.)       :      0.70833
Magnitude (Debye)      :      1.80043

Rotational constants in cm-1:     0.058540     0.028260     0.027708
Rotational constants in MHz :  1754.979951   847.200259   830.662224

                             ****ORCA TERMINATED NORMALLY****
TOTAL RUN TIME: 0 days 0 hours 0 minutes 26 seconds 699 msec
