                         Program Version 4.2.0 -  RELEASE  -
|  1> # 12meoh.boyd.etal.mol0,4
|  2> ! MP2 def2-TZVP EnGrad TightSCF
|  3>
|  4> %pal
|  5>     nprocs 6
|  6> end
|  7>
|  8> %maxcore 8000
|  9>
| 10> %scf
| 11>     ConvForced true
| 12> end
| 13>
| 14> *xyz 0 1
| 15> O  -1.776108874  -2.741384797  -1.019308298
| 16> H  -2.520094035  -2.452295987  -0.420778302
| 17> C  -2.174025166  -3.952700964  -1.647004581
| 18> H  -1.359803895  -4.272673416  -2.304149236
| 19> H  -3.075973971  -3.808692420  -2.256751112
| 20> H  -2.370225393  -4.752784761  -0.918966137
| 21> O  -1.358578914   1.232360421   1.189721000
| 22> H  -1.058250183   1.216459361   0.238591307
| 23> C  -0.389763452   1.957872567   1.943072362
| 24> H  -0.747220771   2.012806578   2.975200343
| 25> H  -0.260410585   2.982763209   1.565366540
| 26> H   0.585220638   1.453754179   1.934070793
| 27> *
| 28>
| 29>                          ****END OF INPUT****

CARTESIAN COORDINATES (ANGSTROEM)
---------------------------------
  O     -1.776109   -2.741385   -1.019308
  H     -2.520094   -2.452296   -0.420778
  C     -2.174025   -3.952701   -1.647005
  H     -1.359804   -4.272673   -2.304149
  H     -3.075974   -3.808692   -2.256751
  H     -2.370225   -4.752785   -0.918966
  O     -1.358579    1.232360    1.189721
  H     -1.058250    1.216459    0.238591
  C     -0.389763    1.957873    1.943072
  H     -0.747221    2.012807    2.975200
  H     -0.260411    2.982763    1.565367
  H      0.585221    1.453754    1.934071

 Total Charge           Charge          ....    0
 Multiplicity           Mult            ....    1
 Number of Electrons    NEL             ....   36
 Basis Dimension        Dim             ....  172

ORBITAL ENERGIES
----------------

  NO   OCC          E(Eh)            E(eV)
   0   2.0000     -20.555484      -559.3432
   1   2.0000     -20.554713      -559.3222
   2   2.0000     -11.269726      -306.6648
   3   2.0000     -11.269264      -306.6523
   4   2.0000      -1.344674       -36.5904
   5   2.0000      -1.342268       -36.5250
   6   2.0000      -0.917156       -24.9571
   7   2.0000      -0.916646       -24.9432
   8   2.0000      -0.679285       -18.4843
   9   2.0000      -0.677553       -18.4371
  10   2.0000      -0.615280       -16.7426
  11   2.0000      -0.613993       -16.7076
  12   2.0000      -0.589188       -16.0326
  13   2.0000      -0.587378       -15.9834
  14   2.0000      -0.498327       -13.5602
  15   2.0000      -0.497787       -13.5455
  16   2.0000      -0.446738       -12.1563
  17   2.0000      -0.446481       -12.1494
  18   0.0000       0.129349         3.5198
  19   0.0000       0.146146         3.9768
  20   0.0000       0.171701         4.6722
  21   0.0000       0.189549         5.1579
  22   0.0000       0.230152         6.2627

MULLIKEN ATOMIC CHARGES
-----------------------
   0 O :   -0.499115
   1 H :    0.326540
   2 C :   -0.173554
   3 H :    0.127438
   4 H :    0.108755
   5 H :    0.109695
   6 O :   -0.501273
   7 H :    0.325729
   8 C :   -0.173196
   9 H :    0.127686
  10 H :    0.108990
  11 H :    0.112303
Sum of atomic charges:   -0.0000000

LOEWDIN ATOMIC CHARGES
----------------------
   0 O :   -0.109942
   1 H :    0.194501
   2 C :   -0.384777
   3 H :    0.109741
   4 H :    0.094915
   5 H :    0.095374
   6 O :   -0.113926
   7 H :    0.193507
   8 C :   -0.380433
   9 H :    0.109702
  10 H :    0.095403
  11 H :    0.095935

  Mayer bond orders larger than 0.100000
B(  0-O ,  1-H ) :   0.8382 B(  0-O ,  2-C ) :   0.9287 B(  2-C ,  3-H ) :   0.9377
B(  2-C ,  4-H ) :   0.9397 B(  2-C ,  5-H ) :   0.9383 B(  6-O ,  7-H ) :   0.8390
B(  6-O ,  8-C ) :   0.9267 B(  8-C ,  9-H ) :   0.9378 B(  8-C , 10-H ) :   0.9390
B(  8-C , 11-H ) :   0.9388

MP2 TOTAL ENERGY:     -231.014163710 Eh
FINAL SINGLE POINT ENERGY      -231.014163709898

DIPOLE MOMENT
-------------
                                X             Y             Z
Electronic contribution:     -0.64870       0.58758      -0.09029
Nuclear contribution   :      0.61338      -0.61272      -0.07014
                        -----------------------------------------
Total Dipole Moment    :     -0.03531      -0.02514      -0.16043
                        -----------------------------------------
Magnitude (a.u.)       :      0.16618
Magnitude (Debye)      :      0.42240

Rotational constants in cm-1:     1.271067     0.029315     0.029091
Rotational constants in MHz : 38105.643767   878.842283   872.121370

                             ****ORCA TERMINATED NORMALLY****
TOTAL RUN TIME: 0 days 0 hours 0 minutes 16 seconds 898 msec
