                         Program Version 4.2.0 -  RELEASE  -
|  1> # 12h2o.su.etal.mol1,2,4,5,6,9
|  2> ! MP2 def2-TZVP EnGrad TightSCF
|  3>
|  4> %pal
|  5>     nprocs 6
|  6> end
|  7>
|  8> %maxcore 8000
|  9>
| 10> %scf
| 11>     ConvForced true
| 12> end
| 13>
| 14> *xyz 0 1
| 15> O  -1.794470000  -0.923410000   2.768350000
| 16> H  -2.338250000  -1.359750000   3.430940000
| 17> H  -0.879480000  -1.303000000   2.865760000
| 18> O   0.923410000  -1.794470000  -2.768350000
| 19> H   1.359750000  -2.338250000  -3.430940000
| 20> H   1.303000000  -0.879480000  -2.865760000
| 21> O  -0.885520000   1.737840000   0.052730000
| 22> H  -1.032320000   2.090180000  -0.841890000
| 23> H  -1.284090000   0.839590000   0.017130000
| 24> O   0.885520000  -1.737840000   0.052730000
| 25> H   1.284090000  -0.839590000   0.017130000
| 26> H   1.032320000  -2.090180000  -0.841890000
| 27> O   1.737840000   0.885520000  -0.052730000
| 28> H   2.090180000   1.032320000   0.841890000
| 29> H   0.839590000   1.284090000  -0.017130000
| 30> O   0.741530000  -1.752130000   2.896280000
| 31> H   0.920500000  -2.036450000   1.984040000
| 32> H   1.242140000  -0.921210000   2.984230000
| 33> *
| 34>
| 35>                          ****END OF INPUT****

CARTESIAN COORDINATES (ANGSTROEM)
---------------------------------
  O     -1.794470   -0.923410    2.768350
  H     -2.338250   -1.359750    3.430940
  H     -0.879480   -1.303000    2.865760
  O      0.923410   -1.794470   -2.768350
  H      1.359750   -2.338250   -3.430940
  H      1.303000   -0.879480   -2.865760
  O     -0.885520    1.737840    0.052730
  H     -1.032320    2.090180   -0.841890
  H     -1.284090    0.839590    0.017130
  O      0.885520   -1.737840    0.052730
  H      1.284090   -0.839590    0.017130
  H      1.032320   -2.090180   -0.841890
  O      1.737840    0.885520   -0.052730
  H      2.090180    1.032320    0.841890
  H      0.839590    1.284090   -0.017130
  O      0.741530   -1.752130    2.896280
  H      0.920500   -2.036450    1.984040
  H      1.242140   -0.921210    2.984230

 Total Charge           Charge          ....    0
 Multiplicity           Mult            ....    1
 Number of Electrons    NEL             ....   60
 Basis Dimension        Dim             ....  258

ORBITAL ENERGIES
----------------

  NO   OCC          E(Eh)            E(eV)
   0   2.0000     -20.591825      -560.3321
   1   2.0000     -20.589865      -560.2787
   2   2.0000     -20.570853      -559.7614
   3   2.0000     -20.556749      -559.3776
   4   2.0000     -20.526837      -558.5636
   5   2.0000     -20.502785      -557.9091
   6   2.0000      -1.374915       -37.4133
   7   2.0000      -1.367795       -37.2196
   8   2.0000      -1.354326       -36.8531
   9   2.0000      -1.346249       -36.6333
  10   2.0000      -1.311376       -35.6844
  11   2.0000      -1.284646       -34.9570
  12   2.0000      -0.734759       -19.9938
  13   2.0000      -0.729254       -19.8440
  14   2.0000      -0.724121       -19.7043
  15   2.0000      -0.708591       -19.2817
  16   2.0000      -0.690340       -18.7851
  17   2.0000      -0.672118       -18.2892
  18   2.0000      -0.623910       -16.9774
  19   2.0000      -0.608971       -16.5709
  20   2.0000      -0.595976       -16.2173
  21   2.0000      -0.587704       -15.9922
  22   2.0000      -0.562262       -15.2999
  23   2.0000      -0.534600       -14.5472
  24   2.0000      -0.529257       -14.4018
  25   2.0000      -0.524668       -14.2769
  26   2.0000      -0.507584       -13.8121
  27   2.0000      -0.488725       -13.2989
  28   2.0000      -0.478002       -13.0071
  29   2.0000      -0.453289       -12.3346
  30   0.0000       0.094030         2.5587
  31   0.0000       0.120261         3.2725
  32   0.0000       0.133945         3.6448
  33   0.0000       0.172013         4.6807
  34   0.0000       0.188831         5.1384

MULLIKEN ATOMIC CHARGES
-----------------------
   0 O :   -0.738528
   1 H :    0.320538
   2 H :    0.371692
   3 O :   -0.695352
   4 H :    0.350378
   5 H :    0.357386
   6 O :   -0.689626
   7 H :    0.350427
   8 H :    0.382310
   9 O :   -0.745880
  10 H :    0.336946
  11 H :    0.369679
  12 O :   -0.712994
  13 H :    0.344142
  14 H :    0.371343
  15 O :   -0.693748
  16 H :    0.391169
  17 H :    0.330118
Sum of atomic charges:   -0.0000000

LOEWDIN ATOMIC CHARGES
----------------------
   0 O :   -0.376017
   1 H :    0.146595
   2 H :    0.143155
   3 O :   -0.311015
   4 H :    0.162677
   5 H :    0.186080
   6 O :   -0.287129
   7 H :    0.170374
   8 H :    0.189038
   9 O :   -0.349195
  10 H :    0.134971
  11 H :    0.149659
  12 O :   -0.312728
  13 H :    0.164158
  14 H :    0.146204
  15 O :   -0.278993
  16 H :    0.159915
  17 H :    0.162252

  Mayer bond orders larger than 0.100000
B(  0-O ,  1-H ) :   0.8629 B(  0-O ,  2-H ) :   0.7757 B(  3-O ,  4-H ) :   0.8429
B(  3-O ,  5-H ) :   0.8324 B(  6-O ,  7-H ) :   0.8410 B(  6-O ,  8-H ) :   0.8131
B(  9-O , 10-H ) :   0.7850 B(  9-O , 11-H ) :   0.8160 B( 12-O , 13-H ) :   0.8461
B( 12-O , 14-H ) :   0.7706 B( 15-O , 16-H ) :   0.7880 B( 15-O , 17-H ) :   0.8528

MP2 TOTAL ENERGY:     -457.924032983 Eh
FINAL SINGLE POINT ENERGY      -457.924032983129

DIPOLE MOMENT
-------------
                                X             Y             Z
Electronic contribution:     -0.10881       0.08001      -0.18325
Nuclear contribution   :      1.09939       0.53875      -1.46039
                        -----------------------------------------
Total Dipole Moment    :      0.99058       0.61876      -1.64363
                        -----------------------------------------
Magnitude (a.u.)       :      2.01634
Magnitude (Debye)      :      5.12514

Rotational constants in cm-1:     0.050911     0.030138     0.024749
Rotational constants in MHz :  1526.286631   903.523315   741.968451

                             ****ORCA TERMINATED NORMALLY****
TOTAL RUN TIME: 0 days 0 hours 0 minutes 58 seconds 344 msec
