                         Program Version 4.2.0 -  RELEASE  -
|  1> # 12h2o.su.etal.mol0,1,2,4,5,8,10
|  2> ! MP2 def2-TZVP EnGrad TightSCF
|  3>
|  4> %pal
|  5>     nprocs 6
|  6> end
|  7>
|  8> %maxcore 8000
|  9>
| 10> %scf
| 11>     ConvForced true
| 12> end
| 13>
| 14> *xyz 0 1
| 15> O   1.794470000   0.923410000   2.768350000
| 16> H   2.338250000   1.359750000   3.430940000
| 17> H   0.879480000   1.303000000   2.865760000
| 18> O  -1.794470000  -0.923410000   2.768350000
| 19> H  -2.338250000  -1.359750000   3.430940000
| 20> H  -0.879480000  -1.303000000   2.865760000
| 21> O   0.923410000  -1.794470000  -2.768350000
| 22> H   1.359750000  -2.338250000  -3.430940000
| 23> H   1.303000000  -0.879480000  -2.865760000
| 24> O  -0.885520000   1.737840000   0.052730000
| 25> H  -1.032320000   2.090180000  -0.841890000
| 26> H  -1.284090000   0.839590000   0.017130000
| 27> O   0.885520000  -1.737840000   0.052730000
| 28> H   1.284090000  -0.839590000   0.017130000
| 29> H   1.032320000  -2.090180000  -0.841890000
| 30> O   1.752130000   0.741530000  -2.896280000
| 31> H   2.036450000   0.920500000  -1.984040000
| 32> H   0.921210000   1.242140000  -2.984230000
| 33> O  -0.923410000   1.794470000  -2.768350000
| 34> H  -1.359750000   2.338250000  -3.430940000
| 35> H  -1.303000000   0.879480000  -2.865760000
| 36> *
| 37>
| 38>                          ****END OF INPUT****

CARTESIAN COORDINATES (ANGSTROEM)
---------------------------------
  O      1.794470    0.923410    2.768350
  H      2.338250    1.359750    3.430940
  H      0.879480    1.303000    2.865760
  O     -1.794470   -0.923410    2.768350
  H     -2.338250   -1.359750    3.430940
  H     -0.879480   -1.303000    2.865760
  O      0.923410   -1.794470   -2.768350
  H      1.359750   -2.338250   -3.430940
  H      1.303000   -0.879480   -2.865760
  O     -0.885520    1.737840    0.052730
  H     -1.032320    2.090180   -0.841890
  H     -1.284090    0.839590    0.017130
  O      0.885520   -1.737840    0.052730
  H      1.284090   -0.839590    0.017130
  H      1.032320   -2.090180   -0.841890
  O      1.752130    0.741530   -2.896280
  H      2.036450    0.920500   -1.984040
  H      0.921210    1.242140   -2.984230
  O     -0.923410    1.794470   -2.768350
  H     -1.359750    2.338250   -3.430940
  H     -1.303000    0.879480   -2.865760

 Total Charge           Charge          ....    0
 Multiplicity           Mult            ....    1
 Number of Electrons    NEL             ....   70
 Basis Dimension        Dim             ....  301

ORBITAL ENERGIES
----------------

  NO   OCC          E(Eh)            E(eV)
   0   2.0000     -20.620821      -561.1211
   1   2.0000     -20.580356      -560.0199
   2   2.0000     -20.548184      -559.1445
   3   2.0000     -20.545038      -559.0589
   4   2.0000     -20.541878      -558.9729
   5   2.0000     -20.534045      -558.7598
   6   2.0000     -20.515884      -558.2656
   7   2.0000      -1.401383       -38.1336
   8   2.0000      -1.369312       -37.2609
   9   2.0000      -1.326178       -36.0871
  10   2.0000      -1.323556       -36.0158
  11   2.0000      -1.320399       -35.9299
  12   2.0000      -1.313206       -35.7341
  13   2.0000      -1.294297       -35.2196
  14   2.0000      -0.767003       -20.8712
  15   2.0000      -0.731049       -19.8929
  16   2.0000      -0.710161       -19.3245
  17   2.0000      -0.692289       -18.8381
  18   2.0000      -0.687871       -18.7179
  19   2.0000      -0.686003       -18.6671
  20   2.0000      -0.663389       -18.0517
  21   2.0000      -0.638976       -17.3874
  22   2.0000      -0.610963       -16.6251
  23   2.0000      -0.579274       -15.7628
  24   2.0000      -0.565514       -15.3884
  25   2.0000      -0.560228       -15.2446
  26   2.0000      -0.557218       -15.1627
  27   2.0000      -0.540449       -14.7064
  28   2.0000      -0.539145       -14.6709
  29   2.0000      -0.515492       -14.0272
  30   2.0000      -0.491997       -13.3879
  31   2.0000      -0.488754       -13.2997
  32   2.0000      -0.487482       -13.2651
  33   2.0000      -0.479815       -13.0564
  34   2.0000      -0.461255       -12.5514
  35   0.0000       0.089769         2.4427
  36   0.0000       0.124839         3.3970
  37   0.0000       0.141010         3.8371
  38   0.0000       0.155511         4.2317
  39   0.0000       0.164309         4.4711

MULLIKEN ATOMIC CHARGES
-----------------------
   0 O :   -0.691870
   1 H :    0.332616
   2 H :    0.359511
   3 O :   -0.692618
   4 H :    0.331934
   5 H :    0.360982
   6 O :   -0.740176
   7 H :    0.335639
   8 H :    0.365715
   9 O :   -0.703094
  10 H :    0.355186
  11 H :    0.343358
  12 O :   -0.702317
  13 H :    0.322276
  14 H :    0.364410
  15 O :   -0.700060
  16 H :    0.358647
  17 H :    0.376509
  18 O :   -0.720894
  19 H :    0.366684
  20 H :    0.377564
Sum of atomic charges:   -0.0000000

LOEWDIN ATOMIC CHARGES
----------------------
   0 O :   -0.341221
   1 H :    0.155339
   2 H :    0.185870
   3 O :   -0.341625
   4 H :    0.155059
   5 H :    0.186512
   6 O :   -0.343903
   7 H :    0.152816
   8 H :    0.141584
   9 O :   -0.345781
  10 H :    0.143752
  11 H :    0.170350
  12 O :   -0.348815
  13 H :    0.159330
  14 H :    0.147623
  15 O :   -0.278901
  16 H :    0.171910
  17 H :    0.153821
  18 O :   -0.287564
  19 H :    0.169212
  20 H :    0.194633

  Mayer bond orders larger than 0.100000
B(  0-O ,  1-H ) :   0.8557 B(  0-O ,  2-H ) :   0.8313 B(  3-O ,  4-H ) :   0.8562
B(  3-O ,  5-H ) :   0.8304 B(  6-O ,  7-H ) :   0.8511 B(  6-O ,  8-H ) :   0.7611
B(  9-O , 10-H ) :   0.8312 B(  9-O , 11-H ) :   0.8409 B( 12-O , 13-H ) :   0.8540
B( 12-O , 14-H ) :   0.8146 B( 15-O , 16-H ) :   0.8353 B( 15-O , 17-H ) :   0.8017
B( 18-O , 19-H ) :   0.8302 B( 18-O , 20-H ) :   0.8142

MP2 TOTAL ENERGY:     -534.229467720 Eh
FINAL SINGLE POINT ENERGY      -534.229467720170

DIPOLE MOMENT
-------------
                                X             Y             Z
Electronic contribution:     -0.04669       0.28129      -0.19102
Nuclear contribution   :     -0.45497       0.56566      -0.86245
                        -----------------------------------------
Total Dipole Moment    :     -0.50166       0.84695      -1.05347
                        -----------------------------------------
Magnitude (a.u.)       :      1.44180
Magnitude (Debye)      :      3.66476

Rotational constants in cm-1:     0.035111     0.018621     0.016864
Rotational constants in MHz :  1052.604657   558.241503   505.583557

                             ****ORCA TERMINATED NORMALLY****
TOTAL RUN TIME: 0 days 0 hours 1 minutes 54 seconds 642 msec
