                         Program Version 4.2.0 -  RELEASE  -
|  1> # 12h2o.su.etal.mol0,2,3,5,6,8
|  2> ! MP2 def2-TZVP EnGrad TightSCF
|  3>
|  4> %pal
|  5>     nprocs 6
|  6> end
|  7>
|  8> %maxcore 8000
|  9>
| 10> %scf
| 11>     ConvForced true
| 12> end
| 13>
| 14> *xyz 0 1
| 15> O   1.794470000   0.923410000   2.768350000
| 16> H   2.338250000   1.359750000   3.430940000
| 17> H   0.879480000   1.303000000   2.865760000
| 18> O   0.923410000  -1.794470000  -2.768350000
| 19> H   1.359750000  -2.338250000  -3.430940000
| 20> H   1.303000000  -0.879480000  -2.865760000
| 21> O  -1.752130000  -0.741530000  -2.896280000
| 22> H  -2.036450000  -0.920500000  -1.984040000
| 23> H  -0.921210000  -1.242140000  -2.984230000
| 24> O   0.885520000  -1.737840000   0.052730000
| 25> H   1.284090000  -0.839590000   0.017130000
| 26> H   1.032320000  -2.090180000  -0.841890000
| 27> O   1.737840000   0.885520000  -0.052730000
| 28> H   2.090180000   1.032320000   0.841890000
| 29> H   0.839590000   1.284090000  -0.017130000
| 30> O   1.752130000   0.741530000  -2.896280000
| 31> H   2.036450000   0.920500000  -1.984040000
| 32> H   0.921210000   1.242140000  -2.984230000
| 33> *
| 34>
| 35>                          ****END OF INPUT****

CARTESIAN COORDINATES (ANGSTROEM)
---------------------------------
  O      1.794470    0.923410    2.768350
  H      2.338250    1.359750    3.430940
  H      0.879480    1.303000    2.865760
  O      0.923410   -1.794470   -2.768350
  H      1.359750   -2.338250   -3.430940
  H      1.303000   -0.879480   -2.865760
  O     -1.752130   -0.741530   -2.896280
  H     -2.036450   -0.920500   -1.984040
  H     -0.921210   -1.242140   -2.984230
  O      0.885520   -1.737840    0.052730
  H      1.284090   -0.839590    0.017130
  H      1.032320   -2.090180   -0.841890
  O      1.737840    0.885520   -0.052730
  H      2.090180    1.032320    0.841890
  H      0.839590    1.284090   -0.017130
  O      1.752130    0.741530   -2.896280
  H      2.036450    0.920500   -1.984040
  H      0.921210    1.242140   -2.984230

 Total Charge           Charge          ....    0
 Multiplicity           Mult            ....    1
 Number of Electrons    NEL             ....   60
 Basis Dimension        Dim             ....  258

ORBITAL ENERGIES
----------------

  NO   OCC          E(Eh)            E(eV)
   0   2.0000     -20.606645      -560.7353
   1   2.0000     -20.596187      -560.4507
   2   2.0000     -20.579714      -560.0025
   3   2.0000     -20.552365      -559.2583
   4   2.0000     -20.525182      -558.5186
   5   2.0000     -20.496243      -557.7311
   6   2.0000      -1.389223       -37.8027
   7   2.0000      -1.378685       -37.5159
   8   2.0000      -1.367797       -37.2197
   9   2.0000      -1.337944       -36.4073
  10   2.0000      -1.307097       -35.5679
  11   2.0000      -1.280710       -34.8499
  12   2.0000      -0.753980       -20.5168
  13   2.0000      -0.745247       -20.2792
  14   2.0000      -0.726667       -19.7736
  15   2.0000      -0.719781       -19.5862
  16   2.0000      -0.676460       -18.4074
  17   2.0000      -0.667828       -18.1725
  18   2.0000      -0.641280       -17.4501
  19   2.0000      -0.619772       -16.8649
  20   2.0000      -0.597980       -16.2719
  21   2.0000      -0.584318       -15.9001
  22   2.0000      -0.558755       -15.2045
  23   2.0000      -0.548194       -14.9171
  24   2.0000      -0.541596       -14.7376
  25   2.0000      -0.516788       -14.0625
  26   2.0000      -0.512295       -13.9402
  27   2.0000      -0.490968       -13.3599
  28   2.0000      -0.473164       -12.8754
  29   2.0000      -0.446979       -12.1629
  30   0.0000       0.084931         2.3111
  31   0.0000       0.118779         3.2322
  32   0.0000       0.151877         4.1328
  33   0.0000       0.166887         4.5412
  34   0.0000       0.182789         4.9739

MULLIKEN ATOMIC CHARGES
-----------------------
   0 O :   -0.689480
   1 H :    0.356782
   2 H :    0.354796
   3 O :   -0.746838
   4 H :    0.344478
   5 H :    0.382070
   6 O :   -0.719356
   7 H :    0.332541
   8 H :    0.363051
   9 O :   -0.734674
  10 H :    0.341668
  11 H :    0.358184
  12 O :   -0.723498
  13 H :    0.392120
  14 H :    0.345177
  15 O :   -0.700455
  16 H :    0.388582
  17 H :    0.354850
Sum of atomic charges:    0.0000000

LOEWDIN ATOMIC CHARGES
----------------------
   0 O :   -0.305600
   1 H :    0.166071
   2 H :    0.186386
   3 O :   -0.312747
   4 H :    0.156343
   5 H :    0.146280
   6 O :   -0.353207
   7 H :    0.160608
   8 H :    0.146764
   9 O :   -0.370583
  10 H :    0.133750
  11 H :    0.142269
  12 O :   -0.285287
  13 H :    0.159458
  14 H :    0.173202
  15 O :   -0.274498
  16 H :    0.158210
  17 H :    0.172582

  Mayer bond orders larger than 0.100000
B(  0-O ,  1-H ) :   0.8393 B(  0-O ,  2-H ) :   0.8346 B(  3-O ,  4-H ) :   0.8433
B(  3-O ,  5-H ) :   0.7458 B(  6-O ,  7-H ) :   0.8545 B(  6-O ,  8-H ) :   0.8096
B(  9-O , 10-H ) :   0.8209 B(  9-O , 11-H ) :   0.8249 B( 12-O , 13-H ) :   0.7878
B( 12-O , 14-H ) :   0.8378 B( 15-O , 16-H ) :   0.7999 B( 15-O , 17-H ) :   0.8355

MP2 TOTAL ENERGY:     -457.925916535 Eh
FINAL SINGLE POINT ENERGY      -457.925916535023

DIPOLE MOMENT
-------------
                                X             Y             Z
Electronic contribution:      0.35158       0.12119       0.08093
Nuclear contribution   :      0.36972       1.89647       1.37221
                        -----------------------------------------
Total Dipole Moment    :      0.72130       2.01765       1.45314
                        -----------------------------------------
Magnitude (a.u.)       :      2.58898
Magnitude (Debye)      :      6.58067

Rotational constants in cm-1:     0.071884     0.025487     0.023419
Rotational constants in MHz :  2155.015970   764.093355   702.098892

                             ****ORCA TERMINATED NORMALLY****
TOTAL RUN TIME: 0 days 0 hours 1 minutes 7 seconds 828 msec
