                         Program Version 4.2.0 -  RELEASE  -
|  1> # 12h2o.su.etal.mol3,5,6,7,10
|  2> ! MP2 def2-TZVP EnGrad TightSCF
|  3>
|  4> %pal
|  5>     nprocs 6
|  6> end
|  7>
|  8> %maxcore 8000
|  9>
| 10> %scf
| 11>     ConvForced true
| 12> end
| 13>
| 14> *xyz 0 1
| 15> O  -1.752130000  -0.741530000  -2.896280000
| 16> H  -2.036450000  -0.920500000  -1.984040000
| 17> H  -0.921210000  -1.242140000  -2.984230000
| 18> O   0.885520000  -1.737840000   0.052730000
| 19> H   1.284090000  -0.839590000   0.017130000
| 20> H   1.032320000  -2.090180000  -0.841890000
| 21> O   1.737840000   0.885520000  -0.052730000
| 22> H   2.090180000   1.032320000   0.841890000
| 23> H   0.839590000   1.284090000  -0.017130000
| 24> O  -1.737840000  -0.885520000  -0.052730000
| 25> H  -2.090180000  -1.032320000   0.841890000
| 26> H  -0.839590000  -1.284090000  -0.017130000
| 27> O  -0.923410000   1.794470000  -2.768350000
| 28> H  -1.359750000   2.338250000  -3.430940000
| 29> H  -1.303000000   0.879480000  -2.865760000
| 30> *
| 31>
| 32>                          ****END OF INPUT****

CARTESIAN COORDINATES (ANGSTROEM)
---------------------------------
  O     -1.752130   -0.741530   -2.896280
  H     -2.036450   -0.920500   -1.984040
  H     -0.921210   -1.242140   -2.984230
  O      0.885520   -1.737840    0.052730
  H      1.284090   -0.839590    0.017130
  H      1.032320   -2.090180   -0.841890
  O      1.737840    0.885520   -0.052730
  H      2.090180    1.032320    0.841890
  H      0.839590    1.284090   -0.017130
  O     -1.737840   -0.885520   -0.052730
  H     -2.090180   -1.032320    0.841890
  H     -0.839590   -1.284090   -0.017130
  O     -0.923410    1.794470   -2.768350
  H     -1.359750    2.338250   -3.430940
  H     -1.303000    0.879480   -2.865760

 Total Charge           Charge          ....    0
 Multiplicity           Mult            ....    1
 Number of Electrons    NEL             ....   50
 Basis Dimension        Dim             ....  215

ORBITAL ENERGIES
----------------

  NO   OCC          E(Eh)            E(eV)
   0   2.0000     -20.595458      -560.4309
   1   2.0000     -20.573879      -559.8437
   2   2.0000     -20.565868      -559.6257
   3   2.0000     -20.557131      -559.3880
   4   2.0000     -20.509137      -558.0820
   5   2.0000      -1.378504       -37.5110
   6   2.0000      -1.359917       -37.0052
   7   2.0000      -1.354767       -36.8651
   8   2.0000      -1.336478       -36.3674
   9   2.0000      -1.291078       -35.1320
  10   2.0000      -0.732961       -19.9449
  11   2.0000      -0.726826       -19.7779
  12   2.0000      -0.720173       -19.5969
  13   2.0000      -0.707896       -19.2628
  14   2.0000      -0.678965       -18.4756
  15   2.0000      -0.626670       -17.0526
  16   2.0000      -0.609183       -16.5767
  17   2.0000      -0.593428       -16.1480
  18   2.0000      -0.575399       -15.6574
  19   2.0000      -0.540125       -14.6975
  20   2.0000      -0.531985       -14.4760
  21   2.0000      -0.516386       -14.0516
  22   2.0000      -0.506892       -13.7932
  23   2.0000      -0.494829       -13.4650
  24   2.0000      -0.459684       -12.5086
  25   0.0000       0.095691         2.6039
  26   0.0000       0.130015         3.5379
  27   0.0000       0.153354         4.1730
  28   0.0000       0.170513         4.6399
  29   0.0000       0.205942         5.6040

MULLIKEN ATOMIC CHARGES
-----------------------
   0 O :   -0.691351
   1 H :    0.389571
   2 H :    0.333017
   3 O :   -0.708299
   4 H :    0.372587
   5 H :    0.342800
   6 O :   -0.688482
   7 H :    0.352989
   8 H :    0.378341
   9 O :   -0.730854
  10 H :    0.342618
  11 H :    0.352588
  12 O :   -0.738737
  13 H :    0.322487
  14 H :    0.370724
Sum of atomic charges:   -0.0000000

LOEWDIN ATOMIC CHARGES
----------------------
   0 O :   -0.276537
   1 H :    0.160512
   2 H :    0.163761
   3 O :   -0.308390
   4 H :    0.146825
   5 H :    0.163459
   6 O :   -0.286715
   7 H :    0.171665
   8 H :    0.187258
   9 O :   -0.343230
  10 H :    0.165665
  11 H :    0.141216
  12 O :   -0.375877
  13 H :    0.147533
  14 H :    0.142854

  Mayer bond orders larger than 0.100000
B(  0-O ,  1-H ) :   0.7941 B(  0-O ,  2-H ) :   0.8511 B(  3-O ,  4-H ) :   0.7705
B(  3-O ,  5-H ) :   0.8464 B(  3-O , 11-H ) :   0.1036 B(  6-O ,  7-H ) :   0.8395
B(  6-O ,  8-H ) :   0.8163 B(  9-O , 10-H ) :   0.8477 B(  9-O , 11-H ) :   0.7718
B( 12-O , 13-H ) :   0.8619 B( 12-O , 14-H ) :   0.7771

MP2 TOTAL ENERGY:     -381.604612536 Eh
FINAL SINGLE POINT ENERGY      -381.604612535918

DIPOLE MOMENT
-------------
                                X             Y             Z
Electronic contribution:      0.19334      -0.01379       0.08297
Nuclear contribution   :      0.22976      -0.42024       0.82779
                        -----------------------------------------
Total Dipole Moment    :      0.42311      -0.43404       0.91076
                        -----------------------------------------
Magnitude (a.u.)       :      1.09403
Magnitude (Debye)      :      2.78079

Rotational constants in cm-1:     0.076463     0.050306     0.036291
Rotational constants in MHz :  2292.317509  1508.145975  1087.967613

                             ****ORCA TERMINATED NORMALLY****
TOTAL RUN TIME: 0 days 0 hours 1 minutes 9 seconds 627 msec
