                         Program Version 4.2.0 -  RELEASE  -
|  1> # 12h2o.su.etal.mol0,1,4,6,7,9
|  2> ! MP2 def2-TZVP EnGrad TightSCF
|  3>
|  4> %pal
|  5>     nprocs 6
|  6> end
|  7>
|  8> %maxcore 8000
|  9>
| 10> %scf
| 11>     ConvForced true
| 12> end
| 13>
| 14> *xyz 0 1
| 15> O   1.794470000   0.923410000   2.768350000
| 16> H   2.338250000   1.359750000   3.430940000
| 17> H   0.879480000   1.303000000   2.865760000
| 18> O  -1.794470000  -0.923410000   2.768350000
| 19> H  -2.338250000  -1.359750000   3.430940000
| 20> H  -0.879480000  -1.303000000   2.865760000
| 21> O  -0.885520000   1.737840000   0.052730000
| 22> H  -1.032320000   2.090180000  -0.841890000
| 23> H  -1.284090000   0.839590000   0.017130000
| 24> O   1.737840000   0.885520000  -0.052730000
| 25> H   2.090180000   1.032320000   0.841890000
| 26> H   0.839590000   1.284090000  -0.017130000
| 27> O  -1.737840000  -0.885520000  -0.052730000
| 28> H  -2.090180000  -1.032320000   0.841890000
| 29> H  -0.839590000  -1.284090000  -0.017130000
| 30> O   0.741530000  -1.752130000   2.896280000
| 31> H   0.920500000  -2.036450000   1.984040000
| 32> H   1.242140000  -0.921210000   2.984230000
| 33> *
| 34>
| 35>                          ****END OF INPUT****

CARTESIAN COORDINATES (ANGSTROEM)
---------------------------------
  O      1.794470    0.923410    2.768350
  H      2.338250    1.359750    3.430940
  H      0.879480    1.303000    2.865760
  O     -1.794470   -0.923410    2.768350
  H     -2.338250   -1.359750    3.430940
  H     -0.879480   -1.303000    2.865760
  O     -0.885520    1.737840    0.052730
  H     -1.032320    2.090180   -0.841890
  H     -1.284090    0.839590    0.017130
  O      1.737840    0.885520   -0.052730
  H      2.090180    1.032320    0.841890
  H      0.839590    1.284090   -0.017130
  O     -1.737840   -0.885520   -0.052730
  H     -2.090180   -1.032320    0.841890
  H     -0.839590   -1.284090   -0.017130
  O      0.741530   -1.752130    2.896280
  H      0.920500   -2.036450    1.984040
  H      1.242140   -0.921210    2.984230

 Total Charge           Charge          ....    0
 Multiplicity           Mult            ....    1
 Number of Electrons    NEL             ....   60
 Basis Dimension        Dim             ....  258

ORBITAL ENERGIES
----------------

  NO   OCC          E(Eh)            E(eV)
   0   2.0000     -20.613084      -560.9105
   1   2.0000     -20.586718      -560.1931
   2   2.0000     -20.564367      -559.5849
   3   2.0000     -20.554417      -559.3141
   4   2.0000     -20.548330      -559.1485
   5   2.0000     -20.505719      -557.9890
   6   2.0000      -1.394330       -37.9416
   7   2.0000      -1.375365       -37.4256
   8   2.0000      -1.352910       -36.8145
   9   2.0000      -1.336535       -36.3690
  10   2.0000      -1.330413       -36.2024
  11   2.0000      -1.289635       -35.0927
  12   2.0000      -0.760030       -20.6815
  13   2.0000      -0.735965       -20.0266
  14   2.0000      -0.722028       -19.6474
  15   2.0000      -0.710121       -19.3234
  16   2.0000      -0.701429       -19.0869
  17   2.0000      -0.675149       -18.3717
  18   2.0000      -0.637463       -17.3462
  19   2.0000      -0.616273       -16.7696
  20   2.0000      -0.603235       -16.4149
  21   2.0000      -0.580443       -15.7947
  22   2.0000      -0.573663       -15.6102
  23   2.0000      -0.558473       -15.1968
  24   2.0000      -0.528595       -14.3838
  25   2.0000      -0.523978       -14.2582
  26   2.0000      -0.504053       -13.7160
  27   2.0000      -0.503865       -13.7109
  28   2.0000      -0.486125       -13.2281
  29   2.0000      -0.456688       -12.4271
  30   0.0000       0.093155         2.5349
  31   0.0000       0.123877         3.3709
  32   0.0000       0.152958         4.1622
  33   0.0000       0.158885         4.3235
  34   0.0000       0.191356         5.2071

MULLIKEN ATOMIC CHARGES
-----------------------
   0 O :   -0.722268
   1 H :    0.363632
   2 H :    0.382873
   3 O :   -0.742474
   4 H :    0.341016
   5 H :    0.368281
   6 O :   -0.721016
   7 H :    0.346520
   8 H :    0.376657
   9 O :   -0.737592
  10 H :    0.350910
  11 H :    0.341176
  12 O :   -0.700521
  13 H :    0.382849
  14 H :    0.335882
  15 O :   -0.699505
  16 H :    0.352865
  17 H :    0.380714
Sum of atomic charges:   -0.0000000

LOEWDIN ATOMIC CHARGES
----------------------
   0 O :   -0.287862
   1 H :    0.167862
   2 H :    0.196152
   3 O :   -0.342515
   4 H :    0.155684
   5 H :    0.142309
   6 O :   -0.315762
   7 H :    0.166086
   8 H :    0.146776
   9 O :   -0.372928
  10 H :    0.139063
  11 H :    0.134763
  12 O :   -0.297564
  13 H :    0.154261
  14 H :    0.167175
  15 O :   -0.278379
  16 H :    0.169337
  17 H :    0.155543

  Mayer bond orders larger than 0.100000
B(  0-O ,  1-H ) :   0.8318 B(  0-O ,  2-H ) :   0.8105 B(  3-O ,  4-H ) :   0.8484
B(  3-O ,  5-H ) :   0.7568 B(  5-H , 15-O ) :   0.1025 B(  6-O ,  7-H ) :   0.8445
B(  6-O ,  8-H ) :   0.7689 B(  9-O , 10-H ) :   0.8384 B(  9-O , 11-H ) :   0.7955
B( 12-O , 13-H ) :   0.7915 B( 12-O , 14-H ) :   0.8442 B( 15-O , 16-H ) :   0.8389
B( 15-O , 17-H ) :   0.7950

MP2 TOTAL ENERGY:     -457.933930183 Eh
FINAL SINGLE POINT ENERGY      -457.933930183207

DIPOLE MOMENT
-------------
                                X             Y             Z
Electronic contribution:      0.01664      -0.06621       0.15212
Nuclear contribution   :      0.11171       0.00057       1.35336
                        -----------------------------------------
Total Dipole Moment    :      0.12835      -0.06564       1.50548
                        -----------------------------------------
Magnitude (a.u.)       :      1.51237
Magnitude (Debye)      :      3.84414

Rotational constants in cm-1:     0.048131     0.046692     0.029540
Rotational constants in MHz :  1442.929090  1399.797956   885.588895

                             ****ORCA TERMINATED NORMALLY****
TOTAL RUN TIME: 0 days 0 hours 1 minutes 18 seconds 435 msec
