                         Program Version 4.2.0 -  RELEASE  -
|  1> # 12h2o.su.etal.mol0,1,2,3,5,6,7,8,10
|  2> ! MP2 def2-TZVP EnGrad TightSCF
|  3>
|  4> %pal
|  5>     nprocs 6
|  6> end
|  7>
|  8> %maxcore 8000
|  9>
| 10> %scf
| 11>     ConvForced true
| 12> end
| 13>
| 14> *xyz 0 1
| 15> O   1.794470000   0.923410000   2.768350000
| 16> H   2.338250000   1.359750000   3.430940000
| 17> H   0.879480000   1.303000000   2.865760000
| 18> O  -1.794470000  -0.923410000   2.768350000
| 19> H  -2.338250000  -1.359750000   3.430940000
| 20> H  -0.879480000  -1.303000000   2.865760000
| 21> O   0.923410000  -1.794470000  -2.768350000
| 22> H   1.359750000  -2.338250000  -3.430940000
| 23> H   1.303000000  -0.879480000  -2.865760000
| 24> O  -1.752130000  -0.741530000  -2.896280000
| 25> H  -2.036450000  -0.920500000  -1.984040000
| 26> H  -0.921210000  -1.242140000  -2.984230000
| 27> O   0.885520000  -1.737840000   0.052730000
| 28> H   1.284090000  -0.839590000   0.017130000
| 29> H   1.032320000  -2.090180000  -0.841890000
| 30> O   1.737840000   0.885520000  -0.052730000
| 31> H   2.090180000   1.032320000   0.841890000
| 32> H   0.839590000   1.284090000  -0.017130000
| 33> O  -1.737840000  -0.885520000  -0.052730000
| 34> H  -2.090180000  -1.032320000   0.841890000
| 35> H  -0.839590000  -1.284090000  -0.017130000
| 36> O   1.752130000   0.741530000  -2.896280000
| 37> H   2.036450000   0.920500000  -1.984040000
| 38> H   0.921210000   1.242140000  -2.984230000
| 39> O  -0.923410000   1.794470000  -2.768350000
| 40> H  -1.359750000   2.338250000  -3.430940000
| 41> H  -1.303000000   0.879480000  -2.865760000
| 42> *
| 43>
| 44>                          ****END OF INPUT****

CARTESIAN COORDINATES (ANGSTROEM)
---------------------------------
  O      1.794470    0.923410    2.768350
  H      2.338250    1.359750    3.430940
  H      0.879480    1.303000    2.865760
  O     -1.794470   -0.923410    2.768350
  H     -2.338250   -1.359750    3.430940
  H     -0.879480   -1.303000    2.865760
  O      0.923410   -1.794470   -2.768350
  H      1.359750   -2.338250   -3.430940
  H      1.303000   -0.879480   -2.865760
  O     -1.752130   -0.741530   -2.896280
  H     -2.036450   -0.920500   -1.984040
  H     -0.921210   -1.242140   -2.984230
  O      0.885520   -1.737840    0.052730
  H      1.284090   -0.839590    0.017130
  H      1.032320   -2.090180   -0.841890
  O      1.737840    0.885520   -0.052730
  H      2.090180    1.032320    0.841890
  H      0.839590    1.284090   -0.017130
  O     -1.737840   -0.885520   -0.052730
  H     -2.090180   -1.032320    0.841890
  H     -0.839590   -1.284090   -0.017130
  O      1.752130    0.741530   -2.896280
  H      2.036450    0.920500   -1.984040
  H      0.921210    1.242140   -2.984230
  O     -0.923410    1.794470   -2.768350
  H     -1.359750    2.338250   -3.430940
  H     -1.303000    0.879480   -2.865760

 Total Charge           Charge          ....    0
 Multiplicity           Mult            ....    1
 Number of Electrons    NEL             ....   90
 Basis Dimension        Dim             ....  387

ORBITAL ENERGIES
----------------

  NO   OCC          E(Eh)            E(eV)
   0   2.0000     -20.606876      -560.7416
   1   2.0000     -20.586425      -560.1851
   2   2.0000     -20.584150      -560.1232
   3   2.0000     -20.551714      -559.2406
   4   2.0000     -20.542101      -558.9790
   5   2.0000     -20.528751      -558.6157
   6   2.0000     -20.527400      -558.5790
   7   2.0000     -20.525096      -558.5163
   8   2.0000     -20.511509      -558.1465
   9   2.0000      -1.386150       -37.7191
  10   2.0000      -1.369486       -37.2656
  11   2.0000      -1.364313       -37.1248
  12   2.0000      -1.347781       -36.6750
  13   2.0000      -1.328134       -36.1404
  14   2.0000      -1.324029       -36.0287
  15   2.0000      -1.316480       -35.8232
  16   2.0000      -1.304736       -35.5037
  17   2.0000      -1.293518       -35.1984
  18   2.0000      -0.752146       -20.4669
  19   2.0000      -0.733683       -19.9645
  20   2.0000      -0.730878       -19.8882
  21   2.0000      -0.716735       -19.5034
  22   2.0000      -0.702917       -19.1273
  23   2.0000      -0.692102       -18.8331
  24   2.0000      -0.688924       -18.7466
  25   2.0000      -0.686042       -18.6682
  26   2.0000      -0.672817       -18.3083
  27   2.0000      -0.634433       -17.2638
  28   2.0000      -0.617443       -16.8015
  29   2.0000      -0.603553       -16.4235
  30   2.0000      -0.595689       -16.2095
  31   2.0000      -0.583300       -15.8724
  32   2.0000      -0.573124       -15.5955
  33   2.0000      -0.559880       -15.2351
  34   2.0000      -0.554387       -15.0856
  35   2.0000      -0.546309       -14.8658
  36   2.0000      -0.532188       -14.4816
  37   2.0000      -0.520286       -14.1577
  38   2.0000      -0.512714       -13.9517
  39   2.0000      -0.497032       -13.5249
  40   2.0000      -0.489321       -13.3151
  41   2.0000      -0.479018       -13.0347
  42   2.0000      -0.474974       -12.9247
  43   2.0000      -0.470465       -12.8020
  44   2.0000      -0.462568       -12.5871
  45   0.0000       0.087776         2.3885
  46   0.0000       0.125335         3.4105
  47   0.0000       0.139931         3.8077
  48   0.0000       0.159911         4.3514
  49   0.0000       0.171090         4.6556

MULLIKEN ATOMIC CHARGES
-----------------------
   0 O :   -0.701729
   1 H :    0.357646
   2 H :    0.362675
   3 O :   -0.703621
   4 H :    0.349105
   5 H :    0.365305
   6 O :   -0.756032
   7 H :    0.346246
   8 H :    0.382774
   9 O :   -0.729791
  10 H :    0.388143
  11 H :    0.363179
  12 O :   -0.733717
  13 H :    0.362982
  14 H :    0.374002
  15 O :   -0.735808
  16 H :    0.387069
  17 H :    0.366923
  18 O :   -0.753735
  19 H :    0.362689
  20 H :    0.347013
  21 O :   -0.726025
  22 H :    0.381563
  23 H :    0.370470
  24 O :   -0.748796
  25 H :    0.335251
  26 H :    0.386220
Sum of atomic charges:   -0.0000000

LOEWDIN ATOMIC CHARGES
----------------------
   0 O :   -0.310396
   1 H :    0.166383
   2 H :    0.188257
   3 O :   -0.314223
   4 H :    0.162120
   5 H :    0.188031
   6 O :   -0.316290
   7 H :    0.156915
   8 H :    0.146303
   9 O :   -0.292349
  10 H :    0.157494
  11 H :    0.147076
  12 O :   -0.320736
  13 H :    0.139698
  14 H :    0.148157
  15 O :   -0.284692
  16 H :    0.157108
  17 H :    0.180534
  18 O :   -0.353266
  19 H :    0.146508
  20 H :    0.137514
  21 O :   -0.288972
  22 H :    0.153778
  23 H :    0.150697
  24 O :   -0.344935
  25 H :    0.152881
  26 H :    0.146405

  Mayer bond orders larger than 0.100000
B(  0-O ,  1-H ) :   0.8387 B(  0-O ,  2-H ) :   0.8271 B(  3-O ,  4-H ) :   0.8433
B(  3-O ,  5-H ) :   0.8251 B(  6-O ,  7-H ) :   0.8428 B(  6-O ,  8-H ) :   0.7262
B(  8-H , 21-O ) :   0.1244 B(  9-O , 10-H ) :   0.7930 B(  9-O , 11-H ) :   0.8046
B(  9-O , 26-H ) :   0.1210 B( 12-O , 13-H ) :   0.7912 B( 12-O , 14-H ) :   0.8053
B( 12-O , 20-H ) :   0.1098 B( 15-O , 16-H ) :   0.7935 B( 15-O , 17-H ) :   0.8198
B( 18-O , 19-H ) :   0.8218 B( 18-O , 20-H ) :   0.7705 B( 21-O , 22-H ) :   0.8097
B( 21-O , 23-H ) :   0.7856 B( 24-O , 25-H ) :   0.8515 B( 24-O , 26-H ) :   0.7353

MP2 TOTAL ENERGY:     -686.924813654 Eh
FINAL SINGLE POINT ENERGY      -686.924813654473

DIPOLE MOMENT
-------------
                                X             Y             Z
Electronic contribution:      0.21891       0.08676       0.23793
Nuclear contribution   :      0.45394       0.45439       2.14649
                        -----------------------------------------
Total Dipole Moment    :      0.67285       0.54115       2.38442
                        -----------------------------------------
Magnitude (a.u.)       :      2.53595
Magnitude (Debye)      :      6.44587

Rotational constants in cm-1:     0.026816     0.016595     0.013823
Rotational constants in MHz :   803.915493   497.518571   414.395584

                             ****ORCA TERMINATED NORMALLY****
TOTAL RUN TIME: 0 days 0 hours 4 minutes 47 seconds 67 msec
