                         Program Version 3.0.3 - RELEASE   -
|  1> ! BP86 Def2-SVP TightSCF Opt D3BJ
|  2>
|  3> %pal nprocs 12 end
|  4>
|  5> %scf
|  6>         maxiter 800
|  7> end
|  8>
|  9> * xyz  0  1
| 10> O  3.24897181	0.29051551	-3.34464439
| 11> H  2.62029335	-0.34455935	-3.68768255
| 12> H  3.71636690	0.60709018	-4.11766066
| 13> O  -2.32803558	0.47797892	-0.39283375
| 14> H  -2.06242853	-0.20726937	0.22045209
| 15> H  -3.10279085	0.87185170	0.00822777
| 16> O  -0.46221928	-0.43520382	-2.25575765
| 17> H  -1.27534489	-0.11991011	-1.86123457
| 18> H  0.18812081	0.22947610	-2.02884307
| 19> O  1.40669672	-1.55873036	-4.00910285
| 20> H  1.64178488	-2.33355626	-3.49860287
| 21> H  0.59894513	-1.24131728	-3.60534779
| 22> O  2.26193656	-3.46567614	-2.16785362
| 23> H  2.70192039	-4.30502783	-2.30251919
| 24> H  2.95952085	-2.87030244	-1.89374021
| 25> O  -4.16937239	1.65718345	1.30262349
| 26> H  -5.00553084	2.12090987	1.25758246
| 27> H  -3.54951510	2.31091636	1.62610777
| 28> O  0.43269385	0.61405375	2.28875742
| 29> H  0.00455942	0.91321599	3.09090125
| 30> H  0.20735392	1.27610285	1.63519430
| 31> O  -3.20243584	-0.14384668	3.19454668
| 32> H  -2.70221992	-0.75285194	2.65128939
| 33> H  -3.69214455	0.38955561	2.56852812
| 34> O  -1.34157464	1.51794686	4.20985179
| 35> H  -2.03034255	0.90391846	3.95529388
| 36> H  -1.41283863	1.57703115	5.16256494
| 37> O  1.51825400	1.23568099	-1.40379130
| 38> H  2.15484446	1.13416467	-2.11137795
| 39> H  1.84423470	0.66905150	-0.70457785
| 40> O  -2.21233518	3.26356243	2.22172054
| 41> H  -1.51681841	3.18367432	1.56895247
| 42> H  -1.86911539	2.81457487	2.99427617
| 43> O  -1.34142040	-1.27487341	1.43762009
| 44> H  -0.67711048	-0.69310495	1.80703808
| 45> H  -0.84685031	-1.89219731	0.89859925
| 46> O  -0.41194975	2.28511027	0.31629428
| 47> H  0.28482110	2.21603969	-0.33637063
| 48> H  -1.11090202	1.72330064	-0.01847059
| 49> O  4.00803405	-1.56101702	-1.40718822
| 50> H  3.62009781	-1.18950993	-0.61490052
| 51> H  3.91945826	-0.87060185	-2.06423698
| 52> O  2.21563054	-0.57500646	0.50186622
| 53> H  1.83741833	-0.20390662	1.29903137
| 54> H  1.59993236	-1.25964593	0.24030094
| 55> O  0.37712748	-2.32768780	-0.49210656
| 56> H  0.94339727	-2.91923375	-0.98773117
| 57> H  0.01087949	-1.73786432	-1.15104702
| 58> **                         ****END OF INPUT****
 Total Charge           Charge          ....    0
 Multiplicity           Mult            ....    1
 Number of Electrons    NEL             ....  160
Dispersion correction           -0.054985389
FINAL SINGLE POINT ENERGY     -1222.211998372205
Dispersion correction            ...
Dispersion correction           -0.054303669
FINAL SINGLE POINT ENERGY     -1222.242450628612
Dispersion correction            ...
Dispersion correction           -0.054504279
FINAL SINGLE POINT ENERGY     -1222.251728758413
Dispersion correction            ...
FINAL SINGLE POINT ENERGY     -1222.255737718392
FINAL SINGLE POINT ENERGY     -1222.258927790412
FINAL SINGLE POINT ENERGY     -1222.261654771497
FINAL SINGLE POINT ENERGY     -1222.263844223961
FINAL SINGLE POINT ENERGY     -1222.265427794449
FINAL SINGLE POINT ENERGY     -1222.266418912822
FINAL SINGLE POINT ENERGY     -1222.266894916777
FINAL SINGLE POINT ENERGY     -1222.268548476953
FINAL SINGLE POINT ENERGY     -1222.268555959112
FINAL SINGLE POINT ENERGY     -1222.268561822740
FINAL SINGLE POINT ENERGY     -1222.268566683714
FINAL SINGLE POINT ENERGY     -1222.268570700112
FINAL SINGLE POINT ENERGY     -1222.268574789653
FINAL SINGLE POINT ENERGY     -1222.268578989045
Dispersion correction            ...
Dispersion correction           -0.058728804
FINAL SINGLE POINT ENERGY     -1222.268583383970
Dispersion correction            ...
Dispersion correction           -0.058723513
FINAL SINGLE POINT ENERGY     -1222.268587229227
Dispersion correction            ...
                    ***********************HURRAY********************

CARTESIAN COORDINATES (ANGSTROEM)
---------------------------------
  O      3.074174    0.224032   -3.143939
  H      2.385441   -0.437264   -3.574818
  H      3.597188    0.590515   -3.880001
  O     -2.211738    0.458902   -0.445911
  H     -1.942671   -0.245188    0.235801
  H     -3.036057    0.855982   -0.040719
  O     -0.445410   -0.449688   -2.210867
  H     -1.309619   -0.112647   -1.845262
  H      0.223147    0.257841   -1.919890
  O      1.335959   -1.449557   -3.989090
  H      1.581789   -2.242684   -3.433272
  H      0.498174   -1.126541   -3.558847
  O      2.143171   -3.236612   -2.086105
  H      2.529200   -4.117172   -2.246177
  H      2.929081   -2.633198   -1.748469
  O     -3.919254    1.553518    1.272845
  H     -4.803609    1.958047    1.206631
  H     -3.274530    2.314122    1.592573
  O      0.476579    0.542405    2.202061
  H      0.037782    0.866744    3.041554
  H      0.205100    1.245444    1.520873
  O     -3.088049   -0.209619    3.185250
  H     -2.572536   -0.840080    2.612865
  H     -3.567175    0.358509    2.516430
  O     -1.304610    1.460044    3.951608
  H     -2.041674    0.751588    3.724067
  H     -1.334326    1.583515    4.918028
  O      1.409784    1.239222   -1.335557
  H      2.080385    1.141676   -2.072867
  H      1.770927    0.615133   -0.620042
  O     -2.190702    3.256518    2.090722
  H     -1.460944    3.157982    1.420260
  H     -1.834927    2.758655    2.880713
  O     -1.331553   -1.232049    1.397038
  H     -0.598945   -0.621986    1.748435
  H     -0.832288   -1.917170    0.873104
  O     -0.397588    2.226036    0.347686
  H      0.314488    2.214263   -0.349384
  H     -1.106962    1.601356   -0.025945
  O      3.940929   -1.591722   -1.296120
  H      3.532700   -1.194753   -0.479284
  H      3.811875   -0.875253   -1.980545
  O      2.179151   -0.544027    0.472136
  H      1.834600   -0.184528    1.334980
  H      1.486247   -1.240034    0.211573
  O      0.335580   -2.238835   -0.411586
  H      0.913229   -2.871630   -0.928989
  H     -0.021512   -1.619810   -1.133549

 Multiplicity           Mult            ....    1
 Number of Electrons    NEL             ....  160
 Basis Dimension        Dim             ....  384

ORBITAL ENERGIES
----------------

  NO   OCC          E(Eh)            E(eV)
   0   2.0000     -18.789864      -511.2982
   1   2.0000     -18.789773      -511.2957
   2   2.0000     -18.789478      -511.2877
   3   2.0000     -18.788975      -511.2740
   4   2.0000     -18.776518      -510.9350
   5   2.0000     -18.776394      -510.9316
   6   2.0000     -18.776330      -510.9299
   7   2.0000     -18.776050      -510.9223
   8   2.0000     -18.774925      -510.8917
   9   2.0000     -18.774807      -510.8885
  10   2.0000     -18.774559      -510.8817
  11   2.0000     -18.774303      -510.8748
  12   2.0000     -18.768470      -510.7160
  13   2.0000     -18.768167      -510.7078
  14   2.0000     -18.768022      -510.7038
  15   2.0000     -18.767988      -510.7029
  16   2.0000      -0.932303       -25.3693
  17   2.0000      -0.926166       -25.2023
  18   2.0000      -0.916407       -24.9367
  19   2.0000      -0.915223       -24.9045
  20   2.0000      -0.913622       -24.8609
  21   2.0000      -0.907184       -24.6857
  22   2.0000      -0.905894       -24.6506
  23   2.0000      -0.903350       -24.5814
  24   2.0000      -0.895700       -24.3732
  25   2.0000      -0.890677       -24.2366
  26   2.0000      -0.889986       -24.2178
  27   2.0000      -0.885908       -24.1068
  28   2.0000      -0.884455       -24.0672
  29   2.0000      -0.883534       -24.0422
  30   2.0000      -0.875535       -23.8245
  31   2.0000      -0.865879       -23.5618
  32   2.0000      -0.490651       -13.3513
  33   2.0000      -0.489563       -13.3217
  34   2.0000      -0.489265       -13.3136
  35   2.0000      -0.486775       -13.2458
  36   2.0000      -0.482980       -13.1425
  37   2.0000      -0.479660       -13.0522
  38   2.0000      -0.478330       -13.0160
  39   2.0000      -0.474778       -12.9194
  40   2.0000      -0.465009       -12.6535
  41   2.0000      -0.463945       -12.6246
  42   2.0000      -0.461580       -12.5602
  43   2.0000      -0.456911       -12.4332
  44   2.0000      -0.454456       -12.3664
  45   2.0000      -0.450130       -12.2487
  46   2.0000      -0.449941       -12.2435
  47   2.0000      -0.449747       -12.2382
  48   2.0000      -0.419528       -11.4159
  49   2.0000      -0.399963       -10.8835
  50   2.0000      -0.378711       -10.3053
  51   2.0000      -0.377925       -10.2839
  52   2.0000      -0.368908       -10.0385
  53   2.0000      -0.364520        -9.9191
  54   2.0000      -0.357285        -9.7222
  55   2.0000      -0.351895        -9.5755
  56   2.0000      -0.338505        -9.2112
  57   2.0000      -0.337693        -9.1891
  58   2.0000      -0.333609        -9.0780
  59   2.0000      -0.332138        -9.0379
  60   2.0000      -0.315729        -8.5914
  61   2.0000      -0.312324        -8.4988
  62   2.0000      -0.303229        -8.2513
  63   2.0000      -0.285077        -7.7573
  64   2.0000      -0.276173        -7.5150
  65   2.0000      -0.274143        -7.4598
  66   2.0000      -0.273643        -7.4462
  67   2.0000      -0.272608        -7.4180
  68   2.0000      -0.267505        -7.2792
  69   2.0000      -0.266748        -7.2586
  70   2.0000      -0.264437        -7.1957
  71   2.0000      -0.263707        -7.1758
  72   2.0000      -0.263222        -7.1626
  73   2.0000      -0.261828        -7.1247
  74   2.0000      -0.259789        -7.0692
  75   2.0000      -0.257733        -7.0133
  76   2.0000      -0.255034        -6.9398
  77   2.0000      -0.253796        -6.9061
  78   2.0000      -0.253463        -6.8971
  79   2.0000      -0.252676        -6.8757
  80   0.0000       0.003658         0.0995
  81   0.0000       0.017389         0.4732
  82   0.0000       0.035749         0.9728
  83   0.0000       0.036305         0.9879
  84   0.0000       0.054123         1.4728

MULLIKEN ATOMIC CHARGES
-----------------------
   0 O :   -0.339446
   1 H :    0.168012
   2 H :    0.185128
   3 O :   -0.327030
   4 H :    0.138558
   5 H :    0.169326
   6 O :   -0.325361
   7 H :    0.183834
   8 H :    0.133143
   9 O :   -0.306855
  10 H :    0.149542
  11 H :    0.172998
  12 O :   -0.340945
  13 H :    0.185301
  14 H :    0.168104
  15 O :   -0.340981
  16 H :    0.185695
  17 H :    0.168751
  18 O :   -0.329179
  19 H :    0.166964
  20 H :    0.137690
  21 O :   -0.304985
  22 H :    0.173323
  23 H :    0.148913
  24 O :   -0.335749
  25 H :    0.164800
  26 H :    0.185506
  27 O :   -0.328091
  28 H :    0.168676
  29 H :    0.136165
  30 O :   -0.306269
  31 H :    0.172491
  32 H :    0.146451
  33 O :   -0.325691
  34 H :    0.133808
  35 H :    0.186510
  36 O :   -0.324730
  37 H :    0.186502
  38 H :    0.132738
  39 O :   -0.306576
  40 H :    0.170823
  41 H :    0.147568
  42 O :   -0.324290
  43 H :    0.186497
  44 H :    0.134743
  45 O :   -0.328981
  46 H :    0.169512
  47 H :    0.137088
Sum of atomic charges:   -0.0000000

LOEWDIN ATOMIC CHARGES
----------------------
   0 O :   -0.102365
   1 H :    0.029985
   2 H :    0.086483
   3 O :   -0.093090
   4 H :    0.028244
   5 H :    0.043921
   6 O :   -0.090276
   7 H :    0.055504
   8 H :    0.027106
   9 O :   -0.078393
  10 H :    0.040957
  11 H :    0.053364
  12 O :   -0.103685
  13 H :    0.086749
  14 H :    0.030808
  15 O :   -0.103294
  16 H :    0.086930
  17 H :    0.030939
  18 O :   -0.096597
  19 H :    0.043402
  20 H :    0.028009
  21 O :   -0.079115
  22 H :    0.053481
  23 H :    0.040610
  24 O :   -0.102001
  25 H :    0.030005
  26 H :    0.086726
  27 O :   -0.095946
  28 H :    0.043509
  29 H :    0.027867
  30 O :   -0.080268
  31 H :    0.052704
  32 H :    0.040087
  33 O :   -0.088451
  34 H :    0.027670
  35 H :    0.056699
  36 O :   -0.088097
  37 H :    0.056847
  38 H :    0.027007
  39 O :   -0.080467
  40 H :    0.052458
  41 H :    0.039920
  42 O :   -0.087816
  43 H :    0.056696
  44 H :    0.027325
  45 O :   -0.094775
  46 H :    0.044090
  47 H :    0.028535

  Mayer bond orders larger than 0.1
B(  0-O ,  1-H ) :   0.7669 B(  0-O ,  2-H ) :   0.9758 B(  0-O , 28-H ) :   0.1919
B(  0-O , 41-H ) :   0.1900 B(  1-H ,  9-O ) :   0.3068 B(  3-O ,  4-H ) :   0.8315
B(  3-O ,  5-H ) :   0.8774 B(  3-O ,  7-H ) :   0.1583 B(  3-O , 38-H ) :   0.2563
B(  4-H , 33-O ) :   0.2516 B(  5-H , 15-O ) :   0.1917 B(  6-O ,  7-H ) :   0.8917
B(  6-O ,  8-H ) :   0.8290 B(  6-O , 11-H ) :   0.1532 B(  6-O , 47-H ) :   0.2513
B(  8-H , 27-O ) :   0.2573 B(  9-O , 10-H ) :   0.8974 B(  9-O , 11-H ) :   0.9099
B( 10-H , 12-O ) :   0.1893 B( 12-O , 13-H ) :   0.9753 B( 12-O , 14-H ) :   0.7672
B( 12-O , 46-H ) :   0.1897 B( 14-H , 39-O ) :   0.3063 B( 15-O , 16-H ) :   0.9749
B( 15-O , 17-H ) :   0.7669 B( 15-O , 23-H ) :   0.1889 B( 17-H , 30-O ) :   0.3067
B( 18-O , 19-H ) :   0.8762 B( 18-O , 20-H ) :   0.8326 B( 18-O , 34-H ) :   0.2563
B( 18-O , 43-H ) :   0.1551 B( 19-H , 24-O ) :   0.1943 B( 20-H , 36-O ) :   0.2505
B( 21-O , 22-H ) :   0.9115 B( 21-O , 23-H ) :   0.8969 B( 21-O , 25-H ) :   0.3085
B( 22-H , 33-O ) :   0.1500 B( 24-O , 25-H ) :   0.7666 B( 24-O , 26-H ) :   0.9759
B( 24-O , 32-H ) :   0.1913 B( 27-O , 28-H ) :   0.8769 B( 27-O , 29-H ) :   0.8333
B( 27-O , 37-H ) :   0.1532 B( 29-H , 42-O ) :   0.2496 B( 30-O , 31-H ) :   0.9111
B( 30-O , 32-H ) :   0.8969 B( 31-H , 36-O ) :   0.1523 B( 33-O , 34-H ) :   0.8289
B( 33-O , 35-H ) :   0.8938 B( 35-H , 45-O ) :   0.1534 B( 36-O , 37-H ) :   0.8939
B( 36-O , 38-H ) :   0.8286 B( 39-O , 40-H ) :   0.9099 B( 39-O , 41-H ) :   0.8980
B( 40-H , 42-O ) :   0.1546 B( 42-O , 43-H ) :   0.8930 B( 42-O , 44-H ) :   0.8291
B( 44-H , 45-O ) :   0.2557 B( 45-O , 46-H ) :   0.8782 B( 45-O , 47-H ) :   0.8321

Dispersion correction           -0.058715517
FINAL SINGLE POINT ENERGY     -1222.268590963383

DIPOLE MOMENT
-------------
                                X             Y             Z
Electronic contribution:     -0.01443      -0.00175       0.00287
Nuclear contribution   :     -0.01603      -0.02139      -0.00043
                        -----------------------------------------
Total Dipole Moment    :     -0.03047      -0.02314       0.00244
                        -----------------------------------------
Magnitude (a.u.)       :      0.03833
Magnitude (Debye)      :      0.09744

                             ****ORCA TERMINATED NORMALLY****
TOTAL RUN TIME: 0 days 0 hours 42 minutes 37 seconds 421 msec
