                         Program Version 4.2.0 -  RELEASE  -
|  1> # 12mecn.remya.etal.2.mol4,6,9
|  2> ! MP2 def2-TZVP EnGrad TightSCF
|  3>
|  4> %pal
|  5>     nprocs 6
|  6> end
|  7>
|  8> %maxcore 8000
|  9>
| 10> %scf
| 11>     ConvForced true
| 12> end
| 13>
| 14> *xyz 0 1
| 15> C  -1.509690000  -0.693960000  -1.610140000
| 16> H  -1.327010000  -1.692700000  -2.017370000
| 17> H  -0.742170000  -0.000650000  -1.964400000
| 18> H  -2.491920000  -0.334310000  -1.929350000
| 19> C  -1.473570000  -0.748120000  -0.167200000
| 20> N  -1.447490000  -0.793720000   0.998938000
| 21> C   5.300864000  -2.920090000   1.401103000
| 22> H   5.986071000  -2.139770000   1.737487000
| 23> H   5.636642000  -3.888750000   1.778233000
| 24> H   4.307359000  -2.697240000   1.799307000
| 25> C   5.234791000  -2.933140000  -0.043290000
| 26> N   5.170868000  -2.941760000  -1.207750000
| 27> C   0.923766000   4.000693000  -1.575910000
| 28> H   0.011949000   4.478423000  -1.939550000
| 29> H   0.947903000   2.966558000  -1.929960000
| 30> H   1.805950000   4.519548000  -1.956520000
| 31> C   0.942834000   3.994846000  -0.131200000
| 32> N   0.960035000   3.982544000   1.035639000
| 33> *
| 34>
| 35>                          ****END OF INPUT****

CARTESIAN COORDINATES (ANGSTROEM)
---------------------------------
  C     -1.509690   -0.693960   -1.610140
  H     -1.327010   -1.692700   -2.017370
  H     -0.742170   -0.000650   -1.964400
  H     -2.491920   -0.334310   -1.929350
  C     -1.473570   -0.748120   -0.167200
  N     -1.447490   -0.793720    0.998938
  C      5.300864   -2.920090    1.401103
  H      5.986071   -2.139770    1.737487
  H      5.636642   -3.888750    1.778233
  H      4.307359   -2.697240    1.799307
  C      5.234791   -2.933140   -0.043290
  N      5.170868   -2.941760   -1.207750
  C      0.923766    4.000693   -1.575910
  H      0.011949    4.478423   -1.939550
  H      0.947903    2.966558   -1.929960
  H      1.805950    4.519548   -1.956520
  C      0.942834    3.994846   -0.131200
  N      0.960035    3.982544    1.035639

 Total Charge           Charge          ....    0
 Multiplicity           Mult            ....    1
 Number of Electrons    NEL             ....   66
 Basis Dimension        Dim             ....  333

ORBITAL ENERGIES
----------------

  NO   OCC          E(Eh)            E(eV)
   0   2.0000     -15.573934      -423.7883
   1   2.0000     -15.573414      -423.7741
   2   2.0000     -15.573049      -423.7642
   3   2.0000     -11.287622      -307.1518
   4   2.0000     -11.287250      -307.1417
   5   2.0000     -11.282621      -307.0157
   6   2.0000     -11.280598      -306.9607
   7   2.0000     -11.280245      -306.9511
   8   2.0000     -11.279894      -306.9415
   9   2.0000      -1.215042       -33.0630
  10   2.0000      -1.214690       -33.0534
  11   2.0000      -1.214164       -33.0391
  12   2.0000      -1.046619       -28.4800
  13   2.0000      -1.045880       -28.4598
  14   2.0000      -1.042243       -28.3609
  15   2.0000      -0.702580       -19.1182
  16   2.0000      -0.700586       -19.0639
  17   2.0000      -0.699761       -19.0415
  18   2.0000      -0.636613       -17.3231
  19   2.0000      -0.635470       -17.2920
  20   2.0000      -0.634098       -17.2547
  21   2.0000      -0.632458       -17.2101
  22   2.0000      -0.630915       -17.1681
  23   2.0000      -0.627995       -17.0886
  24   2.0000      -0.556635       -15.1468
  25   2.0000      -0.555902       -15.1268
  26   2.0000      -0.555463       -15.1149
  27   2.0000      -0.458356       -12.4725
  28   2.0000      -0.458328       -12.4717
  29   2.0000      -0.458004       -12.4629
  30   2.0000      -0.457702       -12.4547
  31   2.0000      -0.457348       -12.4451
  32   2.0000      -0.456769       -12.4293
  33   0.0000       0.094726         2.5776
  34   0.0000       0.121753         3.3131
  35   0.0000       0.132248         3.5986
  36   0.0000       0.155993         4.2448
  37   0.0000       0.167732         4.5642

MULLIKEN ATOMIC CHARGES
-----------------------
   0 C :   -0.274743
   1 H :    0.175892
   2 H :    0.161138
   3 H :    0.172227
   4 C :   -0.145311
   5 N :   -0.089187
   6 C :   -0.280620
   7 H :    0.172430
   8 H :    0.171808
   9 H :    0.178196
  10 C :   -0.145467
  11 N :   -0.096352
  12 C :   -0.279535
  13 H :    0.172662
  14 H :    0.163053
  15 H :    0.175123
  16 C :   -0.144424
  17 N :   -0.086892
Sum of atomic charges:   -0.0000000

LOEWDIN ATOMIC CHARGES
----------------------
   0 C :   -0.283852
   1 H :    0.153793
   2 H :    0.149266
   3 H :    0.152728
   4 C :   -0.220969
   5 N :    0.049041
   6 C :   -0.282701
   7 H :    0.152030
   8 H :    0.151489
   9 H :    0.155129
  10 C :   -0.218007
  11 N :    0.042058
  12 C :   -0.284374
  13 H :    0.151244
  14 H :    0.150204
  15 H :    0.152561
  16 C :   -0.220338
  17 N :    0.050696

  Mayer bond orders larger than 0.100000
B(  0-C ,  1-H ) :   0.9158 B(  0-C ,  2-H ) :   0.9189 B(  0-C ,  3-H ) :   0.9174
B(  0-C ,  4-C ) :   0.9005 B(  4-C ,  5-N ) :   2.8328 B(  6-C ,  7-H ) :   0.9163
B(  6-C ,  8-H ) :   0.9159 B(  6-C ,  9-H ) :   0.9150 B(  6-C , 10-C ) :   0.9025
B( 10-C , 11-N ) :   2.8409 B( 12-C , 13-H ) :   0.9169 B( 12-C , 14-H ) :   0.9193
B( 12-C , 15-H ) :   0.9166 B( 12-C , 16-C ) :   0.9007 B( 16-C , 17-N ) :   2.8315

MP2 TOTAL ENERGY:     -397.449313242 Eh
FINAL SINGLE POINT ENERGY      -397.449313241632

DIPOLE MOMENT
-------------
                                X             Y             Z
Electronic contribution:     -0.01786      -0.15539       3.17354
Nuclear contribution   :      0.03041       0.23828      -4.61679
                        -----------------------------------------
Total Dipole Moment    :      0.01255       0.08289      -1.44324
                        -----------------------------------------
Magnitude (a.u.)       :      1.44568
Magnitude (Debye)      :      3.67462

Rotational constants in cm-1:     0.024111     0.010471     0.008453
Rotational constants in MHz :   722.832625   313.901589   253.419981

                             ****ORCA TERMINATED NORMALLY****
TOTAL RUN TIME: 0 days 0 hours 2 minutes 3 seconds 293 msec
