                         Program Version 4.2.0 -  RELEASE  -
|  1> # 12meoh.boyd.etal.mol2,5,7
|  2> ! MP2 def2-TZVP EnGrad TightSCF
|  3>
|  4> %pal
|  5>     nprocs 6
|  6> end
|  7>
|  8> %maxcore 8000
|  9>
| 10> %scf
| 11>     ConvForced true
| 12> end
| 13>
| 14> *xyz 0 1
| 15> O  -3.839777402   2.233595098   0.660436763
| 16> H  -2.958345897   1.907036203   0.973588449
| 17> C  -3.600368059   3.168790682  -0.390480452
| 18> H  -4.551709193   3.344148967  -0.901254863
| 19> H  -2.868237594   2.789240199  -1.113617525
| 20> H  -3.243594915   4.128998607   0.009549480
| 21> O  -0.662721750   1.449094618  -1.383082065
| 22> H   0.064188300   2.119867608  -1.465650660
| 23> C  -0.353319239   0.341218776  -2.229326771
| 24> H  -1.072358530  -0.454743281  -2.019906495
| 25> H   0.657636746  -0.044472139  -2.042736771
| 26> H  -0.434616607   0.624733901  -3.287793021
| 27> O   4.310535586  -1.588322800   0.656128299
| 28> H   3.804372199  -1.630404735  -0.196849819
| 29> C   4.312298137  -2.894980854   1.222112691
| 30> H   4.713177833  -2.819907076   2.237066773
| 31> H   4.957796734  -3.574699304   0.648211180
| 32> H   3.302735989  -3.324433205   1.269756773
| 33> *
| 34>
| 35>                          ****END OF INPUT****

CARTESIAN COORDINATES (ANGSTROEM)
---------------------------------
  O     -3.839777    2.233595    0.660437
  H     -2.958346    1.907036    0.973588
  C     -3.600368    3.168791   -0.390480
  H     -4.551709    3.344149   -0.901255
  H     -2.868238    2.789240   -1.113618
  H     -3.243595    4.128999    0.009549
  O     -0.662722    1.449095   -1.383082
  H      0.064188    2.119868   -1.465651
  C     -0.353319    0.341219   -2.229327
  H     -1.072359   -0.454743   -2.019906
  H      0.657637   -0.044472   -2.042737
  H     -0.434617    0.624734   -3.287793
  O      4.310536   -1.588323    0.656128
  H      3.804372   -1.630405   -0.196850
  C      4.312298   -2.894981    1.222113
  H      4.713178   -2.819907    2.237067
  H      4.957797   -3.574699    0.648211
  H      3.302736   -3.324433    1.269757

 Total Charge           Charge          ....    0
 Multiplicity           Mult            ....    1
 Number of Electrons    NEL             ....   54
 Basis Dimension        Dim             ....  258

ORBITAL ENERGIES
----------------

  NO   OCC          E(Eh)            E(eV)
   0   2.0000     -20.569747      -559.7313
   1   2.0000     -20.561528      -559.5076
   2   2.0000     -20.540987      -558.9487
   3   2.0000     -11.282487      -307.0121
   4   2.0000     -11.274931      -306.8065
   5   2.0000     -11.254048      -306.2382
   6   2.0000      -1.358048       -36.9544
   7   2.0000      -1.351133       -36.7662
   8   2.0000      -1.330237       -36.1976
   9   2.0000      -0.931140       -25.3376
  10   2.0000      -0.923000       -25.1161
  11   2.0000      -0.903217       -24.5778
  12   2.0000      -0.693023       -18.8581
  13   2.0000      -0.685734       -18.6598
  14   2.0000      -0.665416       -18.1069
  15   2.0000      -0.628222       -17.0948
  16   2.0000      -0.620509       -16.8849
  17   2.0000      -0.605549       -16.4778
  18   2.0000      -0.597240       -16.2517
  19   2.0000      -0.594527       -16.1779
  20   2.0000      -0.574163       -15.6238
  21   2.0000      -0.512931       -13.9575
  22   2.0000      -0.504588       -13.7305
  23   2.0000      -0.485230       -13.2038
  24   2.0000      -0.461265       -12.5516
  25   2.0000      -0.452905       -12.3242
  26   2.0000      -0.432655       -11.7731
  27   0.0000       0.106732         2.9043
  28   0.0000       0.130015         3.5379
  29   0.0000       0.160926         4.3790
  30   0.0000       0.170616         4.6427
  31   0.0000       0.175831         4.7846

MULLIKEN ATOMIC CHARGES
-----------------------
   0 O :   -0.507046
   1 H :    0.324812
   2 C :   -0.177484
   3 H :    0.120727
   4 H :    0.126109
   5 H :    0.099430
   6 O :   -0.501703
   7 H :    0.326382
   8 C :   -0.168754
   9 H :    0.136128
  10 H :    0.105674
  11 H :    0.115658
  12 O :   -0.495859
  13 H :    0.319127
  14 C :   -0.174999
  15 H :    0.130627
  16 H :    0.109943
  17 H :    0.111228
Sum of atomic charges:    0.0000000

LOEWDIN ATOMIC CHARGES
----------------------
   0 O :   -0.114030
   1 H :    0.188704
   2 C :   -0.383820
   3 H :    0.106044
   4 H :    0.096667
   5 H :    0.092608
   6 O :   -0.107933
   7 H :    0.190542
   8 C :   -0.374392
   9 H :    0.112006
  10 H :    0.095814
  11 H :    0.097794
  12 O :   -0.109532
  13 H :    0.188151
  14 C :   -0.380783
  15 H :    0.110587
  16 H :    0.095593
  17 H :    0.095981

  Mayer bond orders larger than 0.100000
B(  0-O ,  1-H ) :   0.8413 B(  0-O ,  2-C ) :   0.9243 B(  2-C ,  3-H ) :   0.9386
B(  2-C ,  4-H ) :   0.9331 B(  2-C ,  5-H ) :   0.9399 B(  6-O ,  7-H ) :   0.8382
B(  6-O ,  8-C ) :   0.9108 B(  8-C ,  9-H ) :   0.9384 B(  8-C , 10-H ) :   0.9358
B(  8-C , 11-H ) :   0.9397 B( 12-O , 13-H ) :   0.8443 B( 12-O , 14-C ) :   0.9245
B( 14-C , 15-H ) :   0.9375 B( 14-C , 16-H ) :   0.9384 B( 14-C , 17-H ) :   0.9399

MP2 TOTAL ENERGY:     -346.523061911 Eh
FINAL SINGLE POINT ENERGY      -346.523061910880

DIPOLE MOMENT
-------------
                                X             Y             Z
Electronic contribution:     -0.79280       1.75533       1.75041
Nuclear contribution   :      1.79527      -2.26490      -2.72943
                        -----------------------------------------
Total Dipole Moment    :      1.00247      -0.50957      -0.97902
                        -----------------------------------------
Magnitude (a.u.)       :      1.49100
Magnitude (Debye)      :      3.78983

Rotational constants in cm-1:     0.107308     0.011245     0.010518
Rotational constants in MHz :  3217.000012   337.124144   315.322907

                             ****ORCA TERMINATED NORMALLY****
TOTAL RUN TIME: 0 days 0 hours 0 minutes 51 seconds 465 msec
