                         Program Version 4.2.0 -  RELEASE  -
|  1> # 12h2o.su.etal.mol2,3,4,7,8,9,10,11
|  2> ! MP2 def2-TZVP EnGrad TightSCF
|  3>
|  4> %pal
|  5>     nprocs 6
|  6> end
|  7>
|  8> %maxcore 8000
|  9>
| 10> %scf
| 11>     ConvForced true
| 12> end
| 13>
| 14> *xyz 0 1
| 15> O   0.923410000  -1.794470000  -2.768350000
| 16> H   1.359750000  -2.338250000  -3.430940000
| 17> H   1.303000000  -0.879480000  -2.865760000
| 18> O  -1.752130000  -0.741530000  -2.896280000
| 19> H  -2.036450000  -0.920500000  -1.984040000
| 20> H  -0.921210000  -1.242140000  -2.984230000
| 21> O  -0.885520000   1.737840000   0.052730000
| 22> H  -1.032320000   2.090180000  -0.841890000
| 23> H  -1.284090000   0.839590000   0.017130000
| 24> O  -1.737840000  -0.885520000  -0.052730000
| 25> H  -2.090180000  -1.032320000   0.841890000
| 26> H  -0.839590000  -1.284090000  -0.017130000
| 27> O   1.752130000   0.741530000  -2.896280000
| 28> H   2.036450000   0.920500000  -1.984040000
| 29> H   0.921210000   1.242140000  -2.984230000
| 30> O   0.741530000  -1.752130000   2.896280000
| 31> H   0.920500000  -2.036450000   1.984040000
| 32> H   1.242140000  -0.921210000   2.984230000
| 33> O  -0.923410000   1.794470000  -2.768350000
| 34> H  -1.359750000   2.338250000  -3.430940000
| 35> H  -1.303000000   0.879480000  -2.865760000
| 36> O  -0.741530000   1.752130000   2.896280000
| 37> H  -0.920500000   2.036450000   1.984040000
| 38> H  -1.242140000   0.921210000   2.984230000
| 39> *
| 40>
| 41>                          ****END OF INPUT****

CARTESIAN COORDINATES (ANGSTROEM)
---------------------------------
  O      0.923410   -1.794470   -2.768350
  H      1.359750   -2.338250   -3.430940
  H      1.303000   -0.879480   -2.865760
  O     -1.752130   -0.741530   -2.896280
  H     -2.036450   -0.920500   -1.984040
  H     -0.921210   -1.242140   -2.984230
  O     -0.885520    1.737840    0.052730
  H     -1.032320    2.090180   -0.841890
  H     -1.284090    0.839590    0.017130
  O     -1.737840   -0.885520   -0.052730
  H     -2.090180   -1.032320    0.841890
  H     -0.839590   -1.284090   -0.017130
  O      1.752130    0.741530   -2.896280
  H      2.036450    0.920500   -1.984040
  H      0.921210    1.242140   -2.984230
  O      0.741530   -1.752130    2.896280
  H      0.920500   -2.036450    1.984040
  H      1.242140   -0.921210    2.984230
  O     -0.923410    1.794470   -2.768350
  H     -1.359750    2.338250   -3.430940
  H     -1.303000    0.879480   -2.865760
  O     -0.741530    1.752130    2.896280
  H     -0.920500    2.036450    1.984040
  H     -1.242140    0.921210    2.984230

 Total Charge           Charge          ....    0
 Multiplicity           Mult            ....    1
 Number of Electrons    NEL             ....   80
 Basis Dimension        Dim             ....  344

ORBITAL ENERGIES
----------------

  NO   OCC          E(Eh)            E(eV)
   0   2.0000     -20.627074      -561.2912
   1   2.0000     -20.579442      -559.9951
   2   2.0000     -20.576997      -559.9286
   3   2.0000     -20.572138      -559.7963
   4   2.0000     -20.566069      -559.6312
   5   2.0000     -20.562150      -559.5245
   6   2.0000     -20.537611      -558.8568
   7   2.0000     -20.530562      -558.6650
   8   2.0000      -1.410187       -38.3731
   9   2.0000      -1.375201       -37.4211
  10   2.0000      -1.364202       -37.1218
  11   2.0000      -1.355922       -36.8965
  12   2.0000      -1.351496       -36.7761
  13   2.0000      -1.339895       -36.4604
  14   2.0000      -1.325529       -36.0695
  15   2.0000      -1.310586       -35.6629
  16   2.0000      -0.768727       -20.9181
  17   2.0000      -0.739832       -20.1318
  18   2.0000      -0.731916       -19.9164
  19   2.0000      -0.727194       -19.7880
  20   2.0000      -0.720381       -19.6026
  21   2.0000      -0.718308       -19.5461
  22   2.0000      -0.707594       -19.2546
  23   2.0000      -0.680325       -18.5126
  24   2.0000      -0.655708       -17.8427
  25   2.0000      -0.628205       -17.0943
  26   2.0000      -0.610453       -16.6113
  27   2.0000      -0.598375       -16.2826
  28   2.0000      -0.593567       -16.1518
  29   2.0000      -0.588548       -16.0152
  30   2.0000      -0.565711       -15.3938
  31   2.0000      -0.557045       -15.1580
  32   2.0000      -0.540010       -14.6944
  33   2.0000      -0.521023       -14.1778
  34   2.0000      -0.520758       -14.1706
  35   2.0000      -0.516850       -14.0642
  36   2.0000      -0.513831       -13.9821
  37   2.0000      -0.510365       -13.8877
  38   2.0000      -0.489240       -13.3129
  39   2.0000      -0.476296       -12.9607
  40   0.0000       0.073403         1.9974
  41   0.0000       0.120370         3.2754
  42   0.0000       0.130222         3.5435
  43   0.0000       0.145666         3.9638
  44   0.0000       0.160959         4.3799

MULLIKEN ATOMIC CHARGES
-----------------------
   0 O :   -0.752445
   1 H :    0.347149
   2 H :    0.380030
   3 O :   -0.721571
   4 H :    0.383045
   5 H :    0.371434
   6 O :   -0.743966
   7 H :    0.371614
   8 H :    0.336604
   9 O :   -0.710417
  10 H :    0.372785
  11 H :    0.366595
  12 O :   -0.708599
  13 H :    0.356757
  14 H :    0.380956
  15 O :   -0.679677
  16 H :    0.325934
  17 H :    0.356510
  18 O :   -0.758991
  19 H :    0.352164
  20 H :    0.384101
  21 O :   -0.697900
  22 H :    0.376858
  23 H :    0.311031
Sum of atomic charges:    0.0000000

LOEWDIN ATOMIC CHARGES
----------------------
   0 O :   -0.345858
   1 H :    0.158446
   2 H :    0.144759
   3 O :   -0.284506
   4 H :    0.155239
   5 H :    0.150875
   6 O :   -0.348045
   7 H :    0.148538
   8 H :    0.135236
   9 O :   -0.274553
  10 H :    0.178034
  11 H :    0.181396
  12 O :   -0.282098
  13 H :    0.172183
  14 H :    0.154626
  15 O :   -0.329513
  16 H :    0.158356
  17 H :    0.173443
  18 O :   -0.315940
  19 H :    0.159910
  20 H :    0.146041
  21 O :   -0.341394
  22 H :    0.153692
  23 H :    0.151134

  Mayer bond orders larger than 0.100000
B(  0-O ,  1-H ) :   0.8453 B(  0-O ,  2-H ) :   0.7466 B(  2-H , 12-O ) :   0.1120
B(  3-O ,  4-H ) :   0.8125 B(  3-O ,  5-H ) :   0.7890 B(  3-O , 20-H ) :   0.1218
B(  6-O ,  7-H ) :   0.8099 B(  6-O ,  8-H ) :   0.8023 B(  9-O , 10-H ) :   0.8251
B(  9-O , 11-H ) :   0.8203 B( 12-O , 13-H ) :   0.8368 B( 12-O , 14-H ) :   0.7866
B( 15-O , 16-H ) :   0.8579 B( 15-O , 17-H ) :   0.8367 B( 18-O , 19-H ) :   0.8395
B( 18-O , 20-H ) :   0.7276 B( 21-O , 22-H ) :   0.8090 B( 21-O , 23-H ) :   0.8648

MP2 TOTAL ENERGY:     -610.583384049 Eh
FINAL SINGLE POINT ENERGY      -610.583384049176

DIPOLE MOMENT
-------------
                                X             Y             Z
Electronic contribution:     -0.02344      -0.02072      -0.03529
Nuclear contribution   :      0.00045      -0.90834      -1.26519
                        -----------------------------------------
Total Dipole Moment    :     -0.02299      -0.92906      -1.30048
                        -----------------------------------------
Magnitude (a.u.)       :      1.59841
Magnitude (Debye)      :      4.06284

Rotational constants in cm-1:     0.031820     0.016904     0.014711
Rotational constants in MHz :   953.949849   506.773202   441.020477

                             ****ORCA TERMINATED NORMALLY****
TOTAL RUN TIME: 0 days 0 hours 3 minutes 2 seconds 363 msec
