                         Program Version 4.2.0 -  RELEASE  -
|  1> # 12h2o.su.etal.mol1,3,4,5,9,10
|  2> ! MP2 def2-TZVP EnGrad TightSCF
|  3>
|  4> %pal
|  5>     nprocs 6
|  6> end
|  7>
|  8> %maxcore 8000
|  9>
| 10> %scf
| 11>     ConvForced true
| 12> end
| 13>
| 14> *xyz 0 1
| 15> O  -1.794470000  -0.923410000   2.768350000
| 16> H  -2.338250000  -1.359750000   3.430940000
| 17> H  -0.879480000  -1.303000000   2.865760000
| 18> O  -1.752130000  -0.741530000  -2.896280000
| 19> H  -2.036450000  -0.920500000  -1.984040000
| 20> H  -0.921210000  -1.242140000  -2.984230000
| 21> O  -0.885520000   1.737840000   0.052730000
| 22> H  -1.032320000   2.090180000  -0.841890000
| 23> H  -1.284090000   0.839590000   0.017130000
| 24> O   0.885520000  -1.737840000   0.052730000
| 25> H   1.284090000  -0.839590000   0.017130000
| 26> H   1.032320000  -2.090180000  -0.841890000
| 27> O   0.741530000  -1.752130000   2.896280000
| 28> H   0.920500000  -2.036450000   1.984040000
| 29> H   1.242140000  -0.921210000   2.984230000
| 30> O  -0.923410000   1.794470000  -2.768350000
| 31> H  -1.359750000   2.338250000  -3.430940000
| 32> H  -1.303000000   0.879480000  -2.865760000
| 33> *
| 34>
| 35>                          ****END OF INPUT****

CARTESIAN COORDINATES (ANGSTROEM)
---------------------------------
  O     -1.794470   -0.923410    2.768350
  H     -2.338250   -1.359750    3.430940
  H     -0.879480   -1.303000    2.865760
  O     -1.752130   -0.741530   -2.896280
  H     -2.036450   -0.920500   -1.984040
  H     -0.921210   -1.242140   -2.984230
  O     -0.885520    1.737840    0.052730
  H     -1.032320    2.090180   -0.841890
  H     -1.284090    0.839590    0.017130
  O      0.885520   -1.737840    0.052730
  H      1.284090   -0.839590    0.017130
  H      1.032320   -2.090180   -0.841890
  O      0.741530   -1.752130    2.896280
  H      0.920500   -2.036450    1.984040
  H      1.242140   -0.921210    2.984230
  O     -0.923410    1.794470   -2.768350
  H     -1.359750    2.338250   -3.430940
  H     -1.303000    0.879480   -2.865760

 Total Charge           Charge          ....    0
 Multiplicity           Mult            ....    1
 Number of Electrons    NEL             ....   60
 Basis Dimension        Dim             ....  258

ORBITAL ENERGIES
----------------

  NO   OCC          E(Eh)            E(eV)
   0   2.0000     -20.616105      -560.9927
   1   2.0000     -20.606730      -560.7376
   2   2.0000     -20.569491      -559.7243
   3   2.0000     -20.548942      -559.1652
   4   2.0000     -20.523501      -558.4729
   5   2.0000     -20.507477      -558.0368
   6   2.0000      -1.401476       -38.1361
   7   2.0000      -1.385502       -37.7014
   8   2.0000      -1.357047       -36.9271
   9   2.0000      -1.334087       -36.3024
  10   2.0000      -1.301795       -35.4236
  11   2.0000      -1.289531       -35.0899
  12   2.0000      -0.758638       -20.6436
  13   2.0000      -0.748311       -20.3626
  14   2.0000      -0.720564       -19.6075
  15   2.0000      -0.718878       -19.5617
  16   2.0000      -0.678291       -18.4572
  17   2.0000      -0.670945       -18.2573
  18   2.0000      -0.638182       -17.3658
  19   2.0000      -0.630595       -17.1594
  20   2.0000      -0.589791       -16.0490
  21   2.0000      -0.585629       -15.9358
  22   2.0000      -0.552949       -15.0465
  23   2.0000      -0.549670       -14.9573
  24   2.0000      -0.540025       -14.6948
  25   2.0000      -0.534842       -14.5538
  26   2.0000      -0.496668       -13.5150
  27   2.0000      -0.494798       -13.4641
  28   2.0000      -0.468935       -12.7604
  29   2.0000      -0.457928       -12.4609
  30   0.0000       0.068116         1.8535
  31   0.0000       0.124622         3.3911
  32   0.0000       0.135513         3.6875
  33   0.0000       0.158149         4.3035
  34   0.0000       0.174347         4.7442

MULLIKEN ATOMIC CHARGES
-----------------------
   0 O :   -0.732169
   1 H :    0.320002
   2 H :    0.367922
   3 O :   -0.672350
   4 H :    0.365209
   5 H :    0.352875
   6 O :   -0.697708
   7 H :    0.365505
   8 H :    0.317353
   9 O :   -0.698875
  10 H :    0.362729
  11 H :    0.343342
  12 O :   -0.692015
  13 H :    0.381746
  14 H :    0.348064
  15 O :   -0.735319
  16 H :    0.338528
  17 H :    0.365159
Sum of atomic charges:   -0.0000000

LOEWDIN ATOMIC CHARGES
----------------------
   0 O :   -0.372992
   1 H :    0.146505
   2 H :    0.142459
   3 O :   -0.264748
   4 H :    0.175786
   5 H :    0.173320
   6 O :   -0.347343
   7 H :    0.148028
   8 H :    0.157411
   9 O :   -0.316390
  10 H :    0.181289
  11 H :    0.167033
  12 O :   -0.275989
  13 H :    0.158223
  14 H :    0.171374
  15 O :   -0.340455
  16 H :    0.154370
  17 H :    0.142119

  Mayer bond orders larger than 0.100000
B(  0-O ,  1-H ) :   0.8628 B(  0-O ,  2-H ) :   0.7808 B(  3-O ,  4-H ) :   0.8311
B(  3-O ,  5-H ) :   0.8392 B(  6-O ,  7-H ) :   0.8139 B(  6-O ,  8-H ) :   0.8568
B(  9-O , 10-H ) :   0.8262 B(  9-O , 11-H ) :   0.8456 B( 12-O , 13-H ) :   0.8072
B( 12-O , 14-H ) :   0.8432 B( 15-O , 16-H ) :   0.8497 B( 15-O , 17-H ) :   0.7743

MP2 TOTAL ENERGY:     -457.910211563 Eh
FINAL SINGLE POINT ENERGY      -457.910211562656

DIPOLE MOMENT
-------------
                                X             Y             Z
Electronic contribution:      0.12353      -0.15922      -0.08126
Nuclear contribution   :      0.65046      -1.09882      -1.54856
                        -----------------------------------------
Total Dipole Moment    :      0.77399      -1.25803      -1.62982
                        -----------------------------------------
Magnitude (a.u.)       :      2.19955
Magnitude (Debye)      :      5.59080

Rotational constants in cm-1:     0.063786     0.021672     0.019645
Rotational constants in MHz :  1912.258397   649.701656   588.948155

                             ****ORCA TERMINATED NORMALLY****
TOTAL RUN TIME: 0 days 0 hours 0 minutes 51 seconds 567 msec
