                         Program Version 4.2.0 -  RELEASE  -
|  1> ! MP2 def2-TZVP EnGrad TightSCF FrozenCore
|  2>
|  3> %pal
|  4>     nprocs 12
|  5> end
|  6>
|  7> %maxcore 8000
|  8>
|  9> %scf
| 10>     ConvForced true
| 11> end
| 12>
| 13> *xyz 0 1
| 14> O    -0.6666145966     2.0064212867    -1.1806978346
| 15> H     0.2472677688     2.075508512     -0.7877007587
| 16> C    -0.5125053352     1.6282817151    -2.5510475469
| 17> H    -1.4853718981     1.7433368748    -3.0380816672
| 18> H    -0.1861490958     0.5853004972    -2.6574803928
| 19> H     0.2088585967     2.2833252335    -3.0539098183
| 20> O    -1.8813474039     0.0271534724     0.0550702283
| 21> H    -1.4276234845     0.821502569     -0.3689527576
| 22> C    -3.2664038179     0.3190034593     0.2198836393
| 23> H    -3.7475370579    -0.5666165986     0.6437637096
| 24> H    -3.7421800939     0.5494645771    -0.7417369235
| 25> H    -3.4204984021     1.1657558024     0.9016065969
| 26> O     2.2150350444    -0.4037940541     0.8518242629
| 27> H     1.3786206183    -0.6970661824     1.2907575769
| 28> C     2.4983002808    -1.3397458454    -0.1922123917
| 29> H     3.3187109311    -0.9268624371    -0.7860651406
| 30> H     1.6277285791    -1.5003391058    -0.8404341603
| 31> H     2.8213070399    -2.3036731204     0.2241087018
| 32> O     1.8304872461     2.0139624165    -0.2270971523
| 33> H     1.9865360378     1.1240552891     0.1956994648
| 34> C     2.3319080025     3.0236290191     0.6353118536
| 35> H     2.1626942932     3.9902745532     0.1519604246
| 36> H     3.4106228092     2.9039821355     0.8044053334
| 37> H     1.8260153612     3.0314796494     1.6125661676
| 38> O    -0.2036325452    -1.1932847257     1.8489660776
| 39> H    -0.8577310653    -0.7422632274     1.2632111426
| 40> C    -0.565451393     -0.9685385555     3.2043753812
| 41> H     0.1935376201    -1.4448905728     3.8306572848
| 42> H    -1.5401920144    -1.4176892948     3.4413440853
| 43> H    -0.6019732585     0.1015936476     3.4561779036
| 44> O    -0.7281113281    -1.9039445422    -1.6756295044
| 45> H    -1.243745754     -1.2768509295    -1.1299508711
| 46> C    -0.9168788479    -3.1958700156    -1.1220337397
| 47> H    -0.2560447806    -3.8837665446    -1.6586823773
| 48> H    -1.9513902743    -3.5567644487    -1.2456955482
| 49> H    -0.6618071438    -3.2314663704    -0.0527197711
| 50> *
| 51>
| 52>                          ****END OF INPUT****

CARTESIAN COORDINATES (ANGSTROEM)
---------------------------------
  O     -0.666615    2.006421   -1.180698
  H      0.247268    2.075509   -0.787701
  C     -0.512505    1.628282   -2.551048
  H     -1.485372    1.743337   -3.038082
  H     -0.186149    0.585300   -2.657480
  H      0.208859    2.283325   -3.053910
  O     -1.881347    0.027153    0.055070
  H     -1.427623    0.821503   -0.368953
  C     -3.266404    0.319003    0.219884
  H     -3.747537   -0.566617    0.643764
  H     -3.742180    0.549465   -0.741737
  H     -3.420498    1.165756    0.901607
  O      2.215035   -0.403794    0.851824
  H      1.378621   -0.697066    1.290758
  C      2.498300   -1.339746   -0.192212
  H      3.318711   -0.926862   -0.786065
  H      1.627729   -1.500339   -0.840434
  H      2.821307   -2.303673    0.224109
  O      1.830487    2.013962   -0.227097
  H      1.986536    1.124055    0.195699
  C      2.331908    3.023629    0.635312
  H      2.162694    3.990275    0.151960
  H      3.410623    2.903982    0.804405
  H      1.826015    3.031480    1.612566
  O     -0.203633   -1.193285    1.848966
  H     -0.857731   -0.742263    1.263211
  C     -0.565451   -0.968539    3.204375
  H      0.193538   -1.444891    3.830657
  H     -1.540192   -1.417689    3.441344
  H     -0.601973    0.101594    3.456178
  O     -0.728111   -1.903945   -1.675630
  H     -1.243746   -1.276851   -1.129951
  C     -0.916879   -3.195870   -1.122034
  H     -0.256045   -3.883767   -1.658682
  H     -1.951390   -3.556764   -1.245696
  H     -0.661807   -3.231466   -0.052720

 Total Charge           Charge          ....    0
 Multiplicity           Mult            ....    1
 Number of Electrons    NEL             ....  108
 Basis Dimension        Dim             ....  516

ORBITAL ENERGIES
----------------

  NO   OCC          E(Eh)            E(eV)
   0   2.0000     -20.564146      -559.5788
   1   2.0000     -20.557166      -559.3889
   2   2.0000     -20.550101      -559.1967
   3   2.0000     -20.546874      -559.1089
   4   2.0000     -20.545943      -559.0835
   5   2.0000     -20.530667      -558.6678
   6   2.0000     -11.281799      -306.9934
   7   2.0000     -11.276732      -306.8555
   8   2.0000     -11.268151      -306.6220
   9   2.0000     -11.263396      -306.4926
  10   2.0000     -11.257163      -306.3230
  11   2.0000     -11.254786      -306.2583
  12   2.0000      -1.373760       -37.3819
  13   2.0000      -1.359439       -36.9922
  14   2.0000      -1.357534       -36.9404
  15   2.0000      -1.341494       -36.5039
  16   2.0000      -1.333735       -36.2928
  17   2.0000      -1.330722       -36.2108
  18   2.0000      -0.936063       -25.4716
  19   2.0000      -0.926266       -25.2050
  20   2.0000      -0.920549       -25.0494
  21   2.0000      -0.913647       -24.8616
  22   2.0000      -0.909219       -24.7411
  23   2.0000      -0.902899       -24.5691
  24   2.0000      -0.725280       -19.7359
  25   2.0000      -0.713663       -19.4198
  26   2.0000      -0.692711       -18.8496
  27   2.0000      -0.685375       -18.6500
  28   2.0000      -0.677689       -18.4409
  29   2.0000      -0.676046       -18.3961
  30   2.0000      -0.626049       -17.0357
  31   2.0000      -0.622478       -16.9385
  32   2.0000      -0.614259       -16.7148
  33   2.0000      -0.613462       -16.6931
  34   2.0000      -0.608930       -16.5698
  35   2.0000      -0.603612       -16.4251
  36   2.0000      -0.597112       -16.2482
  37   2.0000      -0.594442       -16.1756
  38   2.0000      -0.587907       -15.9978
  39   2.0000      -0.586624       -15.9629
  40   2.0000      -0.581376       -15.8200
  41   2.0000      -0.573159       -15.5964
  42   2.0000      -0.529469       -14.4076
  43   2.0000      -0.518463       -14.1081
  44   2.0000      -0.503269       -13.6946
  45   2.0000      -0.495838       -13.4924
  46   2.0000      -0.485731       -13.2174
  47   2.0000      -0.481919       -13.1137
  48   2.0000      -0.457104       -12.4384
  49   2.0000      -0.452421       -12.3110
  50   2.0000      -0.445081       -12.1113
  51   2.0000      -0.443101       -12.0574
  52   2.0000      -0.440727       -11.9928
  53   2.0000      -0.426332       -11.6011
  54   0.0000       0.118642         3.2284
  55   0.0000       0.145086         3.9480
  56   0.0000       0.156542         4.2597
  57   0.0000       0.160526         4.3681
  58   0.0000       0.173166         4.7121

MULLIKEN ATOMIC CHARGES
-----------------------
   0 O :   -0.559400
   1 H :    0.375217
   2 C :   -0.205301
   3 H :    0.124268
   4 H :    0.151652
   5 H :    0.127550
   6 O :   -0.618655
   7 H :    0.384743
   8 C :   -0.165671
   9 H :    0.131784
  10 H :    0.129944
  11 H :    0.128211
  12 O :   -0.561719
  13 H :    0.367636
  14 C :   -0.198114
  15 H :    0.128909
  16 H :    0.153986
  17 H :    0.116300
  18 O :   -0.568300
  19 H :    0.368212
  20 C :   -0.165852
  21 H :    0.127863
  22 H :    0.123733
  23 H :    0.110479
  24 O :   -0.556120
  25 H :    0.373630
  26 C :   -0.179384
  27 H :    0.135326
  28 H :    0.120027
  29 H :    0.116990
  30 O :   -0.518747
  31 H :    0.339380
  32 C :   -0.194630
  33 H :    0.122134
  34 H :    0.108038
  35 H :    0.125881
Sum of atomic charges:   -0.0000000

LOEWDIN ATOMIC CHARGES
----------------------
   0 O :   -0.088317
   1 H :    0.164884
   2 C :   -0.381305
   3 H :    0.107424
   4 H :    0.105000
   5 H :    0.105741
   6 O :   -0.095193
   7 H :    0.164258
   8 C :   -0.380205
   9 H :    0.109527
  10 H :    0.105995
  11 H :    0.104725
  12 O :   -0.092328
  13 H :    0.165091
  14 C :   -0.380833
  15 H :    0.108103
  16 H :    0.106517
  17 H :    0.102313
  18 O :   -0.087273
  19 H :    0.165699
  20 C :   -0.385538
  21 H :    0.108688
  22 H :    0.104317
  23 H :    0.097690
  24 O :   -0.082175
  25 H :    0.164249
  26 C :   -0.384296
  27 H :    0.111352
  28 H :    0.102104
  29 H :    0.099410
  30 O :   -0.102831
  31 H :    0.158669
  32 C :   -0.399783
  33 H :    0.106759
  34 H :    0.095376
  35 H :    0.096189

  Mayer bond orders larger than 0.100000
B(  0-O ,  1-H ) :   0.7331 B(  0-O ,  2-C ) :   0.8705 B(  0-O ,  7-H ) :   0.1604
B(  1-H , 18-O ) :   0.1331 B(  2-C ,  3-H ) :   0.9415 B(  2-C ,  4-H ) :   0.9316
B(  2-C ,  5-H ) :   0.9396 B(  6-O ,  7-H ) :   0.6890 B(  6-O ,  8-C ) :   0.8579
B(  8-C ,  9-H ) :   0.9422 B(  8-C , 10-H ) :   0.9364 B(  8-C , 11-H ) :   0.9408
B( 12-O , 13-H ) :   0.7585 B( 12-O , 14-C ) :   0.8620 B( 12-O , 19-H ) :   0.1387
B( 13-H , 24-O ) :   0.1050 B( 14-C , 15-H ) :   0.9426 B( 14-C , 16-H ) :   0.9269
B( 14-C , 17-H ) :   0.9397 B( 18-O , 19-H ) :   0.7254 B( 18-O , 20-C ) :   0.8890
B( 20-C , 21-H ) :   0.9418 B( 20-C , 22-H ) :   0.9387 B( 20-C , 23-H ) :   0.9394
B( 24-O , 25-H ) :   0.7536 B( 24-O , 26-C ) :   0.8855 B( 26-C , 27-H ) :   0.9423
B( 26-C , 28-H ) :   0.9385 B( 26-C , 29-H ) :   0.9368 B( 30-O , 31-H ) :   0.8005
B( 30-O , 32-C ) :   0.9099 B( 32-C , 33-H ) :   0.9437 B( 32-C , 34-H ) :   0.9382
B( 32-C , 35-H ) :   0.9306

MP2 TOTAL ENERGY:     -693.129119542 Eh
FINAL SINGLE POINT ENERGY      -693.129119542083

DIPOLE MOMENT
-------------
                                X             Y             Z
Electronic contribution:      1.35606       1.44035      -0.77419
Nuclear contribution   :     -2.03771      -1.22811       1.52946
                        -----------------------------------------
Total Dipole Moment    :     -0.68165       0.21223       0.75527
                        -----------------------------------------
Magnitude (a.u.)       :      1.03929
Magnitude (Debye)      :      2.64168

Rotational constants in cm-1:     0.018569     0.015244     0.013204
Rotational constants in MHz :   556.681524   457.000696   395.845583

                             ****ORCA TERMINATED NORMALLY****
TOTAL RUN TIME: 0 days 0 hours 12 minutes 37 seconds 648 msec
