                         Program Version 4.2.0 -  RELEASE  -
|  1> # 12h2o.su.etal.mol1,2,4,8,9,10
|  2> ! MP2 def2-TZVP EnGrad TightSCF
|  3>
|  4> %pal
|  5>     nprocs 6
|  6> end
|  7>
|  8> %maxcore 8000
|  9>
| 10> %scf
| 11>     ConvForced true
| 12> end
| 13>
| 14> *xyz 0 1
| 15> O  -1.794470000  -0.923410000   2.768350000
| 16> H  -2.338250000  -1.359750000   3.430940000
| 17> H  -0.879480000  -1.303000000   2.865760000
| 18> O   0.923410000  -1.794470000  -2.768350000
| 19> H   1.359750000  -2.338250000  -3.430940000
| 20> H   1.303000000  -0.879480000  -2.865760000
| 21> O  -0.885520000   1.737840000   0.052730000
| 22> H  -1.032320000   2.090180000  -0.841890000
| 23> H  -1.284090000   0.839590000   0.017130000
| 24> O   1.752130000   0.741530000  -2.896280000
| 25> H   2.036450000   0.920500000  -1.984040000
| 26> H   0.921210000   1.242140000  -2.984230000
| 27> O   0.741530000  -1.752130000   2.896280000
| 28> H   0.920500000  -2.036450000   1.984040000
| 29> H   1.242140000  -0.921210000   2.984230000
| 30> O  -0.923410000   1.794470000  -2.768350000
| 31> H  -1.359750000   2.338250000  -3.430940000
| 32> H  -1.303000000   0.879480000  -2.865760000
| 33> *
| 34>
| 35>                          ****END OF INPUT****

CARTESIAN COORDINATES (ANGSTROEM)
---------------------------------
  O     -1.794470   -0.923410    2.768350
  H     -2.338250   -1.359750    3.430940
  H     -0.879480   -1.303000    2.865760
  O      0.923410   -1.794470   -2.768350
  H      1.359750   -2.338250   -3.430940
  H      1.303000   -0.879480   -2.865760
  O     -0.885520    1.737840    0.052730
  H     -1.032320    2.090180   -0.841890
  H     -1.284090    0.839590    0.017130
  O      1.752130    0.741530   -2.896280
  H      2.036450    0.920500   -1.984040
  H      0.921210    1.242140   -2.984230
  O      0.741530   -1.752130    2.896280
  H      0.920500   -2.036450    1.984040
  H      1.242140   -0.921210    2.984230
  O     -0.923410    1.794470   -2.768350
  H     -1.359750    2.338250   -3.430940
  H     -1.303000    0.879480   -2.865760

 Total Charge           Charge          ....    0
 Multiplicity           Mult            ....    1
 Number of Electrons    NEL             ....   60
 Basis Dimension        Dim             ....  258

ORBITAL ENERGIES
----------------

  NO   OCC          E(Eh)            E(eV)
   0   2.0000     -20.619671      -561.0898
   1   2.0000     -20.590883      -560.3064
   2   2.0000     -20.575145      -559.8782
   3   2.0000     -20.534972      -558.7850
   4   2.0000     -20.523742      -558.4794
   5   2.0000     -20.513315      -558.1957
   6   2.0000      -1.400165       -38.1004
   7   2.0000      -1.376208       -37.4485
   8   2.0000      -1.363714       -37.1085
   9   2.0000      -1.314119       -35.7590
  10   2.0000      -1.305647       -35.5285
  11   2.0000      -1.295571       -35.2543
  12   2.0000      -0.765787       -20.8381
  13   2.0000      -0.733639       -19.9633
  14   2.0000      -0.726369       -19.7655
  15   2.0000      -0.693501       -18.8711
  16   2.0000      -0.687113       -18.6973
  17   2.0000      -0.685835       -18.6625
  18   2.0000      -0.637041       -17.3348
  19   2.0000      -0.611487       -16.6394
  20   2.0000      -0.604843       -16.4586
  21   2.0000      -0.573773       -15.6132
  22   2.0000      -0.552546       -15.0355
  23   2.0000      -0.552289       -15.0285
  24   2.0000      -0.539291       -14.6748
  25   2.0000      -0.509160       -13.8549
  26   2.0000      -0.507110       -13.7992
  27   2.0000      -0.480523       -13.0757
  28   2.0000      -0.474592       -12.9143
  29   2.0000      -0.463537       -12.6135
  30   0.0000       0.090240         2.4556
  31   0.0000       0.114862         3.1256
  32   0.0000       0.147898         4.0245
  33   0.0000       0.165277         4.4974
  34   0.0000       0.174898         4.7592

MULLIKEN ATOMIC CHARGES
-----------------------
   0 O :   -0.728677
   1 H :    0.323326
   2 H :    0.364662
   3 O :   -0.741006
   4 H :    0.327051
   5 H :    0.364154
   6 O :   -0.697802
   7 H :    0.356030
   8 H :    0.336173
   9 O :   -0.699986
  10 H :    0.356862
  11 H :    0.373156
  12 O :   -0.681331
  13 H :    0.362774
  14 H :    0.361964
  15 O :   -0.720750
  16 H :    0.366630
  17 H :    0.376771
Sum of atomic charges:   -0.0000000

LOEWDIN ATOMIC CHARGES
----------------------
   0 O :   -0.370811
   1 H :    0.148219
   2 H :    0.141911
   3 O :   -0.377592
   4 H :    0.149120
   5 H :    0.140454
   6 O :   -0.346332
   7 H :    0.144026
   8 H :    0.169029
   9 O :   -0.281803
  10 H :    0.172609
  11 H :    0.152526
  12 O :   -0.271739
  13 H :    0.176734
  14 H :    0.177991
  15 O :   -0.287699
  16 H :    0.169129
  17 H :    0.194229

  Mayer bond orders larger than 0.100000
B(  0-O ,  1-H ) :   0.8613 B(  0-O ,  2-H ) :   0.7876 B(  3-O ,  4-H ) :   0.8596
B(  3-O ,  5-H ) :   0.7768 B(  6-O ,  7-H ) :   0.8308 B(  6-O ,  8-H ) :   0.8480
B(  9-O , 10-H ) :   0.8371 B(  9-O , 11-H ) :   0.8049 B( 12-O , 13-H ) :   0.8342
B( 12-O , 14-H ) :   0.8345 B( 15-O , 16-H ) :   0.8303 B( 15-O , 17-H ) :   0.8146

MP2 TOTAL ENERGY:     -457.910982400 Eh
FINAL SINGLE POINT ENERGY      -457.910982399883

DIPOLE MOMENT
-------------
                                X             Y             Z
Electronic contribution:      0.20633       0.34222       0.10543
Nuclear contribution   :     -0.03428      -0.11292      -1.40687
                        -----------------------------------------
Total Dipole Moment    :      0.17205       0.22930      -1.30145
                        -----------------------------------------
Magnitude (a.u.)       :      1.33264
Magnitude (Debye)      :      3.38731

Rotational constants in cm-1:     0.049568     0.019782     0.015971
Rotational constants in MHz :  1486.009835   593.039592   478.794720

                             ****ORCA TERMINATED NORMALLY****
TOTAL RUN TIME: 0 days 0 hours 0 minutes 51 seconds 472 msec
