                         Program Version 4.2.0 -  RELEASE  -
|  1> # 12mecn.remya.etal.2.mol7,9,10
|  2> ! MP2 def2-TZVP EnGrad TightSCF
|  3>
|  4> %pal
|  5>     nprocs 6
|  6> end
|  7>
|  8> %maxcore 8000
|  9>
| 10> %scf
| 11>     ConvForced true
| 12> end
| 13>
| 14> *xyz 0 1
| 15> C   1.502241000   0.651296000   1.710523000
| 16> H   1.309219000   1.637164000   2.143202000
| 17> H   2.493408000   0.297996000   2.009069000
| 18> H   0.746597000  -0.059850000   2.055508000
| 19> C   1.447974000   0.738517000   0.269805000
| 20> N   1.405612000   0.808047000  -0.894380000
| 21> C   0.923766000   4.000693000  -1.575910000
| 22> H   0.011949000   4.478423000  -1.939550000
| 23> H   0.947903000   2.966558000  -1.929960000
| 24> H   1.805950000   4.519548000  -1.956520000
| 25> C   0.942834000   3.994846000  -0.131200000
| 26> N   0.960035000   3.982544000   1.035639000
| 27> C   4.602033000   0.321019000  -1.784800000
| 28> H   4.827650000  -0.662160000  -2.207910000
| 29> H   5.320558000   1.057980000  -2.148500000
| 30> H   3.601982000   0.643751000  -2.087520000
| 31> C   4.654967000   0.244048000  -0.343060000
| 32> N   4.691648000   0.166590000   0.820757000
| 33> *
| 34>
| 35>                          ****END OF INPUT****

CARTESIAN COORDINATES (ANGSTROEM)
---------------------------------
  C      1.502241    0.651296    1.710523
  H      1.309219    1.637164    2.143202
  H      2.493408    0.297996    2.009069
  H      0.746597   -0.059850    2.055508
  C      1.447974    0.738517    0.269805
  N      1.405612    0.808047   -0.894380
  C      0.923766    4.000693   -1.575910
  H      0.011949    4.478423   -1.939550
  H      0.947903    2.966558   -1.929960
  H      1.805950    4.519548   -1.956520
  C      0.942834    3.994846   -0.131200
  N      0.960035    3.982544    1.035639
  C      4.602033    0.321019   -1.784800
  H      4.827650   -0.662160   -2.207910
  H      5.320558    1.057980   -2.148500
  H      3.601982    0.643751   -2.087520
  C      4.654967    0.244048   -0.343060
  N      4.691648    0.166590    0.820757

 Total Charge           Charge          ....    0
 Multiplicity           Mult            ....    1
 Number of Electrons    NEL             ....   66
 Basis Dimension        Dim             ....  333

ORBITAL ENERGIES
----------------

  NO   OCC          E(Eh)            E(eV)
   0   2.0000     -15.571492      -423.7218
   1   2.0000     -15.569760      -423.6747
   2   2.0000     -15.569209      -423.6597
   3   2.0000     -11.286104      -307.1105
   4   2.0000     -11.282707      -307.0181
   5   2.0000     -11.280743      -306.9646
   6   2.0000     -11.274820      -306.8034
   7   2.0000     -11.272473      -306.7396
   8   2.0000     -11.260654      -306.4180
   9   2.0000      -1.219607       -33.1872
  10   2.0000      -1.215033       -33.0627
  11   2.0000      -1.212510       -32.9941
  12   2.0000      -1.037971       -28.2446
  13   2.0000      -1.036151       -28.1951
  14   2.0000      -1.027533       -27.9606
  15   2.0000      -0.695624       -18.9289
  16   2.0000      -0.693724       -18.8772
  17   2.0000      -0.684925       -18.6378
  18   2.0000      -0.630170       -17.1478
  19   2.0000      -0.628168       -17.0933
  20   2.0000      -0.626004       -17.0344
  21   2.0000      -0.625186       -17.0122
  22   2.0000      -0.611842       -16.6491
  23   2.0000      -0.608490       -16.5578
  24   2.0000      -0.560332       -15.2474
  25   2.0000      -0.555882       -15.1263
  26   2.0000      -0.554825       -15.0976
  27   2.0000      -0.461463       -12.5570
  28   2.0000      -0.459790       -12.5115
  29   2.0000      -0.457915       -12.4605
  30   2.0000      -0.456978       -12.4350
  31   2.0000      -0.454897       -12.3784
  32   2.0000      -0.453344       -12.3361
  33   0.0000       0.119752         3.2586
  34   0.0000       0.142515         3.8780
  35   0.0000       0.154082         4.1928
  36   0.0000       0.165943         4.5155
  37   0.0000       0.172216         4.6862

MULLIKEN ATOMIC CHARGES
-----------------------
   0 C :   -0.292120
   1 H :    0.200302
   2 H :    0.201067
   3 H :    0.160760
   4 C :   -0.049738
   5 N :   -0.218184
   6 C :   -0.290820
   7 H :    0.168198
   8 H :    0.201857
   9 H :    0.164397
  10 C :   -0.106707
  11 N :   -0.139218
  12 C :   -0.286649
  13 H :    0.168500
  14 H :    0.166420
  15 H :    0.197873
  16 C :   -0.101640
  17 N :   -0.144298
Sum of atomic charges:    0.0000000

LOEWDIN ATOMIC CHARGES
----------------------
   0 C :   -0.279098
   1 H :    0.157552
   2 H :    0.157115
   3 H :    0.150786
   4 C :   -0.196169
   5 N :    0.014702
   6 C :   -0.285199
   7 H :    0.150471
   8 H :    0.155123
   9 H :    0.150439
  10 C :   -0.210238
  11 N :    0.034545
  12 C :   -0.283593
  13 H :    0.153133
  14 H :    0.149755
  15 H :    0.154655
  16 C :   -0.208872
  17 N :    0.034895

  Mayer bond orders larger than 0.100000
B(  0-C ,  1-H ) :   0.9027 B(  0-C ,  2-H ) :   0.9018 B(  0-C ,  3-H ) :   0.9132
B(  0-C ,  4-C ) :   0.8985 B(  4-C ,  5-N ) :   2.6925 B(  6-C ,  7-H ) :   0.9156
B(  6-C ,  8-H ) :   0.9034 B(  6-C ,  9-H ) :   0.9163 B(  6-C , 10-C ) :   0.9011
B( 10-C , 11-N ) :   2.7809 B( 12-C , 13-H ) :   0.9141 B( 12-C , 14-H ) :   0.9176
B( 12-C , 15-H ) :   0.9049 B( 12-C , 16-C ) :   0.9010 B( 16-C , 17-N ) :   2.7700

MP2 TOTAL ENERGY:     -397.467466258 Eh
FINAL SINGLE POINT ENERGY      -397.467466257689

DIPOLE MOMENT
-------------
                                X             Y             Z
Electronic contribution:      0.04464      -0.00255       3.20708
Nuclear contribution   :     -0.05905      -0.02291      -4.65777
                        -----------------------------------------
Total Dipole Moment    :     -0.01441      -0.02546      -1.45068
                        -----------------------------------------
Magnitude (a.u.)       :      1.45098
Magnitude (Debye)      :      3.68809

Rotational constants in cm-1:     0.059301     0.025523     0.021761
Rotational constants in MHz :  1777.793290   765.170595   652.372444

                             ****ORCA TERMINATED NORMALLY****
TOTAL RUN TIME: 0 days 0 hours 4 minutes 19 seconds 141 msec
