                         Program Version 4.2.0 -  RELEASE  -
|  1> # 12h2o.su.etal.mol0,3,5,6,10
|  2> ! MP2 def2-TZVP EnGrad TightSCF
|  3>
|  4> %pal
|  5>     nprocs 6
|  6> end
|  7>
|  8> %maxcore 8000
|  9>
| 10> %scf
| 11>     ConvForced true
| 12> end
| 13>
| 14> *xyz 0 1
| 15> O   1.794470000   0.923410000   2.768350000
| 16> H   2.338250000   1.359750000   3.430940000
| 17> H   0.879480000   1.303000000   2.865760000
| 18> O  -1.752130000  -0.741530000  -2.896280000
| 19> H  -2.036450000  -0.920500000  -1.984040000
| 20> H  -0.921210000  -1.242140000  -2.984230000
| 21> O   0.885520000  -1.737840000   0.052730000
| 22> H   1.284090000  -0.839590000   0.017130000
| 23> H   1.032320000  -2.090180000  -0.841890000
| 24> O   1.737840000   0.885520000  -0.052730000
| 25> H   2.090180000   1.032320000   0.841890000
| 26> H   0.839590000   1.284090000  -0.017130000
| 27> O  -0.923410000   1.794470000  -2.768350000
| 28> H  -1.359750000   2.338250000  -3.430940000
| 29> H  -1.303000000   0.879480000  -2.865760000
| 30> *
| 31>
| 32>                          ****END OF INPUT****

CARTESIAN COORDINATES (ANGSTROEM)
---------------------------------
  O      1.794470    0.923410    2.768350
  H      2.338250    1.359750    3.430940
  H      0.879480    1.303000    2.865760
  O     -1.752130   -0.741530   -2.896280
  H     -2.036450   -0.920500   -1.984040
  H     -0.921210   -1.242140   -2.984230
  O      0.885520   -1.737840    0.052730
  H      1.284090   -0.839590    0.017130
  H      1.032320   -2.090180   -0.841890
  O      1.737840    0.885520   -0.052730
  H      2.090180    1.032320    0.841890
  H      0.839590    1.284090   -0.017130
  O     -0.923410    1.794470   -2.768350
  H     -1.359750    2.338250   -3.430940
  H     -1.303000    0.879480   -2.865760

 Total Charge           Charge          ....    0
 Multiplicity           Mult            ....    1
 Number of Electrons    NEL             ....   50
 Basis Dimension        Dim             ....  215

ORBITAL ENERGIES
----------------

  NO   OCC          E(Eh)            E(eV)
   0   2.0000     -20.594526      -560.4055
   1   2.0000     -20.594487      -560.4045
   2   2.0000     -20.556876      -559.3810
   3   2.0000     -20.524427      -558.4980
   4   2.0000     -20.519863      -558.3739
   5   2.0000      -1.379766       -37.5453
   6   2.0000      -1.372724       -37.3537
   7   2.0000      -1.340682       -36.4818
   8   2.0000      -1.304436       -35.4955
   9   2.0000      -1.302073       -35.4312
  10   2.0000      -0.739336       -20.1184
  11   2.0000      -0.737347       -20.0642
  12   2.0000      -0.703752       -19.1501
  13   2.0000      -0.692197       -18.8356
  14   2.0000      -0.678374       -18.4595
  15   2.0000      -0.615655       -16.7528
  16   2.0000      -0.614135       -16.7115
  17   2.0000      -0.582767       -15.8579
  18   2.0000      -0.557791       -15.1783
  19   2.0000      -0.552126       -15.0241
  20   2.0000      -0.531570       -14.4648
  21   2.0000      -0.514460       -13.9992
  22   2.0000      -0.494443       -13.4545
  23   2.0000      -0.472260       -12.8508
  24   2.0000      -0.470213       -12.7951
  25   0.0000       0.096397         2.6231
  26   0.0000       0.109683         2.9846
  27   0.0000       0.160319         4.3625
  28   0.0000       0.170023         4.6266
  29   0.0000       0.179909         4.8956

MULLIKEN ATOMIC CHARGES
-----------------------
   0 O :   -0.690493
   1 H :    0.353447
   2 H :    0.353056
   3 O :   -0.678985
   4 H :    0.362769
   5 H :    0.356533
   6 O :   -0.715934
   7 H :    0.363945
   8 H :    0.312164
   9 O :   -0.696291
  10 H :    0.375014
  11 H :    0.346340
  12 O :   -0.731800
  13 H :    0.325361
  14 H :    0.364875
Sum of atomic charges:   -0.0000000

LOEWDIN ATOMIC CHARGES
----------------------
   0 O :   -0.307772
   1 H :    0.164185
   2 H :    0.185272
   3 O :   -0.270264
   4 H :    0.176128
   5 H :    0.174670
   6 O :   -0.363012
   7 H :    0.143914
   8 H :    0.149812
   9 O :   -0.296717
  10 H :    0.152034
  11 H :    0.173210
  12 O :   -0.372340
  13 H :    0.149103
  14 H :    0.141776

  Mayer bond orders larger than 0.100000
B(  0-O ,  1-H ) :   0.8411 B(  0-O ,  2-H ) :   0.8355 B(  3-O ,  4-H ) :   0.8329
B(  3-O ,  5-H ) :   0.8364 B(  6-O ,  7-H ) :   0.7853 B(  6-O ,  8-H ) :   0.8660
B(  9-O , 10-H ) :   0.8059 B(  9-O , 11-H ) :   0.8382 B( 12-O , 13-H ) :   0.8602
B( 12-O , 14-H ) :   0.7860

MP2 TOTAL ENERGY:     -381.589647186 Eh
FINAL SINGLE POINT ENERGY      -381.589647185692

DIPOLE MOMENT
-------------
                                X             Y             Z
Electronic contribution:      0.13825      -0.12839       0.13800
Nuclear contribution   :     -0.53361       0.71285       0.68611
                        -----------------------------------------
Total Dipole Moment    :     -0.39536       0.58446       0.82411
                        -----------------------------------------
Magnitude (a.u.)       :      1.08492
Magnitude (Debye)      :      2.75765

Rotational constants in cm-1:     0.095211     0.028442     0.023581
Rotational constants in MHz :  2854.360055   852.679708   706.943428

                             ****ORCA TERMINATED NORMALLY****
TOTAL RUN TIME: 0 days 0 hours 0 minutes 27 seconds 527 msec
