                         Program Version 4.2.0 -  RELEASE  -
|  1> # 12h2o.su.etal.mol1,2,4,5,8
|  2> ! MP2 def2-TZVP EnGrad TightSCF
|  3>
|  4> %pal
|  5>     nprocs 6
|  6> end
|  7>
|  8> %maxcore 8000
|  9>
| 10> %scf
| 11>     ConvForced true
| 12> end
| 13>
| 14> *xyz 0 1
| 15> O  -1.794470000  -0.923410000   2.768350000
| 16> H  -2.338250000  -1.359750000   3.430940000
| 17> H  -0.879480000  -1.303000000   2.865760000
| 18> O   0.923410000  -1.794470000  -2.768350000
| 19> H   1.359750000  -2.338250000  -3.430940000
| 20> H   1.303000000  -0.879480000  -2.865760000
| 21> O  -0.885520000   1.737840000   0.052730000
| 22> H  -1.032320000   2.090180000  -0.841890000
| 23> H  -1.284090000   0.839590000   0.017130000
| 24> O   0.885520000  -1.737840000   0.052730000
| 25> H   1.284090000  -0.839590000   0.017130000
| 26> H   1.032320000  -2.090180000  -0.841890000
| 27> O   1.752130000   0.741530000  -2.896280000
| 28> H   2.036450000   0.920500000  -1.984040000
| 29> H   0.921210000   1.242140000  -2.984230000
| 30> *
| 31>
| 32>                          ****END OF INPUT****

CARTESIAN COORDINATES (ANGSTROEM)
---------------------------------
  O     -1.794470   -0.923410    2.768350
  H     -2.338250   -1.359750    3.430940
  H     -0.879480   -1.303000    2.865760
  O      0.923410   -1.794470   -2.768350
  H      1.359750   -2.338250   -3.430940
  H      1.303000   -0.879480   -2.865760
  O     -0.885520    1.737840    0.052730
  H     -1.032320    2.090180   -0.841890
  H     -1.284090    0.839590    0.017130
  O      0.885520   -1.737840    0.052730
  H      1.284090   -0.839590    0.017130
  H      1.032320   -2.090180   -0.841890
  O      1.752130    0.741530   -2.896280
  H      2.036450    0.920500   -1.984040
  H      0.921210    1.242140   -2.984230

 Total Charge           Charge          ....    0
 Multiplicity           Mult            ....    1
 Number of Electrons    NEL             ....   50
 Basis Dimension        Dim             ....  215

ORBITAL ENERGIES
----------------

  NO   OCC          E(Eh)            E(eV)
   0   2.0000     -20.614790      -560.9570
   1   2.0000     -20.564286      -559.5827
   2   2.0000     -20.549492      -559.1801
   3   2.0000     -20.548245      -559.1462
   4   2.0000     -20.532932      -558.7295
   5   2.0000      -1.400180       -38.1008
   6   2.0000      -1.340027       -36.4640
   7   2.0000      -1.334901       -36.3245
   8   2.0000      -1.323587       -36.0166
   9   2.0000      -1.310796       -35.6686
  10   2.0000      -0.757447       -20.6112
  11   2.0000      -0.720712       -19.6116
  12   2.0000      -0.701540       -19.0899
  13   2.0000      -0.691717       -18.8226
  14   2.0000      -0.680007       -18.5039
  15   2.0000      -0.637511       -17.3475
  16   2.0000      -0.586626       -15.9629
  17   2.0000      -0.579188       -15.7605
  18   2.0000      -0.560347       -15.2478
  19   2.0000      -0.557867       -15.1803
  20   2.0000      -0.536383       -14.5957
  21   2.0000      -0.507104       -13.7990
  22   2.0000      -0.496549       -13.5118
  23   2.0000      -0.491436       -13.3727
  24   2.0000      -0.478002       -13.0071
  25   0.0000       0.079197         2.1551
  26   0.0000       0.135488         3.6868
  27   0.0000       0.138184         3.7602
  28   0.0000       0.156920         4.2700
  29   0.0000       0.176387         4.7997

MULLIKEN ATOMIC CHARGES
-----------------------
   0 O :   -0.687140
   1 H :    0.334031
   2 H :    0.353426
   3 O :   -0.733395
   4 H :    0.337869
   5 H :    0.365704
   6 O :   -0.681738
   7 H :    0.318559
   8 H :    0.363464
   9 O :   -0.695036
  10 H :    0.309263
  11 H :    0.370263
  12 O :   -0.673193
  13 H :    0.359473
  14 H :    0.358449
Sum of atomic charges:   -0.0000000

LOEWDIN ATOMIC CHARGES
----------------------
   0 O :   -0.340292
   1 H :    0.155882
   2 H :    0.184421
   3 O :   -0.339191
   4 H :    0.154185
   5 H :    0.142388
   6 O :   -0.335821
   7 H :    0.155593
   8 H :    0.180535
   9 O :   -0.346571
  10 H :    0.154812
  11 H :    0.150229
  12 O :   -0.265411
  13 H :    0.173424
  14 H :    0.175817

  Mayer bond orders larger than 0.100000
B(  0-O ,  1-H ) :   0.8555 B(  0-O ,  2-H ) :   0.8373 B(  3-O ,  4-H ) :   0.8500
B(  3-O ,  5-H ) :   0.7734 B(  6-O ,  7-H ) :   0.8615 B(  6-O ,  8-H ) :   0.8291
B(  9-O , 10-H ) :   0.8634 B(  9-O , 11-H ) :   0.8094 B( 12-O , 13-H ) :   0.8345
B( 12-O , 14-H ) :   0.8352

MP2 TOTAL ENERGY:     -381.583394871 Eh
FINAL SINGLE POINT ENERGY      -381.583394871206

DIPOLE MOMENT
-------------
                                X             Y             Z
Electronic contribution:     -0.04718       0.18519      -0.03423
Nuclear contribution   :      0.53316       0.19549      -0.86245
                        -----------------------------------------
Total Dipole Moment    :      0.48598       0.38068      -0.89669
                        -----------------------------------------
Magnitude (a.u.)       :      1.08864
Magnitude (Debye)      :      2.76711

Rotational constants in cm-1:     0.080635     0.030361     0.023497
Rotational constants in MHz :  2417.389909   910.205415   704.422235

                             ****ORCA TERMINATED NORMALLY****
TOTAL RUN TIME: 0 days 0 hours 0 minutes 27 seconds 802 msec
