                         Program Version 3.0.3 - RELEASE   -
|  1> ! B3LYP Def2-SVP def2-SVP/J RIJCOSX TightSCF Grid4 D3BJ OPT
|  2>
|  3> %pal nprocs 12 end
|  4>
|  5> %scf
|  6>         maxiter 400
|  7> end
|  8>
|  9> * xyz  0  1
| 10> O  1.27199656	0.30467417	0.95336430
| 11> H  0.54103699	0.08639096	0.37519271
| 12> H  1.99446465	0.50972139	0.35987686
| 13> O  -0.97494938	-0.15679262	-0.58304936
| 14> H  -1.18239548	-0.93092905	-1.10641419
| 15> H  -1.81235933	0.10618274	-0.20118501
| 16> **                         ****END OF INPUT****
 Total Charge           Charge          ....    0
 Multiplicity           Mult            ....    1
 Number of Electrons    NEL             ....   20
Dispersion correction           -0.002206375
FINAL SINGLE POINT ENERGY      -152.655760212425
Dispersion correction            ...
Dispersion correction           -0.002160366
FINAL SINGLE POINT ENERGY      -152.656679200400
Dispersion correction            ...
Dispersion correction           -0.002156754
FINAL SINGLE POINT ENERGY      -152.656866040178
Dispersion correction            ...
FINAL SINGLE POINT ENERGY      -152.657056389320
FINAL SINGLE POINT ENERGY      -152.657219680626
FINAL SINGLE POINT ENERGY      -152.657400069243
FINAL SINGLE POINT ENERGY      -152.657507052386
Dispersion correction            ...
Dispersion correction           -0.002222591
FINAL SINGLE POINT ENERGY      -152.657524305353
Dispersion correction            ...
Dispersion correction           -0.002221088
FINAL SINGLE POINT ENERGY      -152.657540310375
Dispersion correction            ...
                    ***********************HURRAY********************

CARTESIAN COORDINATES (ANGSTROEM)
---------------------------------
  O      1.262170    0.248030    0.965932
  H      0.501233    0.123737    0.369476
  H      1.965632    0.510107    0.357762
  O     -1.008031   -0.071195   -0.738221
  H     -1.146448   -0.981140   -1.035673
  H     -1.736762    0.089708   -0.121490

 Multiplicity           Mult            ....    1
 Number of Electrons    NEL             ....   20
 Basis Dimension        Dim             ....   48

ORBITAL ENERGIES
----------------

  NO   OCC          E(Eh)            E(eV)
   0   2.0000     -19.156932      -521.2866
   1   2.0000     -19.077108      -519.1145
   2   2.0000      -1.014794       -27.6140
   3   2.0000      -0.938052       -25.5257
   4   2.0000      -0.546126       -14.8608
   5   2.0000      -0.476289       -12.9605
   6   2.0000      -0.405113       -11.0237
   7   2.0000      -0.342099        -9.3090
   8   2.0000      -0.315349        -8.5811
   9   2.0000      -0.254263        -6.9189
  10   0.0000       0.023946         0.6516
  11   0.0000       0.097963         2.6657
  12   0.0000       0.105691         2.8760
  13   0.0000       0.235077         6.3968
  14   0.0000       0.527765        14.3612

MULLIKEN ATOMIC CHARGES
-----------------------
   0 O :   -0.331682
   1 H :    0.114081
   2 H :    0.137807
   3 O :   -0.260637
   4 H :    0.167960
   5 H :    0.172471
Sum of atomic charges:    0.0000000

LOEWDIN ATOMIC CHARGES
----------------------
   0 O :   -0.180691
   1 H :    0.033045
   2 H :    0.065984
   3 O :   -0.094676
   4 H :    0.087027
   5 H :    0.089311

  Mayer bond orders larger than 0.1
B(  0-O ,  1-H ) :   0.9609 B(  0-O ,  2-H ) :   1.0103 B(  1-H ,  3-O ) :   0.1470
B(  3-O ,  4-H ) :   0.9933 B(  3-O ,  5-H ) :   0.9906

Dispersion correction           -0.002220609
FINAL SINGLE POINT ENERGY      -152.657539719403

DIPOLE MOMENT
-------------
                                X             Y             Z
Electronic contribution:     -0.10384       0.05483       0.00314
Nuclear contribution   :     -0.76962      -0.50879      -0.73693
                        -----------------------------------------
Total Dipole Moment    :     -0.87346      -0.45396      -0.73379
                        -----------------------------------------
Magnitude (a.u.)       :      1.22779
Magnitude (Debye)      :      3.12079

                             ****ORCA TERMINATED NORMALLY****
TOTAL RUN TIME: 0 days 0 hours 8 minutes 0 seconds 937 msec
