                         Program Version 3.0.3 - RELEASE   -
|  1> ! BP86 Def2-SVP TightSCF Opt D3BJ COSMO
|  2>
|  3> %pal nprocs 12 end
|  4>
|  5> %scf
|  6>         maxiter 800
|  7> end
|  8>
|  9> %cosmo
| 10> 	SMD true
| 11>         solvent "WATER"
| 12> end
| 13>
| 14> * xyz  0  1
| 15>   O      1.271997    0.304674    0.953364
| 16>   H      0.541037    0.086391    0.375193
| 17>   H      1.994465    0.509721    0.359877
| 18>   O     -0.974949   -0.156793   -0.583049
| 19>   H     -1.182395   -0.930929   -1.106414
| 20>   H     -1.812359    0.106183   -0.201185
| 21> **                         ****END OF INPUT****
 Total Charge           Charge          ....    0
 Multiplicity           Mult            ....    1
 Number of Electrons    NEL             ....   20
Dispersion correction           -0.001886864
FINAL SINGLE POINT ENERGY      -152.753417388075
Dispersion correction            ...
Dispersion correction           -0.001876716
FINAL SINGLE POINT ENERGY      -152.755578619353
Dispersion correction            ...
Dispersion correction           -0.001898761
FINAL SINGLE POINT ENERGY      -152.755892597579
Dispersion correction            ...
FINAL SINGLE POINT ENERGY      -152.756181511039
FINAL SINGLE POINT ENERGY      -152.756378104859
FINAL SINGLE POINT ENERGY      -152.757088525044
FINAL SINGLE POINT ENERGY      -152.757141691908
FINAL SINGLE POINT ENERGY      -152.756802290760
FINAL SINGLE POINT ENERGY      -152.757183645349
FINAL SINGLE POINT ENERGY      -152.757023832269
FINAL SINGLE POINT ENERGY      -152.757217248675
FINAL SINGLE POINT ENERGY      -152.757216961372
FINAL SINGLE POINT ENERGY      -152.757226715769
FINAL SINGLE POINT ENERGY      -152.757231696504
Dispersion correction            ...
Dispersion correction           -0.001971306
FINAL SINGLE POINT ENERGY      -152.757237431063
Dispersion correction            ...
Dispersion correction           -0.001971138
FINAL SINGLE POINT ENERGY      -152.757237258425
Dispersion correction            ...
                    ***********************HURRAY********************

CARTESIAN COORDINATES (ANGSTROEM)
---------------------------------
  O      1.230560    0.139087    0.923607
  H      0.433419    0.088081    0.328633
  H      1.889345    0.559995    0.338189
  O     -0.973621   -0.016455   -0.746857
  H     -1.022725   -0.979004   -0.916424
  H     -1.719183    0.127544   -0.129362

 Multiplicity           Mult            ....    1
 Number of Electrons    NEL             ....   20
 Basis Dimension        Dim             ....   48

ORBITAL ENERGIES
----------------

  NO   OCC          E(Eh)            E(eV)
   0   2.0000     -18.785359      -511.1756
   1   2.0000     -18.742317      -510.0044
   2   2.0000      -0.909664       -24.7532
   3   2.0000      -0.866641       -23.5825
   4   2.0000      -0.466476       -12.6935
   5   2.0000      -0.435334       -11.8460
   6   2.0000      -0.346768        -9.4360
   7   2.0000      -0.308557        -8.3963
   8   2.0000      -0.259172        -7.0524
   9   2.0000      -0.226470        -6.1626
  10   0.0000       0.038639         1.0514
  11   0.0000       0.087099         2.3701
  12   0.0000       0.123258         3.3540
  13   0.0000       0.212168         5.7734
  14   0.0000       0.496299        13.5050

MULLIKEN ATOMIC CHARGES
-----------------------
   0 O :   -0.430630
   1 H :    0.127713
   2 H :    0.187930
   3 O :   -0.315499
   4 H :    0.214588
   5 H :    0.215899
Sum of atomic charges:   -0.0000000

LOEWDIN ATOMIC CHARGES
----------------------
   0 O :   -0.244589
   1 H :    0.033128
   2 H :    0.091906
   3 O :   -0.112943
   4 H :    0.115808
   5 H :    0.116689

  Mayer bond orders larger than 0.1
B(  0-O ,  1-H ) :   0.9152 B(  0-O ,  2-H ) :   0.9903 B(  1-H ,  3-O ) :   0.2029
B(  3-O ,  4-H ) :   0.9708 B(  3-O ,  5-H ) :   0.9707

Dispersion correction           -0.001970942
FINAL SINGLE POINT ENERGY      -152.757237207869

DIPOLE MOMENT
-------------
                                X             Y             Z
Electronic contribution:     -0.23922      -0.01017      -0.14311
Nuclear contribution   :     -0.77661      -0.37344      -0.60968
                        -----------------------------------------
Total Dipole Moment    :     -1.01583      -0.38361      -0.75279
                        -----------------------------------------
Magnitude (a.u.)       :      1.32127
Magnitude (Debye)      :      3.35840

                             ****ORCA TERMINATED NORMALLY****
TOTAL RUN TIME: 0 days 0 hours 13 minutes 50 seconds 631 msec
