                         Program Version 3.0.3 - RELEASE   -
|  1> ! wB97X-D3 Def2-TZVP def2-TZVP/J RIJCOSX TightSCF Grid4
|  2>
|  3> %pal nprocs 12 end
|  4>
|  5> %scf
|  6>         maxiter 400
|  7> end
|  8>
|  9> * xyz  0  1
| 10> O  1.859564	0.397019	0.274746
| 11> H  1.390834	0.129123	-0.562454
| 12> H  2.440986	-0.352296	0.463463
| 13> O  0.359035	-0.389193	-1.782078
| 14> H  -0.518355	-0.450512	-1.315457
| 15> H  0.218420	0.274116	-2.470899
| 16> O  -0.351615	0.394840	1.792929
| 17> H  0.526501	0.399612	1.323415
| 18> H  -0.481612	1.315755	2.057465
| 19> O  -1.852869	-0.387030	-0.280741
| 20> H  -2.190508	-1.262445	-0.047154
| 21> H  -1.400382	-0.068990	0.546765
| 22> **                         ****END OF INPUT****

CARTESIAN COORDINATES (ANGSTROEM)
---------------------------------
  O      1.859564    0.397019    0.274746
  H      1.390834    0.129123   -0.562454
  H      2.440986   -0.352296    0.463463
  O      0.359035   -0.389193   -1.782078
  H     -0.518355   -0.450512   -1.315457
  H      0.218420    0.274116   -2.470899
  O     -0.351615    0.394840    1.792929
  H      0.526501    0.399612    1.323415
  H     -0.481612    1.315755    2.057465
  O     -1.852869   -0.387030   -0.280741
  H     -2.190508   -1.262445   -0.047154
  H     -1.400382   -0.068990    0.546765

 Total Charge           Charge          ....    0
 Multiplicity           Mult            ....    1
 Number of Electrons    NEL             ....   40
 Basis Dimension        Dim             ....  172

ORBITAL ENERGIES
----------------

  NO   OCC          E(Eh)            E(eV)
   0   2.0000     -19.231488      -523.3154
   1   2.0000     -19.231150      -523.3062
   2   2.0000     -19.231086      -523.3045
   3   2.0000     -19.229981      -523.2744
   4   2.0000      -1.139758       -31.0144
   5   2.0000      -1.122356       -30.5409
   6   2.0000      -1.121862       -30.5274
   7   2.0000      -1.104939       -30.0669
   8   2.0000      -0.642280       -17.4773
   9   2.0000      -0.630041       -17.1443
  10   2.0000      -0.628598       -17.1050
  11   2.0000      -0.623282       -16.9604
  12   2.0000      -0.538982       -14.6665
  13   2.0000      -0.501661       -13.6509
  14   2.0000      -0.499061       -13.5801
  15   2.0000      -0.465650       -12.6710
  16   2.0000      -0.418914       -11.3992
  17   2.0000      -0.416798       -11.3416
  18   2.0000      -0.416137       -11.3237
  19   2.0000      -0.412413       -11.2223
  20   0.0000       0.097274         2.6470
  21   0.0000       0.137749         3.7483
  22   0.0000       0.137815         3.7501
  23   0.0000       0.156432         4.2567
  24   0.0000       0.265818         7.2333

MULLIKEN ATOMIC CHARGES
-----------------------
   0 O :   -0.701572
   1 H :    0.363143
   2 H :    0.340318
   3 O :   -0.704226
   4 H :    0.362027
   5 H :    0.341496
   6 O :   -0.703379
   7 H :    0.359499
   8 H :    0.341289
   9 O :   -0.702216
  10 H :    0.341042
  11 H :    0.362579
Sum of atomic charges:   -0.0000000

LOEWDIN ATOMIC CHARGES
----------------------
   0 O :   -0.300062
   1 H :    0.139372
   2 H :    0.158379
   3 O :   -0.297484
   4 H :    0.140576
   5 H :    0.158903
   6 O :   -0.299709
   7 H :    0.140452
   8 H :    0.158996
   9 O :   -0.298813
  10 H :    0.158923
  11 H :    0.140466

  Mayer bond orders larger than 0.1
B(  0-O ,  1-H ) :   0.7896 B(  0-O ,  2-H ) :   0.8928 B(  0-O ,  7-H ) :   0.1381
B(  1-H ,  3-O ) :   0.1331 B(  3-O ,  4-H ) :   0.7886 B(  3-O ,  5-H ) :   0.8917
B(  4-H ,  9-O ) :   0.1349 B(  6-O ,  7-H ) :   0.7888 B(  6-O ,  8-H ) :   0.8920
B(  6-O , 11-H ) :   0.1325 B(  9-O , 10-H ) :   0.8920 B(  9-O , 11-H ) :   0.7906

Dispersion correction           -0.002991716
FINAL SINGLE POINT ENERGY      -305.805685044519

DIPOLE MOMENT
-------------
                                X             Y             Z
Electronic contribution:     -0.00071       0.00720      -0.00438
Nuclear contribution   :     -0.03525      -0.03905      -0.01213
                        -----------------------------------------
Total Dipole Moment    :     -0.03596      -0.03185      -0.01651
                        -----------------------------------------
Magnitude (a.u.)       :      0.05079
Magnitude (Debye)      :      0.12910

                             ****ORCA TERMINATED NORMALLY****
TOTAL RUN TIME: 0 days 0 hours 0 minutes 51 seconds 33 msec
