                         Program Version 3.0.3 - RELEASE   -
|  1> ! wB97X-D3 MA-Def2-TZVP def2-TZVP/J RIJCOSX TightSCF Grid4
|  2>
|  3> %pal nprocs 1 end
|  4>
|  5> %scf
|  6>         maxiter 400
|  7> end
|  8>
|  9> * xyz  0  1
| 10> O  1.859564	0.397019	0.274746
| 11> H  1.390834	0.129123	-0.562454
| 12> H  2.440986	-0.352296	0.463463
| 13> O  0.359035	-0.389193	-1.782078
| 14> H  -0.518355	-0.450512	-1.315457
| 15> H  0.218420	0.274116	-2.470899
| 16> O  -0.351615	0.394840	1.792929
| 17> H  0.526501	0.399612	1.323415
| 18> H  -0.481612	1.315755	2.057465
| 19> O  -1.852869	-0.387030	-0.280741
| 20> H  -2.190508	-1.262445	-0.047154
| 21> H  -1.400382	-0.068990	0.546765
| 22> **                         ****END OF INPUT****

CARTESIAN COORDINATES (ANGSTROEM)
---------------------------------
  O      1.859564    0.397019    0.274746
  H      1.390834    0.129123   -0.562454
  H      2.440986   -0.352296    0.463463
  O      0.359035   -0.389193   -1.782078
  H     -0.518355   -0.450512   -1.315457
  H      0.218420    0.274116   -2.470899
  O     -0.351615    0.394840    1.792929
  H      0.526501    0.399612    1.323415
  H     -0.481612    1.315755    2.057465
  O     -1.852869   -0.387030   -0.280741
  H     -2.190508   -1.262445   -0.047154
  H     -1.400382   -0.068990    0.546765

 Total Charge           Charge          ....    0
 Multiplicity           Mult            ....    1
 Number of Electrons    NEL             ....   40
 Basis Dimension        Dim             ....  188

ORBITAL ENERGIES
----------------

  NO   OCC          E(Eh)            E(eV)
   0   2.0000     -19.236401      -523.4491
   1   2.0000     -19.235963      -523.4372
   2   2.0000     -19.235953      -523.4369
   3   2.0000     -19.234722      -523.4034
   4   2.0000      -1.143284       -31.1104
   5   2.0000      -1.125903       -30.6374
   6   2.0000      -1.125340       -30.6220
   7   2.0000      -1.108441       -30.1622
   8   2.0000      -0.645586       -17.5673
   9   2.0000      -0.633361       -17.2346
  10   2.0000      -0.631932       -17.1958
  11   2.0000      -0.626639       -17.0517
  12   2.0000      -0.542530       -14.7630
  13   2.0000      -0.505152       -13.7459
  14   2.0000      -0.502535       -13.6747
  15   2.0000      -0.469048       -12.7634
  16   2.0000      -0.422515       -11.4972
  17   2.0000      -0.420330       -11.4378
  18   2.0000      -0.419635       -11.4189
  19   2.0000      -0.416115       -11.3231
  20   0.0000       0.064262         1.7487
  21   0.0000       0.102322         2.7843
  22   0.0000       0.102659         2.7935
  23   0.0000       0.116632         3.1737
  24   0.0000       0.143903         3.9158

MULLIKEN ATOMIC CHARGES
-----------------------
   0 O :   -0.728918
   1 H :    0.387894
   2 H :    0.346408
   3 O :   -0.738395
   4 H :    0.388119
   5 H :    0.346752
   6 O :   -0.736024
   7 H :    0.383605
   8 H :    0.346927
   9 O :   -0.730214
  10 H :    0.346721
  11 H :    0.387125
Sum of atomic charges:   -0.0000000

LOEWDIN ATOMIC CHARGES
----------------------
   0 O :   -0.375736
   1 H :    0.185121
   2 H :    0.188769
   3 O :   -0.373956
   4 H :    0.186480
   5 H :    0.189061
   6 O :   -0.375874
   7 H :    0.186278
   8 H :    0.189222
   9 O :   -0.374728
  10 H :    0.189088
  11 H :    0.186275

  Mayer bond orders larger than 0.1
B(  0-O ,  1-H ) :   0.8037 B(  0-O ,  2-H ) :   0.8945 B(  3-O ,  4-H ) :   0.8019
B(  3-O ,  5-H ) :   0.8920 B(  6-O ,  7-H ) :   0.8020 B(  6-O ,  8-H ) :   0.8928
B(  9-O , 10-H ) :   0.8927 B(  9-O , 11-H ) :   0.8036

Dispersion correction           -0.002991716
FINAL SINGLE POINT ENERGY      -305.809094504826

DIPOLE MOMENT
-------------
                                X             Y             Z
Electronic contribution:     -0.00052       0.00665      -0.00394
Nuclear contribution   :     -0.03525      -0.03905      -0.01213
                        -----------------------------------------
Total Dipole Moment    :     -0.03577      -0.03239      -0.01607
                        -----------------------------------------
Magnitude (a.u.)       :      0.05086
Magnitude (Debye)      :      0.12928

                             ****ORCA TERMINATED NORMALLY****
TOTAL RUN TIME: 0 days 0 hours 1 minutes 3 seconds 750 msec
