                         Program Version 4.2.0 -  RELEASE  -
|  1> # 12meoh.boyd.etal.mol5,7,9
|  2> ! MP2 def2-TZVP EnGrad TightSCF
|  3>
|  4> %pal
|  5>     nprocs 6
|  6> end
|  7>
|  8> %maxcore 8000
|  9>
| 10> %scf
| 11>     ConvForced true
| 12> end
| 13>
| 14> *xyz 0 1
| 15> O  -0.662721750   1.449094618  -1.383082065
| 16> H   0.064188300   2.119867608  -1.465650660
| 17> C  -0.353319239   0.341218776  -2.229326771
| 18> H  -1.072358530  -0.454743281  -2.019906495
| 19> H   0.657636746  -0.044472139  -2.042736771
| 20> H  -0.434616607   0.624733901  -3.287793021
| 21> O   4.310535586  -1.588322800   0.656128299
| 22> H   3.804372199  -1.630404735  -0.196849819
| 23> C   4.312298137  -2.894980854   1.222112691
| 24> H   4.713177833  -2.819907076   2.237066773
| 25> H   4.957796734  -3.574699304   0.648211180
| 26> H   3.302735989  -3.324433205   1.269756773
| 27> O   1.390610024   3.194080770  -1.536658882
| 28> H   2.162932299   2.881562730  -0.993525056
| 29> C   1.202977189   4.580367182  -1.302880219
| 30> H   0.374773115   4.915764831  -1.934164643
| 31> H   2.098649340   5.157710875  -1.570472348
| 32> H   0.950320401   4.800436015  -0.254328827
| 33> *
| 34>
| 35>                          ****END OF INPUT****

CARTESIAN COORDINATES (ANGSTROEM)
---------------------------------
  O     -0.662722    1.449095   -1.383082
  H      0.064188    2.119868   -1.465651
  C     -0.353319    0.341219   -2.229327
  H     -1.072359   -0.454743   -2.019906
  H      0.657637   -0.044472   -2.042737
  H     -0.434617    0.624734   -3.287793
  O      4.310536   -1.588323    0.656128
  H      3.804372   -1.630405   -0.196850
  C      4.312298   -2.894981    1.222113
  H      4.713178   -2.819907    2.237067
  H      4.957797   -3.574699    0.648211
  H      3.302736   -3.324433    1.269757
  O      1.390610    3.194081   -1.536659
  H      2.162932    2.881563   -0.993525
  C      1.202977    4.580367   -1.302880
  H      0.374773    4.915765   -1.934165
  H      2.098649    5.157711   -1.570472
  H      0.950320    4.800436   -0.254329

 Total Charge           Charge          ....    0
 Multiplicity           Mult            ....    1
 Number of Electrons    NEL             ....   54
 Basis Dimension        Dim             ....  258

ORBITAL ENERGIES
----------------

  NO   OCC          E(Eh)            E(eV)
   0   2.0000     -20.588645      -560.2455
   1   2.0000     -20.559747      -559.4592
   2   2.0000     -20.513568      -558.2026
   3   2.0000     -11.288717      -307.1816
   4   2.0000     -11.273108      -306.7569
   5   2.0000     -11.251217      -306.1612
   6   2.0000      -1.382914       -37.6310
   7   2.0000      -1.349384       -36.7186
   8   2.0000      -1.309293       -35.6277
   9   2.0000      -0.940735       -25.5987
  10   2.0000      -0.921198       -25.0671
  11   2.0000      -0.897474       -24.4215
  12   2.0000      -0.715277       -19.4637
  13   2.0000      -0.683934       -18.6108
  14   2.0000      -0.671363       -18.2687
  15   2.0000      -0.635297       -17.2873
  16   2.0000      -0.618664       -16.8347
  17   2.0000      -0.609714       -16.5912
  18   2.0000      -0.592923       -16.1342
  19   2.0000      -0.591689       -16.1007
  20   2.0000      -0.562150       -15.2969
  21   2.0000      -0.526675       -14.3315
  22   2.0000      -0.502927       -13.6853
  23   2.0000      -0.483719       -13.1627
  24   2.0000      -0.458687       -12.4815
  25   2.0000      -0.451156       -12.2766
  26   2.0000      -0.417521       -11.3613
  27   0.0000       0.107678         2.9301
  28   0.0000       0.131186         3.5698
  29   0.0000       0.160106         4.3567
  30   0.0000       0.171333         4.6622
  31   0.0000       0.184837         5.0297

MULLIKEN ATOMIC CHARGES
-----------------------
   0 O :   -0.535975
   1 H :    0.348236
   2 C :   -0.153967
   3 H :    0.120611
   4 H :    0.081701
   5 H :    0.101659
   6 O :   -0.499788
   7 H :    0.321679
   8 C :   -0.174347
   9 H :    0.129224
  10 H :    0.109711
  11 H :    0.113559
  12 O :   -0.525383
  13 H :    0.344500
  14 C :   -0.175885
  15 H :    0.143419
  16 H :    0.123851
  17 H :    0.127196
Sum of atomic charges:   -0.0000000

LOEWDIN ATOMIC CHARGES
----------------------
   0 O :   -0.127932
   1 H :    0.158335
   2 C :   -0.389641
   3 H :    0.104860
   4 H :    0.087410
   5 H :    0.093020
   6 O :   -0.111032
   7 H :    0.189109
   8 C :   -0.380504
   9 H :    0.110112
  10 H :    0.095541
  11 H :    0.096726
  12 O :   -0.075164
  13 H :    0.200703
  14 C :   -0.374362
  15 H :    0.116372
  16 H :    0.103545
  17 H :    0.102904

  Mayer bond orders larger than 0.100000
B(  0-O ,  1-H ) :   0.7921 B(  0-O ,  2-C ) :   0.9440 B(  2-C ,  3-H ) :   0.9407
B(  2-C ,  4-H ) :   0.9393 B(  2-C ,  5-H ) :   0.9408 B(  6-O ,  7-H ) :   0.8430
B(  6-O ,  8-C ) :   0.9240 B(  8-C ,  9-H ) :   0.9376 B(  8-C , 10-H ) :   0.9385
B(  8-C , 11-H ) :   0.9401 B( 12-O , 13-H ) :   0.8258 B( 12-O , 14-C ) :   0.8702
B( 14-C , 15-H ) :   0.9391 B( 14-C , 16-H ) :   0.9346 B( 14-C , 17-H ) :   0.9381

MP2 TOTAL ENERGY:     -346.529458016 Eh
FINAL SINGLE POINT ENERGY      -346.529458016325

DIPOLE MOMENT
-------------
                                X             Y             Z
Electronic contribution:     -0.12537       1.62091       0.19750
Nuclear contribution   :      0.99430      -1.47238      -0.39004
                        -----------------------------------------
Total Dipole Moment    :      0.86893       0.14853      -0.19253
                        -----------------------------------------
Magnitude (a.u.)       :      0.90231
Magnitude (Debye)      :      2.29350

Rotational constants in cm-1:     0.078222     0.017223     0.014514
Rotational constants in MHz :  2345.031080   516.343098   435.107154

                             ****ORCA TERMINATED NORMALLY****
TOTAL RUN TIME: 0 days 0 hours 1 minutes 1 seconds 645 msec
