                         Program Version 4.2.0 -  RELEASE  -
|  1> # 12meoh.boyd.etal.mol1,3,10
|  2> ! MP2 def2-TZVP EnGrad TightSCF
|  3>
|  4> %pal
|  5>     nprocs 6
|  6> end
|  7>
|  8> %maxcore 8000
|  9>
| 10> %scf
| 11>     ConvForced true
| 12> end
| 13>
| 14> *xyz 0 1
| 15> O   0.666045193  -2.600503172   0.138317521
| 16> H  -0.227115049  -2.712051982  -0.281868004
| 17> C   0.490021232  -1.851247678   1.341189459
| 18> H   1.466500502  -1.466176022   1.645844415
| 19> H   0.097564527  -2.488364683   2.146902740
| 20> H  -0.187588112  -1.000787499   1.200739571
| 21> O  -3.821405976  -2.118091637   0.596795346
| 22> H  -4.342989117  -1.344303030   0.251966383
| 23> C  -3.443883586  -1.809641231   1.934889393
| 24> H  -2.831494349  -2.637429600   2.305201764
| 25> H  -4.325601146  -1.719364371   2.585074667
| 26> H  -2.858527126  -0.882644791   1.996110694
| 27> O  -5.201143618   0.064582726  -0.172223772
| 28> H  -4.686891530   0.869258890   0.107806143
| 29> C  -6.513192168   0.171391798   0.359883449
| 30> H  -7.049381312  -0.749234190   0.111361174
| 31> H  -7.057741163   1.017801101  -0.081819420
| 32> H  -6.514770575   0.292264928   1.453058834
| 33> *
| 34>
| 35>                          ****END OF INPUT****

CARTESIAN COORDINATES (ANGSTROEM)
---------------------------------
  O      0.666045   -2.600503    0.138318
  H     -0.227115   -2.712052   -0.281868
  C      0.490021   -1.851248    1.341189
  H      1.466501   -1.466176    1.645844
  H      0.097565   -2.488365    2.146903
  H     -0.187588   -1.000787    1.200740
  O     -3.821406   -2.118092    0.596795
  H     -4.342989   -1.344303    0.251966
  C     -3.443884   -1.809641    1.934889
  H     -2.831494   -2.637430    2.305202
  H     -4.325601   -1.719364    2.585075
  H     -2.858527   -0.882645    1.996111
  O     -5.201144    0.064583   -0.172224
  H     -4.686892    0.869259    0.107806
  C     -6.513192    0.171392    0.359883
  H     -7.049381   -0.749234    0.111361
  H     -7.057741    1.017801   -0.081819
  H     -6.514771    0.292265    1.453059

 Total Charge           Charge          ....    0
 Multiplicity           Mult            ....    1
 Number of Electrons    NEL             ....   54
 Basis Dimension        Dim             ....  258

ORBITAL ENERGIES
----------------

  NO   OCC          E(Eh)            E(eV)
   0   2.0000     -20.597153      -560.4770
   1   2.0000     -20.546739      -559.1052
   2   2.0000     -20.525394      -558.5244
   3   2.0000     -11.296005      -307.3799
   4   2.0000     -11.264242      -306.5156
   5   2.0000     -11.262247      -306.4613
   6   2.0000      -1.391154       -37.8552
   7   2.0000      -1.335071       -36.3291
   8   2.0000      -1.322079       -35.9756
   9   2.0000      -0.948071       -25.7983
  10   2.0000      -0.912529       -24.8312
  11   2.0000      -0.907499       -24.6943
  12   2.0000      -0.722241       -19.6532
  13   2.0000      -0.684927       -18.6378
  14   2.0000      -0.671493       -18.2723
  15   2.0000      -0.639978       -17.4147
  16   2.0000      -0.618893       -16.8409
  17   2.0000      -0.608325       -16.5534
  18   2.0000      -0.604185       -16.4407
  19   2.0000      -0.581129       -15.8133
  20   2.0000      -0.572240       -15.5714
  21   2.0000      -0.533969       -14.5300
  22   2.0000      -0.497130       -13.5276
  23   2.0000      -0.492325       -13.3968
  24   2.0000      -0.466100       -12.6832
  25   2.0000      -0.440075       -11.9750
  26   2.0000      -0.428860       -11.6699
  27   0.0000       0.106073         2.8864
  28   0.0000       0.143915         3.9161
  29   0.0000       0.152951         4.1620
  30   0.0000       0.168887         4.5957
  31   0.0000       0.192347         5.2340

MULLIKEN ATOMIC CHARGES
-----------------------
   0 O :   -0.504410
   1 H :    0.331743
   2 C :   -0.167487
   3 H :    0.128268
   4 H :    0.104097
   5 H :    0.106757
   6 O :   -0.531467
   7 H :    0.360136
   8 C :   -0.187490
   9 H :    0.128728
  10 H :    0.106386
  11 H :    0.087853
  12 O :   -0.514886
  13 H :    0.341420
  14 C :   -0.192881
  15 H :    0.149433
  16 H :    0.128840
  17 H :    0.124961
Sum of atomic charges:    0.0000000

LOEWDIN ATOMIC CHARGES
----------------------
   0 O :   -0.112893
   1 H :    0.193518
   2 C :   -0.378354
   3 H :    0.107391
   4 H :    0.095066
   5 H :    0.094504
   6 O :   -0.122277
   7 H :    0.159659
   8 C :   -0.400707
   9 H :    0.107351
  10 H :    0.092121
  11 H :    0.087088
  12 O :   -0.070335
  13 H :    0.200043
  14 C :   -0.376123
  15 H :    0.117904
  16 H :    0.104951
  17 H :    0.101092

  Mayer bond orders larger than 0.100000
B(  0-O ,  1-H ) :   0.8368 B(  0-O ,  2-C ) :   0.9345 B(  2-C ,  3-H ) :   0.9367
B(  2-C ,  4-H ) :   0.9395 B(  2-C ,  5-H ) :   0.9428 B(  6-O ,  7-H ) :   0.7902
B(  6-O ,  8-C ) :   0.9374 B(  8-C ,  9-H ) :   0.9434 B(  8-C , 10-H ) :   0.9359
B(  8-C , 11-H ) :   0.9388 B( 12-O , 13-H ) :   0.8282 B( 12-O , 14-C ) :   0.8698
B( 14-C , 15-H ) :   0.9386 B( 14-C , 16-H ) :   0.9352 B( 14-C , 17-H ) :   0.9367

MP2 TOTAL ENERGY:     -346.531179104 Eh
FINAL SINGLE POINT ENERGY      -346.531179104365

DIPOLE MOMENT
-------------
                                X             Y             Z
Electronic contribution:      1.25619      -1.49326      -4.07452
Nuclear contribution   :     -2.60532       3.10533       4.83103
                        -----------------------------------------
Total Dipole Moment    :     -1.34914       1.61207       0.75651
                        -----------------------------------------
Magnitude (a.u.)       :      2.23411
Magnitude (Debye)      :      5.67865

Rotational constants in cm-1:     0.177642     0.020778     0.020080
Rotational constants in MHz :  5325.563603   622.914773   601.973211

                             ****ORCA TERMINATED NORMALLY****
TOTAL RUN TIME: 0 days 0 hours 1 minutes 15 seconds 866 msec
