                         Program Version 4.2.0 -  RELEASE  -
|  1> # 12h2o.su.etal.mol1,2,4,7,8,9,10
|  2> ! MP2 def2-TZVP EnGrad TightSCF
|  3>
|  4> %pal
|  5>     nprocs 6
|  6> end
|  7>
|  8> %maxcore 8000
|  9>
| 10> %scf
| 11>     ConvForced true
| 12> end
| 13>
| 14> *xyz 0 1
| 15> O  -1.794470000  -0.923410000   2.768350000
| 16> H  -2.338250000  -1.359750000   3.430940000
| 17> H  -0.879480000  -1.303000000   2.865760000
| 18> O   0.923410000  -1.794470000  -2.768350000
| 19> H   1.359750000  -2.338250000  -3.430940000
| 20> H   1.303000000  -0.879480000  -2.865760000
| 21> O  -0.885520000   1.737840000   0.052730000
| 22> H  -1.032320000   2.090180000  -0.841890000
| 23> H  -1.284090000   0.839590000   0.017130000
| 24> O  -1.737840000  -0.885520000  -0.052730000
| 25> H  -2.090180000  -1.032320000   0.841890000
| 26> H  -0.839590000  -1.284090000  -0.017130000
| 27> O   1.752130000   0.741530000  -2.896280000
| 28> H   2.036450000   0.920500000  -1.984040000
| 29> H   0.921210000   1.242140000  -2.984230000
| 30> O   0.741530000  -1.752130000   2.896280000
| 31> H   0.920500000  -2.036450000   1.984040000
| 32> H   1.242140000  -0.921210000   2.984230000
| 33> O  -0.923410000   1.794470000  -2.768350000
| 34> H  -1.359750000   2.338250000  -3.430940000
| 35> H  -1.303000000   0.879480000  -2.865760000
| 36> *
| 37>
| 38>                          ****END OF INPUT****

CARTESIAN COORDINATES (ANGSTROEM)
---------------------------------
  O     -1.794470   -0.923410    2.768350
  H     -2.338250   -1.359750    3.430940
  H     -0.879480   -1.303000    2.865760
  O      0.923410   -1.794470   -2.768350
  H      1.359750   -2.338250   -3.430940
  H      1.303000   -0.879480   -2.865760
  O     -0.885520    1.737840    0.052730
  H     -1.032320    2.090180   -0.841890
  H     -1.284090    0.839590    0.017130
  O     -1.737840   -0.885520   -0.052730
  H     -2.090180   -1.032320    0.841890
  H     -0.839590   -1.284090   -0.017130
  O      1.752130    0.741530   -2.896280
  H      2.036450    0.920500   -1.984040
  H      0.921210    1.242140   -2.984230
  O      0.741530   -1.752130    2.896280
  H      0.920500   -2.036450    1.984040
  H      1.242140   -0.921210    2.984230
  O     -0.923410    1.794470   -2.768350
  H     -1.359750    2.338250   -3.430940
  H     -1.303000    0.879480   -2.865760

 Total Charge           Charge          ....    0
 Multiplicity           Mult            ....    1
 Number of Electrons    NEL             ....   70
 Basis Dimension        Dim             ....  301

ORBITAL ENERGIES
----------------

  NO   OCC          E(Eh)            E(eV)
   0   2.0000     -20.609002      -560.7995
   1   2.0000     -20.604109      -560.6663
   2   2.0000     -20.570327      -559.7471
   3   2.0000     -20.552992      -559.2753
   4   2.0000     -20.546455      -559.0975
   5   2.0000     -20.523539      -558.4739
   6   2.0000     -20.496521      -557.7387
   7   2.0000      -1.394490       -37.9460
   8   2.0000      -1.384934       -37.6860
   9   2.0000      -1.358667       -36.9712
  10   2.0000      -1.340526       -36.4776
  11   2.0000      -1.326955       -36.1083
  12   2.0000      -1.305211       -35.5166
  13   2.0000      -1.280714       -34.8500
  14   2.0000      -0.751530       -20.4502
  15   2.0000      -0.750550       -20.4235
  16   2.0000      -0.720580       -19.6080
  17   2.0000      -0.717137       -19.5143
  18   2.0000      -0.699359       -19.0305
  19   2.0000      -0.692232       -18.8366
  20   2.0000      -0.666421       -18.1342
  21   2.0000      -0.633077       -17.2269
  22   2.0000      -0.624668       -16.9981
  23   2.0000      -0.599836       -16.3224
  24   2.0000      -0.590097       -16.0574
  25   2.0000      -0.572012       -15.5652
  26   2.0000      -0.558540       -15.1986
  27   2.0000      -0.547550       -14.8996
  28   2.0000      -0.533754       -14.5242
  29   2.0000      -0.520215       -14.1558
  30   2.0000      -0.503982       -13.7140
  31   2.0000      -0.495044       -13.4708
  32   2.0000      -0.484982       -13.1970
  33   2.0000      -0.474411       -12.9094
  34   2.0000      -0.447486       -12.1767
  35   0.0000       0.089476         2.4348
  36   0.0000       0.110665         3.0113
  37   0.0000       0.147605         4.0165
  38   0.0000       0.159942         4.3522
  39   0.0000       0.166584         4.5330

MULLIKEN ATOMIC CHARGES
-----------------------
   0 O :   -0.729815
   1 H :    0.337754
   2 H :    0.368296
   3 O :   -0.740186
   4 H :    0.326446
   5 H :    0.364805
   6 O :   -0.738937
   7 H :    0.348645
   8 H :    0.349344
   9 O :   -0.699412
  10 H :    0.380383
  11 H :    0.331488
  12 O :   -0.701963
  13 H :    0.354661
  14 H :    0.375589
  15 O :   -0.678307
  16 H :    0.357026
  17 H :    0.370664
  18 O :   -0.720801
  19 H :    0.360842
  20 H :    0.383480
Sum of atomic charges:   -0.0000000

LOEWDIN ATOMIC CHARGES
----------------------
   0 O :   -0.335989
   1 H :    0.154572
   2 H :    0.143397
   3 O :   -0.377231
   4 H :    0.149289
   5 H :    0.140868
   6 O :   -0.373286
   7 H :    0.138527
   8 H :    0.137426
   9 O :   -0.300924
  10 H :    0.153485
  11 H :    0.165122
  12 O :   -0.282870
  13 H :    0.171499
  14 H :    0.153554
  15 O :   -0.267340
  16 H :    0.172840
  17 H :    0.182222
  18 O :   -0.287837
  19 H :    0.166432
  20 H :    0.196242

  Mayer bond orders larger than 0.100000
B(  0-O ,  1-H ) :   0.8502 B(  0-O ,  2-H ) :   0.7714 B(  3-O ,  4-H ) :   0.8595
B(  3-O ,  5-H ) :   0.7735 B(  6-O ,  7-H ) :   0.8395 B(  6-O ,  8-H ) :   0.7985
B(  9-O , 10-H ) :   0.7940 B(  9-O , 11-H ) :   0.8457 B( 12-O , 13-H ) :   0.8379
B( 12-O , 14-H ) :   0.8002 B( 15-O , 16-H ) :   0.8372 B( 15-O , 17-H ) :   0.8289
B( 18-O , 19-H ) :   0.8335 B( 18-O , 20-H ) :   0.8100

MP2 TOTAL ENERGY:     -534.242705815 Eh
FINAL SINGLE POINT ENERGY      -534.242705815244

DIPOLE MOMENT
-------------
                                X             Y             Z
Electronic contribution:      0.01816       0.17191       0.24284
Nuclear contribution   :      0.42012      -0.56686      -0.63259
                        -----------------------------------------
Total Dipole Moment    :      0.43828      -0.39496      -0.38976
                        -----------------------------------------
Magnitude (a.u.)       :      0.70710
Magnitude (Debye)      :      1.79730

Rotational constants in cm-1:     0.044007     0.018553     0.015648
Rotational constants in MHz :  1319.306917   556.193194   469.114076

                             ****ORCA TERMINATED NORMALLY****
TOTAL RUN TIME: 0 days 0 hours 2 minutes 0 seconds 496 msec
