                         Program Version 4.2.0 -  RELEASE  -
|  1> # 12h2o.su.etal.mol4,5,9,11
|  2> ! MP2 def2-TZVP EnGrad TightSCF
|  3>
|  4> %pal
|  5>     nprocs 6
|  6> end
|  7>
|  8> %maxcore 8000
|  9>
| 10> %scf
| 11>     ConvForced true
| 12> end
| 13>
| 14> *xyz 0 1
| 15> O  -0.885520000   1.737840000   0.052730000
| 16> H  -1.032320000   2.090180000  -0.841890000
| 17> H  -1.284090000   0.839590000   0.017130000
| 18> O   0.885520000  -1.737840000   0.052730000
| 19> H   1.284090000  -0.839590000   0.017130000
| 20> H   1.032320000  -2.090180000  -0.841890000
| 21> O   0.741530000  -1.752130000   2.896280000
| 22> H   0.920500000  -2.036450000   1.984040000
| 23> H   1.242140000  -0.921210000   2.984230000
| 24> O  -0.741530000   1.752130000   2.896280000
| 25> H  -0.920500000   2.036450000   1.984040000
| 26> H  -1.242140000   0.921210000   2.984230000
| 27> *
| 28>
| 29>                          ****END OF INPUT****

CARTESIAN COORDINATES (ANGSTROEM)
---------------------------------
  O     -0.885520    1.737840    0.052730
  H     -1.032320    2.090180   -0.841890
  H     -1.284090    0.839590    0.017130
  O      0.885520   -1.737840    0.052730
  H      1.284090   -0.839590    0.017130
  H      1.032320   -2.090180   -0.841890
  O      0.741530   -1.752130    2.896280
  H      0.920500   -2.036450    1.984040
  H      1.242140   -0.921210    2.984230
  O     -0.741530    1.752130    2.896280
  H     -0.920500    2.036450    1.984040
  H     -1.242140    0.921210    2.984230

 Total Charge           Charge          ....    0
 Multiplicity           Mult            ....    1
 Number of Electrons    NEL             ....   40
 Basis Dimension        Dim             ....  172

ORBITAL ENERGIES
----------------

  NO   OCC          E(Eh)            E(eV)
   0   2.0000     -20.596960      -560.4718
   1   2.0000     -20.596959      -560.4718
   2   2.0000     -20.530129      -558.6532
   3   2.0000     -20.530129      -558.6532
   4   2.0000      -1.375551       -37.4306
   5   2.0000      -1.374937       -37.4139
   6   2.0000      -1.312333       -35.7104
   7   2.0000      -1.311567       -35.6896
   8   2.0000      -0.738569       -20.0975
   9   2.0000      -0.736190       -20.0328
  10   2.0000      -0.683593       -18.6015
  11   2.0000      -0.681294       -18.5390
  12   2.0000      -0.614811       -16.7299
  13   2.0000      -0.614283       -16.7155
  14   2.0000      -0.552776       -15.0418
  15   2.0000      -0.552584       -15.0366
  16   2.0000      -0.537394       -14.6232
  17   2.0000      -0.534071       -14.5328
  18   2.0000      -0.479606       -13.0507
  19   2.0000      -0.473503       -12.8847
  20   0.0000       0.087176         2.3722
  21   0.0000       0.125413         3.4127
  22   0.0000       0.159777         4.3477
  23   0.0000       0.172912         4.7052
  24   0.0000       0.201048         5.4708

MULLIKEN ATOMIC CHARGES
-----------------------
   0 O :   -0.696248
   1 H :    0.349776
   2 H :    0.351035
   3 O :   -0.696248
   4 H :    0.351035
   5 H :    0.349776
   6 O :   -0.700573
   7 H :    0.366317
   8 H :    0.329692
   9 O :   -0.700573
  10 H :    0.366317
  11 H :    0.329692
Sum of atomic charges:   -0.0000000

LOEWDIN ATOMIC CHARGES
----------------------
   0 O :   -0.318416
   1 H :    0.170650
   2 H :    0.175770
   3 O :   -0.318416
   4 H :    0.175770
   5 H :    0.170650
   6 O :   -0.339769
   7 H :    0.151355
   8 H :    0.160410
   9 O :   -0.339769
  10 H :    0.151355
  11 H :    0.160410

  Mayer bond orders larger than 0.100000
B(  0-O ,  1-H ) :   0.8419 B(  0-O ,  2-H ) :   0.8351 B(  3-O ,  4-H ) :   0.8351
B(  3-O ,  5-H ) :   0.8419 B(  6-O ,  7-H ) :   0.8247 B(  6-O ,  8-H ) :   0.8537
B(  9-O , 10-H ) :   0.8247 B(  9-O , 11-H ) :   0.8537

MP2 TOTAL ENERGY:     -305.267643594 Eh
FINAL SINGLE POINT ENERGY      -305.267643594188

DIPOLE MOMENT
-------------
                                X             Y             Z
Electronic contribution:     -0.00000       0.00000       0.15622
Nuclear contribution   :     -0.00000      -0.00000      -2.92077
                        -----------------------------------------
Total Dipole Moment    :     -0.00000       0.00000      -2.76455
                        -----------------------------------------
Magnitude (a.u.)       :      2.76455
Magnitude (Debye)      :      7.02692

Rotational constants in cm-1:     0.110866     0.062867     0.040630
Rotational constants in MHz :  3323.688088  1884.714042  1218.048598

                             ****ORCA TERMINATED NORMALLY****
TOTAL RUN TIME: 0 days 0 hours 0 minutes 17 seconds 25 msec
