                         Program Version 4.2.0 -  RELEASE  -
|  1> # 12h2o.su.etal.mol0,1,2,7,8,9,10,11
|  2> ! MP2 def2-TZVP EnGrad TightSCF
|  3>
|  4> %pal
|  5>     nprocs 6
|  6> end
|  7>
|  8> %maxcore 8000
|  9>
| 10> %scf
| 11>     ConvForced true
| 12> end
| 13>
| 14> *xyz 0 1
| 15> O   1.794470000   0.923410000   2.768350000
| 16> H   2.338250000   1.359750000   3.430940000
| 17> H   0.879480000   1.303000000   2.865760000
| 18> O  -1.794470000  -0.923410000   2.768350000
| 19> H  -2.338250000  -1.359750000   3.430940000
| 20> H  -0.879480000  -1.303000000   2.865760000
| 21> O   0.923410000  -1.794470000  -2.768350000
| 22> H   1.359750000  -2.338250000  -3.430940000
| 23> H   1.303000000  -0.879480000  -2.865760000
| 24> O  -1.737840000  -0.885520000  -0.052730000
| 25> H  -2.090180000  -1.032320000   0.841890000
| 26> H  -0.839590000  -1.284090000  -0.017130000
| 27> O   1.752130000   0.741530000  -2.896280000
| 28> H   2.036450000   0.920500000  -1.984040000
| 29> H   0.921210000   1.242140000  -2.984230000
| 30> O   0.741530000  -1.752130000   2.896280000
| 31> H   0.920500000  -2.036450000   1.984040000
| 32> H   1.242140000  -0.921210000   2.984230000
| 33> O  -0.923410000   1.794470000  -2.768350000
| 34> H  -1.359750000   2.338250000  -3.430940000
| 35> H  -1.303000000   0.879480000  -2.865760000
| 36> O  -0.741530000   1.752130000   2.896280000
| 37> H  -0.920500000   2.036450000   1.984040000
| 38> H  -1.242140000   0.921210000   2.984230000
| 39> *
| 40>
| 41>                          ****END OF INPUT****

CARTESIAN COORDINATES (ANGSTROEM)
---------------------------------
  O      1.794470    0.923410    2.768350
  H      2.338250    1.359750    3.430940
  H      0.879480    1.303000    2.865760
  O     -1.794470   -0.923410    2.768350
  H     -2.338250   -1.359750    3.430940
  H     -0.879480   -1.303000    2.865760
  O      0.923410   -1.794470   -2.768350
  H      1.359750   -2.338250   -3.430940
  H      1.303000   -0.879480   -2.865760
  O     -1.737840   -0.885520   -0.052730
  H     -2.090180   -1.032320    0.841890
  H     -0.839590   -1.284090   -0.017130
  O      1.752130    0.741530   -2.896280
  H      2.036450    0.920500   -1.984040
  H      0.921210    1.242140   -2.984230
  O      0.741530   -1.752130    2.896280
  H      0.920500   -2.036450    1.984040
  H      1.242140   -0.921210    2.984230
  O     -0.923410    1.794470   -2.768350
  H     -1.359750    2.338250   -3.430940
  H     -1.303000    0.879480   -2.865760
  O     -0.741530    1.752130    2.896280
  H     -0.920500    2.036450    1.984040
  H     -1.242140    0.921210    2.984230

 Total Charge           Charge          ....    0
 Multiplicity           Mult            ....    1
 Number of Electrons    NEL             ....   80
 Basis Dimension        Dim             ....  344

ORBITAL ENERGIES
----------------

  NO   OCC          E(Eh)            E(eV)
   0   2.0000     -20.584391      -560.1298
   1   2.0000     -20.579492      -559.9965
   2   2.0000     -20.571976      -559.7919
   3   2.0000     -20.571024      -559.7660
   4   2.0000     -20.564953      -559.6008
   5   2.0000     -20.552606      -559.2648
   6   2.0000     -20.533242      -558.7379
   7   2.0000     -20.516107      -558.2717
   8   2.0000      -1.375647       -37.4332
   9   2.0000      -1.364307       -37.1247
  10   2.0000      -1.362536       -37.0765
  11   2.0000      -1.352424       -36.8013
  12   2.0000      -1.351541       -36.7773
  13   2.0000      -1.332518       -36.2597
  14   2.0000      -1.311949       -35.6999
  15   2.0000      -1.297856       -35.3165
  16   2.0000      -0.738240       -20.0885
  17   2.0000      -0.731851       -19.9147
  18   2.0000      -0.730999       -19.8915
  19   2.0000      -0.720950       -19.6181
  20   2.0000      -0.714677       -19.4473
  21   2.0000      -0.712927       -19.3997
  22   2.0000      -0.685276       -18.6473
  23   2.0000      -0.681709       -18.5502
  24   2.0000      -0.632473       -17.2105
  25   2.0000      -0.611120       -16.6294
  26   2.0000      -0.603304       -16.4167
  27   2.0000      -0.595657       -16.2086
  28   2.0000      -0.585257       -15.9257
  29   2.0000      -0.569620       -15.5001
  30   2.0000      -0.555034       -15.1032
  31   2.0000      -0.546145       -14.8614
  32   2.0000      -0.525115       -14.2891
  33   2.0000      -0.522111       -14.2073
  34   2.0000      -0.514901       -14.0112
  35   2.0000      -0.512220       -13.9382
  36   2.0000      -0.503071       -13.6893
  37   2.0000      -0.497936       -13.5495
  38   2.0000      -0.478819       -13.0293
  39   2.0000      -0.466874       -12.7043
  40   0.0000       0.098491         2.6801
  41   0.0000       0.121748         3.3129
  42   0.0000       0.145442         3.9577
  43   0.0000       0.148256         4.0343
  44   0.0000       0.161018         4.3815

MULLIKEN ATOMIC CHARGES
-----------------------
   0 O :   -0.745507
   1 H :    0.343051
   2 H :    0.379814
   3 O :   -0.755727
   4 H :    0.351830
   5 H :    0.380758
   6 O :   -0.737543
   7 H :    0.324299
   8 H :    0.364614
   9 O :   -0.700437
  10 H :    0.363706
  11 H :    0.323871
  12 O :   -0.702323
  13 H :    0.353413
  14 H :    0.374047
  15 O :   -0.707033
  16 H :    0.353206
  17 H :    0.382174
  18 O :   -0.705980
  19 H :    0.350893
  20 H :    0.379828
  21 O :   -0.710844
  22 H :    0.361253
  23 H :    0.378635
Sum of atomic charges:   -0.0000000

LOEWDIN ATOMIC CHARGES
----------------------
   0 O :   -0.342252
   1 H :    0.156490
   2 H :    0.145049
   3 O :   -0.314972
   4 H :    0.159648
   5 H :    0.145404
   6 O :   -0.375955
   7 H :    0.148314
   8 H :    0.141014
   9 O :   -0.348053
  10 H :    0.146509
  11 H :    0.162192
  12 O :   -0.284306
  13 H :    0.171178
  14 H :    0.153666
  15 O :   -0.280643
  16 H :    0.169414
  17 H :    0.155969
  18 O :   -0.311889
  19 H :    0.163224
  20 H :    0.195219
  21 O :   -0.283267
  22 H :    0.174240
  23 H :    0.153806

  Mayer bond orders larger than 0.100000
B(  0-O ,  1-H ) :   0.8473 B(  0-O ,  2-H ) :   0.7481 B(  2-H , 21-O ) :   0.1099
B(  3-O ,  4-H ) :   0.8396 B(  3-O ,  5-H ) :   0.7344 B(  5-H , 15-O ) :   0.1124
B(  6-O ,  7-H ) :   0.8607 B(  6-O ,  8-H ) :   0.7749 B(  9-O , 10-H ) :   0.8182
B(  9-O , 11-H ) :   0.8539 B( 12-O , 13-H ) :   0.8405 B( 12-O , 14-H ) :   0.7952
B( 15-O , 16-H ) :   0.8395 B( 15-O , 17-H ) :   0.7771 B( 18-O , 19-H ) :   0.8423
B( 18-O , 20-H ) :   0.8148 B( 21-O , 22-H ) :   0.8341 B( 21-O , 23-H ) :   0.7898

MP2 TOTAL ENERGY:     -610.580450221 Eh
FINAL SINGLE POINT ENERGY      -610.580450220515

DIPOLE MOMENT
-------------
                                X             Y             Z
Electronic contribution:     -0.14195       0.39392       0.15388
Nuclear contribution   :     -0.00057       0.11171       0.08817
                        -----------------------------------------
Total Dipole Moment    :     -0.14252       0.50564       0.24206
                        -----------------------------------------
Magnitude (a.u.)       :      0.57842
Magnitude (Debye)      :      1.47023

Rotational constants in cm-1:     0.030543     0.013200     0.013062
Rotational constants in MHz :   915.644630   395.720495   391.594243

                             ****ORCA TERMINATED NORMALLY****
TOTAL RUN TIME: 0 days 0 hours 2 minutes 35 seconds 354 msec
