                         Program Version 3.0.3 - RELEASE   -
|  1> ! B3LYP Def2-SVP def2-SVP/J RIJCOSX TightSCF Grid4 D3BJ OPT
|  2>
|  3> %pal nprocs 12 end
|  4>
|  5> %scf
|  6>         maxiter 400
|  7> end
|  8>
|  9> * xyz  0  1
| 10>   O     -0.164722    2.258367   -0.375398
| 11>   H      0.138744    1.785433   -1.150301
| 12>   H      0.481050    2.051508    0.300190
| 13>   O      0.222442   -2.413757    0.390279
| 14>   H      0.976066   -1.890936    0.116525
| 15>   H      0.564995   -3.303756    0.472694
| 16>   O     -1.418666   -1.108261   -1.423877
| 17>   H     -1.887851   -0.514955   -0.837289
| 18>   H     -0.954969   -1.707274   -0.838727
| 19>   O      1.493977    1.167023    1.560165
| 20>   H      1.919570    1.499076    2.350635
| 21>   H      0.784901    0.611844    1.884542
| 22>   O     -0.568589   -0.447497    2.178242
| 23>   H     -1.291111   -0.051110    1.691342
| 24>   H     -0.358229   -1.243428    1.689904
| 25>   O     -2.288900    0.795994    0.394151
| 26>   H     -3.070256    1.342468    0.478301
| 27>   H     -1.600457    1.402121    0.120495
| 28>   O      2.151978   -0.702610   -0.378966
| 29>   H      2.107338   -0.027051    0.297687
| 30>   H      1.765031   -0.293126   -1.152804
| 31>   O      0.572482    0.450739   -2.344594
| 32>   H      0.585687    0.462217   -3.301635
| 33>   H     -0.160511   -0.123029   -2.121562
| 34> **                         ****END OF INPUT****
 Total Charge           Charge          ....    0
 Multiplicity           Mult            ....    1
 Number of Electrons    NEL             ....   80
Dispersion correction           -0.024471261
FINAL SINGLE POINT ENERGY      -610.773826522593
Dispersion correction            ...
Dispersion correction           -0.024034025
FINAL SINGLE POINT ENERGY      -610.782953991241
Dispersion correction            ...
Dispersion correction           -0.024339607
FINAL SINGLE POINT ENERGY      -610.784957404934
Dispersion correction            ...
FINAL SINGLE POINT ENERGY      -610.786242019458
FINAL SINGLE POINT ENERGY      -610.786969925022
FINAL SINGLE POINT ENERGY      -610.787168962337
FINAL SINGLE POINT ENERGY      -610.787221024158
FINAL SINGLE POINT ENERGY      -610.787356121280
FINAL SINGLE POINT ENERGY      -610.787423828285
FINAL SINGLE POINT ENERGY      -610.787488478301
FINAL SINGLE POINT ENERGY      -610.787835100037
FINAL SINGLE POINT ENERGY      -610.787854643030
FINAL SINGLE POINT ENERGY      -610.787865070596
FINAL SINGLE POINT ENERGY      -610.787874330668
FINAL SINGLE POINT ENERGY      -610.787884273396
FINAL SINGLE POINT ENERGY      -610.787895360277
FINAL SINGLE POINT ENERGY      -610.787902918727
Dispersion correction            ...
Dispersion correction           -0.025218912
FINAL SINGLE POINT ENERGY      -610.787906117530
Dispersion correction            ...
Dispersion correction           -0.025237253
FINAL SINGLE POINT ENERGY      -610.787909017121
Dispersion correction            ...
                    ***********************HURRAY********************

CARTESIAN COORDINATES (ANGSTROEM)
---------------------------------
  O     -0.170086    2.277273   -0.324506
  H      0.136181    1.787329   -1.119694
  H      0.495244    2.050991    0.363862
  O      0.256198   -2.256047    0.368243
  H      1.076304   -1.734748    0.072293
  H      0.542941   -3.173011    0.472868
  O     -1.467793   -1.160320   -1.475387
  H     -1.932809   -0.540442   -0.870544
  H     -0.968401   -1.740647   -0.858057
  O      1.439735    1.078939    1.531782
  H      1.904722    1.429727    2.302249
  H      0.672298    0.512736    1.886776
  O     -0.568827   -0.400981    2.177859
  H     -1.309872   -0.005877    1.665614
  H     -0.349072   -1.219406    1.677607
  O     -2.183540    0.785823    0.336875
  H     -3.002618    1.289707    0.432287
  H     -1.462746    1.451914    0.077717
  O      2.210882   -0.714509   -0.395744
  H      2.147308   -0.026094    0.304082
  H      1.776984   -0.295948   -1.172895
  O      0.493792    0.380696   -2.228773
  H      0.553168    0.454884   -3.190065
  H     -0.289993   -0.231990   -2.034452

 Multiplicity           Mult            ....    1
 Number of Electrons    NEL             ....   80
 Basis Dimension        Dim             ....  192

ORBITAL ENERGIES
----------------

  NO   OCC          E(Eh)            E(eV)
   0   2.0000     -19.137187      -520.7493
   1   2.0000     -19.136373      -520.7272
   2   2.0000     -19.136028      -520.7178
   3   2.0000     -19.133870      -520.6591
   4   2.0000     -19.111949      -520.0626
   5   2.0000     -19.111267      -520.0440
   6   2.0000     -19.110034      -520.0105
   7   2.0000     -19.109641      -519.9998
   8   2.0000      -1.007228       -27.4081
   9   2.0000      -0.995113       -27.0784
  10   2.0000      -0.993985       -27.0477
  11   2.0000      -0.989025       -26.9127
  12   2.0000      -0.970556       -26.4102
  13   2.0000      -0.964989       -26.2587
  14   2.0000      -0.964513       -26.2457
  15   2.0000      -0.953187       -25.9375
  16   2.0000      -0.536789       -14.6068
  17   2.0000      -0.535594       -14.5743
  18   2.0000      -0.533697       -14.5226
  19   2.0000      -0.529651       -14.4125
  20   2.0000      -0.509447       -13.8628
  21   2.0000      -0.504152       -13.7187
  22   2.0000      -0.502941       -13.6857
  23   2.0000      -0.501311       -13.6414
  24   2.0000      -0.446640       -12.1537
  25   2.0000      -0.411249       -11.1906
  26   2.0000      -0.400193       -10.8898
  27   2.0000      -0.399879       -10.8813
  28   2.0000      -0.370401       -10.0791
  29   2.0000      -0.370033       -10.0691
  30   2.0000      -0.365974        -9.9587
  31   2.0000      -0.332970        -9.0606
  32   2.0000      -0.316166        -8.6033
  33   2.0000      -0.315690        -8.5904
  34   2.0000      -0.315309        -8.5800
  35   2.0000      -0.312519        -8.5041
  36   2.0000      -0.296257        -8.0616
  37   2.0000      -0.294047        -8.0014
  38   2.0000      -0.292948        -7.9715
  39   2.0000      -0.292713        -7.9651
  40   0.0000       0.031458         0.8560
  41   0.0000       0.062122         1.6904
  42   0.0000       0.062841         1.7100
  43   0.0000       0.063368         1.7243
  44   0.0000       0.148295         4.0353

MULLIKEN ATOMIC CHARGES
-----------------------
   0 O :   -0.319355
   1 H :    0.152760
   2 H :    0.152592
   3 O :   -0.326848
   4 H :    0.161790
   5 H :    0.178523
   6 O :   -0.315782
   7 H :    0.152281
   8 H :    0.151189
   9 O :   -0.330504
  10 H :    0.177083
  11 H :    0.167054
  12 O :   -0.321861
  13 H :    0.152420
  14 H :    0.154031
  15 O :   -0.326850
  16 H :    0.177852
  17 H :    0.164354
  18 O :   -0.318639
  19 H :    0.152173
  20 H :    0.153392
  21 O :   -0.325762
  22 H :    0.177388
  23 H :    0.160717
Sum of atomic charges:   -0.0000000

LOEWDIN ATOMIC CHARGES
----------------------
   0 O :   -0.097469
   1 H :    0.043344
   2 H :    0.041188
   3 O :   -0.099952
   4 H :    0.035841
   5 H :    0.083917
   6 O :   -0.100736
   7 H :    0.042191
   8 H :    0.041722
   9 O :   -0.103567
  10 H :    0.082601
  11 H :    0.032060
  12 O :   -0.095905
  13 H :    0.039875
  14 H :    0.040294
  15 O :   -0.100608
  16 H :    0.083519
  17 H :    0.033869
  18 O :   -0.100723
  19 H :    0.041019
  20 H :    0.040980
  21 O :   -0.101993
  22 H :    0.083381
  23 H :    0.035152

  Mayer bond orders larger than 0.1
B(  0-O ,  1-H ) :   0.9210 B(  0-O ,  2-H ) :   0.9162 B(  0-O , 17-H ) :   0.2653
B(  1-H , 21-O ) :   0.1598 B(  2-H ,  9-O ) :   0.1687 B(  3-O ,  4-H ) :   0.8140
B(  3-O ,  5-H ) :   0.9810 B(  3-O ,  8-H ) :   0.1627 B(  3-O , 14-H ) :   0.1662
B(  4-H , 18-O ) :   0.2698 B(  6-O ,  7-H ) :   0.9216 B(  6-O ,  8-H ) :   0.9211
B(  6-O , 23-H ) :   0.2665 B(  7-H , 15-O ) :   0.1608 B(  9-O , 10-H ) :   0.9814
B(  9-O , 11-H ) :   0.8088 B(  9-O , 19-H ) :   0.1645 B( 11-H , 12-O ) :   0.2686
B( 12-O , 13-H ) :   0.9153 B( 12-O , 14-H ) :   0.9157 B( 13-H , 15-O ) :   0.1692
B( 15-O , 16-H ) :   0.9810 B( 15-O , 17-H ) :   0.8149 B( 18-O , 19-H ) :   0.9191
B( 18-O , 20-H ) :   0.9188 B( 20-H , 21-O ) :   0.1631 B( 21-O , 22-H ) :   0.9818
B( 21-O , 23-H ) :   0.8185

Dispersion correction           -0.025247714
FINAL SINGLE POINT ENERGY      -610.787912386737

DIPOLE MOMENT
-------------
                                X             Y             Z
Electronic contribution:     -0.00609      -0.00764      -0.01149
Nuclear contribution   :     -0.02587       0.02279       0.02410
                        -----------------------------------------
Total Dipole Moment    :     -0.03196       0.01515       0.01261
                        -----------------------------------------
Magnitude (a.u.)       :      0.03755
Magnitude (Debye)      :      0.09544

                             ****ORCA TERMINATED NORMALLY****
TOTAL RUN TIME: 0 days 0 hours 33 minutes 40 seconds 254 msec
