                         Program Version 4.2.0 -  RELEASE  -
|  1> # 12h2o.su.etal.mol1,2,4,6,8,10,11
|  2> ! MP2 def2-TZVP EnGrad TightSCF
|  3>
|  4> %pal
|  5>     nprocs 6
|  6> end
|  7>
|  8> %maxcore 8000
|  9>
| 10> %scf
| 11>     ConvForced true
| 12> end
| 13>
| 14> *xyz 0 1
| 15> O  -1.794470000  -0.923410000   2.768350000
| 16> H  -2.338250000  -1.359750000   3.430940000
| 17> H  -0.879480000  -1.303000000   2.865760000
| 18> O   0.923410000  -1.794470000  -2.768350000
| 19> H   1.359750000  -2.338250000  -3.430940000
| 20> H   1.303000000  -0.879480000  -2.865760000
| 21> O  -0.885520000   1.737840000   0.052730000
| 22> H  -1.032320000   2.090180000  -0.841890000
| 23> H  -1.284090000   0.839590000   0.017130000
| 24> O   1.737840000   0.885520000  -0.052730000
| 25> H   2.090180000   1.032320000   0.841890000
| 26> H   0.839590000   1.284090000  -0.017130000
| 27> O   1.752130000   0.741530000  -2.896280000
| 28> H   2.036450000   0.920500000  -1.984040000
| 29> H   0.921210000   1.242140000  -2.984230000
| 30> O  -0.923410000   1.794470000  -2.768350000
| 31> H  -1.359750000   2.338250000  -3.430940000
| 32> H  -1.303000000   0.879480000  -2.865760000
| 33> O  -0.741530000   1.752130000   2.896280000
| 34> H  -0.920500000   2.036450000   1.984040000
| 35> H  -1.242140000   0.921210000   2.984230000
| 36> *
| 37>
| 38>                          ****END OF INPUT****

CARTESIAN COORDINATES (ANGSTROEM)
---------------------------------
  O     -1.794470   -0.923410    2.768350
  H     -2.338250   -1.359750    3.430940
  H     -0.879480   -1.303000    2.865760
  O      0.923410   -1.794470   -2.768350
  H      1.359750   -2.338250   -3.430940
  H      1.303000   -0.879480   -2.865760
  O     -0.885520    1.737840    0.052730
  H     -1.032320    2.090180   -0.841890
  H     -1.284090    0.839590    0.017130
  O      1.737840    0.885520   -0.052730
  H      2.090180    1.032320    0.841890
  H      0.839590    1.284090   -0.017130
  O      1.752130    0.741530   -2.896280
  H      2.036450    0.920500   -1.984040
  H      0.921210    1.242140   -2.984230
  O     -0.923410    1.794470   -2.768350
  H     -1.359750    2.338250   -3.430940
  H     -1.303000    0.879480   -2.865760
  O     -0.741530    1.752130    2.896280
  H     -0.920500    2.036450    1.984040
  H     -1.242140    0.921210    2.984230

 Total Charge           Charge          ....    0
 Multiplicity           Mult            ....    1
 Number of Electrons    NEL             ....   70
 Basis Dimension        Dim             ....  301

ORBITAL ENERGIES
----------------

  NO   OCC          E(Eh)            E(eV)
   0   2.0000     -20.626639      -561.2794
   1   2.0000     -20.591563      -560.3249
   2   2.0000     -20.591392      -560.3203
   3   2.0000     -20.542639      -558.9936
   4   2.0000     -20.540992      -558.9488
   5   2.0000     -20.513534      -558.2016
   6   2.0000     -20.506293      -558.0046
   7   2.0000      -1.407451       -38.2987
   8   2.0000      -1.377177       -37.4749
   9   2.0000      -1.369166       -37.2569
  10   2.0000      -1.336176       -36.3592
  11   2.0000      -1.322732       -35.9934
  12   2.0000      -1.298874       -35.3442
  13   2.0000      -1.287691       -35.0398
  14   2.0000      -0.772565       -21.0226
  15   2.0000      -0.741158       -20.1679
  16   2.0000      -0.736330       -20.0366
  17   2.0000      -0.705765       -19.2048
  18   2.0000      -0.697298       -18.9744
  19   2.0000      -0.678002       -18.4494
  20   2.0000      -0.674033       -18.3414
  21   2.0000      -0.649329       -17.6691
  22   2.0000      -0.619092       -16.8464
  23   2.0000      -0.603367       -16.4184
  24   2.0000      -0.598526       -16.2867
  25   2.0000      -0.567928       -15.4541
  26   2.0000      -0.559780       -15.2324
  27   2.0000      -0.544657       -14.8209
  28   2.0000      -0.530811       -14.4441
  29   2.0000      -0.524802       -14.2806
  30   2.0000      -0.518165       -14.1000
  31   2.0000      -0.492680       -13.4065
  32   2.0000      -0.479130       -13.0378
  33   2.0000      -0.463346       -12.6083
  34   2.0000      -0.457139       -12.4394
  35   0.0000       0.085546         2.3278
  36   0.0000       0.108834         2.9615
  37   0.0000       0.148179         4.0322
  38   0.0000       0.162762         4.4290
  39   0.0000       0.174046         4.7360

MULLIKEN ATOMIC CHARGES
-----------------------
   0 O :   -0.700164
   1 H :    0.355187
   2 H :    0.364949
   3 O :   -0.744310
   4 H :    0.321090
   5 H :    0.369838
   6 O :   -0.720557
   7 H :    0.384259
   8 H :    0.361411
   9 O :   -0.729842
  10 H :    0.345546
  11 H :    0.358477
  12 O :   -0.715624
  13 H :    0.388233
  14 H :    0.353750
  15 O :   -0.724457
  16 H :    0.370595
  17 H :    0.379613
  18 O :   -0.725686
  19 H :    0.363664
  20 H :    0.344027
Sum of atomic charges:   -0.0000000

LOEWDIN ATOMIC CHARGES
----------------------
   0 O :   -0.313117
   1 H :    0.164679
   2 H :    0.190105
   3 O :   -0.379515
   4 H :    0.146228
   5 H :    0.141526
   6 O :   -0.280989
   7 H :    0.154770
   8 H :    0.179378
   9 O :   -0.340403
  10 H :    0.166586
  11 H :    0.143114
  12 O :   -0.287813
  13 H :    0.158972
  14 H :    0.144273
  15 O :   -0.288120
  16 H :    0.171083
  17 H :    0.195578
  18 O :   -0.354319
  19 H :    0.146560
  20 H :    0.141424

  Mayer bond orders larger than 0.100000
B(  0-O ,  1-H ) :   0.8403 B(  0-O ,  2-H ) :   0.8275 B(  3-O ,  4-H ) :   0.8627
B(  3-O ,  5-H ) :   0.7686 B(  5-H , 12-O ) :   0.1033 B(  6-O ,  7-H ) :   0.7986
B(  6-O ,  8-H ) :   0.8277 B(  9-O , 10-H ) :   0.8445 B(  9-O , 11-H ) :   0.7851
B( 12-O , 13-H ) :   0.7969 B( 12-O , 14-H ) :   0.8243 B( 15-O , 16-H ) :   0.8286
B( 15-O , 17-H ) :   0.8125 B( 18-O , 19-H ) :   0.8296 B( 18-O , 20-H ) :   0.8282

MP2 TOTAL ENERGY:     -534.246933273 Eh
FINAL SINGLE POINT ENERGY      -534.246933272663

DIPOLE MOMENT
-------------
                                X             Y             Z
Electronic contribution:     -0.09435       0.38873       0.03229
Nuclear contribution   :     -1.61998      -0.56891      -0.63259
                        -----------------------------------------
Total Dipole Moment    :     -1.71433      -0.18018      -0.60031
                        -----------------------------------------
Magnitude (a.u.)       :      1.82531
Magnitude (Debye)      :      4.63958

Rotational constants in cm-1:     0.046601     0.018153     0.016613
Rotational constants in MHz :  1397.064479   544.223596   498.051398

                             ****ORCA TERMINATED NORMALLY****
TOTAL RUN TIME: 0 days 0 hours 2 minutes 9 seconds 141 msec
