                         Program Version 4.2.0 -  RELEASE  -
|  1> # 12h2o.su.etal.mol0,2,3,4,5,6,7,10
|  2> ! MP2 def2-TZVP EnGrad TightSCF
|  3>
|  4> %pal
|  5>     nprocs 6
|  6> end
|  7>
|  8> %maxcore 8000
|  9>
| 10> %scf
| 11>     ConvForced true
| 12> end
| 13>
| 14> *xyz 0 1
| 15> O   1.794470000   0.923410000   2.768350000
| 16> H   2.338250000   1.359750000   3.430940000
| 17> H   0.879480000   1.303000000   2.865760000
| 18> O   0.923410000  -1.794470000  -2.768350000
| 19> H   1.359750000  -2.338250000  -3.430940000
| 20> H   1.303000000  -0.879480000  -2.865760000
| 21> O  -1.752130000  -0.741530000  -2.896280000
| 22> H  -2.036450000  -0.920500000  -1.984040000
| 23> H  -0.921210000  -1.242140000  -2.984230000
| 24> O  -0.885520000   1.737840000   0.052730000
| 25> H  -1.032320000   2.090180000  -0.841890000
| 26> H  -1.284090000   0.839590000   0.017130000
| 27> O   0.885520000  -1.737840000   0.052730000
| 28> H   1.284090000  -0.839590000   0.017130000
| 29> H   1.032320000  -2.090180000  -0.841890000
| 30> O   1.737840000   0.885520000  -0.052730000
| 31> H   2.090180000   1.032320000   0.841890000
| 32> H   0.839590000   1.284090000  -0.017130000
| 33> O  -1.737840000  -0.885520000  -0.052730000
| 34> H  -2.090180000  -1.032320000   0.841890000
| 35> H  -0.839590000  -1.284090000  -0.017130000
| 36> O  -0.923410000   1.794470000  -2.768350000
| 37> H  -1.359750000   2.338250000  -3.430940000
| 38> H  -1.303000000   0.879480000  -2.865760000
| 39> *
| 40>
| 41>                          ****END OF INPUT****

CARTESIAN COORDINATES (ANGSTROEM)
---------------------------------
  O      1.794470    0.923410    2.768350
  H      2.338250    1.359750    3.430940
  H      0.879480    1.303000    2.865760
  O      0.923410   -1.794470   -2.768350
  H      1.359750   -2.338250   -3.430940
  H      1.303000   -0.879480   -2.865760
  O     -1.752130   -0.741530   -2.896280
  H     -2.036450   -0.920500   -1.984040
  H     -0.921210   -1.242140   -2.984230
  O     -0.885520    1.737840    0.052730
  H     -1.032320    2.090180   -0.841890
  H     -1.284090    0.839590    0.017130
  O      0.885520   -1.737840    0.052730
  H      1.284090   -0.839590    0.017130
  H      1.032320   -2.090180   -0.841890
  O      1.737840    0.885520   -0.052730
  H      2.090180    1.032320    0.841890
  H      0.839590    1.284090   -0.017130
  O     -1.737840   -0.885520   -0.052730
  H     -2.090180   -1.032320    0.841890
  H     -0.839590   -1.284090   -0.017130
  O     -0.923410    1.794470   -2.768350
  H     -1.359750    2.338250   -3.430940
  H     -1.303000    0.879480   -2.865760

 Total Charge           Charge          ....    0
 Multiplicity           Mult            ....    1
 Number of Electrons    NEL             ....   80
 Basis Dimension        Dim             ....  344

ORBITAL ENERGIES
----------------

  NO   OCC          E(Eh)            E(eV)
   0   2.0000     -20.609352      -560.8090
   1   2.0000     -20.580130      -560.0138
   2   2.0000     -20.570241      -559.7447
   3   2.0000     -20.552170      -559.2530
   4   2.0000     -20.534715      -558.7780
   5   2.0000     -20.532001      -558.7041
   6   2.0000     -20.525357      -558.5234
   7   2.0000     -20.521381      -558.4152
   8   2.0000      -1.390018       -37.8243
   9   2.0000      -1.362923       -37.0870
  10   2.0000      -1.358200       -36.9585
  11   2.0000      -1.344615       -36.5888
  12   2.0000      -1.324892       -36.0521
  13   2.0000      -1.320520       -35.9332
  14   2.0000      -1.312484       -35.7145
  15   2.0000      -1.299938       -35.3731
  16   2.0000      -0.755333       -20.5537
  17   2.0000      -0.725741       -19.7484
  18   2.0000      -0.724856       -19.7243
  19   2.0000      -0.709675       -19.3112
  20   2.0000      -0.701033       -19.0761
  21   2.0000      -0.694867       -18.9083
  22   2.0000      -0.687792       -18.7158
  23   2.0000      -0.682689       -18.5769
  24   2.0000      -0.636567       -17.3219
  25   2.0000      -0.614145       -16.7117
  26   2.0000      -0.602083       -16.3835
  27   2.0000      -0.590781       -16.0760
  28   2.0000      -0.582336       -15.8462
  29   2.0000      -0.567548       -15.4438
  30   2.0000      -0.559496       -15.2247
  31   2.0000      -0.539515       -14.6809
  32   2.0000      -0.537150       -14.6166
  33   2.0000      -0.516946       -14.0668
  34   2.0000      -0.509016       -13.8510
  35   2.0000      -0.494734       -13.4624
  36   2.0000      -0.483599       -13.1594
  37   2.0000      -0.482546       -13.1307
  38   2.0000      -0.473261       -12.8781
  39   2.0000      -0.468251       -12.7418
  40   0.0000       0.103847         2.8258
  41   0.0000       0.119018         3.2387
  42   0.0000       0.144376         3.9287
  43   0.0000       0.158790         4.3209
  44   0.0000       0.192936         5.2500

MULLIKEN ATOMIC CHARGES
-----------------------
   0 O :   -0.696630
   1 H :    0.348176
   2 H :    0.361549
   3 O :   -0.726847
   4 H :    0.364311
   5 H :    0.387529
   6 O :   -0.716858
   7 H :    0.386120
   8 H :    0.364556
   9 O :   -0.741382
  10 H :    0.378556
  11 H :    0.351420
  12 O :   -0.730475
  13 H :    0.367059
  14 H :    0.365963
  15 O :   -0.743411
  16 H :    0.370867
  17 H :    0.364703
  18 O :   -0.743925
  19 H :    0.356514
  20 H :    0.370582
  21 O :   -0.742557
  22 H :    0.333827
  23 H :    0.370354
Sum of atomic charges:   -0.0000000

LOEWDIN ATOMIC CHARGES
----------------------
   0 O :   -0.310936
   1 H :    0.161567
   2 H :    0.187940
   3 O :   -0.289269
   4 H :    0.168120
   5 H :    0.198131
   6 O :   -0.285825
   7 H :    0.156727
   8 H :    0.148554
   9 O :   -0.324075
  10 H :    0.150425
  11 H :    0.136665
  12 O :   -0.316230
  13 H :    0.141704
  14 H :    0.144789
  15 O :   -0.322886
  16 H :    0.147781
  17 H :    0.140484
  18 O :   -0.300762
  19 H :    0.170168
  20 H :    0.146044
  21 O :   -0.344314
  22 H :    0.152124
  23 H :    0.143077

  Mayer bond orders larger than 0.100000
B(  0-O ,  1-H ) :   0.8441 B(  0-O ,  2-H ) :   0.8291 B(  3-O ,  4-H ) :   0.8319
B(  3-O ,  5-H ) :   0.8070 B(  6-O ,  7-H ) :   0.8034 B(  6-O ,  8-H ) :   0.8110
B(  6-O , 23-H ) :   0.1114 B(  9-O , 10-H ) :   0.7983 B(  9-O , 11-H ) :   0.7902
B(  9-O , 17-H ) :   0.1090 B( 12-O , 13-H ) :   0.7595 B( 12-O , 14-H ) :   0.8200
B( 12-O , 20-H ) :   0.1352 B( 13-H , 15-O ) :   0.1196 B( 15-O , 16-H ) :   0.8127
B( 15-O , 17-H ) :   0.7669 B( 18-O , 19-H ) :   0.8367 B( 18-O , 20-H ) :   0.7373
B( 21-O , 22-H ) :   0.8522 B( 21-O , 23-H ) :   0.7505

MP2 TOTAL ENERGY:     -610.600230289 Eh
FINAL SINGLE POINT ENERGY      -610.600230289124

DIPOLE MOMENT
-------------
                                X             Y             Z
Electronic contribution:      0.14939      -0.35154      -0.02205
Nuclear contribution   :      0.14599       0.11349       0.05351
                        -----------------------------------------
Total Dipole Moment    :      0.29538      -0.23805       0.03146
                        -----------------------------------------
Magnitude (a.u.)       :      0.38066
Magnitude (Debye)      :      0.96757

Rotational constants in cm-1:     0.037601     0.021509     0.018506
Rotational constants in MHz :  1127.243669   644.835864   554.790986

                             ****ORCA TERMINATED NORMALLY****
TOTAL RUN TIME: 0 days 0 hours 3 minutes 28 seconds 241 msec
