                         Program Version 4.2.0 -  RELEASE  -
|  1> # 12h2o.su.etal.mol1,2,4,6,7,9
|  2> ! MP2 def2-TZVP EnGrad TightSCF
|  3>
|  4> %pal
|  5>     nprocs 6
|  6> end
|  7>
|  8> %maxcore 8000
|  9>
| 10> %scf
| 11>     ConvForced true
| 12> end
| 13>
| 14> *xyz 0 1
| 15> O  -1.794470000  -0.923410000   2.768350000
| 16> H  -2.338250000  -1.359750000   3.430940000
| 17> H  -0.879480000  -1.303000000   2.865760000
| 18> O   0.923410000  -1.794470000  -2.768350000
| 19> H   1.359750000  -2.338250000  -3.430940000
| 20> H   1.303000000  -0.879480000  -2.865760000
| 21> O  -0.885520000   1.737840000   0.052730000
| 22> H  -1.032320000   2.090180000  -0.841890000
| 23> H  -1.284090000   0.839590000   0.017130000
| 24> O   1.737840000   0.885520000  -0.052730000
| 25> H   2.090180000   1.032320000   0.841890000
| 26> H   0.839590000   1.284090000  -0.017130000
| 27> O  -1.737840000  -0.885520000  -0.052730000
| 28> H  -2.090180000  -1.032320000   0.841890000
| 29> H  -0.839590000  -1.284090000  -0.017130000
| 30> O   0.741530000  -1.752130000   2.896280000
| 31> H   0.920500000  -2.036450000   1.984040000
| 32> H   1.242140000  -0.921210000   2.984230000
| 33> *
| 34>
| 35>                          ****END OF INPUT****

CARTESIAN COORDINATES (ANGSTROEM)
---------------------------------
  O     -1.794470   -0.923410    2.768350
  H     -2.338250   -1.359750    3.430940
  H     -0.879480   -1.303000    2.865760
  O      0.923410   -1.794470   -2.768350
  H      1.359750   -2.338250   -3.430940
  H      1.303000   -0.879480   -2.865760
  O     -0.885520    1.737840    0.052730
  H     -1.032320    2.090180   -0.841890
  H     -1.284090    0.839590    0.017130
  O      1.737840    0.885520   -0.052730
  H      2.090180    1.032320    0.841890
  H      0.839590    1.284090   -0.017130
  O     -1.737840   -0.885520   -0.052730
  H     -2.090180   -1.032320    0.841890
  H     -0.839590   -1.284090   -0.017130
  O      0.741530   -1.752130    2.896280
  H      0.920500   -2.036450    1.984040
  H      1.242140   -0.921210    2.984230

 Total Charge           Charge          ....    0
 Multiplicity           Mult            ....    1
 Number of Electrons    NEL             ....   60
 Basis Dimension        Dim             ....  258

ORBITAL ENERGIES
----------------

  NO   OCC          E(Eh)            E(eV)
   0   2.0000     -20.611136      -560.8575
   1   2.0000     -20.558383      -559.4221
   2   2.0000     -20.557562      -559.3997
   3   2.0000     -20.551763      -559.2419
   4   2.0000     -20.547891      -559.1366
   5   2.0000     -20.535982      -558.8125
   6   2.0000      -1.396670       -38.0053
   7   2.0000      -1.348257       -36.6879
   8   2.0000      -1.335896       -36.3516
   9   2.0000      -1.333718       -36.2923
  10   2.0000      -1.328910       -36.1615
  11   2.0000      -1.314005       -35.7559
  12   2.0000      -0.753737       -20.5102
  13   2.0000      -0.722044       -19.6478
  14   2.0000      -0.704259       -19.1639
  15   2.0000      -0.701577       -19.0909
  16   2.0000      -0.699742       -19.0409
  17   2.0000      -0.688800       -18.7432
  18   2.0000      -0.636031       -17.3073
  19   2.0000      -0.600068       -16.3287
  20   2.0000      -0.586958       -15.9719
  21   2.0000      -0.570746       -15.5308
  22   2.0000      -0.570381       -15.5209
  23   2.0000      -0.556683       -15.1481
  24   2.0000      -0.537065       -14.6143
  25   2.0000      -0.501846       -13.6559
  26   2.0000      -0.500470       -13.6185
  27   2.0000      -0.498624       -13.5683
  28   2.0000      -0.491271       -13.3682
  29   2.0000      -0.483276       -13.1506
  30   0.0000       0.085488         2.3263
  31   0.0000       0.129040         3.5114
  32   0.0000       0.143946         3.9170
  33   0.0000       0.155764         4.2385
  34   0.0000       0.162083         4.4105

MULLIKEN ATOMIC CHARGES
-----------------------
   0 O :   -0.734518
   1 H :    0.340235
   2 H :    0.368832
   3 O :   -0.690062
   4 H :    0.336640
   5 H :    0.353599
   6 O :   -0.716046
   7 H :    0.342937
   8 H :    0.378750
   9 O :   -0.719444
  10 H :    0.315658
  11 H :    0.356943
  12 O :   -0.700094
  13 H :    0.380063
  14 H :    0.340181
  15 O :   -0.677625
  16 H :    0.361930
  17 H :    0.362022
Sum of atomic charges:   -0.0000000

LOEWDIN ATOMIC CHARGES
----------------------
   0 O :   -0.338232
   1 H :    0.155645
   2 H :    0.143313
   3 O :   -0.341530
   4 H :    0.157073
   5 H :    0.184515
   6 O :   -0.311590
   7 H :    0.164248
   8 H :    0.147685
   9 O :   -0.364822
  10 H :    0.151341
  11 H :    0.141561
  12 O :   -0.295813
  13 H :    0.153336
  14 H :    0.167758
  15 O :   -0.266273
  16 H :    0.174363
  17 H :    0.177421

  Mayer bond orders larger than 0.100000
B(  0-O ,  1-H ) :   0.8489 B(  0-O ,  2-H ) :   0.7695 B(  3-O ,  4-H ) :   0.8539
B(  3-O ,  5-H ) :   0.8368 B(  6-O ,  7-H ) :   0.8461 B(  6-O ,  8-H ) :   0.7652
B(  6-O , 11-H ) :   0.1097 B(  9-O , 10-H ) :   0.8644 B(  9-O , 11-H ) :   0.7770
B( 12-O , 13-H ) :   0.7936 B( 12-O , 14-H ) :   0.8404 B( 15-O , 16-H ) :   0.8330
B( 15-O , 17-H ) :   0.8327

MP2 TOTAL ENERGY:     -457.919747081 Eh
FINAL SINGLE POINT ENERGY      -457.919747081321

DIPOLE MOMENT
-------------
                                X             Y             Z
Electronic contribution:     -0.27300      -0.20086       0.19050
Nuclear contribution   :      1.09984      -0.36959       0.08817
                        -----------------------------------------
Total Dipole Moment    :      0.82684      -0.57046       0.27867
                        -----------------------------------------
Magnitude (a.u.)       :      1.04247
Magnitude (Debye)      :      2.64974

Rotational constants in cm-1:     0.046892     0.027547     0.026266
Rotational constants in MHz :  1405.773211   825.832967   787.430775

                             ****ORCA TERMINATED NORMALLY****
TOTAL RUN TIME: 0 days 0 hours 0 minutes 56 seconds 331 msec
