                         Program Version 4.2.0 -  RELEASE  -
|  1> # 12meoh.boyd.etal.mol4,5
|  2> ! MP2 def2-TZVP EnGrad TightSCF
|  3>
|  4> %pal
|  5>     nprocs 6
|  6> end
|  7>
|  8> %maxcore 8000
|  9>
| 10> %scf
| 11>     ConvForced true
| 12> end
| 13>
| 14> *xyz 0 1
| 15> O  -1.358578914   1.232360421   1.189721000
| 16> H  -1.058250183   1.216459361   0.238591307
| 17> C  -0.389763452   1.957872567   1.943072362
| 18> H  -0.747220771   2.012806578   2.975200343
| 19> H  -0.260410585   2.982763209   1.565366540
| 20> H   0.585220638   1.453754179   1.934070793
| 21> O  -0.662721750   1.449094618  -1.383082065
| 22> H   0.064188300   2.119867608  -1.465650660
| 23> C  -0.353319239   0.341218776  -2.229326771
| 24> H  -1.072358530  -0.454743281  -2.019906495
| 25> H   0.657636746  -0.044472139  -2.042736771
| 26> H  -0.434616607   0.624733901  -3.287793021
| 27> *
| 28>
| 29>                          ****END OF INPUT****

CARTESIAN COORDINATES (ANGSTROEM)
---------------------------------
  O     -1.358579    1.232360    1.189721
  H     -1.058250    1.216459    0.238591
  C     -0.389763    1.957873    1.943072
  H     -0.747221    2.012807    2.975200
  H     -0.260411    2.982763    1.565367
  H      0.585221    1.453754    1.934071
  O     -0.662722    1.449095   -1.383082
  H      0.064188    2.119868   -1.465651
  C     -0.353319    0.341219   -2.229327
  H     -1.072359   -0.454743   -2.019906
  H      0.657637   -0.044472   -2.042737
  H     -0.434617    0.624734   -3.287793

 Total Charge           Charge          ....    0
 Multiplicity           Mult            ....    1
 Number of Electrons    NEL             ....   36
 Basis Dimension        Dim             ....  172

ORBITAL ENERGIES
----------------

  NO   OCC          E(Eh)            E(eV)
   0   2.0000     -20.590906      -560.3070
   1   2.0000     -20.512650      -558.1776
   2   2.0000     -11.292257      -307.2779
   3   2.0000     -11.251671      -306.1735
   4   2.0000      -1.383301       -37.6415
   5   2.0000      -1.308440       -35.6045
   6   2.0000      -0.944417       -25.6989
   7   2.0000      -0.897220       -24.4146
   8   2.0000      -0.715537       -19.4707
   9   2.0000      -0.674198       -18.3459
  10   2.0000      -0.636447       -17.3186
  11   2.0000      -0.610403       -16.6099
  12   2.0000      -0.591806       -16.1039
  13   2.0000      -0.561394       -15.2763
  14   2.0000      -0.529448       -14.4070
  15   2.0000      -0.488597       -13.2954
  16   2.0000      -0.457625       -12.4526
  17   2.0000      -0.416668       -11.3381
  18   0.0000       0.113181         3.0798
  19   0.0000       0.156858         4.2683
  20   0.0000       0.180559         4.9133
  21   0.0000       0.210148         5.7184
  22   0.0000       0.215604         5.8669

MULLIKEN ATOMIC CHARGES
-----------------------
   0 O :   -0.524763
   1 H :    0.354122
   2 C :   -0.182383
   3 H :    0.124748
   4 H :    0.093492
   5 H :    0.095729
   6 O :   -0.516002
   7 H :    0.340675
   8 C :   -0.184479
   9 H :    0.149783
  10 H :    0.123631
  11 H :    0.125447
Sum of atomic charges:   -0.0000000

LOEWDIN ATOMIC CHARGES
----------------------
   0 O :   -0.125504
   1 H :    0.159109
   2 C :   -0.398254
   3 H :    0.107080
   4 H :    0.088994
   5 H :    0.089265
   6 O :   -0.074441
   7 H :    0.197247
   8 C :   -0.366288
   9 H :    0.117207
  10 H :    0.101198
  11 H :    0.104386

  Mayer bond orders larger than 0.100000
B(  0-O ,  1-H ) :   0.7899 B(  0-O ,  2-C ) :   0.9475 B(  2-C ,  3-H ) :   0.9427
B(  2-C ,  4-H ) :   0.9376 B(  2-C ,  5-H ) :   0.9371 B(  6-O ,  7-H ) :   0.8289
B(  6-O ,  8-C ) :   0.8716 B(  8-C ,  9-H ) :   0.9388 B(  8-C , 10-H ) :   0.9377
B(  8-C , 11-H ) :   0.9341

MP2 TOTAL ENERGY:     -231.020906382 Eh
FINAL SINGLE POINT ENERGY      -231.020906382156

DIPOLE MOMENT
-------------
                                X             Y             Z
Electronic contribution:     -1.80073       0.27035      -0.14231
Nuclear contribution   :      2.96473      -0.12774      -0.95847
                        -----------------------------------------
Total Dipole Moment    :      1.16400       0.14261      -1.10078
                        -----------------------------------------
Magnitude (a.u.)       :      1.60840
Magnitude (Debye)      :      4.08823

Rotational constants in cm-1:     0.651521     0.077607     0.075012
Rotational constants in MHz : 19532.112749  2326.591439  2248.791375

                             ****ORCA TERMINATED NORMALLY****
TOTAL RUN TIME: 0 days 0 hours 0 minutes 26 seconds 282 msec
