                         Program Version 4.2.0 -  RELEASE  -
|  1> # 12h2o.su.etal.mol2,3,4,6,9,10
|  2> ! MP2 def2-TZVP EnGrad TightSCF
|  3>
|  4> %pal
|  5>     nprocs 6
|  6> end
|  7>
|  8> %maxcore 8000
|  9>
| 10> %scf
| 11>     ConvForced true
| 12> end
| 13>
| 14> *xyz 0 1
| 15> O   0.923410000  -1.794470000  -2.768350000
| 16> H   1.359750000  -2.338250000  -3.430940000
| 17> H   1.303000000  -0.879480000  -2.865760000
| 18> O  -1.752130000  -0.741530000  -2.896280000
| 19> H  -2.036450000  -0.920500000  -1.984040000
| 20> H  -0.921210000  -1.242140000  -2.984230000
| 21> O  -0.885520000   1.737840000   0.052730000
| 22> H  -1.032320000   2.090180000  -0.841890000
| 23> H  -1.284090000   0.839590000   0.017130000
| 24> O   1.737840000   0.885520000  -0.052730000
| 25> H   2.090180000   1.032320000   0.841890000
| 26> H   0.839590000   1.284090000  -0.017130000
| 27> O   0.741530000  -1.752130000   2.896280000
| 28> H   0.920500000  -2.036450000   1.984040000
| 29> H   1.242140000  -0.921210000   2.984230000
| 30> O  -0.923410000   1.794470000  -2.768350000
| 31> H  -1.359750000   2.338250000  -3.430940000
| 32> H  -1.303000000   0.879480000  -2.865760000
| 33> *
| 34>
| 35>                          ****END OF INPUT****

CARTESIAN COORDINATES (ANGSTROEM)
---------------------------------
  O      0.923410   -1.794470   -2.768350
  H      1.359750   -2.338250   -3.430940
  H      1.303000   -0.879480   -2.865760
  O     -1.752130   -0.741530   -2.896280
  H     -2.036450   -0.920500   -1.984040
  H     -0.921210   -1.242140   -2.984230
  O     -0.885520    1.737840    0.052730
  H     -1.032320    2.090180   -0.841890
  H     -1.284090    0.839590    0.017130
  O      1.737840    0.885520   -0.052730
  H      2.090180    1.032320    0.841890
  H      0.839590    1.284090   -0.017130
  O      0.741530   -1.752130    2.896280
  H      0.920500   -2.036450    1.984040
  H      1.242140   -0.921210    2.984230
  O     -0.923410    1.794470   -2.768350
  H     -1.359750    2.338250   -3.430940
  H     -1.303000    0.879480   -2.865760

 Total Charge           Charge          ....    0
 Multiplicity           Mult            ....    1
 Number of Electrons    NEL             ....   60
 Basis Dimension        Dim             ....  258

ORBITAL ENERGIES
----------------

  NO   OCC          E(Eh)            E(eV)
   0   2.0000     -20.594677      -560.4097
   1   2.0000     -20.586776      -560.1946
   2   2.0000     -20.564019      -559.5754
   3   2.0000     -20.557921      -559.4095
   4   2.0000     -20.552163      -559.2528
   5   2.0000     -20.529060      -558.6241
   6   2.0000      -1.380131       -37.5553
   7   2.0000      -1.368371       -37.2353
   8   2.0000      -1.350592       -36.7515
   9   2.0000      -1.337071       -36.3836
  10   2.0000      -1.333037       -36.2738
  11   2.0000      -1.309137       -35.6234
  12   2.0000      -0.744691       -20.2641
  13   2.0000      -0.730779       -19.8855
  14   2.0000      -0.720032       -19.5931
  15   2.0000      -0.709748       -19.3132
  16   2.0000      -0.700048       -19.0493
  17   2.0000      -0.683159       -18.5897
  18   2.0000      -0.630765       -17.1640
  19   2.0000      -0.606727       -16.5099
  20   2.0000      -0.594210       -16.1693
  21   2.0000      -0.575175       -15.6513
  22   2.0000      -0.573503       -15.6058
  23   2.0000      -0.555539       -15.1170
  24   2.0000      -0.536562       -14.6006
  25   2.0000      -0.523536       -14.2461
  26   2.0000      -0.502208       -13.6658
  27   2.0000      -0.501787       -13.6543
  28   2.0000      -0.500894       -13.6300
  29   2.0000      -0.476861       -12.9760
  30   0.0000       0.088446         2.4067
  31   0.0000       0.120350         3.2749
  32   0.0000       0.127803         3.4777
  33   0.0000       0.152439         4.1481
  34   0.0000       0.182313         4.9610

MULLIKEN ATOMIC CHARGES
-----------------------
   0 O :   -0.706812
   1 H :    0.354523
   2 H :    0.378939
   3 O :   -0.696922
   4 H :    0.346001
   5 H :    0.380792
   6 O :   -0.693761
   7 H :    0.383237
   8 H :    0.327289
   9 O :   -0.720024
  10 H :    0.317222
  11 H :    0.364545
  12 O :   -0.677412
  13 H :    0.341475
  14 H :    0.333377
  15 O :   -0.740275
  16 H :    0.340137
  17 H :    0.367670
Sum of atomic charges:   -0.0000000

LOEWDIN ATOMIC CHARGES
----------------------
   0 O :   -0.311491
   1 H :    0.165127
   2 H :    0.195031
   3 O :   -0.278956
   4 H :    0.166656
   5 H :    0.156249
   6 O :   -0.298112
   7 H :    0.154474
   8 H :    0.164543
   9 O :   -0.364089
  10 H :    0.152685
  11 H :    0.143919
  12 O :   -0.332480
  13 H :    0.166237
  14 H :    0.163905
  15 O :   -0.341292
  16 H :    0.155292
  17 H :    0.142302

  Mayer bond orders larger than 0.100000
B(  0-O ,  1-H ) :   0.8402 B(  0-O ,  2-H ) :   0.8153 B(  3-O ,  4-H ) :   0.8444
B(  3-O ,  5-H ) :   0.7879 B(  3-O , 17-H ) :   0.1007 B(  6-O ,  7-H ) :   0.7911
B(  6-O ,  8-H ) :   0.8514 B(  9-O , 10-H ) :   0.8630 B(  9-O , 11-H ) :   0.7848
B( 12-O , 13-H ) :   0.8495 B( 12-O , 14-H ) :   0.8544 B( 15-O , 16-H ) :   0.8490
B( 15-O , 17-H ) :   0.7582

MP2 TOTAL ENERGY:     -457.919538326 Eh
FINAL SINGLE POINT ENERGY      -457.919538325962

DIPOLE MOMENT
-------------
                                X             Y             Z
Electronic contribution:     -0.13264      -0.24549      -0.11546
Nuclear contribution   :      0.11229      -0.11114      -1.26519
                        -----------------------------------------
Total Dipole Moment    :     -0.02036      -0.35662      -1.38064
                        -----------------------------------------
Magnitude (a.u.)       :      1.42610
Magnitude (Debye)      :      3.62487

Rotational constants in cm-1:     0.046795     0.025751     0.021227
Rotational constants in MHz :  1402.876110   772.000788   636.355264

                             ****ORCA TERMINATED NORMALLY****
TOTAL RUN TIME: 0 days 0 hours 0 minutes 59 seconds 445 msec
