                         Program Version 4.2.0 -  RELEASE  -
|  1> # 12h2o.su.etal.mol0,4,5,7,9,10,11
|  2> ! MP2 def2-TZVP EnGrad TightSCF
|  3>
|  4> %pal
|  5>     nprocs 6
|  6> end
|  7>
|  8> %maxcore 8000
|  9>
| 10> %scf
| 11>     ConvForced true
| 12> end
| 13>
| 14> *xyz 0 1
| 15> O   1.794470000   0.923410000   2.768350000
| 16> H   2.338250000   1.359750000   3.430940000
| 17> H   0.879480000   1.303000000   2.865760000
| 18> O  -0.885520000   1.737840000   0.052730000
| 19> H  -1.032320000   2.090180000  -0.841890000
| 20> H  -1.284090000   0.839590000   0.017130000
| 21> O   0.885520000  -1.737840000   0.052730000
| 22> H   1.284090000  -0.839590000   0.017130000
| 23> H   1.032320000  -2.090180000  -0.841890000
| 24> O  -1.737840000  -0.885520000  -0.052730000
| 25> H  -2.090180000  -1.032320000   0.841890000
| 26> H  -0.839590000  -1.284090000  -0.017130000
| 27> O   0.741530000  -1.752130000   2.896280000
| 28> H   0.920500000  -2.036450000   1.984040000
| 29> H   1.242140000  -0.921210000   2.984230000
| 30> O  -0.923410000   1.794470000  -2.768350000
| 31> H  -1.359750000   2.338250000  -3.430940000
| 32> H  -1.303000000   0.879480000  -2.865760000
| 33> O  -0.741530000   1.752130000   2.896280000
| 34> H  -0.920500000   2.036450000   1.984040000
| 35> H  -1.242140000   0.921210000   2.984230000
| 36> *
| 37>
| 38>                          ****END OF INPUT****

CARTESIAN COORDINATES (ANGSTROEM)
---------------------------------
  O      1.794470    0.923410    2.768350
  H      2.338250    1.359750    3.430940
  H      0.879480    1.303000    2.865760
  O     -0.885520    1.737840    0.052730
  H     -1.032320    2.090180   -0.841890
  H     -1.284090    0.839590    0.017130
  O      0.885520   -1.737840    0.052730
  H      1.284090   -0.839590    0.017130
  H      1.032320   -2.090180   -0.841890
  O     -1.737840   -0.885520   -0.052730
  H     -2.090180   -1.032320    0.841890
  H     -0.839590   -1.284090   -0.017130
  O      0.741530   -1.752130    2.896280
  H      0.920500   -2.036450    1.984040
  H      1.242140   -0.921210    2.984230
  O     -0.923410    1.794470   -2.768350
  H     -1.359750    2.338250   -3.430940
  H     -1.303000    0.879480   -2.865760
  O     -0.741530    1.752130    2.896280
  H     -0.920500    2.036450    1.984040
  H     -1.242140    0.921210    2.984230

 Total Charge           Charge          ....    0
 Multiplicity           Mult            ....    1
 Number of Electrons    NEL             ....   70
 Basis Dimension        Dim             ....  301

ORBITAL ENERGIES
----------------

  NO   OCC          E(Eh)            E(eV)
   0   2.0000     -20.614123      -560.9388
   1   2.0000     -20.593259      -560.3711
   2   2.0000     -20.572707      -559.8118
   3   2.0000     -20.559721      -559.4585
   4   2.0000     -20.531222      -558.6830
   5   2.0000     -20.530811      -558.6718
   6   2.0000     -20.510043      -558.1067
   7   2.0000      -1.397691       -38.0331
   8   2.0000      -1.371253       -37.3137
   9   2.0000      -1.358260       -36.9601
  10   2.0000      -1.350370       -36.7454
  11   2.0000      -1.316610       -35.8268
  12   2.0000      -1.313601       -35.7449
  13   2.0000      -1.294228       -35.2177
  14   2.0000      -0.754218       -20.5233
  15   2.0000      -0.738195       -20.0873
  16   2.0000      -0.727851       -19.8058
  17   2.0000      -0.711496       -19.3608
  18   2.0000      -0.698003       -18.9936
  19   2.0000      -0.694345       -18.8941
  20   2.0000      -0.676265       -18.4021
  21   2.0000      -0.634593       -17.2681
  22   2.0000      -0.616379       -16.7725
  23   2.0000      -0.603182       -16.4134
  24   2.0000      -0.598099       -16.2751
  25   2.0000      -0.570123       -15.5138
  26   2.0000      -0.558933       -15.2093
  27   2.0000      -0.547497       -14.8981
  28   2.0000      -0.530333       -14.4311
  29   2.0000      -0.528420       -14.3790
  30   2.0000      -0.510564       -13.8932
  31   2.0000      -0.497999       -13.5512
  32   2.0000      -0.483158       -13.1474
  33   2.0000      -0.478793       -13.0286
  34   2.0000      -0.459822       -12.5124
  35   0.0000       0.090106         2.4519
  36   0.0000       0.119139         3.2419
  37   0.0000       0.131354         3.5743
  38   0.0000       0.161090         4.3835
  39   0.0000       0.183646         4.9973

MULLIKEN ATOMIC CHARGES
-----------------------
   0 O :   -0.744491
   1 H :    0.335928
   2 H :    0.386603
   3 O :   -0.748799
   4 H :    0.370651
   5 H :    0.338961
   6 O :   -0.716746
   7 H :    0.385547
   8 H :    0.363391
   9 O :   -0.715180
  10 H :    0.352809
  11 H :    0.370886
  12 O :   -0.733507
  13 H :    0.357588
  14 H :    0.353288
  15 O :   -0.696681
  16 H :    0.351578
  17 H :    0.357573
  18 O :   -0.702590
  19 H :    0.392057
  20 H :    0.341134
Sum of atomic charges:   -0.0000000

LOEWDIN ATOMIC CHARGES
----------------------
   0 O :   -0.343197
   1 H :    0.153312
   2 H :    0.146646
   3 O :   -0.350298
   4 H :    0.149950
   5 H :    0.135386
   6 O :   -0.275104
   7 H :    0.189795
   8 H :    0.175157
   9 O :   -0.311088
  10 H :    0.167698
  11 H :    0.145174
  12 O :   -0.356720
  13 H :    0.144451
  14 H :    0.143631
  15 O :   -0.311496
  16 H :    0.163224
  17 H :    0.186128
  18 O :   -0.278359
  19 H :    0.160085
  20 H :    0.165624

  Mayer bond orders larger than 0.100000
B(  0-O ,  1-H ) :   0.8513 B(  0-O ,  2-H ) :   0.7521 B(  3-O ,  4-H ) :   0.8152
B(  3-O ,  5-H ) :   0.7832 B(  6-O ,  7-H ) :   0.8083 B(  6-O ,  8-H ) :   0.8310
B(  9-O , 10-H ) :   0.8399 B(  9-O , 11-H ) :   0.7807 B( 12-O , 13-H ) :   0.8369
B( 12-O , 14-H ) :   0.8085 B( 15-O , 16-H ) :   0.8423 B( 15-O , 17-H ) :   0.8323
B( 18-O , 19-H ) :   0.7877 B( 18-O , 20-H ) :   0.8435

MP2 TOTAL ENERGY:     -534.255386948 Eh
FINAL SINGLE POINT ENERGY      -534.255386948380

DIPOLE MOMENT
-------------
                                X             Y             Z
Electronic contribution:      0.04397       0.04406      -0.16444
Nuclear contribution   :     -0.53373      -0.08378      -2.14649
                        -----------------------------------------
Total Dipole Moment    :     -0.48976      -0.03971      -2.31093
                        -----------------------------------------
Magnitude (a.u.)       :      2.36259
Magnitude (Debye)      :      6.00523

Rotational constants in cm-1:     0.043524     0.024229     0.019460
Rotational constants in MHz :  1304.822840   726.376868   583.386091

                             ****ORCA TERMINATED NORMALLY****
TOTAL RUN TIME: 0 days 0 hours 1 minutes 49 seconds 76 msec
