                         Program Version 4.2.0 -  RELEASE  -
|  1> # 12h2o.su.etal.mol0,1,4,5,7,10,11
|  2> ! MP2 def2-TZVP EnGrad TightSCF
|  3>
|  4> %pal
|  5>     nprocs 6
|  6> end
|  7>
|  8> %maxcore 8000
|  9>
| 10> %scf
| 11>     ConvForced true
| 12> end
| 13>
| 14> *xyz 0 1
| 15> O   1.794470000   0.923410000   2.768350000
| 16> H   2.338250000   1.359750000   3.430940000
| 17> H   0.879480000   1.303000000   2.865760000
| 18> O  -1.794470000  -0.923410000   2.768350000
| 19> H  -2.338250000  -1.359750000   3.430940000
| 20> H  -0.879480000  -1.303000000   2.865760000
| 21> O  -0.885520000   1.737840000   0.052730000
| 22> H  -1.032320000   2.090180000  -0.841890000
| 23> H  -1.284090000   0.839590000   0.017130000
| 24> O   0.885520000  -1.737840000   0.052730000
| 25> H   1.284090000  -0.839590000   0.017130000
| 26> H   1.032320000  -2.090180000  -0.841890000
| 27> O  -1.737840000  -0.885520000  -0.052730000
| 28> H  -2.090180000  -1.032320000   0.841890000
| 29> H  -0.839590000  -1.284090000  -0.017130000
| 30> O  -0.923410000   1.794470000  -2.768350000
| 31> H  -1.359750000   2.338250000  -3.430940000
| 32> H  -1.303000000   0.879480000  -2.865760000
| 33> O  -0.741530000   1.752130000   2.896280000
| 34> H  -0.920500000   2.036450000   1.984040000
| 35> H  -1.242140000   0.921210000   2.984230000
| 36> *
| 37>
| 38>                          ****END OF INPUT****

CARTESIAN COORDINATES (ANGSTROEM)
---------------------------------
  O      1.794470    0.923410    2.768350
  H      2.338250    1.359750    3.430940
  H      0.879480    1.303000    2.865760
  O     -1.794470   -0.923410    2.768350
  H     -2.338250   -1.359750    3.430940
  H     -0.879480   -1.303000    2.865760
  O     -0.885520    1.737840    0.052730
  H     -1.032320    2.090180   -0.841890
  H     -1.284090    0.839590    0.017130
  O      0.885520   -1.737840    0.052730
  H      1.284090   -0.839590    0.017130
  H      1.032320   -2.090180   -0.841890
  O     -1.737840   -0.885520   -0.052730
  H     -2.090180   -1.032320    0.841890
  H     -0.839590   -1.284090   -0.017130
  O     -0.923410    1.794470   -2.768350
  H     -1.359750    2.338250   -3.430940
  H     -1.303000    0.879480   -2.865760
  O     -0.741530    1.752130    2.896280
  H     -0.920500    2.036450    1.984040
  H     -1.242140    0.921210    2.984230

 Total Charge           Charge          ....    0
 Multiplicity           Mult            ....    1
 Number of Electrons    NEL             ....   70
 Basis Dimension        Dim             ....  301

ORBITAL ENERGIES
----------------

  NO   OCC          E(Eh)            E(eV)
   0   2.0000     -20.607020      -560.7455
   1   2.0000     -20.589367      -560.2652
   2   2.0000     -20.582577      -560.0804
   3   2.0000     -20.541018      -558.9495
   4   2.0000     -20.528506      -558.6091
   5   2.0000     -20.512452      -558.1722
   6   2.0000     -20.501250      -557.8674
   7   2.0000      -1.387559       -37.7574
   8   2.0000      -1.370549       -37.2945
   9   2.0000      -1.360471       -37.0203
  10   2.0000      -1.330289       -36.1990
  11   2.0000      -1.322541       -35.9882
  12   2.0000      -1.296449       -35.2782
  13   2.0000      -1.282052       -34.8864
  14   2.0000      -0.752770       -20.4839
  15   2.0000      -0.727354       -19.7923
  16   2.0000      -0.727051       -19.7841
  17   2.0000      -0.705699       -19.2031
  18   2.0000      -0.691039       -18.8041
  19   2.0000      -0.676336       -18.4040
  20   2.0000      -0.667653       -18.1678
  21   2.0000      -0.632858       -17.2209
  22   2.0000      -0.610388       -16.6095
  23   2.0000      -0.600702       -16.3459
  24   2.0000      -0.583234       -15.8706
  25   2.0000      -0.575299       -15.6547
  26   2.0000      -0.548960       -14.9380
  27   2.0000      -0.540858       -14.7175
  28   2.0000      -0.524125       -14.2622
  29   2.0000      -0.521158       -14.1814
  30   2.0000      -0.512239       -13.9387
  31   2.0000      -0.484374       -13.1805
  32   2.0000      -0.470650       -12.8070
  33   2.0000      -0.463391       -12.6095
  34   2.0000      -0.451998       -12.2995
  35   0.0000       0.099596         2.7102
  36   0.0000       0.116774         3.1776
  37   0.0000       0.134127         3.6498
  38   0.0000       0.171638         4.6705
  39   0.0000       0.192850         5.2477

MULLIKEN ATOMIC CHARGES
-----------------------
   0 O :   -0.745246
   1 H :    0.320083
   2 H :    0.371884
   3 O :   -0.722594
   4 H :    0.362843
   5 H :    0.383639
   6 O :   -0.748781
   7 H :    0.364566
   8 H :    0.343032
   9 O :   -0.696452
  10 H :    0.383355
  11 H :    0.352404
  12 O :   -0.728756
  13 H :    0.372070
  14 H :    0.354248
  15 O :   -0.695053
  16 H :    0.348110
  17 H :    0.358104
  18 O :   -0.720464
  19 H :    0.388409
  20 H :    0.354598
Sum of atomic charges:   -0.0000000

LOEWDIN ATOMIC CHARGES
----------------------
   0 O :   -0.379900
   1 H :    0.146144
   2 H :    0.142273
   3 O :   -0.288005
   4 H :    0.167365
   5 H :    0.196548
   6 O :   -0.350839
   7 H :    0.147570
   8 H :    0.136388
   9 O :   -0.291938
  10 H :    0.189099
  11 H :    0.171206
  12 O :   -0.320526
  13 H :    0.147733
  14 H :    0.139122
  15 O :   -0.311380
  16 H :    0.161520
  17 H :    0.186252
  18 O :   -0.291046
  19 H :    0.157875
  20 H :    0.144540

  Mayer bond orders larger than 0.100000
B(  0-O ,  1-H ) :   0.8629 B(  0-O ,  2-H ) :   0.7635 B(  2-H , 18-O ) :   0.1073
B(  3-O ,  4-H ) :   0.8329 B(  3-O ,  5-H ) :   0.8097 B(  6-O ,  7-H ) :   0.8197
B(  6-O ,  8-H ) :   0.7783 B(  8-H , 12-O ) :   0.1016 B(  9-O , 10-H ) :   0.8123
B(  9-O , 11-H ) :   0.8405 B( 12-O , 13-H ) :   0.8155 B( 12-O , 14-H ) :   0.7868
B( 15-O , 16-H ) :   0.8442 B( 15-O , 17-H ) :   0.8317 B( 18-O , 19-H ) :   0.7924
B( 18-O , 20-H ) :   0.8219

MP2 TOTAL ENERGY:     -534.253820926 Eh
FINAL SINGLE POINT ENERGY      -534.253820925537

DIPOLE MOMENT
-------------
                                X             Y             Z
Electronic contribution:     -0.06801      -0.13274      -0.08294
Nuclear contribution   :     -0.79041      -1.21789      -0.82779
                        -----------------------------------------
Total Dipole Moment    :     -0.85842      -1.35063      -0.91073
                        -----------------------------------------
Magnitude (a.u.)       :      1.84134
Magnitude (Debye)      :      4.68031

Rotational constants in cm-1:     0.039063     0.024194     0.022195
Rotational constants in MHz :  1171.066848   725.320255   665.381559

                             ****ORCA TERMINATED NORMALLY****
TOTAL RUN TIME: 0 days 0 hours 3 minutes 16 seconds 708 msec
