                         Program Version 4.2.0 -  RELEASE  -
|  1> # 12mecn.remya.etal.2.mol0,7,10
|  2> ! MP2 def2-TZVP EnGrad TightSCF
|  3>
|  4> %pal
|  5>     nprocs 6
|  6> end
|  7>
|  8> %maxcore 8000
|  9>
| 10> %scf
| 11>     ConvForced true
| 12> end
| 13>
| 14> *xyz 0 1
| 15> C  -0.869520000  -3.929380000   1.700199000
| 16> H  -0.057420000  -3.268850000   2.015352000
| 17> H  -0.697530000  -4.930670000   2.101524000
| 18> H  -1.821490000  -3.546590000   2.077146000
| 19> C  -0.916080000  -3.969960000   0.256749000
| 20> N  -0.955390000  -3.995980000  -0.909290000
| 21> C   1.502241000   0.651296000   1.710523000
| 22> H   1.309219000   1.637164000   2.143202000
| 23> H   2.493408000   0.297996000   2.009069000
| 24> H   0.746597000  -0.059850000   2.055508000
| 25> C   1.447974000   0.738517000   0.269805000
| 26> N   1.405612000   0.808047000  -0.894380000
| 27> C   4.602033000   0.321019000  -1.784800000
| 28> H   4.827650000  -0.662160000  -2.207910000
| 29> H   5.320558000   1.057980000  -2.148500000
| 30> H   3.601982000   0.643751000  -2.087520000
| 31> C   4.654967000   0.244048000  -0.343060000
| 32> N   4.691648000   0.166590000   0.820757000
| 33> *
| 34>
| 35>                          ****END OF INPUT****

CARTESIAN COORDINATES (ANGSTROEM)
---------------------------------
  C     -0.869520   -3.929380    1.700199
  H     -0.057420   -3.268850    2.015352
  H     -0.697530   -4.930670    2.101524
  H     -1.821490   -3.546590    2.077146
  C     -0.916080   -3.969960    0.256749
  N     -0.955390   -3.995980   -0.909290
  C      1.502241    0.651296    1.710523
  H      1.309219    1.637164    2.143202
  H      2.493408    0.297996    2.009069
  H      0.746597   -0.059850    2.055508
  C      1.447974    0.738517    0.269805
  N      1.405612    0.808047   -0.894380
  C      4.602033    0.321019   -1.784800
  H      4.827650   -0.662160   -2.207910
  H      5.320558    1.057980   -2.148500
  H      3.601982    0.643751   -2.087520
  C      4.654967    0.244048   -0.343060
  N      4.691648    0.166590    0.820757

 Total Charge           Charge          ....    0
 Multiplicity           Mult            ....    1
 Number of Electrons    NEL             ....   66
 Basis Dimension        Dim             ....  333

ORBITAL ENERGIES
----------------

  NO   OCC          E(Eh)            E(eV)
   0   2.0000     -15.573531      -423.7773
   1   2.0000     -15.571463      -423.7210
   2   2.0000     -15.571072      -423.7104
   3   2.0000     -11.287164      -307.1394
   4   2.0000     -11.283437      -307.0379
   5   2.0000     -11.282621      -307.0157
   6   2.0000     -11.279976      -306.9438
   7   2.0000     -11.275615      -306.8251
   8   2.0000     -11.270617      -306.6891
   9   2.0000      -1.218081       -33.1457
  10   2.0000      -1.214407       -33.0457
  11   2.0000      -1.213758       -33.0280
  12   2.0000      -1.045987       -28.4627
  13   2.0000      -1.038769       -28.2663
  14   2.0000      -1.034126       -28.1400
  15   2.0000      -0.701709       -19.0945
  16   2.0000      -0.695483       -18.9250
  17   2.0000      -0.690813       -18.7980
  18   2.0000      -0.634939       -17.2776
  19   2.0000      -0.633923       -17.2499
  20   2.0000      -0.631732       -17.1903
  21   2.0000      -0.627037       -17.0625
  22   2.0000      -0.622990       -16.9524
  23   2.0000      -0.614527       -16.7221
  24   2.0000      -0.559155       -15.2154
  25   2.0000      -0.555833       -15.1250
  26   2.0000      -0.555646       -15.1199
  27   2.0000      -0.460501       -12.5309
  28   2.0000      -0.459835       -12.5127
  29   2.0000      -0.457721       -12.4552
  30   2.0000      -0.457597       -12.4518
  31   2.0000      -0.456556       -12.4235
  32   2.0000      -0.454752       -12.3744
  33   0.0000       0.099230         2.7002
  34   0.0000       0.133840         3.6420
  35   0.0000       0.145103         3.9485
  36   0.0000       0.166032         4.5180
  37   0.0000       0.169571         4.6143

MULLIKEN ATOMIC CHARGES
-----------------------
   0 C :   -0.281705
   1 H :    0.165620
   2 H :    0.175131
   3 H :    0.172705
   4 C :   -0.143583
   5 N :   -0.088181
   6 C :   -0.284540
   7 H :    0.169471
   8 H :    0.206452
   9 H :    0.154211
  10 C :   -0.100431
  11 N :   -0.145902
  12 C :   -0.283734
  13 H :    0.168127
  14 H :    0.165846
  15 H :    0.206859
  16 C :   -0.101202
  17 N :   -0.155144
Sum of atomic charges:    0.0000000

LOEWDIN ATOMIC CHARGES
----------------------
   0 C :   -0.284472
   1 H :    0.150102
   2 H :    0.152151
   3 H :    0.152697
   4 C :   -0.220258
   5 N :    0.049742
   6 C :   -0.283323
   7 H :    0.153045
   8 H :    0.157078
   9 H :    0.147105
  10 C :   -0.209677
  11 N :    0.035064
  12 C :   -0.281059
  13 H :    0.153587
  14 H :    0.150339
  15 H :    0.157972
  16 C :   -0.206990
  17 N :    0.026895

  Mayer bond orders larger than 0.100000
B(  0-C ,  1-H ) :   0.9184 B(  0-C ,  2-H ) :   0.9166 B(  0-C ,  3-H ) :   0.9171
B(  0-C ,  4-C ) :   0.9004 B(  4-C ,  5-N ) :   2.8325 B(  6-C ,  7-H ) :   0.9148
B(  6-C ,  8-H ) :   0.9017 B(  6-C ,  9-H ) :   0.9196 B(  6-C , 10-C ) :   0.8994
B( 10-C , 11-N ) :   2.7647 B( 12-C , 13-H ) :   0.9132 B( 12-C , 14-H ) :   0.9164
B( 12-C , 15-H ) :   0.9012 B( 12-C , 16-C ) :   0.9020 B( 16-C , 17-N ) :   2.7724

MP2 TOTAL ENERGY:     -397.458597458 Eh
FINAL SINGLE POINT ENERGY      -397.458597457726

DIPOLE MOMENT
-------------
                                X             Y             Z
Electronic contribution:     -0.08843      -0.07689      -3.18355
Nuclear contribution   :      0.14463       0.12124       4.62443
                        -----------------------------------------
Total Dipole Moment    :      0.05621       0.04435       1.44088
                        -----------------------------------------
Magnitude (a.u.)       :      1.44266
Magnitude (Debye)      :      3.66695

Rotational constants in cm-1:     0.053977     0.014197     0.013426
Rotational constants in MHz :  1618.180291   425.607928   402.492798

                             ****ORCA TERMINATED NORMALLY****
TOTAL RUN TIME: 0 days 0 hours 3 minutes 10 seconds 741 msec
