                         Program Version 4.2.0 -  RELEASE  -
|  1> # 12mecn.remya.etal.2.mol1,11
|  2> ! MP2 def2-TZVP EnGrad TightSCF
|  3>
|  4> %pal
|  5>     nprocs 6
|  6> end
|  7>
|  8> %maxcore 8000
|  9>
| 10> %scf
| 11>     ConvForced true
| 12> end
| 13>
| 14> *xyz 0 1
| 15> C  -4.697980000  -0.249690000   1.746215000
| 16> H  -4.927570000   0.755530000   2.111799000
| 17> H  -3.709180000  -0.561560000   2.093253000
| 18> H  -5.432280000  -0.961520000   2.128066000
| 19> C  -4.714100000  -0.247110000   0.301670000
| 20> N  -4.729750000  -0.234960000  -0.865260000
| 21> C   4.214163000   3.378139000   1.593627000
| 22> H   3.242643000   3.657109000   2.012358000
| 23> H   4.969258000   4.086643000   1.941290000
| 24> H   4.482966000   2.372549000   1.931698000
| 25> C   4.130759000   3.388436000   0.150192000
| 26> N   4.050180000   3.381449000  -1.013420000
| 27> *
| 28>
| 29>                          ****END OF INPUT****

CARTESIAN COORDINATES (ANGSTROEM)
---------------------------------
  C     -4.697980   -0.249690    1.746215
  H     -4.927570    0.755530    2.111799
  H     -3.709180   -0.561560    2.093253
  H     -5.432280   -0.961520    2.128066
  C     -4.714100   -0.247110    0.301670
  N     -4.729750   -0.234960   -0.865260
  C      4.214163    3.378139    1.593627
  H      3.242643    3.657109    2.012358
  H      4.969258    4.086643    1.941290
  H      4.482966    2.372549    1.931698
  C      4.130759    3.388436    0.150192
  N      4.050180    3.381449   -1.013420

 Total Charge           Charge          ....    0
 Multiplicity           Mult            ....    1
 Number of Electrons    NEL             ....   44
 Basis Dimension        Dim             ....  222

ORBITAL ENERGIES
----------------

  NO   OCC          E(Eh)            E(eV)
   0   2.0000     -15.573467      -423.7756
   1   2.0000     -15.573329      -423.7718
   2   2.0000     -11.286155      -307.1119
   3   2.0000     -11.285743      -307.1007
   4   2.0000     -11.280257      -306.9514
   5   2.0000     -11.280090      -306.9469
   6   2.0000      -1.214889       -33.0588
   7   2.0000      -1.214355       -33.0443
   8   2.0000      -1.044890       -28.4329
   9   2.0000      -1.044440       -28.4207
  10   2.0000      -0.701305       -19.0835
  11   2.0000      -0.700752       -19.0684
  12   2.0000      -0.634962       -17.2782
  13   2.0000      -0.632820       -17.2199
  14   2.0000      -0.631867       -17.1940
  15   2.0000      -0.630839       -17.1660
  16   2.0000      -0.556030       -15.1303
  17   2.0000      -0.555724       -15.1220
  18   2.0000      -0.458030       -12.4636
  19   2.0000      -0.457924       -12.4607
  20   2.0000      -0.457745       -12.4559
  21   2.0000      -0.457225       -12.4417
  22   0.0000       0.117982         3.2104
  23   0.0000       0.118168         3.2155
  24   0.0000       0.170442         4.6380
  25   0.0000       0.170561         4.6412
  26   0.0000       0.170585         4.6418

MULLIKEN ATOMIC CHARGES
-----------------------
   0 C :   -0.279178
   1 H :    0.172037
   2 H :    0.170930
   3 H :    0.172247
   4 C :   -0.145669
   5 N :   -0.090366
   6 C :   -0.280840
   7 H :    0.171219
   8 H :    0.172365
   9 H :    0.172012
  10 C :   -0.145535
  11 N :   -0.089220
Sum of atomic charges:    0.0000000

LOEWDIN ATOMIC CHARGES
----------------------
   0 C :   -0.284121
   1 H :    0.152816
   2 H :    0.152445
   3 H :    0.151581
   4 C :   -0.220052
   5 N :    0.047332
   6 C :   -0.284509
   7 H :    0.152523
   8 H :    0.151039
   9 H :    0.152839
  10 C :   -0.219649
  11 N :    0.047758

  Mayer bond orders larger than 0.100000
B(  0-C ,  1-H ) :   0.9161 B(  0-C ,  2-H ) :   0.9170 B(  0-C ,  3-H ) :   0.9170
B(  0-C ,  4-C ) :   0.9016 B(  4-C ,  5-N ) :   2.8355 B(  6-C ,  7-H ) :   0.9168
B(  6-C ,  8-H ) :   0.9166 B(  6-C ,  9-H ) :   0.9166 B(  6-C , 10-C ) :   0.9024
B( 10-C , 11-N ) :   2.8357

MP2 TOTAL ENERGY:     -264.965830350 Eh
FINAL SINGLE POINT ENERGY      -264.965830349878

DIPOLE MOMENT
-------------
                                X             Y             Z
Electronic contribution:     -0.22109       0.04469      -6.24327
Nuclear contribution   :      0.33654      -0.05968       9.28591
                        -----------------------------------------
Total Dipole Moment    :      0.11545      -0.01499       3.04264
                        -----------------------------------------
Magnitude (a.u.)       :      3.04487
Magnitude (Debye)      :      7.73944

Rotational constants in cm-1:     0.154290     0.008948     0.008486
Rotational constants in MHz :  4625.484075   268.268482   254.391333

                             ****ORCA TERMINATED NORMALLY****
TOTAL RUN TIME: 0 days 0 hours 0 minutes 33 seconds 506 msec
