                         Program Version 4.2.0 -  RELEASE  -
|  1> # 12h2o.su.etal.mol0,1,2,3,4,6,7,8,11
|  2> ! MP2 def2-TZVP EnGrad TightSCF
|  3>
|  4> %pal
|  5>     nprocs 6
|  6> end
|  7>
|  8> %maxcore 8000
|  9>
| 10> %scf
| 11>     ConvForced true
| 12> end
| 13>
| 14> *xyz 0 1
| 15> O   1.794470000   0.923410000   2.768350000
| 16> H   2.338250000   1.359750000   3.430940000
| 17> H   0.879480000   1.303000000   2.865760000
| 18> O  -1.794470000  -0.923410000   2.768350000
| 19> H  -2.338250000  -1.359750000   3.430940000
| 20> H  -0.879480000  -1.303000000   2.865760000
| 21> O   0.923410000  -1.794470000  -2.768350000
| 22> H   1.359750000  -2.338250000  -3.430940000
| 23> H   1.303000000  -0.879480000  -2.865760000
| 24> O  -1.752130000  -0.741530000  -2.896280000
| 25> H  -2.036450000  -0.920500000  -1.984040000
| 26> H  -0.921210000  -1.242140000  -2.984230000
| 27> O  -0.885520000   1.737840000   0.052730000
| 28> H  -1.032320000   2.090180000  -0.841890000
| 29> H  -1.284090000   0.839590000   0.017130000
| 30> O   1.737840000   0.885520000  -0.052730000
| 31> H   2.090180000   1.032320000   0.841890000
| 32> H   0.839590000   1.284090000  -0.017130000
| 33> O  -1.737840000  -0.885520000  -0.052730000
| 34> H  -2.090180000  -1.032320000   0.841890000
| 35> H  -0.839590000  -1.284090000  -0.017130000
| 36> O   1.752130000   0.741530000  -2.896280000
| 37> H   2.036450000   0.920500000  -1.984040000
| 38> H   0.921210000   1.242140000  -2.984230000
| 39> O  -0.741530000   1.752130000   2.896280000
| 40> H  -0.920500000   2.036450000   1.984040000
| 41> H  -1.242140000   0.921210000   2.984230000
| 42> *
| 43>
| 44>                          ****END OF INPUT****

CARTESIAN COORDINATES (ANGSTROEM)
---------------------------------
  O      1.794470    0.923410    2.768350
  H      2.338250    1.359750    3.430940
  H      0.879480    1.303000    2.865760
  O     -1.794470   -0.923410    2.768350
  H     -2.338250   -1.359750    3.430940
  H     -0.879480   -1.303000    2.865760
  O      0.923410   -1.794470   -2.768350
  H      1.359750   -2.338250   -3.430940
  H      1.303000   -0.879480   -2.865760
  O     -1.752130   -0.741530   -2.896280
  H     -2.036450   -0.920500   -1.984040
  H     -0.921210   -1.242140   -2.984230
  O     -0.885520    1.737840    0.052730
  H     -1.032320    2.090180   -0.841890
  H     -1.284090    0.839590    0.017130
  O      1.737840    0.885520   -0.052730
  H      2.090180    1.032320    0.841890
  H      0.839590    1.284090   -0.017130
  O     -1.737840   -0.885520   -0.052730
  H     -2.090180   -1.032320    0.841890
  H     -0.839590   -1.284090   -0.017130
  O      1.752130    0.741530   -2.896280
  H      2.036450    0.920500   -1.984040
  H      0.921210    1.242140   -2.984230
  O     -0.741530    1.752130    2.896280
  H     -0.920500    2.036450    1.984040
  H     -1.242140    0.921210    2.984230

 Total Charge           Charge          ....    0
 Multiplicity           Mult            ....    1
 Number of Electrons    NEL             ....   90
 Basis Dimension        Dim             ....  387

ORBITAL ENERGIES
----------------

  NO   OCC          E(Eh)            E(eV)
   0   2.0000     -20.637062      -561.5630
   1   2.0000     -20.598490      -560.5134
   2   2.0000     -20.586408      -560.1846
   3   2.0000     -20.566444      -559.6414
   4   2.0000     -20.558676      -559.4300
   5   2.0000     -20.544804      -559.0525
   6   2.0000     -20.530164      -558.6542
   7   2.0000     -20.526571      -558.5564
   8   2.0000     -20.508094      -558.0536
   9   2.0000      -1.417894       -38.5829
  10   2.0000      -1.387974       -37.7687
  11   2.0000      -1.372165       -37.3385
  12   2.0000      -1.357972       -36.9523
  13   2.0000      -1.349511       -36.7220
  14   2.0000      -1.328868       -36.1603
  15   2.0000      -1.314238       -35.7622
  16   2.0000      -1.309768       -35.6406
  17   2.0000      -1.292440       -35.1691
  18   2.0000      -0.783115       -21.3096
  19   2.0000      -0.747909       -20.3516
  20   2.0000      -0.743128       -20.2215
  21   2.0000      -0.725738       -19.7483
  22   2.0000      -0.712451       -19.3868
  23   2.0000      -0.708988       -19.2925
  24   2.0000      -0.697221       -18.9723
  25   2.0000      -0.690984       -18.8026
  26   2.0000      -0.674363       -18.3503
  27   2.0000      -0.659726       -17.9520
  28   2.0000      -0.633632       -17.2420
  29   2.0000      -0.623457       -16.9651
  30   2.0000      -0.599742       -16.3198
  31   2.0000      -0.594182       -16.1685
  32   2.0000      -0.586201       -15.9513
  33   2.0000      -0.569934       -15.5087
  34   2.0000      -0.559237       -15.2176
  35   2.0000      -0.551856       -15.0168
  36   2.0000      -0.540362       -14.7040
  37   2.0000      -0.526181       -14.3181
  38   2.0000      -0.520722       -14.1696
  39   2.0000      -0.507921       -13.8212
  40   2.0000      -0.497841       -13.5470
  41   2.0000      -0.492298       -13.3961
  42   2.0000      -0.479565       -13.0496
  43   2.0000      -0.477097       -12.9825
  44   2.0000      -0.458085       -12.4651
  45   0.0000       0.077617         2.1121
  46   0.0000       0.114673         3.1204
  47   0.0000       0.143355         3.9009
  48   0.0000       0.153365         4.1733
  49   0.0000       0.166325         4.5259

MULLIKEN ATOMIC CHARGES
-----------------------
   0 O :   -0.745924
   1 H :    0.336732
   2 H :    0.370659
   3 O :   -0.728617
   4 H :    0.374370
   5 H :    0.381461
   6 O :   -0.744189
   7 H :    0.335226
   8 H :    0.386781
   9 O :   -0.736217
  10 H :    0.359639
  11 H :    0.352952
  12 O :   -0.738979
  13 H :    0.362109
  14 H :    0.376296
  15 O :   -0.751679
  16 H :    0.374799
  17 H :    0.338752
  18 O :   -0.728578
  19 H :    0.384795
  20 H :    0.371781
  21 O :   -0.702279
  22 H :    0.392628
  23 H :    0.339852
  24 O :   -0.713305
  25 H :    0.388462
  26 H :    0.362472
Sum of atomic charges:   -0.0000000

LOEWDIN ATOMIC CHARGES
----------------------
   0 O :   -0.345994
   1 H :    0.153418
   2 H :    0.142542
   3 O :   -0.288956
   4 H :    0.172946
   5 H :    0.196363
   6 O :   -0.343268
   7 H :    0.152987
   8 H :    0.146719
   9 O :   -0.358782
  10 H :    0.144152
  11 H :    0.143357
  12 O :   -0.295578
  13 H :    0.171656
  14 H :    0.147433
  15 O :   -0.350952
  16 H :    0.151057
  17 H :    0.134433
  18 O :   -0.279396
  19 H :    0.154650
  20 H :    0.182942
  21 O :   -0.278475
  22 H :    0.160125
  23 H :    0.165045
  24 O :   -0.283450
  25 H :    0.157497
  26 H :    0.147528

  Mayer bond orders larger than 0.100000
B(  0-O ,  1-H ) :   0.8506 B(  0-O ,  2-H ) :   0.7529 B(  2-H , 24-O ) :   0.1086
B(  3-O ,  4-H ) :   0.8263 B(  3-O ,  5-H ) :   0.8118 B(  6-O ,  7-H ) :   0.8516
B(  6-O ,  8-H ) :   0.7518 B(  9-O , 10-H ) :   0.8341 B(  9-O , 11-H ) :   0.8091
B( 12-O , 13-H ) :   0.8319 B( 12-O , 14-H ) :   0.7590 B( 15-O , 16-H ) :   0.8037
B( 15-O , 17-H ) :   0.7924 B( 18-O , 19-H ) :   0.7989 B( 18-O , 20-H ) :   0.8167
B( 21-O , 22-H ) :   0.7862 B( 21-O , 23-H ) :   0.8444 B( 24-O , 25-H ) :   0.8026
B( 24-O , 26-H ) :   0.8159

MP2 TOTAL ENERGY:     -686.917111714 Eh
FINAL SINGLE POINT ENERGY      -686.917111713771

DIPOLE MOMENT
-------------
                                X             Y             Z
Electronic contribution:     -0.33061       0.05098       0.25575
Nuclear contribution   :     -0.34045      -0.60038       2.09298
                        -----------------------------------------
Total Dipole Moment    :     -0.67107      -0.54940       2.34873
                        -----------------------------------------
Magnitude (a.u.)       :      2.50373
Magnitude (Debye)      :      6.36399

Rotational constants in cm-1:     0.029790     0.015659     0.012551
Rotational constants in MHz :   893.088737   469.443743   376.281869

                             ****ORCA TERMINATED NORMALLY****
TOTAL RUN TIME: 0 days 0 hours 4 minutes 40 seconds 46 msec
