                         Program Version 3.0.3 - RELEASE   -
|  1> ! B3LYP Def2-SVP def2-SVP/J RIJCOSX TightSCF Grid4 D3BJ COSMO OPT
|  2>
|  3> %pal nprocs 12 end
|  4>
|  5> %scf
|  6>         maxiter 800
|  7> end
|  8>
|  9> %cosmo
| 10>         SMD true
| 11>         solvent "WATER"
| 12> end
| 13>
| 14> * xyz  0  1
| 15> O  1.27199656	0.30467417	0.95336430
| 16> H  0.54103699	0.08639096	0.37519271
| 17> H  1.99446465	0.50972139	0.35987686
| 18> O  -0.97494938	-0.15679262	-0.58304936
| 19> H  -1.18239548	-0.93092905	-1.10641419
| 20> H  -1.81235933	0.10618274	-0.20118501
| 21> **                         ****END OF INPUT****
 Total Charge           Charge          ....    0
 Multiplicity           Mult            ....    1
 Number of Electrons    NEL             ....   20
Dispersion correction           -0.002206375
FINAL SINGLE POINT ENERGY      -152.676785960770
Dispersion correction            ...
Dispersion correction           -0.002200672
FINAL SINGLE POINT ENERGY      -152.677828655547
Dispersion correction            ...
Dispersion correction           -0.002226717
FINAL SINGLE POINT ENERGY      -152.678044602412
Dispersion correction            ...
FINAL SINGLE POINT ENERGY      -152.678148309893
FINAL SINGLE POINT ENERGY      -152.678375149930
FINAL SINGLE POINT ENERGY      -152.678775403028
FINAL SINGLE POINT ENERGY      -152.678408907017
FINAL SINGLE POINT ENERGY      -152.678858623093
FINAL SINGLE POINT ENERGY      -152.678699592096
FINAL SINGLE POINT ENERGY      -152.678891948550
FINAL SINGLE POINT ENERGY      -152.678908441632
FINAL SINGLE POINT ENERGY      -152.678924715312
FINAL SINGLE POINT ENERGY      -152.678949650455
FINAL SINGLE POINT ENERGY      -152.678942920427
FINAL SINGLE POINT ENERGY      -152.678930655989
FINAL SINGLE POINT ENERGY      -152.678928830155
FINAL SINGLE POINT ENERGY      -152.678934904671
Dispersion correction            ...
Dispersion correction           -0.002326084
FINAL SINGLE POINT ENERGY      -152.678931755019
Dispersion correction            ...
Dispersion correction           -0.002326430
FINAL SINGLE POINT ENERGY      -152.678923940682
Dispersion correction            ...
                    ***********************HURRAY********************

CARTESIAN COORDINATES (ANGSTROEM)
---------------------------------
  O      1.215488    0.211080    0.927561
  H      0.407983    0.176872    0.367895
  H      1.906941    0.413446    0.279585
  O     -0.992985    0.007122   -0.711643
  H     -0.933447   -0.934080   -0.939707
  H     -1.766187    0.044807   -0.125906

 Multiplicity           Mult            ....    1
 Number of Electrons    NEL             ....   20
 Basis Dimension        Dim             ....   48

ORBITAL ENERGIES
----------------

  NO   OCC          E(Eh)            E(eV)
   0   2.0000     -19.138032      -520.7723
   1   2.0000     -19.097401      -519.6667
   2   2.0000      -0.994297       -27.0562
   3   2.0000      -0.954136       -25.9634
   4   2.0000      -0.518808       -14.1175
   5   2.0000      -0.490103       -13.3364
   6   2.0000      -0.397364       -10.8128
   7   2.0000      -0.361450        -9.8356
   8   2.0000      -0.309964        -8.4345
   9   2.0000      -0.281569        -7.6619
  10   0.0000       0.057163         1.5555
  11   0.0000       0.107310         2.9201
  12   0.0000       0.145230         3.9519
  13   0.0000       0.243773         6.6334
  14   0.0000       0.534381        14.5412

MULLIKEN ATOMIC CHARGES
-----------------------
   0 O :   -0.423059
   1 H :    0.133955
   2 H :    0.185135
   3 O :   -0.318409
   4 H :    0.209522
   5 H :    0.212856
Sum of atomic charges:   -0.0000000

LOEWDIN ATOMIC CHARGES
----------------------
   0 O :   -0.234608
   1 H :    0.033938
   2 H :    0.090223
   3 O :   -0.113981
   4 H :    0.111146
   5 H :    0.113281

  Mayer bond orders larger than 0.1
B(  0-O ,  1-H ) :   0.9282 B(  0-O ,  2-H ) :   0.9910 B(  1-H ,  3-O ) :   0.1867
B(  3-O ,  4-H ) :   0.9726 B(  3-O ,  5-H ) :   0.9724

Dispersion correction           -0.002326015
FINAL SINGLE POINT ENERGY      -152.678915946773

DIPOLE MOMENT
-------------
                                X             Y             Z
Electronic contribution:     -0.23133      -0.00222      -0.12529
Nuclear contribution   :     -0.69062      -0.61208      -0.70748
                        -----------------------------------------
Total Dipole Moment    :     -0.92196      -0.61430      -0.83277
                        -----------------------------------------
Magnitude (a.u.)       :      1.38596
Magnitude (Debye)      :      3.52282

                             ****ORCA TERMINATED NORMALLY****
TOTAL RUN TIME: 0 days 0 hours 19 minutes 1 seconds 103 msec
