                         Program Version 4.2.0 -  RELEASE  -
|  1> # 12h2o.su.etal.mol1,2,4,5,6,10
|  2> ! MP2 def2-TZVP EnGrad TightSCF
|  3>
|  4> %pal
|  5>     nprocs 6
|  6> end
|  7>
|  8> %maxcore 8000
|  9>
| 10> %scf
| 11>     ConvForced true
| 12> end
| 13>
| 14> *xyz 0 1
| 15> O  -1.794470000  -0.923410000   2.768350000
| 16> H  -2.338250000  -1.359750000   3.430940000
| 17> H  -0.879480000  -1.303000000   2.865760000
| 18> O   0.923410000  -1.794470000  -2.768350000
| 19> H   1.359750000  -2.338250000  -3.430940000
| 20> H   1.303000000  -0.879480000  -2.865760000
| 21> O  -0.885520000   1.737840000   0.052730000
| 22> H  -1.032320000   2.090180000  -0.841890000
| 23> H  -1.284090000   0.839590000   0.017130000
| 24> O   0.885520000  -1.737840000   0.052730000
| 25> H   1.284090000  -0.839590000   0.017130000
| 26> H   1.032320000  -2.090180000  -0.841890000
| 27> O   1.737840000   0.885520000  -0.052730000
| 28> H   2.090180000   1.032320000   0.841890000
| 29> H   0.839590000   1.284090000  -0.017130000
| 30> O  -0.923410000   1.794470000  -2.768350000
| 31> H  -1.359750000   2.338250000  -3.430940000
| 32> H  -1.303000000   0.879480000  -2.865760000
| 33> *
| 34>
| 35>                          ****END OF INPUT****

CARTESIAN COORDINATES (ANGSTROEM)
---------------------------------
  O     -1.794470   -0.923410    2.768350
  H     -2.338250   -1.359750    3.430940
  H     -0.879480   -1.303000    2.865760
  O      0.923410   -1.794470   -2.768350
  H      1.359750   -2.338250   -3.430940
  H      1.303000   -0.879480   -2.865760
  O     -0.885520    1.737840    0.052730
  H     -1.032320    2.090180   -0.841890
  H     -1.284090    0.839590    0.017130
  O      0.885520   -1.737840    0.052730
  H      1.284090   -0.839590    0.017130
  H      1.032320   -2.090180   -0.841890
  O      1.737840    0.885520   -0.052730
  H      2.090180    1.032320    0.841890
  H      0.839590    1.284090   -0.017130
  O     -0.923410    1.794470   -2.768350
  H     -1.359750    2.338250   -3.430940
  H     -1.303000    0.879480   -2.865760

 Total Charge           Charge          ....    0
 Multiplicity           Mult            ....    1
 Number of Electrons    NEL             ....   60
 Basis Dimension        Dim             ....  258

ORBITAL ENERGIES
----------------

  NO   OCC          E(Eh)            E(eV)
   0   2.0000     -20.597369      -560.4829
   1   2.0000     -20.579879      -560.0070
   2   2.0000     -20.555555      -559.3451
   3   2.0000     -20.546199      -559.0905
   4   2.0000     -20.541874      -558.9728
   5   2.0000     -20.490990      -557.5882
   6   2.0000      -1.375572       -37.4312
   7   2.0000      -1.357755       -36.9464
   8   2.0000      -1.342262       -36.5248
   9   2.0000      -1.324233       -36.0342
  10   2.0000      -1.321560       -35.9615
  11   2.0000      -1.275116       -34.6977
  12   2.0000      -0.742155       -20.1951
  13   2.0000      -0.724362       -19.7109
  14   2.0000      -0.702678       -19.1208
  15   2.0000      -0.694997       -18.9118
  16   2.0000      -0.689610       -18.7653
  17   2.0000      -0.658153       -17.9093
  18   2.0000      -0.616606       -16.7787
  19   2.0000      -0.598029       -16.2732
  20   2.0000      -0.586505       -15.9596
  21   2.0000      -0.567086       -15.4312
  22   2.0000      -0.558398       -15.1948
  23   2.0000      -0.541422       -14.7328
  24   2.0000      -0.533957       -14.5297
  25   2.0000      -0.508930       -13.8487
  26   2.0000      -0.495566       -13.4850
  27   2.0000      -0.489476       -13.3193
  28   2.0000      -0.477319       -12.9885
  29   2.0000      -0.442180       -12.0323
  30   0.0000       0.095254         2.5920
  31   0.0000       0.130625         3.5545
  32   0.0000       0.137355         3.7376
  33   0.0000       0.165050         4.4912
  34   0.0000       0.177127         4.8199

MULLIKEN ATOMIC CHARGES
-----------------------
   0 O :   -0.688593
   1 H :    0.332953
   2 H :    0.355209
   3 O :   -0.700779
   4 H :    0.346016
   5 H :    0.362304
   6 O :   -0.703858
   7 H :    0.373929
   8 H :    0.358263
   9 O :   -0.741417
  10 H :    0.337379
  11 H :    0.355396
  12 O :   -0.719517
  13 H :    0.343967
  14 H :    0.374525
  15 O :   -0.701398
  16 H :    0.354403
  17 H :    0.361218
Sum of atomic charges:    0.0000000

LOEWDIN ATOMIC CHARGES
----------------------
   0 O :   -0.341052
   1 H :    0.155386
   2 H :    0.185155
   3 O :   -0.313826
   4 H :    0.160527
   5 H :    0.186802
   6 O :   -0.296447
   7 H :    0.151446
   8 H :    0.177215
   9 O :   -0.375949
  10 H :    0.133426
  11 H :    0.142181
  12 O :   -0.316497
  13 H :    0.164726
  14 H :    0.146274
  15 O :   -0.311431
  16 H :    0.164633
  17 H :    0.187430

  Mayer bond orders larger than 0.100000
B(  0-O ,  1-H ) :   0.8560 B(  0-O ,  2-H ) :   0.8356 B(  3-O ,  4-H ) :   0.8447
B(  3-O ,  5-H ) :   0.8270 B(  6-O ,  7-H ) :   0.8073 B(  6-O ,  8-H ) :   0.8289
B(  9-O , 10-H ) :   0.7999 B(  9-O , 11-H ) :   0.8324 B( 12-O , 13-H ) :   0.8462
B( 12-O , 14-H ) :   0.7690 B( 15-O , 16-H ) :   0.8403 B( 15-O , 17-H ) :   0.8278

MP2 TOTAL ENERGY:     -457.914007885 Eh
FINAL SINGLE POINT ENERGY      -457.914007884773

DIPOLE MOMENT
-------------
                                X             Y             Z
Electronic contribution:     -0.18995       0.36211      -0.12616
Nuclear contribution   :     -0.14541      -0.22520      -1.40687
                        -----------------------------------------
Total Dipole Moment    :     -0.33537       0.13691      -1.53303
                        -----------------------------------------
Magnitude (a.u.)       :      1.57524
Magnitude (Debye)      :      4.00395

Rotational constants in cm-1:     0.042627     0.030555     0.023127
Rotational constants in MHz :  1277.938766   916.024209   693.344224

                             ****ORCA TERMINATED NORMALLY****
TOTAL RUN TIME: 0 days 0 hours 0 minutes 58 seconds 950 msec
