                         Program Version 4.2.0 -  RELEASE  -
|  1> # 12meoh.boyd.etal.mol0,7,8
|  2> ! MP2 def2-TZVP EnGrad TightSCF
|  3>
|  4> %pal
|  5>     nprocs 6
|  6> end
|  7>
|  8> %maxcore 8000
|  9>
| 10> %scf
| 11>     ConvForced true
| 12> end
| 13>
| 14> *xyz 0 1
| 15> O  -1.776108874  -2.741384797  -1.019308298
| 16> H  -2.520094035  -2.452295987  -0.420778302
| 17> C  -2.174025166  -3.952700964  -1.647004581
| 18> H  -1.359803895  -4.272673416  -2.304149236
| 19> H  -3.075973971  -3.808692420  -2.256751112
| 20> H  -2.370225393  -4.752784761  -0.918966137
| 21> O   4.310535586  -1.588322800   0.656128299
| 22> H   3.804372199  -1.630404735  -0.196849819
| 23> C   4.312298137  -2.894980854   1.222112691
| 24> H   4.713177833  -2.819907076   2.237066773
| 25> H   4.957796734  -3.574699304   0.648211180
| 26> H   3.302735989  -3.324433205   1.269756773
| 27> O   3.570084754   2.361662577  -0.202416728
| 28> H   3.393280933   1.755669977   0.560634073
| 29> C   4.368082883   1.644741793  -1.143112807
| 30> H   4.552851717   2.311801738  -1.989632421
| 31> H   3.862427494   0.740851663  -1.508095690
| 32> H   5.333949674   1.357289092  -0.706288100
| 33> *
| 34>
| 35>                          ****END OF INPUT****

CARTESIAN COORDINATES (ANGSTROEM)
---------------------------------
  O     -1.776109   -2.741385   -1.019308
  H     -2.520094   -2.452296   -0.420778
  C     -2.174025   -3.952701   -1.647005
  H     -1.359804   -4.272673   -2.304149
  H     -3.075974   -3.808692   -2.256751
  H     -2.370225   -4.752785   -0.918966
  O      4.310536   -1.588323    0.656128
  H      3.804372   -1.630405   -0.196850
  C      4.312298   -2.894981    1.222113
  H      4.713178   -2.819907    2.237067
  H      4.957797   -3.574699    0.648211
  H      3.302736   -3.324433    1.269757
  O      3.570085    2.361663   -0.202417
  H      3.393281    1.755670    0.560634
  C      4.368083    1.644742   -1.143113
  H      4.552852    2.311802   -1.989632
  H      3.862427    0.740852   -1.508096
  H      5.333950    1.357289   -0.706288

 Total Charge           Charge          ....    0
 Multiplicity           Mult            ....    1
 Number of Electrons    NEL             ....   54
 Basis Dimension        Dim             ....  258

ORBITAL ENERGIES
----------------

  NO   OCC          E(Eh)            E(eV)
   0   2.0000     -20.563033      -559.5486
   1   2.0000     -20.562170      -559.5251
   2   2.0000     -20.545946      -559.0836
   3   2.0000     -11.275533      -306.8229
   4   2.0000     -11.274970      -306.8075
   5   2.0000     -11.262193      -306.4599
   6   2.0000      -1.352514       -36.8038
   7   2.0000      -1.351308       -36.7709
   8   2.0000      -1.335509       -36.3411
   9   2.0000      -0.923450       -25.1284
  10   2.0000      -0.923136       -25.1198
  11   2.0000      -0.909821       -24.7575
  12   2.0000      -0.686845       -18.6900
  13   2.0000      -0.685732       -18.6597
  14   2.0000      -0.670891       -18.2559
  15   2.0000      -0.621328       -16.9072
  16   2.0000      -0.620911       -16.8959
  17   2.0000      -0.606850       -16.5132
  18   2.0000      -0.595695       -16.2097
  19   2.0000      -0.595434       -16.2026
  20   2.0000      -0.579311       -15.7639
  21   2.0000      -0.505544       -13.7566
  22   2.0000      -0.504503       -13.7282
  23   2.0000      -0.491350       -13.3703
  24   2.0000      -0.453904       -12.3514
  25   2.0000      -0.453052       -12.3282
  26   2.0000      -0.439198       -11.9512
  27   0.0000       0.121928         3.3178
  28   0.0000       0.131435         3.5765
  29   0.0000       0.156554         4.2601
  30   0.0000       0.172130         4.6839
  31   0.0000       0.179212         4.8766

MULLIKEN ATOMIC CHARGES
-----------------------
   0 O :   -0.497607
   1 H :    0.323265
   2 C :   -0.173603
   3 H :    0.127317
   4 H :    0.111174
   5 H :    0.109470
   6 O :   -0.499561
   7 H :    0.325913
   8 C :   -0.180466
   9 H :    0.130183
  10 H :    0.111284
  11 H :    0.117144
  12 O :   -0.504122
  13 H :    0.326792
  14 C :   -0.159764
  15 H :    0.128154
  16 H :    0.085023
  17 H :    0.119403
Sum of atomic charges:   -0.0000000

LOEWDIN ATOMIC CHARGES
----------------------
   0 O :   -0.109734
   1 H :    0.193240
   2 C :   -0.384429
   3 H :    0.109829
   4 H :    0.095842
   5 H :    0.095261
   6 O :   -0.111176
   7 H :    0.189843
   8 C :   -0.378869
   9 H :    0.110300
  10 H :    0.096372
  11 H :    0.097899
  12 O :   -0.111340
  13 H :    0.189488
  14 C :   -0.379190
  15 H :    0.108618
  16 H :    0.089186
  17 H :    0.098859

  Mayer bond orders larger than 0.100000
B(  0-O ,  1-H ) :   0.8409 B(  0-O ,  2-C ) :   0.9265 B(  2-C ,  3-H ) :   0.9376
B(  2-C ,  4-H ) :   0.9399 B(  2-C ,  5-H ) :   0.9380 B(  6-O ,  7-H ) :   0.8384
B(  6-O ,  8-C ) :   0.9198 B(  8-C ,  9-H ) :   0.9385 B(  8-C , 10-H ) :   0.9381
B(  8-C , 11-H ) :   0.9397 B( 12-O , 13-H ) :   0.8398 B( 12-O , 14-C ) :   0.9286
B( 14-C , 15-H ) :   0.9365 B( 14-C , 16-H ) :   0.9401 B( 14-C , 17-H ) :   0.9406

MP2 TOTAL ENERGY:     -346.522830244 Eh
FINAL SINGLE POINT ENERGY      -346.522830244264

DIPOLE MOMENT
-------------
                                X             Y             Z
Electronic contribution:     -0.29238       4.17809       1.26116
Nuclear contribution   :     -0.42288      -5.75762      -1.30844
                        -----------------------------------------
Total Dipole Moment    :     -0.71526      -1.57953      -0.04727
                        -----------------------------------------
Magnitude (a.u.)       :      1.73457
Magnitude (Debye)      :      4.40893

Rotational constants in cm-1:     0.049628     0.014683     0.011759
Rotational constants in MHz :  1487.818007   440.197071   352.534182

                             ****ORCA TERMINATED NORMALLY****
TOTAL RUN TIME: 0 days 0 hours 0 minutes 51 seconds 639 msec
