                         Program Version 4.2.0 -  RELEASE  -
|  1> # 12mecn.remya.etal.2.mol5,7,9
|  2> ! MP2 def2-TZVP EnGrad TightSCF
|  3>
|  4> %pal
|  5>     nprocs 6
|  6> end
|  7>
|  8> %maxcore 8000
|  9>
| 10> %scf
| 11>     ConvForced true
| 12> end
| 13>
| 14> *xyz 0 1
| 15> C  -1.955700000   2.515080000   1.698463000
| 16> H  -2.923830000   2.883163000   2.049269000
| 17> H  -1.154850000   3.171830000   2.050990000
| 18> H  -1.790380000   1.506115000   2.087896000
| 19> C  -1.948230000   2.482156000   0.253672000
| 20> N  -1.937550000   2.462523000  -0.913150000
| 21> C   1.502241000   0.651296000   1.710523000
| 22> H   1.309219000   1.637164000   2.143202000
| 23> H   2.493408000   0.297996000   2.009069000
| 24> H   0.746597000  -0.059850000   2.055508000
| 25> C   1.447974000   0.738517000   0.269805000
| 26> N   1.405612000   0.808047000  -0.894380000
| 27> C   0.923766000   4.000693000  -1.575910000
| 28> H   0.011949000   4.478423000  -1.939550000
| 29> H   0.947903000   2.966558000  -1.929960000
| 30> H   1.805950000   4.519548000  -1.956520000
| 31> C   0.942834000   3.994846000  -0.131200000
| 32> N   0.960035000   3.982544000   1.035639000
| 33> *
| 34>
| 35>                          ****END OF INPUT****

CARTESIAN COORDINATES (ANGSTROEM)
---------------------------------
  C     -1.955700    2.515080    1.698463
  H     -2.923830    2.883163    2.049269
  H     -1.154850    3.171830    2.050990
  H     -1.790380    1.506115    2.087896
  C     -1.948230    2.482156    0.253672
  N     -1.937550    2.462523   -0.913150
  C      1.502241    0.651296    1.710523
  H      1.309219    1.637164    2.143202
  H      2.493408    0.297996    2.009069
  H      0.746597   -0.059850    2.055508
  C      1.447974    0.738517    0.269805
  N      1.405612    0.808047   -0.894380
  C      0.923766    4.000693   -1.575910
  H      0.011949    4.478423   -1.939550
  H      0.947903    2.966558   -1.929960
  H      1.805950    4.519548   -1.956520
  C      0.942834    3.994846   -0.131200
  N      0.960035    3.982544    1.035639

 Total Charge           Charge          ....    0
 Multiplicity           Mult            ....    1
 Number of Electrons    NEL             ....   66
 Basis Dimension        Dim             ....  333

ORBITAL ENERGIES
----------------

  NO   OCC          E(Eh)            E(eV)
   0   2.0000     -15.570943      -423.7069
   1   2.0000     -15.568896      -423.6512
   2   2.0000     -15.568321      -423.6356
   3   2.0000     -11.284606      -307.0697
   4   2.0000     -11.281182      -306.9766
   5   2.0000     -11.278814      -306.9121
   6   2.0000     -11.278205      -306.8956
   7   2.0000     -11.275790      -306.8298
   8   2.0000     -11.260054      -306.4016
   9   2.0000      -1.218403       -33.1544
  10   2.0000      -1.213502       -33.0211
  11   2.0000      -1.211152       -32.9571
  12   2.0000      -1.041179       -28.3319
  13   2.0000      -1.037063       -28.2199
  14   2.0000      -1.026627       -27.9359
  15   2.0000      -0.697359       -18.9761
  16   2.0000      -0.693426       -18.8691
  17   2.0000      -0.685416       -18.6511
  18   2.0000      -0.636803       -17.3283
  19   2.0000      -0.631052       -17.1718
  20   2.0000      -0.627175       -17.0663
  21   2.0000      -0.621550       -16.9132
  22   2.0000      -0.611715       -16.6456
  23   2.0000      -0.609659       -16.5897
  24   2.0000      -0.559188       -15.2163
  25   2.0000      -0.554489       -15.0884
  26   2.0000      -0.553144       -15.0518
  27   2.0000      -0.464509       -12.6399
  28   2.0000      -0.460019       -12.5177
  29   2.0000      -0.458284       -12.4705
  30   2.0000      -0.453796       -12.3484
  31   2.0000      -0.452574       -12.3152
  32   2.0000      -0.448484       -12.2039
  33   0.0000       0.111942         3.0461
  34   0.0000       0.148312         4.0358
  35   0.0000       0.155241         4.2243
  36   0.0000       0.160110         4.3568
  37   0.0000       0.165507         4.5037

MULLIKEN ATOMIC CHARGES
-----------------------
   0 C :   -0.297527
   1 H :    0.176129
   2 H :    0.203047
   3 H :    0.158088
   4 C :   -0.127372
   5 N :   -0.114027
   6 C :   -0.296212
   7 H :    0.198435
   8 H :    0.177106
   9 H :    0.164402
  10 C :   -0.106304
  11 N :   -0.135229
  12 C :   -0.269364
  13 H :    0.173722
  14 H :    0.210908
  15 H :    0.166090
  16 C :   -0.087293
  17 N :   -0.194599
Sum of atomic charges:    0.0000000

LOEWDIN ATOMIC CHARGES
----------------------
   0 C :   -0.287523
   1 H :    0.151779
   2 H :    0.155255
   3 H :    0.148439
   4 C :   -0.216330
   5 N :    0.047515
   6 C :   -0.285465
   7 H :    0.154075
   8 H :    0.153874
   9 H :    0.149790
  10 C :   -0.211928
  11 N :    0.044112
  12 C :   -0.282370
  13 H :    0.154402
  14 H :    0.160841
  15 H :    0.149525
  16 C :   -0.201127
  17 N :    0.015135

  Mayer bond orders larger than 0.100000
B(  0-C ,  1-H ) :   0.9117 B(  0-C ,  2-H ) :   0.9078 B(  0-C ,  3-H ) :   0.9194
B(  0-C ,  4-C ) :   0.8935 B(  4-C ,  5-N ) :   2.7958 B(  6-C ,  7-H ) :   0.9062
B(  6-C ,  8-H ) :   0.9103 B(  6-C ,  9-H ) :   0.9227 B(  6-C , 10-C ) :   0.8944
B( 10-C , 11-N ) :   2.7603 B( 12-C , 13-H ) :   0.9114 B( 12-C , 14-H ) :   0.8988
B( 12-C , 15-H ) :   0.9088 B( 12-C , 16-C ) :   0.9107 B( 16-C , 17-N ) :   2.7221

MP2 TOTAL ENERGY:     -397.466584658 Eh
FINAL SINGLE POINT ENERGY      -397.466584658014

DIPOLE MOMENT
-------------
                                X             Y             Z
Electronic contribution:     -0.03698       0.14237      -3.25567
Nuclear contribution   :      0.09371      -0.20941       4.61120
                        -----------------------------------------
Total Dipole Moment    :      0.05674      -0.06704       1.35552
                        -----------------------------------------
Magnitude (a.u.)       :      1.35837
Magnitude (Debye)      :      3.45269

Rotational constants in cm-1:     0.045439     0.038484     0.030859
Rotational constants in MHz :  1362.234115  1153.719323   925.135792

                             ****ORCA TERMINATED NORMALLY****
TOTAL RUN TIME: 0 days 0 hours 4 minutes 49 seconds 75 msec
