                         Program Version 4.2.0 -  RELEASE  -
|  1> # 12h2o.su.etal.mol1,3,4,5,6,7,9,11
|  2> ! MP2 def2-TZVP EnGrad TightSCF
|  3>
|  4> %pal
|  5>     nprocs 6
|  6> end
|  7>
|  8> %maxcore 8000
|  9>
| 10> %scf
| 11>     ConvForced true
| 12> end
| 13>
| 14> *xyz 0 1
| 15> O  -1.794470000  -0.923410000   2.768350000
| 16> H  -2.338250000  -1.359750000   3.430940000
| 17> H  -0.879480000  -1.303000000   2.865760000
| 18> O  -1.752130000  -0.741530000  -2.896280000
| 19> H  -2.036450000  -0.920500000  -1.984040000
| 20> H  -0.921210000  -1.242140000  -2.984230000
| 21> O  -0.885520000   1.737840000   0.052730000
| 22> H  -1.032320000   2.090180000  -0.841890000
| 23> H  -1.284090000   0.839590000   0.017130000
| 24> O   0.885520000  -1.737840000   0.052730000
| 25> H   1.284090000  -0.839590000   0.017130000
| 26> H   1.032320000  -2.090180000  -0.841890000
| 27> O   1.737840000   0.885520000  -0.052730000
| 28> H   2.090180000   1.032320000   0.841890000
| 29> H   0.839590000   1.284090000  -0.017130000
| 30> O  -1.737840000  -0.885520000  -0.052730000
| 31> H  -2.090180000  -1.032320000   0.841890000
| 32> H  -0.839590000  -1.284090000  -0.017130000
| 33> O   0.741530000  -1.752130000   2.896280000
| 34> H   0.920500000  -2.036450000   1.984040000
| 35> H   1.242140000  -0.921210000   2.984230000
| 36> O  -0.741530000   1.752130000   2.896280000
| 37> H  -0.920500000   2.036450000   1.984040000
| 38> H  -1.242140000   0.921210000   2.984230000
| 39> *
| 40>
| 41>                          ****END OF INPUT****

CARTESIAN COORDINATES (ANGSTROEM)
---------------------------------
  O     -1.794470   -0.923410    2.768350
  H     -2.338250   -1.359750    3.430940
  H     -0.879480   -1.303000    2.865760
  O     -1.752130   -0.741530   -2.896280
  H     -2.036450   -0.920500   -1.984040
  H     -0.921210   -1.242140   -2.984230
  O     -0.885520    1.737840    0.052730
  H     -1.032320    2.090180   -0.841890
  H     -1.284090    0.839590    0.017130
  O      0.885520   -1.737840    0.052730
  H      1.284090   -0.839590    0.017130
  H      1.032320   -2.090180   -0.841890
  O      1.737840    0.885520   -0.052730
  H      2.090180    1.032320    0.841890
  H      0.839590    1.284090   -0.017130
  O     -1.737840   -0.885520   -0.052730
  H     -2.090180   -1.032320    0.841890
  H     -0.839590   -1.284090   -0.017130
  O      0.741530   -1.752130    2.896280
  H      0.920500   -2.036450    1.984040
  H      1.242140   -0.921210    2.984230
  O     -0.741530    1.752130    2.896280
  H     -0.920500    2.036450    1.984040
  H     -1.242140    0.921210    2.984230

 Total Charge           Charge          ....    0
 Multiplicity           Mult            ....    1
 Number of Electrons    NEL             ....   80
 Basis Dimension        Dim             ....  344

ORBITAL ENERGIES
----------------

  NO   OCC          E(Eh)            E(eV)
   0   2.0000     -20.606069      -560.7197
   1   2.0000     -20.594048      -560.3925
   2   2.0000     -20.581521      -560.0516
   3   2.0000     -20.580866      -560.0338
   4   2.0000     -20.574033      -559.8479
   5   2.0000     -20.571876      -559.7892
   6   2.0000     -20.547502      -559.1260
   7   2.0000     -20.519353      -558.3600
   8   2.0000      -1.400329       -38.1049
   9   2.0000      -1.383494       -37.6468
  10   2.0000      -1.376386       -37.4534
  11   2.0000      -1.366513       -37.1847
  12   2.0000      -1.357902       -36.9504
  13   2.0000      -1.351373       -36.7727
  14   2.0000      -1.328884       -36.1608
  15   2.0000      -1.304299       -35.4918
  16   2.0000      -0.761830       -20.7305
  17   2.0000      -0.742497       -20.2044
  18   2.0000      -0.741355       -20.1733
  19   2.0000      -0.737000       -20.0548
  20   2.0000      -0.734414       -19.9844
  21   2.0000      -0.732081       -19.9209
  22   2.0000      -0.698761       -19.0143
  23   2.0000      -0.682956       -18.5842
  24   2.0000      -0.660087       -17.9619
  25   2.0000      -0.628665       -17.1068
  26   2.0000      -0.622879       -16.9494
  27   2.0000      -0.616837       -16.7850
  28   2.0000      -0.599310       -16.3081
  29   2.0000      -0.589198       -16.0329
  30   2.0000      -0.566623       -15.4186
  31   2.0000      -0.550834       -14.9890
  32   2.0000      -0.542253       -14.7555
  33   2.0000      -0.533242       -14.5103
  34   2.0000      -0.528838       -14.3904
  35   2.0000      -0.524722       -14.2784
  36   2.0000      -0.519619       -14.1396
  37   2.0000      -0.514797       -14.0083
  38   2.0000      -0.493681       -13.4337
  39   2.0000      -0.469254       -12.7691
  40   0.0000       0.083263         2.2657
  41   0.0000       0.114697         3.1211
  42   0.0000       0.137874         3.7517
  43   0.0000       0.145181         3.9506
  44   0.0000       0.191282         5.2050

MULLIKEN ATOMIC CHARGES
-----------------------
   0 O :   -0.756172
   1 H :    0.353307
   2 H :    0.386759
   3 O :   -0.691625
   4 H :    0.375475
   5 H :    0.312454
   6 O :   -0.744561
   7 H :    0.365134
   8 H :    0.377649
   9 O :   -0.742816
  10 H :    0.371203
  11 H :    0.361368
  12 O :   -0.715550
  13 H :    0.350372
  14 H :    0.377446
  15 O :   -0.754515
  16 H :    0.388942
  17 H :    0.353662
  18 O :   -0.697732
  19 H :    0.390681
  20 H :    0.353442
  21 O :   -0.733086
  22 H :    0.367829
  23 H :    0.350333
Sum of atomic charges:   -0.0000000

LOEWDIN ATOMIC CHARGES
----------------------
   0 O :   -0.314362
   1 H :    0.160743
   2 H :    0.147005
   3 O :   -0.338216
   4 H :    0.151371
   5 H :    0.154372
   6 O :   -0.294242
   7 H :    0.173222
   8 H :    0.146682
   9 O :   -0.297466
  10 H :    0.146102
  11 H :    0.171625
  12 O :   -0.305849
  13 H :    0.166132
  14 H :    0.146761
  15 O :   -0.300122
  16 H :    0.154173
  17 H :    0.138836
  18 O :   -0.271424
  19 H :    0.159139
  20 H :    0.171770
  21 O :   -0.355692
  22 H :    0.148069
  23 H :    0.141375

  Mayer bond orders larger than 0.100000
B(  0-O ,  1-H ) :   0.8389 B(  0-O ,  2-H ) :   0.7405 B(  3-O ,  4-H ) :   0.8145
B(  3-O ,  5-H ) :   0.8659 B(  6-O ,  7-H ) :   0.8294 B(  6-O ,  8-H ) :   0.7516
B(  6-O , 14-H ) :   0.1021 B(  8-H , 15-O ) :   0.1010 B(  9-O , 10-H ) :   0.7421
B(  9-O , 11-H ) :   0.8335 B( 10-H , 12-O ) :   0.1262 B( 12-O , 13-H ) :   0.8404
B( 12-O , 14-H ) :   0.7612 B( 15-O , 16-H ) :   0.7892 B( 15-O , 17-H ) :   0.7732
B( 18-O , 19-H ) :   0.8002 B( 18-O , 20-H ) :   0.8351 B( 21-O , 22-H ) :   0.8251
B( 21-O , 23-H ) :   0.8220

MP2 TOTAL ENERGY:     -610.600505007 Eh
FINAL SINGLE POINT ENERGY      -610.600505006539

DIPOLE MOMENT
-------------
                                X             Y             Z
Electronic contribution:      0.04531       0.01479       0.09268
Nuclear contribution   :      0.76395      -1.24480      -0.05351
                        -----------------------------------------
Total Dipole Moment    :      0.80926      -1.23001       0.03917
                        -----------------------------------------
Magnitude (a.u.)       :      1.47288
Magnitude (Debye)      :      3.74376

Rotational constants in cm-1:     0.033413     0.022253     0.021306
Rotational constants in MHz :  1001.706611   667.116806   638.737828

                             ****ORCA TERMINATED NORMALLY****
TOTAL RUN TIME: 0 days 0 hours 3 minutes 27 seconds 654 msec
