                         Program Version 4.2.0 -  RELEASE  -
|  1> # 12mecn.remya.etal.2.mol8,10
|  2> ! MP2 def2-TZVP EnGrad TightSCF
|  3>
|  4> %pal
|  5>     nprocs 6
|  6> end
|  7>
|  8> %maxcore 8000
|  9>
| 10> %scf
| 11>     ConvForced true
| 12> end
| 13>
| 14> *xyz 0 1
| 15> C   1.912641000  -2.468050000  -1.750510000
| 16> H   2.876947000  -2.793500000  -2.151200000
| 17> H   1.688016000  -1.463720000  -2.122170000
| 18> H   1.123460000  -3.154780000  -2.069590000
| 19> C   1.977850000  -2.444240000  -0.306900000
| 20> N   2.036566000  -2.426130000   0.858249000
| 21> C   4.602033000   0.321019000  -1.784800000
| 22> H   4.827650000  -0.662160000  -2.207910000
| 23> H   5.320558000   1.057980000  -2.148500000
| 24> H   3.601982000   0.643751000  -2.087520000
| 25> C   4.654967000   0.244048000  -0.343060000
| 26> N   4.691648000   0.166590000   0.820757000
| 27> *
| 28>
| 29>                          ****END OF INPUT****

CARTESIAN COORDINATES (ANGSTROEM)
---------------------------------
  C      1.912641   -2.468050   -1.750510
  H      2.876947   -2.793500   -2.151200
  H      1.688016   -1.463720   -2.122170
  H      1.123460   -3.154780   -2.069590
  C      1.977850   -2.444240   -0.306900
  N      2.036566   -2.426130    0.858249
  C      4.602033    0.321019   -1.784800
  H      4.827650   -0.662160   -2.207910
  H      5.320558    1.057980   -2.148500
  H      3.601982    0.643751   -2.087520
  C      4.654967    0.244048   -0.343060
  N      4.691648    0.166590    0.820757

 Total Charge           Charge          ....    0
 Multiplicity           Mult            ....    1
 Number of Electrons    NEL             ....   44
 Basis Dimension        Dim             ....  222

ORBITAL ENERGIES
----------------

  NO   OCC          E(Eh)            E(eV)
   0   2.0000     -15.571915      -423.7333
   1   2.0000     -15.571900      -423.7329
   2   2.0000     -11.290311      -307.2250
   3   2.0000     -11.289999      -307.2165
   4   2.0000     -11.276714      -306.8550
   5   2.0000     -11.276693      -306.8544
   6   2.0000      -1.212704       -32.9994
   7   2.0000      -1.211422       -32.9645
   8   2.0000      -1.048948       -28.5433
   9   2.0000      -1.046206       -28.4687
  10   2.0000      -0.704089       -19.1592
  11   2.0000      -0.701358       -19.0849
  12   2.0000      -0.643313       -17.5054
  13   2.0000      -0.639927       -17.4133
  14   2.0000      -0.634787       -17.2734
  15   2.0000      -0.629470       -17.1287
  16   2.0000      -0.553990       -15.0748
  17   2.0000      -0.551356       -15.0032
  18   2.0000      -0.462951       -12.5975
  19   2.0000      -0.457134       -12.4393
  20   2.0000      -0.454104       -12.3568
  21   2.0000      -0.447221       -12.1695
  22   0.0000       0.095030         2.5859
  23   0.0000       0.142537         3.8786
  24   0.0000       0.146769         3.9938
  25   0.0000       0.155472         4.2306
  26   0.0000       0.184942         5.0325

MULLIKEN ATOMIC CHARGES
-----------------------
   0 C :   -0.283329
   1 H :    0.166001
   2 H :    0.162552
   3 H :    0.182473
   4 C :   -0.155511
   5 N :   -0.072175
   6 C :   -0.284151
   7 H :    0.163683
   8 H :    0.182249
   9 H :    0.165214
  10 C :   -0.154638
  11 N :   -0.072367
Sum of atomic charges:    0.0000000

LOEWDIN ATOMIC CHARGES
----------------------
   0 C :   -0.288231
   1 H :    0.149732
   2 H :    0.148623
   3 H :    0.153471
   4 C :   -0.225020
   5 N :    0.061404
   6 C :   -0.288116
   7 H :    0.149256
   8 H :    0.152451
   9 H :    0.149804
  10 C :   -0.224799
  11 N :    0.061424

  Mayer bond orders larger than 0.100000
B(  0-C ,  1-H ) :   0.9226 B(  0-C ,  2-H ) :   0.9211 B(  0-C ,  3-H ) :   0.9110
B(  0-C ,  4-C ) :   0.8973 B(  4-C ,  5-N ) :   2.8262 B(  6-C ,  7-H ) :   0.9203
B(  6-C ,  8-H ) :   0.9115 B(  6-C ,  9-H ) :   0.9230 B(  6-C , 10-C ) :   0.8979
B( 10-C , 11-N ) :   2.8260

MP2 TOTAL ENERGY:     -264.963953544 Eh
FINAL SINGLE POINT ENERGY      -264.963953544169

DIPOLE MOMENT
-------------
                                X             Y             Z
Electronic contribution:      0.27355      -0.14278       6.38794
Nuclear contribution   :     -0.39336       0.21116      -9.26410
                        -----------------------------------------
Total Dipole Moment    :     -0.11980       0.06838      -2.87616
                        -----------------------------------------
Magnitude (a.u.)       :      2.87947
Magnitude (Debye)      :      7.31902

Rotational constants in cm-1:     0.154405     0.055743     0.041620
Rotational constants in MHz :  4628.932007  1671.129535  1247.726121

                             ****ORCA TERMINATED NORMALLY****
TOTAL RUN TIME: 0 days 0 hours 1 minutes 1 seconds 977 msec
