                         Program Version 4.2.0 -  RELEASE  -
|  1> # 12h2o.su.etal.mol3,4,6,7,8,11
|  2> ! MP2 def2-TZVP EnGrad TightSCF
|  3>
|  4> %pal
|  5>     nprocs 6
|  6> end
|  7>
|  8> %maxcore 8000
|  9>
| 10> %scf
| 11>     ConvForced true
| 12> end
| 13>
| 14> *xyz 0 1
| 15> O  -1.752130000  -0.741530000  -2.896280000
| 16> H  -2.036450000  -0.920500000  -1.984040000
| 17> H  -0.921210000  -1.242140000  -2.984230000
| 18> O  -0.885520000   1.737840000   0.052730000
| 19> H  -1.032320000   2.090180000  -0.841890000
| 20> H  -1.284090000   0.839590000   0.017130000
| 21> O   1.737840000   0.885520000  -0.052730000
| 22> H   2.090180000   1.032320000   0.841890000
| 23> H   0.839590000   1.284090000  -0.017130000
| 24> O  -1.737840000  -0.885520000  -0.052730000
| 25> H  -2.090180000  -1.032320000   0.841890000
| 26> H  -0.839590000  -1.284090000  -0.017130000
| 27> O   1.752130000   0.741530000  -2.896280000
| 28> H   2.036450000   0.920500000  -1.984040000
| 29> H   0.921210000   1.242140000  -2.984230000
| 30> O  -0.741530000   1.752130000   2.896280000
| 31> H  -0.920500000   2.036450000   1.984040000
| 32> H  -1.242140000   0.921210000   2.984230000
| 33> *
| 34>
| 35>                          ****END OF INPUT****

CARTESIAN COORDINATES (ANGSTROEM)
---------------------------------
  O     -1.752130   -0.741530   -2.896280
  H     -2.036450   -0.920500   -1.984040
  H     -0.921210   -1.242140   -2.984230
  O     -0.885520    1.737840    0.052730
  H     -1.032320    2.090180   -0.841890
  H     -1.284090    0.839590    0.017130
  O      1.737840    0.885520   -0.052730
  H      2.090180    1.032320    0.841890
  H      0.839590    1.284090   -0.017130
  O     -1.737840   -0.885520   -0.052730
  H     -2.090180   -1.032320    0.841890
  H     -0.839590   -1.284090   -0.017130
  O      1.752130    0.741530   -2.896280
  H      2.036450    0.920500   -1.984040
  H      0.921210    1.242140   -2.984230
  O     -0.741530    1.752130    2.896280
  H     -0.920500    2.036450    1.984040
  H     -1.242140    0.921210    2.984230

 Total Charge           Charge          ....    0
 Multiplicity           Mult            ....    1
 Number of Electrons    NEL             ....   60
 Basis Dimension        Dim             ....  258

ORBITAL ENERGIES
----------------

  NO   OCC          E(Eh)            E(eV)
   0   2.0000     -20.644712      -561.7712
   1   2.0000     -20.602255      -560.6159
   2   2.0000     -20.560216      -559.4719
   3   2.0000     -20.559119      -559.4421
   4   2.0000     -20.554640      -559.3202
   5   2.0000     -20.533235      -558.7377
   6   2.0000      -1.428277       -38.8654
   7   2.0000      -1.390055       -37.8253
   8   2.0000      -1.343895       -36.5692
   9   2.0000      -1.340577       -36.4789
  10   2.0000      -1.336503       -36.3681
  11   2.0000      -1.314436       -35.7676
  12   2.0000      -0.785099       -21.3636
  13   2.0000      -0.759536       -20.6680
  14   2.0000      -0.719296       -19.5730
  15   2.0000      -0.712760       -19.3952
  16   2.0000      -0.709563       -19.3082
  17   2.0000      -0.683514       -18.5994
  18   2.0000      -0.663214       -18.0470
  19   2.0000      -0.637131       -17.3372
  20   2.0000      -0.600299       -16.3350
  21   2.0000      -0.586795       -15.9675
  22   2.0000      -0.572123       -15.5683
  23   2.0000      -0.566365       -15.4116
  24   2.0000      -0.552455       -15.0331
  25   2.0000      -0.537581       -14.6283
  26   2.0000      -0.509092       -13.8531
  27   2.0000      -0.504800       -13.7363
  28   2.0000      -0.501200       -13.6384
  29   2.0000      -0.479054       -13.0357
  30   0.0000       0.063269         1.7216
  31   0.0000       0.113961         3.1010
  32   0.0000       0.133825         3.6416
  33   0.0000       0.152064         4.1379
  34   0.0000       0.181270         4.9326

MULLIKEN ATOMIC CHARGES
-----------------------
   0 O :   -0.697809
   1 H :    0.363387
   2 H :    0.338798
   3 O :   -0.732384
   4 H :    0.366623
   5 H :    0.367151
   6 O :   -0.733688
   7 H :    0.348369
   8 H :    0.353483
   9 O :   -0.713633
  10 H :    0.368127
  11 H :    0.378948
  12 O :   -0.697919
  13 H :    0.374516
  14 H :    0.316310
  15 O :   -0.683918
  16 H :    0.374356
  17 H :    0.309282
Sum of atomic charges:   -0.0000000

LOEWDIN ATOMIC CHARGES
----------------------
   0 O :   -0.335559
   1 H :    0.148307
   2 H :    0.164952
   3 O :   -0.291698
   4 H :    0.173559
   5 H :    0.144999
   6 O :   -0.342489
   7 H :    0.166965
   8 H :    0.140110
   9 O :   -0.273216
  10 H :    0.176414
  11 H :    0.188104
  12 O :   -0.339942
  13 H :    0.153679
  14 H :    0.153722
  15 O :   -0.333512
  16 H :    0.152266
  17 H :    0.153340

  Mayer bond orders larger than 0.100000
B(  0-O ,  1-H ) :   0.8311 B(  0-O ,  2-H ) :   0.8476 B(  3-O ,  4-H ) :   0.8289
B(  3-O ,  5-H ) :   0.7736 B(  6-O ,  7-H ) :   0.8426 B(  6-O ,  8-H ) :   0.7837
B(  9-O , 10-H ) :   0.8278 B(  9-O , 11-H ) :   0.8139 B( 12-O , 13-H ) :   0.8144
B( 12-O , 14-H ) :   0.8614 B( 15-O , 16-H ) :   0.8187 B( 15-O , 17-H ) :   0.8676

MP2 TOTAL ENERGY:     -457.917560236 Eh
FINAL SINGLE POINT ENERGY      -457.917560236288

DIPOLE MOMENT
-------------
                                X             Y             Z
Electronic contribution:     -0.11063      -0.01016      -0.09879
Nuclear contribution   :     -1.01960      -0.90936       1.46039
                        -----------------------------------------
Total Dipole Moment    :     -1.13023      -0.91953       1.36160
                        -----------------------------------------
Magnitude (a.u.)       :      1.99422
Magnitude (Debye)      :      5.06889

Rotational constants in cm-1:     0.053764     0.033001     0.023065
Rotational constants in MHz :  1611.799715   989.346759   691.483432

                             ****ORCA TERMINATED NORMALLY****
TOTAL RUN TIME: 0 days 0 hours 1 minutes 6 seconds 281 msec
