                         Program Version 4.2.0 -  RELEASE  -
|  1> # 12h2o.su.etal.mol1,2,3,4,8,9,10,11
|  2> ! MP2 def2-TZVP EnGrad TightSCF
|  3>
|  4> %pal
|  5>     nprocs 6
|  6> end
|  7>
|  8> %maxcore 8000
|  9>
| 10> %scf
| 11>     ConvForced true
| 12> end
| 13>
| 14> *xyz 0 1
| 15> O  -1.794470000  -0.923410000   2.768350000
| 16> H  -2.338250000  -1.359750000   3.430940000
| 17> H  -0.879480000  -1.303000000   2.865760000
| 18> O   0.923410000  -1.794470000  -2.768350000
| 19> H   1.359750000  -2.338250000  -3.430940000
| 20> H   1.303000000  -0.879480000  -2.865760000
| 21> O  -1.752130000  -0.741530000  -2.896280000
| 22> H  -2.036450000  -0.920500000  -1.984040000
| 23> H  -0.921210000  -1.242140000  -2.984230000
| 24> O  -0.885520000   1.737840000   0.052730000
| 25> H  -1.032320000   2.090180000  -0.841890000
| 26> H  -1.284090000   0.839590000   0.017130000
| 27> O   1.752130000   0.741530000  -2.896280000
| 28> H   2.036450000   0.920500000  -1.984040000
| 29> H   0.921210000   1.242140000  -2.984230000
| 30> O   0.741530000  -1.752130000   2.896280000
| 31> H   0.920500000  -2.036450000   1.984040000
| 32> H   1.242140000  -0.921210000   2.984230000
| 33> O  -0.923410000   1.794470000  -2.768350000
| 34> H  -1.359750000   2.338250000  -3.430940000
| 35> H  -1.303000000   0.879480000  -2.865760000
| 36> O  -0.741530000   1.752130000   2.896280000
| 37> H  -0.920500000   2.036450000   1.984040000
| 38> H  -1.242140000   0.921210000   2.984230000
| 39> *
| 40>
| 41>                          ****END OF INPUT****

CARTESIAN COORDINATES (ANGSTROEM)
---------------------------------
  O     -1.794470   -0.923410    2.768350
  H     -2.338250   -1.359750    3.430940
  H     -0.879480   -1.303000    2.865760
  O      0.923410   -1.794470   -2.768350
  H      1.359750   -2.338250   -3.430940
  H      1.303000   -0.879480   -2.865760
  O     -1.752130   -0.741530   -2.896280
  H     -2.036450   -0.920500   -1.984040
  H     -0.921210   -1.242140   -2.984230
  O     -0.885520    1.737840    0.052730
  H     -1.032320    2.090180   -0.841890
  H     -1.284090    0.839590    0.017130
  O      1.752130    0.741530   -2.896280
  H      2.036450    0.920500   -1.984040
  H      0.921210    1.242140   -2.984230
  O      0.741530   -1.752130    2.896280
  H      0.920500   -2.036450    1.984040
  H      1.242140   -0.921210    2.984230
  O     -0.923410    1.794470   -2.768350
  H     -1.359750    2.338250   -3.430940
  H     -1.303000    0.879480   -2.865760
  O     -0.741530    1.752130    2.896280
  H     -0.920500    2.036450    1.984040
  H     -1.242140    0.921210    2.984230

 Total Charge           Charge          ....    0
 Multiplicity           Mult            ....    1
 Number of Electrons    NEL             ....   80
 Basis Dimension        Dim             ....  344

ORBITAL ENERGIES
----------------

  NO   OCC          E(Eh)            E(eV)
   0   2.0000     -20.598771      -560.5211
   1   2.0000     -20.588906      -560.2526
   2   2.0000     -20.580942      -560.0359
   3   2.0000     -20.580758      -560.0309
   4   2.0000     -20.561353      -559.5029
   5   2.0000     -20.557377      -559.3947
   6   2.0000     -20.544887      -559.0548
   7   2.0000     -20.495461      -557.7098
   8   2.0000      -1.385129       -37.6913
   9   2.0000      -1.384559       -37.6758
  10   2.0000      -1.371563       -37.3221
  11   2.0000      -1.362278       -37.0695
  12   2.0000      -1.341454       -36.5028
  13   2.0000      -1.338031       -36.4097
  14   2.0000      -1.328913       -36.1616
  15   2.0000      -1.280569       -34.8461
  16   2.0000      -0.747891       -20.3512
  17   2.0000      -0.741121       -20.1669
  18   2.0000      -0.741091       -20.1661
  19   2.0000      -0.729953       -19.8630
  20   2.0000      -0.723600       -19.6902
  21   2.0000      -0.714215       -19.4348
  22   2.0000      -0.707647       -19.2561
  23   2.0000      -0.657683       -17.8965
  24   2.0000      -0.642457       -17.4821
  25   2.0000      -0.623499       -16.9663
  26   2.0000      -0.612770       -16.6743
  27   2.0000      -0.605854       -16.4861
  28   2.0000      -0.587863       -15.9966
  29   2.0000      -0.576684       -15.6924
  30   2.0000      -0.570006       -15.5106
  31   2.0000      -0.534869       -14.5545
  32   2.0000      -0.531498       -14.4628
  33   2.0000      -0.527076       -14.3425
  34   2.0000      -0.521338       -14.1863
  35   2.0000      -0.518776       -14.1166
  36   2.0000      -0.511932       -13.9304
  37   2.0000      -0.501614       -13.6496
  38   2.0000      -0.488381       -13.2895
  39   2.0000      -0.445807       -12.1310
  40   0.0000       0.087092         2.3699
  41   0.0000       0.118616         3.2277
  42   0.0000       0.137480         3.7410
  43   0.0000       0.142612         3.8807
  44   0.0000       0.161942         4.4067

MULLIKEN ATOMIC CHARGES
-----------------------
   0 O :   -0.739920
   1 H :    0.339955
   2 H :    0.377522
   3 O :   -0.748191
   4 H :    0.345687
   5 H :    0.379586
   6 O :   -0.704972
   7 H :    0.351269
   8 H :    0.382900
   9 O :   -0.710115
  10 H :    0.373394
  11 H :    0.325037
  12 O :   -0.708109
  13 H :    0.358738
  14 H :    0.379688
  15 O :   -0.687072
  16 H :    0.359166
  17 H :    0.372325
  18 O :   -0.758129
  19 H :    0.355578
  20 H :    0.382134
  21 O :   -0.738525
  22 H :    0.366787
  23 H :    0.345265
Sum of atomic charges:    0.0000000

LOEWDIN ATOMIC CHARGES
----------------------
   0 O :   -0.342118
   1 H :    0.155079
   2 H :    0.144637
   3 O :   -0.343232
   4 H :    0.157646
   5 H :    0.144807
   6 O :   -0.279410
   7 H :    0.168488
   8 H :    0.156230
   9 O :   -0.326039
  10 H :    0.150656
  11 H :    0.163133
  12 O :   -0.281860
  13 H :    0.173233
  14 H :    0.154126
  15 O :   -0.270535
  16 H :    0.175060
  17 H :    0.181105
  18 O :   -0.315051
  19 H :    0.161579
  20 H :    0.145433
  21 O :   -0.361474
  22 H :    0.148717
  23 H :    0.139790

  Mayer bond orders larger than 0.100000
B(  0-O ,  1-H ) :   0.8493 B(  0-O ,  2-H ) :   0.7664 B(  3-O ,  4-H ) :   0.8459
B(  3-O ,  5-H ) :   0.7480 B(  5-H , 12-O ) :   0.1104 B(  6-O ,  7-H ) :   0.8410
B(  6-O ,  8-H ) :   0.7764 B(  6-O , 20-H ) :   0.1128 B(  9-O , 10-H ) :   0.8059
B(  9-O , 11-H ) :   0.8492 B( 12-O , 13-H ) :   0.8359 B( 12-O , 14-H ) :   0.7897
B( 15-O , 16-H ) :   0.8366 B( 15-O , 17-H ) :   0.8235 B( 18-O , 19-H ) :   0.8377
B( 18-O , 20-H ) :   0.7341 B( 21-O , 22-H ) :   0.8243 B( 21-O , 23-H ) :   0.8220

MP2 TOTAL ENERGY:     -610.584768664 Eh
FINAL SINGLE POINT ENERGY      -610.584768663773

DIPOLE MOMENT
-------------
                                X             Y             Z
Electronic contribution:      0.31589      -0.04124      -0.13675
Nuclear contribution   :     -0.14496      -1.13354      -1.40687
                        -----------------------------------------
Total Dipole Moment    :      0.17092      -1.17478      -1.54362
                        -----------------------------------------
Magnitude (a.u.)       :      1.94733
Magnitude (Debye)      :      4.94972

Rotational constants in cm-1:     0.032340     0.014083     0.012424
Rotational constants in MHz :   969.542331   422.210699   372.456323

                             ****ORCA TERMINATED NORMALLY****
TOTAL RUN TIME: 0 days 0 hours 2 minutes 36 seconds 455 msec
