                         Program Version 4.2.0 -  RELEASE  -
|  1> # 12h2o.su.etal.mol0,3,6,7,8
|  2> ! MP2 def2-TZVP EnGrad TightSCF
|  3>
|  4> %pal
|  5>     nprocs 6
|  6> end
|  7>
|  8> %maxcore 8000
|  9>
| 10> %scf
| 11>     ConvForced true
| 12> end
| 13>
| 14> *xyz 0 1
| 15> O   1.794470000   0.923410000   2.768350000
| 16> H   2.338250000   1.359750000   3.430940000
| 17> H   0.879480000   1.303000000   2.865760000
| 18> O  -1.752130000  -0.741530000  -2.896280000
| 19> H  -2.036450000  -0.920500000  -1.984040000
| 20> H  -0.921210000  -1.242140000  -2.984230000
| 21> O   1.737840000   0.885520000  -0.052730000
| 22> H   2.090180000   1.032320000   0.841890000
| 23> H   0.839590000   1.284090000  -0.017130000
| 24> O  -1.737840000  -0.885520000  -0.052730000
| 25> H  -2.090180000  -1.032320000   0.841890000
| 26> H  -0.839590000  -1.284090000  -0.017130000
| 27> O   1.752130000   0.741530000  -2.896280000
| 28> H   2.036450000   0.920500000  -1.984040000
| 29> H   0.921210000   1.242140000  -2.984230000
| 30> *
| 31>
| 32>                          ****END OF INPUT****

CARTESIAN COORDINATES (ANGSTROEM)
---------------------------------
  O      1.794470    0.923410    2.768350
  H      2.338250    1.359750    3.430940
  H      0.879480    1.303000    2.865760
  O     -1.752130   -0.741530   -2.896280
  H     -2.036450   -0.920500   -1.984040
  H     -0.921210   -1.242140   -2.984230
  O      1.737840    0.885520   -0.052730
  H      2.090180    1.032320    0.841890
  H      0.839590    1.284090   -0.017130
  O     -1.737840   -0.885520   -0.052730
  H     -2.090180   -1.032320    0.841890
  H     -0.839590   -1.284090   -0.017130
  O      1.752130    0.741530   -2.896280
  H      2.036450    0.920500   -1.984040
  H      0.921210    1.242140   -2.984230

 Total Charge           Charge          ....    0
 Multiplicity           Mult            ....    1
 Number of Electrons    NEL             ....   50
 Basis Dimension        Dim             ....  215

ORBITAL ENERGIES
----------------

  NO   OCC          E(Eh)            E(eV)
   0   2.0000     -20.608897      -560.7966
   1   2.0000     -20.592885      -560.3609
   2   2.0000     -20.565243      -559.6087
   3   2.0000     -20.526071      -558.5428
   4   2.0000     -20.520356      -558.3873
   5   2.0000      -1.386865       -37.7385
   6   2.0000      -1.371199       -37.3122
   7   2.0000      -1.346348       -36.6360
   8   2.0000      -1.307924       -35.5904
   9   2.0000      -1.302081       -35.4314
  10   2.0000      -0.753803       -20.5120
  11   2.0000      -0.733380       -19.9563
  12   2.0000      -0.715326       -19.4650
  13   2.0000      -0.678607       -18.4658
  14   2.0000      -0.670503       -18.2453
  15   2.0000      -0.626137       -17.0380
  16   2.0000      -0.610559       -16.6142
  17   2.0000      -0.590923       -16.0798
  18   2.0000      -0.551777       -15.0146
  19   2.0000      -0.548691       -14.9306
  20   2.0000      -0.535301       -14.5663
  21   2.0000      -0.531928       -14.4745
  22   2.0000      -0.509624       -13.8676
  23   2.0000      -0.473864       -12.8945
  24   2.0000      -0.465646       -12.6709
  25   0.0000       0.078833         2.1451
  26   0.0000       0.113992         3.1019
  27   0.0000       0.149770         4.0754
  28   0.0000       0.158599         4.3157
  29   0.0000       0.186425         5.0729

MULLIKEN ATOMIC CHARGES
-----------------------
   0 O :   -0.694484
   1 H :    0.357371
   2 H :    0.351070
   3 O :   -0.701354
   4 H :    0.365424
   5 H :    0.330910
   6 O :   -0.710315
   7 H :    0.375880
   8 H :    0.329526
   9 O :   -0.698060
  10 H :    0.346733
  11 H :    0.355338
  12 O :   -0.704437
  13 H :    0.369414
  14 H :    0.326987
Sum of atomic charges:   -0.0000000

LOEWDIN ATOMIC CHARGES
----------------------
   0 O :   -0.310238
   1 H :    0.165929
   2 H :    0.184084
   3 O :   -0.340270
   4 H :    0.151100
   5 H :    0.160960
   6 O :   -0.325310
   7 H :    0.153561
   8 H :    0.165153
   9 O :   -0.319203
  10 H :    0.169165
  11 H :    0.177701
  12 O :   -0.342904
  13 H :    0.151369
  14 H :    0.158905

  Mayer bond orders larger than 0.100000
B(  0-O ,  1-H ) :   0.8390 B(  0-O ,  2-H ) :   0.8367 B(  3-O ,  4-H ) :   0.8253
B(  3-O ,  5-H ) :   0.8530 B(  6-O ,  7-H ) :   0.8072 B(  6-O ,  8-H ) :   0.8471
B(  9-O , 10-H ) :   0.8437 B(  9-O , 11-H ) :   0.8318 B( 12-O , 13-H ) :   0.8193
B( 12-O , 14-H ) :   0.8553

MP2 TOTAL ENERGY:     -381.587228230 Eh
FINAL SINGLE POINT ENERGY      -381.587228230190

DIPOLE MOMENT
-------------
                                X             Y             Z
Electronic contribution:      0.11767      -0.12498      -0.02564
Nuclear contribution   :     -0.30898       0.67915       3.55336
                        -----------------------------------------
Total Dipole Moment    :     -0.19132       0.55416       3.52772
                        -----------------------------------------
Magnitude (a.u.)       :      3.57610
Magnitude (Debye)      :      9.08973

Rotational constants in cm-1:     0.070370     0.033676     0.022976
Rotational constants in MHz :  2109.638553  1009.574641   688.807640

                             ****ORCA TERMINATED NORMALLY****
TOTAL RUN TIME: 0 days 0 hours 0 minutes 31 seconds 860 msec
