                         Program Version 4.2.0 -  RELEASE  -
|  1> # 12meoh.boyd.etal.mol3,4,8
|  2> ! MP2 def2-TZVP EnGrad TightSCF
|  3>
|  4> %pal
|  5>     nprocs 6
|  6> end
|  7>
|  8> %maxcore 8000
|  9>
| 10> %scf
| 11>     ConvForced true
| 12> end
| 13>
| 14> *xyz 0 1
| 15> O  -3.821405976  -2.118091637   0.596795346
| 16> H  -4.342989117  -1.344303030   0.251966383
| 17> C  -3.443883586  -1.809641231   1.934889393
| 18> H  -2.831494349  -2.637429600   2.305201764
| 19> H  -4.325601146  -1.719364371   2.585074667
| 20> H  -2.858527126  -0.882644791   1.996110694
| 21> O  -1.358578914   1.232360421   1.189721000
| 22> H  -1.058250183   1.216459361   0.238591307
| 23> C  -0.389763452   1.957872567   1.943072362
| 24> H  -0.747220771   2.012806578   2.975200343
| 25> H  -0.260410585   2.982763209   1.565366540
| 26> H   0.585220638   1.453754179   1.934070793
| 27> O   3.570084754   2.361662577  -0.202416728
| 28> H   3.393280933   1.755669977   0.560634073
| 29> C   4.368082883   1.644741793  -1.143112807
| 30> H   4.552851717   2.311801738  -1.989632421
| 31> H   3.862427494   0.740851663  -1.508095690
| 32> H   5.333949674   1.357289092  -0.706288100
| 33> *
| 34>
| 35>                          ****END OF INPUT****

CARTESIAN COORDINATES (ANGSTROEM)
---------------------------------
  O     -3.821406   -2.118092    0.596795
  H     -4.342989   -1.344303    0.251966
  C     -3.443884   -1.809641    1.934889
  H     -2.831494   -2.637430    2.305202
  H     -4.325601   -1.719364    2.585075
  H     -2.858527   -0.882645    1.996111
  O     -1.358579    1.232360    1.189721
  H     -1.058250    1.216459    0.238591
  C     -0.389763    1.957873    1.943072
  H     -0.747221    2.012807    2.975200
  H     -0.260411    2.982763    1.565367
  H      0.585221    1.453754    1.934071
  O      3.570085    2.361663   -0.202417
  H      3.393281    1.755670    0.560634
  C      4.368083    1.644742   -1.143113
  H      4.552852    2.311802   -1.989632
  H      3.862427    0.740852   -1.508096
  H      5.333950    1.357289   -0.706288

 Total Charge           Charge          ....    0
 Multiplicity           Mult            ....    1
 Number of Electrons    NEL             ....   54
 Basis Dimension        Dim             ....  258

ORBITAL ENERGIES
----------------

  NO   OCC          E(Eh)            E(eV)
   0   2.0000     -20.563975      -559.5742
   1   2.0000     -20.563352      -559.5573
   2   2.0000     -20.546439      -559.0970
   3   2.0000     -11.277061      -306.8644
   4   2.0000     -11.276204      -306.8411
   5   2.0000     -11.256263      -306.2985
   6   2.0000      -1.353291       -36.8249
   7   2.0000      -1.350912       -36.7602
   8   2.0000      -1.335263       -36.3343
   9   2.0000      -0.925451       -25.1828
  10   2.0000      -0.923823       -25.1385
  11   2.0000      -0.905387       -24.6368
  12   2.0000      -0.688198       -18.7268
  13   2.0000      -0.685643       -18.6573
  14   2.0000      -0.668792       -18.1987
  15   2.0000      -0.622811       -16.9475
  16   2.0000      -0.621699       -16.9173
  17   2.0000      -0.605301       -16.4711
  18   2.0000      -0.595683       -16.2094
  19   2.0000      -0.593822       -16.1587
  20   2.0000      -0.578085       -15.7305
  21   2.0000      -0.507545       -13.8110
  22   2.0000      -0.506268       -13.7763
  23   2.0000      -0.487523       -13.2662
  24   2.0000      -0.456039       -12.4094
  25   2.0000      -0.454778       -12.3751
  26   2.0000      -0.436194       -11.8694
  27   0.0000       0.109953         2.9920
  28   0.0000       0.137242         3.7346
  29   0.0000       0.155686         4.2364
  30   0.0000       0.166341         4.5264
  31   0.0000       0.179449         4.8831

MULLIKEN ATOMIC CHARGES
-----------------------
   0 O :   -0.504255
   1 H :    0.320444
   2 C :   -0.186813
   3 H :    0.119655
   4 H :    0.103331
   5 H :    0.138000
   6 O :   -0.498413
   7 H :    0.325826
   8 C :   -0.161964
   9 H :    0.129075
  10 H :    0.119863
  11 H :    0.094025
  12 O :   -0.497882
  13 H :    0.320138
  14 C :   -0.176412
  15 H :    0.131256
  16 H :    0.111072
  17 H :    0.113054
Sum of atomic charges:   -0.0000000

LOEWDIN ATOMIC CHARGES
----------------------
   0 O :   -0.113631
   1 H :    0.190063
   2 C :   -0.385552
   3 H :    0.107367
   4 H :    0.092995
   5 H :    0.099926
   6 O :   -0.109566
   7 H :    0.194413
   8 C :   -0.378491
   9 H :    0.110080
  10 H :    0.100090
  11 H :    0.091781
  12 O :   -0.110823
  13 H :    0.186010
  14 C :   -0.377883
  15 H :    0.110977
  16 H :    0.095695
  17 H :    0.096549

  Mayer bond orders larger than 0.100000
B(  0-O ,  1-H ) :   0.8437 B(  0-O ,  2-C ) :   0.9168 B(  2-C ,  3-H ) :   0.9380
B(  2-C ,  4-H ) :   0.9406 B(  2-C ,  5-H ) :   0.9308 B(  6-O ,  7-H ) :   0.8373
B(  6-O ,  8-C ) :   0.9181 B(  8-C ,  9-H ) :   0.9387 B(  8-C , 10-H ) :   0.9359
B(  8-C , 11-H ) :   0.9393 B( 12-O , 13-H ) :   0.8433 B( 12-O , 14-C ) :   0.9222
B( 14-C , 15-H ) :   0.9373 B( 14-C , 16-H ) :   0.9372 B( 14-C , 17-H ) :   0.9407

MP2 TOTAL ENERGY:     -346.523182698 Eh
FINAL SINGLE POINT ENERGY      -346.523182697500

DIPOLE MOMENT
-------------
                                X             Y             Z
Electronic contribution:     -2.60859      -0.32146      -1.43618
Nuclear contribution   :      3.31812       0.65382       1.54840
                        -----------------------------------------
Total Dipole Moment    :      0.70953       0.33235       0.11221
                        -----------------------------------------
Magnitude (a.u.)       :      0.79151
Magnitude (Debye)      :      2.01186

Rotational constants in cm-1:     0.108867     0.013215     0.012148
Rotational constants in MHz :  3263.750556   396.161354   364.189428

                             ****ORCA TERMINATED NORMALLY****
TOTAL RUN TIME: 0 days 0 hours 0 minutes 53 seconds 986 msec
