                         Program Version 4.2.0 -  RELEASE  -
|  1> # 12mecn.remya.etal.2.mol3,4
|  2> ! MP2 def2-TZVP EnGrad TightSCF
|  3>
|  4> %pal
|  5>     nprocs 6
|  6> end
|  7>
|  8> %maxcore 8000
|  9>
| 10> %scf
| 11>     ConvForced true
| 12> end
| 13>
| 14> *xyz 0 1
| 15> C  -5.181310000   2.853865000  -1.626100000
| 16> H  -5.488260000   3.811434000  -2.053310000
| 17> H  -5.857590000   2.068112000  -1.968630000
| 18> H  -4.170750000   2.611402000  -1.966640000
| 19> C  -5.187260000   2.919160000  -0.181450000
| 20> N  -5.181700000   2.970641000   0.983640000
| 21> C  -1.509690000  -0.693960000  -1.610140000
| 22> H  -1.327010000  -1.692700000  -2.017370000
| 23> H  -0.742170000  -0.000650000  -1.964400000
| 24> H  -2.491920000  -0.334310000  -1.929350000
| 25> C  -1.473570000  -0.748120000  -0.167200000
| 26> N  -1.447490000  -0.793720000   0.998938000
| 27> *
| 28>
| 29>                          ****END OF INPUT****

CARTESIAN COORDINATES (ANGSTROEM)
---------------------------------
  C     -5.181310    2.853865   -1.626100
  H     -5.488260    3.811434   -2.053310
  H     -5.857590    2.068112   -1.968630
  H     -4.170750    2.611402   -1.966640
  C     -5.187260    2.919160   -0.181450
  N     -5.181700    2.970641    0.983640
  C     -1.509690   -0.693960   -1.610140
  H     -1.327010   -1.692700   -2.017370
  H     -0.742170   -0.000650   -1.964400
  H     -2.491920   -0.334310   -1.929350
  C     -1.473570   -0.748120   -0.167200
  N     -1.447490   -0.793720    0.998938

 Total Charge           Charge          ....    0
 Multiplicity           Mult            ....    1
 Number of Electrons    NEL             ....   44
 Basis Dimension        Dim             ....  222

ORBITAL ENERGIES
----------------

  NO   OCC          E(Eh)            E(eV)
   0   2.0000     -15.574508      -423.8039
   1   2.0000     -15.574048      -423.7914
   2   2.0000     -11.289353      -307.1989
   3   2.0000     -11.289343      -307.1986
   4   2.0000     -11.280539      -306.9591
   5   2.0000     -11.280073      -306.9464
   6   2.0000      -1.215529       -33.0762
   7   2.0000      -1.214522       -33.0488
   8   2.0000      -1.047633       -28.5076
   9   2.0000      -1.047295       -28.4984
  10   2.0000      -0.704493       -19.1702
  11   2.0000      -0.702185       -19.1074
  12   2.0000      -0.637981       -17.3603
  13   2.0000      -0.636369       -17.3165
  14   2.0000      -0.635444       -17.2913
  15   2.0000      -0.634224       -17.2581
  16   2.0000      -0.556334       -15.1386
  17   2.0000      -0.555588       -15.1183
  18   2.0000      -0.459155       -12.4943
  19   2.0000      -0.458678       -12.4813
  20   2.0000      -0.457761       -12.4563
  21   2.0000      -0.457341       -12.4449
  22   0.0000       0.091411         2.4874
  23   0.0000       0.132913         3.6168
  24   0.0000       0.164476         4.4756
  25   0.0000       0.166675         4.5354
  26   0.0000       0.168769         4.5924

MULLIKEN ATOMIC CHARGES
-----------------------
   0 C :   -0.286067
   1 H :    0.176233
   2 H :    0.172921
   3 H :    0.163293
   4 C :   -0.143692
   5 N :   -0.082721
   6 C :   -0.280725
   7 H :    0.175252
   8 H :    0.172937
   9 H :    0.161699
  10 C :   -0.144089
  11 N :   -0.085041
Sum of atomic charges:   -0.0000000

LOEWDIN ATOMIC CHARGES
----------------------
   0 C :   -0.285823
   1 H :    0.152000
   2 H :    0.151066
   3 H :    0.149428
   4 C :   -0.220100
   5 N :    0.053397
   6 C :   -0.285245
   7 H :    0.153122
   8 H :    0.152354
   9 H :    0.149052
  10 C :   -0.221527
  11 N :    0.052275

  Mayer bond orders larger than 0.100000
B(  0-C ,  1-H ) :   0.9156 B(  0-C ,  2-H ) :   0.9179 B(  0-C ,  3-H ) :   0.9197
B(  0-C ,  4-C ) :   0.9011 B(  4-C ,  5-N ) :   2.8306 B(  6-C ,  7-H ) :   0.9162
B(  6-C ,  8-H ) :   0.9176 B(  6-C ,  9-H ) :   0.9197 B(  6-C , 10-C ) :   0.8996
B( 10-C , 11-N ) :   2.8305

MP2 TOTAL ENERGY:     -264.964663289 Eh
FINAL SINGLE POINT ENERGY      -264.964663289360

DIPOLE MOMENT
-------------
                                X             Y             Z
Electronic contribution:      0.05400       0.02991       6.30905
Nuclear contribution   :     -0.08811      -0.03974      -9.27896
                        -----------------------------------------
Total Dipole Moment    :     -0.03411      -0.00983      -2.96990
                        -----------------------------------------
Magnitude (a.u.)       :      2.97012
Magnitude (Debye)      :      7.54944

Rotational constants in cm-1:     0.154467     0.029984     0.025355
Rotational constants in MHz :  4630.811905   898.900001   760.116573

                             ****ORCA TERMINATED NORMALLY****
TOTAL RUN TIME: 0 days 0 hours 0 minutes 53 seconds 829 msec
