                         Program Version 4.2.0 -  RELEASE  -
|  1> # 12h2o.su.etal.mol1,3,11
|  2> ! MP2 def2-TZVP EnGrad TightSCF
|  3>
|  4> %pal
|  5>     nprocs 6
|  6> end
|  7>
|  8> %maxcore 8000
|  9>
| 10> %scf
| 11>     ConvForced true
| 12> end
| 13>
| 14> *xyz 0 1
| 15> O  -1.794470000  -0.923410000   2.768350000
| 16> H  -2.338250000  -1.359750000   3.430940000
| 17> H  -0.879480000  -1.303000000   2.865760000
| 18> O  -1.752130000  -0.741530000  -2.896280000
| 19> H  -2.036450000  -0.920500000  -1.984040000
| 20> H  -0.921210000  -1.242140000  -2.984230000
| 21> O  -0.741530000   1.752130000   2.896280000
| 22> H  -0.920500000   2.036450000   1.984040000
| 23> H  -1.242140000   0.921210000   2.984230000
| 24> *
| 25>
| 26>                          ****END OF INPUT****

CARTESIAN COORDINATES (ANGSTROEM)
---------------------------------
  O     -1.794470   -0.923410    2.768350
  H     -2.338250   -1.359750    3.430940
  H     -0.879480   -1.303000    2.865760
  O     -1.752130   -0.741530   -2.896280
  H     -2.036450   -0.920500   -1.984040
  H     -0.921210   -1.242140   -2.984230
  O     -0.741530    1.752130    2.896280
  H     -0.920500    2.036450    1.984040
  H     -1.242140    0.921210    2.984230

 Total Charge           Charge          ....    0
 Multiplicity           Mult            ....    1
 Number of Electrons    NEL             ....   30
 Basis Dimension        Dim             ....  129

ORBITAL ENERGIES
----------------

  NO   OCC          E(Eh)            E(eV)
   0   2.0000     -20.597176      -560.4776
   1   2.0000     -20.562886      -559.5446
   2   2.0000     -20.533706      -558.7505
   3   2.0000      -1.374792       -37.4100
   4   2.0000      -1.342165       -36.5222
   5   2.0000      -1.316182       -35.8151
   6   2.0000      -0.741942       -20.1893
   7   2.0000      -0.704943       -19.1825
   8   2.0000      -0.685946       -18.6655
   9   2.0000      -0.613419       -16.6920
  10   2.0000      -0.579565       -15.7708
  11   2.0000      -0.561176       -15.2704
  12   2.0000      -0.531496       -14.4627
  13   2.0000      -0.507011       -13.7965
  14   2.0000      -0.481364       -13.0986
  15   0.0000       0.102159         2.7799
  16   0.0000       0.127333         3.4649
  17   0.0000       0.167407         4.5554
  18   0.0000       0.180315         4.9066
  19   0.0000       0.198691         5.4066

MULLIKEN ATOMIC CHARGES
-----------------------
   0 O :   -0.696314
   1 H :    0.355445
   2 H :    0.360393
   3 O :   -0.674053
   4 H :    0.337853
   5 H :    0.336062
   6 O :   -0.704642
   7 H :    0.330406
   8 H :    0.354850
Sum of atomic charges:    0.0000000

LOEWDIN ATOMIC CHARGES
----------------------
   0 O :   -0.311437
   1 H :    0.164803
   2 H :    0.188236
   3 O :   -0.331946
   4 H :    0.165672
   5 H :    0.166194
   6 O :   -0.348492
   7 H :    0.160946
   8 H :    0.146024

  Mayer bond orders larger than 0.100000
B(  0-O ,  1-H ) :   0.8400 B(  0-O ,  2-H ) :   0.8308 B(  3-O ,  4-H ) :   0.8528
B(  3-O ,  5-H ) :   0.8537 B(  6-O ,  7-H ) :   0.8576 B(  6-O ,  8-H ) :   0.8211

MP2 TOTAL ENERGY:     -228.946558737 Eh
FINAL SINGLE POINT ENERGY      -228.946558736513

DIPOLE MOMENT
-------------
                                X             Y             Z
Electronic contribution:     -0.10716       0.08288      -0.07931
Nuclear contribution   :      0.19829      -1.69977       0.63259
                        -----------------------------------------
Total Dipole Moment    :      0.09113      -1.61689       0.55328
                        -----------------------------------------
Magnitude (a.u.)       :      1.71136
Magnitude (Debye)      :      4.34994

Rotational constants in cm-1:     0.229337     0.040697     0.034866
Rotational constants in MHz :  6875.356019  1220.053390  1045.244714

                             ****ORCA TERMINATED NORMALLY****
TOTAL RUN TIME: 0 days 0 hours 0 minutes 9 seconds 194 msec
