                         Program Version 4.2.0 -  RELEASE  -
|  1> # 12mecn.remya.etal.2.mol0,1,8
|  2> ! MP2 def2-TZVP EnGrad TightSCF
|  3>
|  4> %pal
|  5>     nprocs 6
|  6> end
|  7>
|  8> %maxcore 8000
|  9>
| 10> %scf
| 11>     ConvForced true
| 12> end
| 13>
| 14> *xyz 0 1
| 15> C  -0.869520000  -3.929380000   1.700199000
| 16> H  -0.057420000  -3.268850000   2.015352000
| 17> H  -0.697530000  -4.930670000   2.101524000
| 18> H  -1.821490000  -3.546590000   2.077146000
| 19> C  -0.916080000  -3.969960000   0.256749000
| 20> N  -0.955390000  -3.995980000  -0.909290000
| 21> C  -4.697980000  -0.249690000   1.746215000
| 22> H  -4.927570000   0.755530000   2.111799000
| 23> H  -3.709180000  -0.561560000   2.093253000
| 24> H  -5.432280000  -0.961520000   2.128066000
| 25> C  -4.714100000  -0.247110000   0.301670000
| 26> N  -4.729750000  -0.234960000  -0.865260000
| 27> C   1.912641000  -2.468050000  -1.750510000
| 28> H   2.876947000  -2.793500000  -2.151200000
| 29> H   1.688016000  -1.463720000  -2.122170000
| 30> H   1.123460000  -3.154780000  -2.069590000
| 31> C   1.977850000  -2.444240000  -0.306900000
| 32> N   2.036566000  -2.426130000   0.858249000
| 33> *
| 34>
| 35>                          ****END OF INPUT****

CARTESIAN COORDINATES (ANGSTROEM)
---------------------------------
  C     -0.869520   -3.929380    1.700199
  H     -0.057420   -3.268850    2.015352
  H     -0.697530   -4.930670    2.101524
  H     -1.821490   -3.546590    2.077146
  C     -0.916080   -3.969960    0.256749
  N     -0.955390   -3.995980   -0.909290
  C     -4.697980   -0.249690    1.746215
  H     -4.927570    0.755530    2.111799
  H     -3.709180   -0.561560    2.093253
  H     -5.432280   -0.961520    2.128066
  C     -4.714100   -0.247110    0.301670
  N     -4.729750   -0.234960   -0.865260
  C      1.912641   -2.468050   -1.750510
  H      2.876947   -2.793500   -2.151200
  H      1.688016   -1.463720   -2.122170
  H      1.123460   -3.154780   -2.069590
  C      1.977850   -2.444240   -0.306900
  N      2.036566   -2.426130    0.858249

 Total Charge           Charge          ....    0
 Multiplicity           Mult            ....    1
 Number of Electrons    NEL             ....   66
 Basis Dimension        Dim             ....  333

ORBITAL ENERGIES
----------------

  NO   OCC          E(Eh)            E(eV)
   0   2.0000     -15.573470      -423.7757
   1   2.0000     -15.571839      -423.7313
   2   2.0000     -15.570946      -423.7070
   3   2.0000     -11.286978      -307.1343
   4   2.0000     -11.283064      -307.0278
   5   2.0000     -11.282822      -307.0212
   6   2.0000     -11.279916      -306.9421
   7   2.0000     -11.275445      -306.8204
   8   2.0000     -11.270937      -306.6978
   9   2.0000      -1.217938       -33.1418
  10   2.0000      -1.214281       -33.0423
  11   2.0000      -1.213946       -33.0331
  12   2.0000      -1.045822       -28.4583
  13   2.0000      -1.038595       -28.2616
  14   2.0000      -1.033736       -28.1294
  15   2.0000      -0.701585       -19.0911
  16   2.0000      -0.696244       -18.9458
  17   2.0000      -0.690557       -18.7910
  18   2.0000      -0.636152       -17.3106
  19   2.0000      -0.632230       -17.2038
  20   2.0000      -0.631811       -17.1925
  21   2.0000      -0.625918       -17.0321
  22   2.0000      -0.620499       -16.8846
  23   2.0000      -0.615901       -16.7595
  24   2.0000      -0.559166       -15.2157
  25   2.0000      -0.556004       -15.1296
  26   2.0000      -0.555565       -15.1177
  27   2.0000      -0.459996       -12.5171
  28   2.0000      -0.459845       -12.5130
  29   2.0000      -0.457669       -12.4538
  30   2.0000      -0.457301       -12.4438
  31   2.0000      -0.456604       -12.4248
  32   2.0000      -0.455531       -12.3956
  33   0.0000       0.098403         2.6777
  34   0.0000       0.133514         3.6331
  35   0.0000       0.145242         3.9522
  36   0.0000       0.166489         4.5304
  37   0.0000       0.169847         4.6218

MULLIKEN ATOMIC CHARGES
-----------------------
   0 C :   -0.285440
   1 H :    0.204844
   2 H :    0.169583
   3 H :    0.156324
   4 C :   -0.101644
   5 N :   -0.144006
   6 C :   -0.281953
   7 H :    0.174735
   8 H :    0.166929
   9 H :    0.172500
  10 C :   -0.143762
  11 N :   -0.088468
  12 C :   -0.282939
  13 H :    0.166643
  14 H :    0.168825
  15 H :    0.205124
  16 C :   -0.105121
  17 N :   -0.152174
Sum of atomic charges:   -0.0000000

LOEWDIN ATOMIC CHARGES
----------------------
   0 C :   -0.283196
   1 H :    0.156843
   2 H :    0.152337
   3 H :    0.147720
   4 C :   -0.209223
   5 N :    0.035744
   6 C :   -0.284652
   7 H :    0.153451
   8 H :    0.150707
   9 H :    0.151312
  10 C :   -0.220429
  11 N :    0.049583
  12 C :   -0.281493
  13 H :    0.151133
  14 H :    0.153977
  15 H :    0.157404
  16 C :   -0.208217
  17 N :    0.026999

  Mayer bond orders larger than 0.100000
B(  0-C ,  1-H ) :   0.9024 B(  0-C ,  2-H ) :   0.9149 B(  0-C ,  3-H ) :   0.9195
B(  0-C ,  4-C ) :   0.9003 B(  4-C ,  5-N ) :   2.7657 B(  6-C ,  7-H ) :   0.9157
B(  6-C ,  8-H ) :   0.9183 B(  6-C ,  9-H ) :   0.9177 B(  6-C , 10-C ) :   0.9004
B( 10-C , 11-N ) :   2.8324 B( 12-C , 13-H ) :   0.9163 B( 12-C , 14-H ) :   0.9138
B( 12-C , 15-H ) :   0.9013 B( 12-C , 16-C ) :   0.9016 B( 16-C , 17-N ) :   2.7762

MP2 TOTAL ENERGY:     -397.458594577 Eh
FINAL SINGLE POINT ENERGY      -397.458594577363

DIPOLE MOMENT
-------------
                                X             Y             Z
Electronic contribution:     -0.00168      -0.03311      -3.19624
Nuclear contribution   :     -0.00156       0.03487       4.64349
                        -----------------------------------------
Total Dipole Moment    :     -0.00323       0.00176       1.44725
                        -----------------------------------------
Magnitude (a.u.)       :      1.44725
Magnitude (Debye)      :      3.67863

Rotational constants in cm-1:     0.053493     0.013941     0.013187
Rotational constants in MHz :  1603.677381   417.949421   395.334449

                             ****ORCA TERMINATED NORMALLY****
TOTAL RUN TIME: 0 days 0 hours 3 minutes 7 seconds 690 msec
