                         Program Version 4.2.0 -  RELEASE  -
|  1> # 12mecn.remya.etal.2.mol5,8,9
|  2> ! MP2 def2-TZVP EnGrad TightSCF
|  3>
|  4> %pal
|  5>     nprocs 6
|  6> end
|  7>
|  8> %maxcore 8000
|  9>
| 10> %scf
| 11>     ConvForced true
| 12> end
| 13>
| 14> *xyz 0 1
| 15> C  -1.955700000   2.515080000   1.698463000
| 16> H  -2.923830000   2.883163000   2.049269000
| 17> H  -1.154850000   3.171830000   2.050990000
| 18> H  -1.790380000   1.506115000   2.087896000
| 19> C  -1.948230000   2.482156000   0.253672000
| 20> N  -1.937550000   2.462523000  -0.913150000
| 21> C   1.912641000  -2.468050000  -1.750510000
| 22> H   2.876947000  -2.793500000  -2.151200000
| 23> H   1.688016000  -1.463720000  -2.122170000
| 24> H   1.123460000  -3.154780000  -2.069590000
| 25> C   1.977850000  -2.444240000  -0.306900000
| 26> N   2.036566000  -2.426130000   0.858249000
| 27> C   0.923766000   4.000693000  -1.575910000
| 28> H   0.011949000   4.478423000  -1.939550000
| 29> H   0.947903000   2.966558000  -1.929960000
| 30> H   1.805950000   4.519548000  -1.956520000
| 31> C   0.942834000   3.994846000  -0.131200000
| 32> N   0.960035000   3.982544000   1.035639000
| 33> *
| 34>
| 35>                          ****END OF INPUT****

CARTESIAN COORDINATES (ANGSTROEM)
---------------------------------
  C     -1.955700    2.515080    1.698463
  H     -2.923830    2.883163    2.049269
  H     -1.154850    3.171830    2.050990
  H     -1.790380    1.506115    2.087896
  C     -1.948230    2.482156    0.253672
  N     -1.937550    2.462523   -0.913150
  C      1.912641   -2.468050   -1.750510
  H      2.876947   -2.793500   -2.151200
  H      1.688016   -1.463720   -2.122170
  H      1.123460   -3.154780   -2.069590
  C      1.977850   -2.444240   -0.306900
  N      2.036566   -2.426130    0.858249
  C      0.923766    4.000693   -1.575910
  H      0.011949    4.478423   -1.939550
  H      0.947903    2.966558   -1.929960
  H      1.805950    4.519548   -1.956520
  C      0.942834    3.994846   -0.131200
  N      0.960035    3.982544    1.035639

 Total Charge           Charge          ....    0
 Multiplicity           Mult            ....    1
 Number of Electrons    NEL             ....   66
 Basis Dimension        Dim             ....  333

ORBITAL ENERGIES
----------------

  NO   OCC          E(Eh)            E(eV)
   0   2.0000     -15.572966      -423.7620
   1   2.0000     -15.571757      -423.7290
   2   2.0000     -15.570283      -423.6889
   3   2.0000     -11.285206      -307.0861
   4   2.0000     -11.283432      -307.0378
   5   2.0000     -11.282022      -306.9994
   6   2.0000     -11.279978      -306.9438
   7   2.0000     -11.275561      -306.8236
   8   2.0000     -11.269502      -306.6587
   9   2.0000      -1.217794       -33.1379
  10   2.0000      -1.214359       -33.0444
  11   2.0000      -1.213369       -33.0174
  12   2.0000      -1.043810       -28.4035
  13   2.0000      -1.038083       -28.2477
  14   2.0000      -1.032624       -28.0991
  15   2.0000      -0.699548       -19.0357
  16   2.0000      -0.696005       -18.9393
  17   2.0000      -0.689492       -18.7620
  18   2.0000      -0.632806       -17.2195
  19   2.0000      -0.631471       -17.1832
  20   2.0000      -0.630986       -17.1700
  21   2.0000      -0.623447       -16.9649
  22   2.0000      -0.619031       -16.8447
  23   2.0000      -0.615965       -16.7613
  24   2.0000      -0.558905       -15.2086
  25   2.0000      -0.555906       -15.1270
  26   2.0000      -0.555699       -15.1213
  27   2.0000      -0.462080       -12.5738
  28   2.0000      -0.458508       -12.4766
  29   2.0000      -0.457573       -12.4512
  30   2.0000      -0.457301       -12.4438
  31   2.0000      -0.456925       -12.4336
  32   2.0000      -0.453411       -12.3379
  33   0.0000       0.105630         2.8743
  34   0.0000       0.131242         3.5713
  35   0.0000       0.143986         3.9181
  36   0.0000       0.163239         4.4420
  37   0.0000       0.171405         4.6642

MULLIKEN ATOMIC CHARGES
-----------------------
   0 C :   -0.284240
   1 H :    0.165657
   2 H :    0.204022
   3 H :    0.171806
   4 C :   -0.119209
   5 N :   -0.139971
   6 C :   -0.277470
   7 H :    0.171772
   8 H :    0.171055
   9 H :    0.172769
  10 C :   -0.145987
  11 N :   -0.092156
  12 C :   -0.259399
  13 H :    0.180706
  14 H :    0.169616
  15 H :    0.172160
  16 C :   -0.115070
  17 N :   -0.146063
Sum of atomic charges:   -0.0000000

LOEWDIN ATOMIC CHARGES
----------------------
   0 C :   -0.281943
   1 H :    0.150683
   2 H :    0.157233
   3 H :    0.154667
   4 C :   -0.210821
   5 N :    0.029538
   6 C :   -0.283700
   7 H :    0.152511
   8 H :    0.152497
   9 H :    0.152855
  10 C :   -0.219945
  11 N :    0.045776
  12 C :   -0.283671
  13 H :    0.155907
  14 H :    0.155600
  15 H :    0.149475
  16 C :   -0.209307
  17 N :    0.032645

  Mayer bond orders larger than 0.100000
B(  0-C ,  1-H ) :   0.9163 B(  0-C ,  2-H ) :   0.9017 B(  0-C ,  3-H ) :   0.9132
B(  0-C ,  4-C ) :   0.9000 B(  4-C ,  5-N ) :   2.8024 B(  6-C ,  7-H ) :   0.9166
B(  6-C ,  8-H ) :   0.9166 B(  6-C ,  9-H ) :   0.9160 B(  6-C , 10-C ) :   0.9017
B( 10-C , 11-N ) :   2.8368 B( 12-C , 13-H ) :   0.9113 B( 12-C , 14-H ) :   0.9154
B( 12-C , 15-H ) :   0.9111 B( 12-C , 16-C ) :   0.9120 B( 16-C , 17-N ) :   2.7679

MP2 TOTAL ENERGY:     -397.459285751 Eh
FINAL SINGLE POINT ENERGY      -397.459285750568

DIPOLE MOMENT
-------------
                                X             Y             Z
Electronic contribution:      0.21387       0.00485       3.14647
Nuclear contribution   :     -0.29580       0.01422      -4.63986
                        -----------------------------------------
Total Dipole Moment    :     -0.08194       0.01908      -1.49339
                        -----------------------------------------
Magnitude (a.u.)       :      1.49576
Magnitude (Debye)      :      3.80192

Rotational constants in cm-1:     0.043250     0.013932     0.012827
Rotational constants in MHz :  1296.589465   417.675251   384.538610

                             ****ORCA TERMINATED NORMALLY****
TOTAL RUN TIME: 0 days 0 hours 3 minutes 3 seconds 94 msec
