                         Program Version 4.2.0 -  RELEASE  -
|  1> # 12mecn.remya.etal.2.mol3,4,11
|  2> ! MP2 def2-TZVP EnGrad TightSCF
|  3>
|  4> %pal
|  5>     nprocs 6
|  6> end
|  7>
|  8> %maxcore 8000
|  9>
| 10> %scf
| 11>     ConvForced true
| 12> end
| 13>
| 14> *xyz 0 1
| 15> C  -5.181310000   2.853865000  -1.626100000
| 16> H  -5.488260000   3.811434000  -2.053310000
| 17> H  -5.857590000   2.068112000  -1.968630000
| 18> H  -4.170750000   2.611402000  -1.966640000
| 19> C  -5.187260000   2.919160000  -0.181450000
| 20> N  -5.181700000   2.970641000   0.983640000
| 21> C  -1.509690000  -0.693960000  -1.610140000
| 22> H  -1.327010000  -1.692700000  -2.017370000
| 23> H  -0.742170000  -0.000650000  -1.964400000
| 24> H  -2.491920000  -0.334310000  -1.929350000
| 25> C  -1.473570000  -0.748120000  -0.167200000
| 26> N  -1.447490000  -0.793720000   0.998938000
| 27> C   4.214163000   3.378139000   1.593627000
| 28> H   3.242643000   3.657109000   2.012358000
| 29> H   4.969258000   4.086643000   1.941290000
| 30> H   4.482966000   2.372549000   1.931698000
| 31> C   4.130759000   3.388436000   0.150192000
| 32> N   4.050180000   3.381449000  -1.013420000
| 33> *
| 34>
| 35>                          ****END OF INPUT****

CARTESIAN COORDINATES (ANGSTROEM)
---------------------------------
  C     -5.181310    2.853865   -1.626100
  H     -5.488260    3.811434   -2.053310
  H     -5.857590    2.068112   -1.968630
  H     -4.170750    2.611402   -1.966640
  C     -5.187260    2.919160   -0.181450
  N     -5.181700    2.970641    0.983640
  C     -1.509690   -0.693960   -1.610140
  H     -1.327010   -1.692700   -2.017370
  H     -0.742170   -0.000650   -1.964400
  H     -2.491920   -0.334310   -1.929350
  C     -1.473570   -0.748120   -0.167200
  N     -1.447490   -0.793720    0.998938
  C      4.214163    3.378139    1.593627
  H      3.242643    3.657109    2.012358
  H      4.969258    4.086643    1.941290
  H      4.482966    2.372549    1.931698
  C      4.130759    3.388436    0.150192
  N      4.050180    3.381449   -1.013420

 Total Charge           Charge          ....    0
 Multiplicity           Mult            ....    1
 Number of Electrons    NEL             ....   66
 Basis Dimension        Dim             ....  333

ORBITAL ENERGIES
----------------

  NO   OCC          E(Eh)            E(eV)
   0   2.0000     -15.574050      -423.7914
   1   2.0000     -15.573287      -423.7707
   2   2.0000     -15.573259      -423.7699
   3   2.0000     -11.288331      -307.1711
   4   2.0000     -11.287201      -307.1404
   5   2.0000     -11.283540      -307.0407
   6   2.0000     -11.280816      -306.9666
   7   2.0000     -11.280260      -306.9515
   8   2.0000     -11.279722      -306.9368
   9   2.0000      -1.215175       -33.0666
  10   2.0000      -1.215153       -33.0660
  11   2.0000      -1.213986       -33.0342
  12   2.0000      -1.046497       -28.4766
  13   2.0000      -1.045839       -28.4587
  14   2.0000      -1.042496       -28.3678
  15   2.0000      -0.703670       -19.1478
  16   2.0000      -0.700544       -19.0628
  17   2.0000      -0.699543       -19.0355
  18   2.0000      -0.636520       -17.3206
  19   2.0000      -0.634876       -17.2759
  20   2.0000      -0.633716       -17.2443
  21   2.0000      -0.632964       -17.2238
  22   2.0000      -0.630357       -17.1529
  23   2.0000      -0.629515       -17.1300
  24   2.0000      -0.556752       -15.1500
  25   2.0000      -0.556090       -15.1320
  26   2.0000      -0.555296       -15.1104
  27   2.0000      -0.458754       -12.4833
  28   2.0000      -0.458295       -12.4708
  29   2.0000      -0.458233       -12.4692
  30   2.0000      -0.458056       -12.4643
  31   2.0000      -0.457174       -12.4403
  32   2.0000      -0.456812       -12.4305
  33   0.0000       0.093117         2.5338
  34   0.0000       0.120985         3.2922
  35   0.0000       0.134980         3.6730
  36   0.0000       0.165911         4.5147
  37   0.0000       0.167820         4.5666

MULLIKEN ATOMIC CHARGES
-----------------------
   0 C :   -0.285998
   1 H :    0.176296
   2 H :    0.172712
   3 H :    0.164895
   4 C :   -0.143574
   5 N :   -0.084362
   6 C :   -0.281328
   7 H :    0.174802
   8 H :    0.178202
   9 H :    0.160990
  10 C :   -0.143775
  11 N :   -0.088868
  12 C :   -0.279235
  13 H :    0.175807
  14 H :    0.171540
  15 H :    0.173545
  16 C :   -0.145181
  17 N :   -0.096468
Sum of atomic charges:    0.0000000

LOEWDIN ATOMIC CHARGES
----------------------
   0 C :   -0.285490
   1 H :    0.152126
   2 H :    0.151077
   3 H :    0.149972
   4 C :   -0.219848
   5 N :    0.052129
   6 C :   -0.284548
   7 H :    0.153204
   8 H :    0.153995
   9 H :    0.149030
  10 C :   -0.220910
  11 N :    0.049261
  12 C :   -0.282931
  13 H :    0.154340
  14 H :    0.151052
  15 H :    0.153820
  16 C :   -0.218459
  17 N :    0.042182

  Mayer bond orders larger than 0.100000
B(  0-C ,  1-H ) :   0.9155 B(  0-C ,  2-H ) :   0.9179 B(  0-C ,  3-H ) :   0.9193
B(  0-C ,  4-C ) :   0.9010 B(  4-C ,  5-N ) :   2.8317 B(  6-C ,  7-H ) :   0.9160
B(  6-C ,  8-H ) :   0.9162 B(  6-C ,  9-H ) :   0.9195 B(  6-C , 10-C ) :   0.8995
B( 10-C , 11-N ) :   2.8330 B( 12-C , 13-H ) :   0.9151 B( 12-C , 14-H ) :   0.9165
B( 12-C , 15-H ) :   0.9155 B( 12-C , 16-C ) :   0.9026 B( 16-C , 17-N ) :   2.8404

MP2 TOTAL ENERGY:     -397.449227521 Eh
FINAL SINGLE POINT ENERGY      -397.449227521348

DIPOLE MOMENT
-------------
                                X             Y             Z
Electronic contribution:     -0.11725       0.05768       3.19375
Nuclear contribution   :      0.18310      -0.06714      -4.63424
                        -----------------------------------------
Total Dipole Moment    :      0.06585      -0.00947      -1.44048
                        -----------------------------------------
Magnitude (a.u.)       :      1.44202
Magnitude (Debye)      :      3.66532

Rotational constants in cm-1:     0.030331     0.008402     0.007495
Rotational constants in MHz :   909.313036   251.900342   224.704589

                             ****ORCA TERMINATED NORMALLY****
TOTAL RUN TIME: 0 days 0 hours 2 minutes 29 seconds 930 msec
