                         Program Version 4.2.0 -  RELEASE  -
|  1> # 12meoh.boyd.etal.mol1,3,7
|  2> ! MP2 def2-TZVP EnGrad TightSCF
|  3>
|  4> %pal
|  5>     nprocs 6
|  6> end
|  7>
|  8> %maxcore 8000
|  9>
| 10> %scf
| 11>     ConvForced true
| 12> end
| 13>
| 14> *xyz 0 1
| 15> O   0.666045193  -2.600503172   0.138317521
| 16> H  -0.227115049  -2.712051982  -0.281868004
| 17> C   0.490021232  -1.851247678   1.341189459
| 18> H   1.466500502  -1.466176022   1.645844415
| 19> H   0.097564527  -2.488364683   2.146902740
| 20> H  -0.187588112  -1.000787499   1.200739571
| 21> O  -3.821405976  -2.118091637   0.596795346
| 22> H  -4.342989117  -1.344303030   0.251966383
| 23> C  -3.443883586  -1.809641231   1.934889393
| 24> H  -2.831494349  -2.637429600   2.305201764
| 25> H  -4.325601146  -1.719364371   2.585074667
| 26> H  -2.858527126  -0.882644791   1.996110694
| 27> O   4.310535586  -1.588322800   0.656128299
| 28> H   3.804372199  -1.630404735  -0.196849819
| 29> C   4.312298137  -2.894980854   1.222112691
| 30> H   4.713177833  -2.819907076   2.237066773
| 31> H   4.957796734  -3.574699304   0.648211180
| 32> H   3.302735989  -3.324433205   1.269756773
| 33> *
| 34>
| 35>                          ****END OF INPUT****

CARTESIAN COORDINATES (ANGSTROEM)
---------------------------------
  O      0.666045   -2.600503    0.138318
  H     -0.227115   -2.712052   -0.281868
  C      0.490021   -1.851248    1.341189
  H      1.466501   -1.466176    1.645844
  H      0.097565   -2.488365    2.146903
  H     -0.187588   -1.000787    1.200740
  O     -3.821406   -2.118092    0.596795
  H     -4.342989   -1.344303    0.251966
  C     -3.443884   -1.809641    1.934889
  H     -2.831494   -2.637430    2.305202
  H     -4.325601   -1.719364    2.585075
  H     -2.858527   -0.882645    1.996111
  O      4.310536   -1.588323    0.656128
  H      3.804372   -1.630405   -0.196850
  C      4.312298   -2.894981    1.222113
  H      4.713178   -2.819907    2.237067
  H      4.957797   -3.574699    0.648211
  H      3.302736   -3.324433    1.269757

 Total Charge           Charge          ....    0
 Multiplicity           Mult            ....    1
 Number of Electrons    NEL             ....   54
 Basis Dimension        Dim             ....  258

ORBITAL ENERGIES
----------------

  NO   OCC          E(Eh)            E(eV)
   0   2.0000     -20.568486      -559.6970
   1   2.0000     -20.559001      -559.4389
   2   2.0000     -20.547797      -559.1340
   3   2.0000     -11.281057      -306.9732
   4   2.0000     -11.271015      -306.6999
   5   2.0000     -11.260732      -306.4201
   6   2.0000      -1.357486       -36.9391
   7   2.0000      -1.347064       -36.6555
   8   2.0000      -1.337289       -36.3895
   9   2.0000      -0.929285       -25.2871
  10   2.0000      -0.920002       -25.0345
  11   2.0000      -0.909285       -24.7429
  12   2.0000      -0.691601       -18.8194
  13   2.0000      -0.683967       -18.6117
  14   2.0000      -0.670705       -18.2508
  15   2.0000      -0.627626       -17.0786
  16   2.0000      -0.617658       -16.8073
  17   2.0000      -0.608869       -16.5682
  18   2.0000      -0.600248       -16.3336
  19   2.0000      -0.588314       -16.0088
  20   2.0000      -0.581247       -15.8165
  21   2.0000      -0.511049       -13.9064
  22   2.0000      -0.502336       -13.6693
  23   2.0000      -0.490932       -13.3589
  24   2.0000      -0.459687       -12.5087
  25   2.0000      -0.450850       -12.2683
  26   2.0000      -0.439133       -11.9494
  27   0.0000       0.114932         3.1275
  28   0.0000       0.143679         3.9097
  29   0.0000       0.157039         4.2732
  30   0.0000       0.167581         4.5601
  31   0.0000       0.183389         4.9903

MULLIKEN ATOMIC CHARGES
-----------------------
   0 O :   -0.511859
   1 H :    0.331052
   2 C :   -0.195344
   3 H :    0.152902
   4 H :    0.106114
   5 H :    0.114485
   6 O :   -0.501211
   7 H :    0.324435
   8 C :   -0.181331
   9 H :    0.130022
  10 H :    0.120233
  11 H :    0.108426
  12 O :   -0.509703
  13 H :    0.330871
  14 C :   -0.183590
  15 H :    0.123410
  16 H :    0.112123
  17 H :    0.128965
Sum of atomic charges:    0.0000000

LOEWDIN ATOMIC CHARGES
----------------------
   0 O :   -0.115653
   1 H :    0.193559
   2 C :   -0.381953
   3 H :    0.111009
   4 H :    0.095380
   5 H :    0.096415
   6 O :   -0.110847
   7 H :    0.192272
   8 C :   -0.383800
   9 H :    0.110036
  10 H :    0.098038
  11 H :    0.094471
  12 O :   -0.110333
  13 H :    0.192457
  14 C :   -0.383420
  15 H :    0.107599
  16 H :    0.095974
  17 H :    0.098796

  Mayer bond orders larger than 0.100000
B(  0-O ,  1-H ) :   0.8369 B(  0-O ,  2-C ) :   0.9147 B(  2-C ,  3-H ) :   0.9318
B(  2-C ,  4-H ) :   0.9398 B(  2-C ,  5-H ) :   0.9401 B(  6-O ,  7-H ) :   0.8408
B(  6-O ,  8-C ) :   0.9204 B(  8-C ,  9-H ) :   0.9375 B(  8-C , 10-H ) :   0.9374
B(  8-C , 11-H ) :   0.9385 B( 12-O , 13-H ) :   0.8373 B( 12-O , 14-C ) :   0.9119
B( 14-C , 15-H ) :   0.9387 B( 14-C , 16-H ) :   0.9413 B( 14-C , 17-H ) :   0.9350

MP2 TOTAL ENERGY:     -346.526480974 Eh
FINAL SINGLE POINT ENERGY      -346.526480974479

DIPOLE MOMENT
-------------
                                X             Y             Z
Electronic contribution:     -0.03699       0.24655      -3.76472
Nuclear contribution   :     -1.14922       0.04594       4.00810
                        -----------------------------------------
Total Dipole Moment    :     -1.18621       0.29249       0.24338
                        -----------------------------------------
Magnitude (a.u.)       :      1.24575
Magnitude (Debye)      :      3.16643

Rotational constants in cm-1:     0.261314     0.016097     0.015833
Rotational constants in MHz :  7834.008250   482.574657   474.664512

                             ****ORCA TERMINATED NORMALLY****
TOTAL RUN TIME: 0 days 0 hours 1 minutes 10 seconds 91 msec
