                         Program Version 4.2.0 -  RELEASE  -
|  1> # 12meoh.boyd.etal.mol8,9,11
|  2> ! MP2 def2-TZVP EnGrad TightSCF
|  3>
|  4> %pal
|  5>     nprocs 6
|  6> end
|  7>
|  8> %maxcore 8000
|  9>
| 10> %scf
| 11>     ConvForced true
| 12> end
| 13>
| 14> *xyz 0 1
| 15> O   3.570084754   2.361662577  -0.202416728
| 16> H   3.393280933   1.755669977   0.560634073
| 17> C   4.368082883   1.644741793  -1.143112807
| 18> H   4.552851717   2.311801738  -1.989632421
| 19> H   3.862427494   0.740851663  -1.508095690
| 20> H   5.333949674   1.357289092  -0.706288100
| 21> O   1.390610024   3.194080770  -1.536658882
| 22> H   2.162932299   2.881562730  -0.993525056
| 23> C   1.202977189   4.580367182  -1.302880219
| 24> H   0.374773115   4.915764831  -1.934164643
| 25> H   2.098649340   5.157710875  -1.570472348
| 26> H   0.950320401   4.800436015  -0.254328827
| 27> O   3.252955559   0.588596242   1.858934315
| 28> H   3.621209177  -0.251605199   1.476063364
| 29> C   4.040824528   0.944288422   2.989639460
| 30> H   3.670521436   1.902573549   3.363847391
| 31> H   5.103749934   1.055868619   2.734277559
| 32> H   3.948540682   0.200279590   3.792908518
| 33> *
| 34>
| 35>                          ****END OF INPUT****

CARTESIAN COORDINATES (ANGSTROEM)
---------------------------------
  O      3.570085    2.361663   -0.202417
  H      3.393281    1.755670    0.560634
  C      4.368083    1.644742   -1.143113
  H      4.552852    2.311802   -1.989632
  H      3.862427    0.740852   -1.508096
  H      5.333950    1.357289   -0.706288
  O      1.390610    3.194081   -1.536659
  H      2.162932    2.881563   -0.993525
  C      1.202977    4.580367   -1.302880
  H      0.374773    4.915765   -1.934165
  H      2.098649    5.157711   -1.570472
  H      0.950320    4.800436   -0.254329
  O      3.252956    0.588596    1.858934
  H      3.621209   -0.251605    1.476063
  C      4.040825    0.944288    2.989639
  H      3.670521    1.902574    3.363847
  H      5.103750    1.055869    2.734278
  H      3.948541    0.200280    3.792909

 Total Charge           Charge          ....    0
 Multiplicity           Mult            ....    1
 Number of Electrons    NEL             ....   54
 Basis Dimension        Dim             ....  258

ORBITAL ENERGIES
----------------

  NO   OCC          E(Eh)            E(eV)
   0   2.0000     -20.599815      -560.5495
   1   2.0000     -20.552854      -559.2716
   2   2.0000     -20.501709      -557.8799
   3   2.0000     -11.297771      -307.4280
   4   2.0000     -11.274375      -306.7914
   5   2.0000     -11.238864      -305.8250
   6   2.0000      -1.392821       -37.9006
   7   2.0000      -1.352972       -36.8162
   8   2.0000      -1.299807       -35.3695
   9   2.0000      -0.950044       -25.8520
  10   2.0000      -0.924037       -25.1443
  11   2.0000      -0.885072       -24.0840
  12   2.0000      -0.723466       -19.6865
  13   2.0000      -0.705629       -19.2011
  14   2.0000      -0.658175       -17.9098
  15   2.0000      -0.644051       -17.5255
  16   2.0000      -0.623715       -16.9722
  17   2.0000      -0.613677       -16.6990
  18   2.0000      -0.588702       -16.0194
  19   2.0000      -0.579716       -15.7749
  20   2.0000      -0.551722       -15.0131
  21   2.0000      -0.537568       -14.6280
  22   2.0000      -0.511595       -13.9212
  23   2.0000      -0.481097       -13.0913
  24   2.0000      -0.467902       -12.7323
  25   2.0000      -0.437861       -11.9148
  26   2.0000      -0.404968       -11.0197
  27   0.0000       0.104331         2.8390
  28   0.0000       0.151226         4.1151
  29   0.0000       0.166926         4.5423
  30   0.0000       0.173103         4.7104
  31   0.0000       0.200136         5.4460

MULLIKEN ATOMIC CHARGES
-----------------------
   0 O :   -0.544289
   1 H :    0.378879
   2 C :   -0.212535
   3 H :    0.143435
   4 H :    0.125183
   5 H :    0.110937
   6 O :   -0.538799
   7 H :    0.353747
   8 C :   -0.156089
   9 H :    0.114629
  10 H :    0.093546
  11 H :    0.093454
  12 O :   -0.517972
  13 H :    0.343011
  14 C :   -0.193453
  15 H :    0.149499
  16 H :    0.126778
  17 H :    0.130037
Sum of atomic charges:    0.0000000

LOEWDIN ATOMIC CHARGES
----------------------
   0 O :   -0.086145
   1 H :    0.165933
   2 C :   -0.387816
   3 H :    0.114923
   4 H :    0.099562
   5 H :    0.097081
   6 O :   -0.123032
   7 H :    0.159183
   8 C :   -0.398471
   9 H :    0.103447
  10 H :    0.090589
  11 H :    0.090481
  12 O :   -0.076107
  13 H :    0.198673
  14 C :   -0.373293
  15 H :    0.117754
  16 H :    0.101790
  17 H :    0.105447

  Mayer bond orders larger than 0.100000
B(  0-O ,  1-H ) :   0.7651 B(  0-O ,  2-C ) :   0.8906 B(  2-C ,  3-H ) :   0.9418
B(  2-C ,  4-H ) :   0.9414 B(  2-C ,  5-H ) :   0.9322 B(  6-O ,  7-H ) :   0.7824
B(  6-O ,  8-C ) :   0.9508 B(  8-C ,  9-H ) :   0.9410 B(  8-C , 10-H ) :   0.9376
B(  8-C , 11-H ) :   0.9415 B( 12-O , 13-H ) :   0.8277 B( 12-O , 14-C ) :   0.8713
B( 14-C , 15-H ) :   0.9387 B( 14-C , 16-H ) :   0.9362 B( 14-C , 17-H ) :   0.9345

MP2 TOTAL ENERGY:     -346.541670823 Eh
FINAL SINGLE POINT ENERGY      -346.541670822532

DIPOLE MOMENT
-------------
                                X             Y             Z
Electronic contribution:     -1.65108      -1.46542      -0.20492
Nuclear contribution   :      3.12246       0.39728       1.44391
                        -----------------------------------------
Total Dipole Moment    :      1.47137      -1.06815       1.23900
                        -----------------------------------------
Magnitude (a.u.)       :      2.20022
Magnitude (Debye)      :      5.59252

Rotational constants in cm-1:     0.132465     0.032382     0.028271
Rotational constants in MHz :  3971.198413   970.781792   847.533013

                             ****ORCA TERMINATED NORMALLY****
TOTAL RUN TIME: 0 days 0 hours 1 minutes 28 seconds 973 msec
