                         Program Version 4.2.0 -  RELEASE  -
|  1> ! MP2 def2-TZVP EnGrad TightSCF FrozenCore
|  2>
|  3> %pal
|  4>     nprocs 12
|  5> end
|  6>
|  7> %maxcore 8000
|  8>
|  9> %scf
| 10>     ConvForced true
| 11> end
| 12>
| 13> *xyz 0 1
| 14> O    -0.3287541658    -0.1184185584    -0.6917255939
| 15> H     0.6209422025    -0.1165325831    -0.4012211677
| 16> C    -0.3701737233    -0.238148859     -2.1168419762
| 17> H    -1.3956753455    -0.0307942961    -2.4333207731
| 18> H    -0.1053153446    -1.2542160277    -2.4317955439
| 19> H     0.3030789472     0.4817017691    -2.5991018007
| 20> O    -1.0720684463    -2.8050083124    -0.1899870989
| 21> H    -0.8841035136    -1.8457507723    -0.1872794333
| 22> C    -2.4450504342    -2.9777862237     0.0911703365
| 23> H    -2.6541658708    -4.0521530431     0.0612289042
| 24> H    -3.1011412953    -2.4874515149    -0.6478544072
| 25> H    -2.7283110255    -2.6079258778     1.0908351265
| 26> O    -0.0529641012     2.2031320992     0.8351688144
| 27> H    -0.4789402069     1.5131479555     0.2814930732
| 28> C    -0.2412889849     3.4676567486     0.2108272542
| 29> H     0.2709004498     4.2125516893     0.8253509924
| 30> H    -1.3052030357     3.7365195023     0.1573319075
| 31> H     0.1822531266     3.502556103     -0.8036851081
| 32> O     2.0608021026     0.5212864988     0.3814523464
| 33> H     1.5403099747     1.3002983315     0.6879969932
| 34> C     2.5342750253    -0.1857440615     1.5255942123
| 35> H     3.0384647067    -1.0861255977     1.1658909417
| 36> H     1.7175210177    -0.4850709592     2.1967301344
| 37> H     3.2566908013     0.4154458774     2.0936334567
| 38> *
| 39>
| 40>                          ****END OF INPUT****

CARTESIAN COORDINATES (ANGSTROEM)
---------------------------------
  O     -0.328754   -0.118419   -0.691726
  H      0.620942   -0.116533   -0.401221
  C     -0.370174   -0.238149   -2.116842
  H     -1.395675   -0.030794   -2.433321
  H     -0.105315   -1.254216   -2.431796
  H      0.303079    0.481702   -2.599102
  O     -1.072068   -2.805008   -0.189987
  H     -0.884104   -1.845751   -0.187279
  C     -2.445050   -2.977786    0.091170
  H     -2.654166   -4.052153    0.061229
  H     -3.101141   -2.487452   -0.647854
  H     -2.728311   -2.607926    1.090835
  O     -0.052964    2.203132    0.835169
  H     -0.478940    1.513148    0.281493
  C     -0.241289    3.467657    0.210827
  H      0.270900    4.212552    0.825351
  H     -1.305203    3.736520    0.157332
  H      0.182253    3.502556   -0.803685
  O      2.060802    0.521286    0.381452
  H      1.540310    1.300298    0.687997
  C      2.534275   -0.185744    1.525594
  H      3.038465   -1.086126    1.165891
  H      1.717521   -0.485071    2.196730
  H      3.256691    0.415446    2.093633

 Total Charge           Charge          ....    0
 Multiplicity           Mult            ....    1
 Number of Electrons    NEL             ....   72
 Basis Dimension        Dim             ....  344

ORBITAL ENERGIES
----------------

  NO   OCC          E(Eh)            E(eV)
   0   2.0000     -20.567405      -559.6675
   1   2.0000     -20.563692      -559.5665
   2   2.0000     -20.560539      -559.4807
   3   2.0000     -20.527693      -558.5869
   4   2.0000     -11.279895      -306.9415
   5   2.0000     -11.278749      -306.9104
   6   2.0000     -11.273938      -306.7795
   7   2.0000     -11.255586      -306.2801
   8   2.0000      -1.377928       -37.4953
   9   2.0000      -1.358745       -36.9733
  10   2.0000      -1.352988       -36.8167
  11   2.0000      -1.329247       -36.1706
  12   2.0000      -0.938519       -25.5384
  13   2.0000      -0.927441       -25.2369
  14   2.0000      -0.923826       -25.1386
  15   2.0000      -0.902869       -24.5683
  16   2.0000      -0.709430       -19.3046
  17   2.0000      -0.701666       -19.0933
  18   2.0000      -0.699394       -19.0315
  19   2.0000      -0.676379       -18.4052
  20   2.0000      -0.627469       -17.0743
  21   2.0000      -0.622688       -16.9442
  22   2.0000      -0.621154       -16.9025
  23   2.0000      -0.605307       -16.4712
  24   2.0000      -0.597888       -16.2694
  25   2.0000      -0.597239       -16.2517
  26   2.0000      -0.596094       -16.2205
  27   2.0000      -0.572100       -15.5676
  28   2.0000      -0.521478       -14.1901
  29   2.0000      -0.518864       -14.1190
  30   2.0000      -0.502809       -13.6821
  31   2.0000      -0.484466       -13.1830
  32   2.0000      -0.462207       -12.5773
  33   2.0000      -0.453705       -12.3459
  34   2.0000      -0.452536       -12.3141
  35   2.0000      -0.426269       -11.5994
  36   0.0000       0.124634         3.3915
  37   0.0000       0.148966         4.0536
  38   0.0000       0.157537         4.2868
  39   0.0000       0.173881         4.7315
  40   0.0000       0.187131         5.0921

MULLIKEN ATOMIC CHARGES
-----------------------
   0 O :   -0.604555
   1 H :    0.381321
   2 C :   -0.195975
   3 H :    0.130984
   4 H :    0.150071
   5 H :    0.128566
   6 O :   -0.513765
   7 H :    0.345684
   8 C :   -0.169656
   9 H :    0.120871
  10 H :    0.095793
  11 H :    0.104824
  12 O :   -0.545637
  13 H :    0.362054
  14 C :   -0.178482
  15 H :    0.132542
  16 H :    0.123271
  17 H :    0.116406
  18 O :   -0.550486
  19 H :    0.360471
  20 C :   -0.177479
  21 H :    0.134538
  22 H :    0.126595
  23 H :    0.122045
Sum of atomic charges:   -0.0000000

LOEWDIN ATOMIC CHARGES
----------------------
   0 O :   -0.100055
   1 H :    0.169589
   2 C :   -0.379423
   3 H :    0.109872
   4 H :    0.108426
   5 H :    0.103403
   6 O :   -0.096673
   7 H :    0.162013
   8 C :   -0.398563
   9 H :    0.106833
  10 H :    0.091735
  11 H :    0.093893
  12 O :   -0.089227
  13 H :    0.169250
  14 C :   -0.380833
  15 H :    0.110826
  16 H :    0.102708
  17 H :    0.098493
  18 O :   -0.089529
  19 H :    0.168436
  20 C :   -0.377397
  21 H :    0.111427
  22 H :    0.102049
  23 H :    0.102747

  Mayer bond orders larger than 0.100000
B(  0-O ,  1-H ) :   0.7346 B(  0-O ,  2-C ) :   0.8468 B(  1-H , 18-O ) :   0.1097
B(  2-C ,  3-H ) :   0.9416 B(  2-C ,  4-H ) :   0.9379 B(  2-C ,  5-H ) :   0.9351
B(  6-O ,  7-H ) :   0.8059 B(  6-O ,  8-C ) :   0.9487 B(  8-C ,  9-H ) :   0.9405
B(  8-C , 10-H ) :   0.9334 B(  8-C , 11-H ) :   0.9436 B( 12-O , 13-H ) :   0.7879
B( 12-O , 14-C ) :   0.8921 B( 14-C , 15-H ) :   0.9419 B( 14-C , 16-H ) :   0.9389
B( 14-C , 17-H ) :   0.9353 B( 18-O , 19-H ) :   0.7761 B( 18-O , 20-C ) :   0.8816
B( 20-C , 21-H ) :   0.9411 B( 20-C , 22-H ) :   0.9362 B( 20-C , 23-H ) :   0.9390

MP2 TOTAL ENERGY:     -462.070447435 Eh
FINAL SINGLE POINT ENERGY      -462.070447435297

DIPOLE MOMENT
-------------
                                X             Y             Z
Electronic contribution:      1.70312      -0.23780       0.74425
Nuclear contribution   :     -1.80740       1.25872      -0.99013
                        -----------------------------------------
Total Dipole Moment    :     -0.10428       1.02092      -0.24588
                        -----------------------------------------
Magnitude (a.u.)       :      1.05527
Magnitude (Debye)      :      2.68229

Rotational constants in cm-1:     0.049755     0.022946     0.019164
Rotational constants in MHz :  1491.605602   687.908465   574.511036

                             ****ORCA TERMINATED NORMALLY****
TOTAL RUN TIME: 0 days 0 hours 4 minutes 23 seconds 889 msec
