                         Program Version 4.2.0 -  RELEASE  -
|  1> # 12meoh.boyd.etal.mol8,10,11
|  2> ! MP2 def2-TZVP EnGrad TightSCF
|  3>
|  4> %pal
|  5>     nprocs 6
|  6> end
|  7>
|  8> %maxcore 8000
|  9>
| 10> %scf
| 11>     ConvForced true
| 12> end
| 13>
| 14> *xyz 0 1
| 15> O   3.570084754   2.361662577  -0.202416728
| 16> H   3.393280933   1.755669977   0.560634073
| 17> C   4.368082883   1.644741793  -1.143112807
| 18> H   4.552851717   2.311801738  -1.989632421
| 19> H   3.862427494   0.740851663  -1.508095690
| 20> H   5.333949674   1.357289092  -0.706288100
| 21> O  -5.201143618   0.064582726  -0.172223772
| 22> H  -4.686891530   0.869258890   0.107806143
| 23> C  -6.513192168   0.171391798   0.359883449
| 24> H  -7.049381312  -0.749234190   0.111361174
| 25> H  -7.057741163   1.017801101  -0.081819420
| 26> H  -6.514770575   0.292264928   1.453058834
| 27> O   3.252955559   0.588596242   1.858934315
| 28> H   3.621209177  -0.251605199   1.476063364
| 29> C   4.040824528   0.944288422   2.989639460
| 30> H   3.670521436   1.902573549   3.363847391
| 31> H   5.103749934   1.055868619   2.734277559
| 32> H   3.948540682   0.200279590   3.792908518
| 33> *
| 34>
| 35>                          ****END OF INPUT****

CARTESIAN COORDINATES (ANGSTROEM)
---------------------------------
  O      3.570085    2.361663   -0.202417
  H      3.393281    1.755670    0.560634
  C      4.368083    1.644742   -1.143113
  H      4.552852    2.311802   -1.989632
  H      3.862427    0.740852   -1.508096
  H      5.333950    1.357289   -0.706288
  O     -5.201144    0.064583   -0.172224
  H     -4.686892    0.869259    0.107806
  C     -6.513192    0.171392    0.359883
  H     -7.049381   -0.749234    0.111361
  H     -7.057741    1.017801   -0.081819
  H     -6.514771    0.292265    1.453059
  O      3.252956    0.588596    1.858934
  H      3.621209   -0.251605    1.476063
  C      4.040825    0.944288    2.989639
  H      3.670521    1.902574    3.363847
  H      5.103750    1.055869    2.734278
  H      3.948541    0.200280    3.792909

 Total Charge           Charge          ....    0
 Multiplicity           Mult            ....    1
 Number of Electrons    NEL             ....   54
 Basis Dimension        Dim             ....  258

ORBITAL ENERGIES
----------------

  NO   OCC          E(Eh)            E(eV)
   0   2.0000     -20.589830      -560.2777
   1   2.0000     -20.555345      -559.3394
   2   2.0000     -20.519759      -558.3710
   3   2.0000     -11.290030      -307.2173
   4   2.0000     -11.269542      -306.6598
   5   2.0000     -11.256441      -306.3033
   6   2.0000      -1.382514       -37.6201
   7   2.0000      -1.345460       -36.6118
   8   2.0000      -1.316064       -35.8119
   9   2.0000      -0.941816       -25.6281
  10   2.0000      -0.917281       -24.9605
  11   2.0000      -0.902666       -24.5628
  12   2.0000      -0.712435       -19.3863
  13   2.0000      -0.680172       -18.5084
  14   2.0000      -0.678218       -18.4553
  15   2.0000      -0.632895       -17.2219
  16   2.0000      -0.614839       -16.7306
  17   2.0000      -0.613123       -16.6839
  18   2.0000      -0.597251       -16.2520
  19   2.0000      -0.589466       -16.0402
  20   2.0000      -0.565998       -15.4016
  21   2.0000      -0.527219       -14.3464
  22   2.0000      -0.497846       -13.5471
  23   2.0000      -0.491691       -13.3796
  24   2.0000      -0.460869       -12.5409
  25   2.0000      -0.446486       -12.1495
  26   2.0000      -0.423166       -11.5149
  27   0.0000       0.113033         3.0758
  28   0.0000       0.137684         3.7466
  29   0.0000       0.159136         4.3303
  30   0.0000       0.177354         4.8261
  31   0.0000       0.177880         4.8404

MULLIKEN ATOMIC CHARGES
-----------------------
   0 O :   -0.520801
   1 H :    0.358498
   2 C :   -0.193530
   3 H :    0.128101
   4 H :    0.102606
   5 H :    0.094335
   6 O :   -0.496276
   7 H :    0.322961
   8 C :   -0.172306
   9 H :    0.128421
  10 H :    0.108714
  11 H :    0.108486
  12 O :   -0.516106
  13 H :    0.340245
  14 C :   -0.192052
  15 H :    0.147481
  16 H :    0.126153
  17 H :    0.125071
Sum of atomic charges:    0.0000000

LOEWDIN ATOMIC CHARGES
----------------------
   0 O :   -0.119773
   1 H :    0.159591
   2 C :   -0.395807
   3 H :    0.108320
   4 H :    0.090911
   5 H :    0.088719
   6 O :   -0.106751
   7 H :    0.191641
   8 C :   -0.385263
   9 H :    0.110133
  10 H :    0.095097
  11 H :    0.095143
  12 O :   -0.076864
  13 H :    0.197326
  14 C :   -0.374618
  15 H :    0.117082
  16 H :    0.101650
  17 H :    0.103461

  Mayer bond orders larger than 0.100000
B(  0-O ,  1-H ) :   0.7959 B(  0-O ,  2-C ) :   0.9440 B(  2-C ,  3-H ) :   0.9429
B(  2-C ,  4-H ) :   0.9400 B(  2-C ,  5-H ) :   0.9343 B(  6-O ,  7-H ) :   0.8412
B(  6-O ,  8-C ) :   0.9284 B(  8-C ,  9-H ) :   0.9377 B(  8-C , 10-H ) :   0.9390
B(  8-C , 11-H ) :   0.9385 B( 12-O , 13-H ) :   0.8295 B( 12-O , 14-C ) :   0.8753
B( 14-C , 15-H ) :   0.9392 B( 14-C , 16-H ) :   0.9364 B( 14-C , 17-H ) :   0.9347

MP2 TOTAL ENERGY:     -346.529077275 Eh
FINAL SINGLE POINT ENERGY      -346.529077275116

DIPOLE MOMENT
-------------
                                X             Y             Z
Electronic contribution:     -0.50022       0.31550      -0.70057
Nuclear contribution   :      0.99865      -0.91653       1.74812
                        -----------------------------------------
Total Dipole Moment    :      0.49843      -0.60103       1.04756
                        -----------------------------------------
Magnitude (a.u.)       :      1.30654
Magnitude (Debye)      :      3.32096

Rotational constants in cm-1:     0.078510     0.008101     0.007479
Rotational constants in MHz :  2353.679165   242.869093   224.204348

                             ****ORCA TERMINATED NORMALLY****
TOTAL RUN TIME: 0 days 0 hours 0 minutes 53 seconds 934 msec
