                         Program Version 4.2.0 -  RELEASE  -
|  1> # 12h2o.su.etal.mol1,2,3,5,8,10
|  2> ! MP2 def2-TZVP EnGrad TightSCF
|  3>
|  4> %pal
|  5>     nprocs 6
|  6> end
|  7>
|  8> %maxcore 8000
|  9>
| 10> %scf
| 11>     ConvForced true
| 12> end
| 13>
| 14> *xyz 0 1
| 15> O  -1.794470000  -0.923410000   2.768350000
| 16> H  -2.338250000  -1.359750000   3.430940000
| 17> H  -0.879480000  -1.303000000   2.865760000
| 18> O   0.923410000  -1.794470000  -2.768350000
| 19> H   1.359750000  -2.338250000  -3.430940000
| 20> H   1.303000000  -0.879480000  -2.865760000
| 21> O  -1.752130000  -0.741530000  -2.896280000
| 22> H  -2.036450000  -0.920500000  -1.984040000
| 23> H  -0.921210000  -1.242140000  -2.984230000
| 24> O   0.885520000  -1.737840000   0.052730000
| 25> H   1.284090000  -0.839590000   0.017130000
| 26> H   1.032320000  -2.090180000  -0.841890000
| 27> O   1.752130000   0.741530000  -2.896280000
| 28> H   2.036450000   0.920500000  -1.984040000
| 29> H   0.921210000   1.242140000  -2.984230000
| 30> O  -0.923410000   1.794470000  -2.768350000
| 31> H  -1.359750000   2.338250000  -3.430940000
| 32> H  -1.303000000   0.879480000  -2.865760000
| 33> *
| 34>
| 35>                          ****END OF INPUT****

CARTESIAN COORDINATES (ANGSTROEM)
---------------------------------
  O     -1.794470   -0.923410    2.768350
  H     -2.338250   -1.359750    3.430940
  H     -0.879480   -1.303000    2.865760
  O      0.923410   -1.794470   -2.768350
  H      1.359750   -2.338250   -3.430940
  H      1.303000   -0.879480   -2.865760
  O     -1.752130   -0.741530   -2.896280
  H     -2.036450   -0.920500   -1.984040
  H     -0.921210   -1.242140   -2.984230
  O      0.885520   -1.737840    0.052730
  H      1.284090   -0.839590    0.017130
  H      1.032320   -2.090180   -0.841890
  O      1.752130    0.741530   -2.896280
  H      2.036450    0.920500   -1.984040
  H      0.921210    1.242140   -2.984230
  O     -0.923410    1.794470   -2.768350
  H     -1.359750    2.338250   -3.430940
  H     -1.303000    0.879480   -2.865760

 Total Charge           Charge          ....    0
 Multiplicity           Mult            ....    1
 Number of Electrons    NEL             ....   60
 Basis Dimension        Dim             ....  258

ORBITAL ENERGIES
----------------

  NO   OCC          E(Eh)            E(eV)
   0   2.0000     -20.582634      -560.0819
   1   2.0000     -20.573527      -559.8341
   2   2.0000     -20.569033      -559.7118
   3   2.0000     -20.550740      -559.2141
   4   2.0000     -20.549053      -559.1682
   5   2.0000     -20.542386      -558.9867
   6   2.0000      -1.377987       -37.4969
   7   2.0000      -1.360976       -37.0340
   8   2.0000      -1.354085       -36.8465
   9   2.0000      -1.329293       -36.1719
  10   2.0000      -1.326130       -36.0858
  11   2.0000      -1.320881       -35.9430
  12   2.0000      -0.740282       -20.1441
  13   2.0000      -0.734118       -19.9764
  14   2.0000      -0.718560       -19.5530
  15   2.0000      -0.712059       -19.3761
  16   2.0000      -0.694500       -18.8983
  17   2.0000      -0.690461       -18.7884
  18   2.0000      -0.634079       -17.2542
  19   2.0000      -0.602147       -16.3852
  20   2.0000      -0.597387       -16.2557
  21   2.0000      -0.571064       -15.5394
  22   2.0000      -0.562443       -15.3049
  23   2.0000      -0.558615       -15.2007
  24   2.0000      -0.524910       -14.2835
  25   2.0000      -0.518109       -14.0985
  26   2.0000      -0.509517       -13.8647
  27   2.0000      -0.499616       -13.5952
  28   2.0000      -0.494099       -13.4451
  29   2.0000      -0.487561       -13.2672
  30   0.0000       0.099344         2.7033
  31   0.0000       0.137677         3.7464
  32   0.0000       0.144679         3.9369
  33   0.0000       0.150646         4.0993
  34   0.0000       0.174797         4.7565

MULLIKEN ATOMIC CHARGES
-----------------------
   0 O :   -0.686220
   1 H :    0.333730
   2 H :    0.350948
   3 O :   -0.755465
   4 H :    0.352325
   5 H :    0.379785
   6 O :   -0.712032
   7 H :    0.365109
   8 H :    0.377187
   9 O :   -0.691979
  10 H :    0.313243
  11 H :    0.367313
  12 O :   -0.704367
  13 H :    0.347219
  14 H :    0.383593
  15 O :   -0.743196
  16 H :    0.342240
  17 H :    0.380568
Sum of atomic charges:   -0.0000000

LOEWDIN ATOMIC CHARGES
----------------------
   0 O :   -0.340662
   1 H :    0.155526
   2 H :    0.183313
   3 O :   -0.314809
   4 H :    0.159873
   5 H :    0.145213
   6 O :   -0.283352
   7 H :    0.175969
   8 H :    0.153197
   9 O :   -0.345437
  10 H :    0.158854
  11 H :    0.148160
  12 O :   -0.280277
  13 H :    0.166970
  14 H :    0.156593
  15 O :   -0.340778
  16 H :    0.156272
  17 H :    0.145375

  Mayer bond orders larger than 0.100000
B(  0-O ,  1-H ) :   0.8558 B(  0-O ,  2-H ) :   0.8391 B(  3-O ,  4-H ) :   0.8394
B(  3-O ,  5-H ) :   0.7350 B(  5-H , 12-O ) :   0.1126 B(  6-O ,  7-H ) :   0.8319
B(  6-O ,  8-H ) :   0.7925 B(  6-O , 17-H ) :   0.1088 B(  9-O , 10-H ) :   0.8630
B(  9-O , 11-H ) :   0.8150 B( 12-O , 13-H ) :   0.8432 B( 12-O , 14-H ) :   0.7739
B( 15-O , 16-H ) :   0.8477 B( 15-O , 17-H ) :   0.7482

MP2 TOTAL ENERGY:     -457.931268881 Eh
FINAL SINGLE POINT ENERGY      -457.931268881366

DIPOLE MOMENT
-------------
                                X             Y             Z
Electronic contribution:     -0.18591       0.01539      -0.20116
Nuclear contribution   :      0.76293      -0.22475      -0.03466
                        -----------------------------------------
Total Dipole Moment    :      0.57702      -0.20937      -0.23582
                        -----------------------------------------
Magnitude (a.u.)       :      0.65757
Magnitude (Debye)      :      1.67140

Rotational constants in cm-1:     0.050568     0.024556     0.021246
Rotational constants in MHz :  1516.001129   736.157610   636.940903

                             ****ORCA TERMINATED NORMALLY****
TOTAL RUN TIME: 0 days 0 hours 1 minutes 1 seconds 715 msec
