                         Program Version 4.2.0 -  RELEASE  -
|  1> # 12mecn.remya.etal.2.mol0,5,10
|  2> ! MP2 def2-TZVP EnGrad TightSCF
|  3>
|  4> %pal
|  5>     nprocs 6
|  6> end
|  7>
|  8> %maxcore 8000
|  9>
| 10> %scf
| 11>     ConvForced true
| 12> end
| 13>
| 14> *xyz 0 1
| 15> C  -0.869520000  -3.929380000   1.700199000
| 16> H  -0.057420000  -3.268850000   2.015352000
| 17> H  -0.697530000  -4.930670000   2.101524000
| 18> H  -1.821490000  -3.546590000   2.077146000
| 19> C  -0.916080000  -3.969960000   0.256749000
| 20> N  -0.955390000  -3.995980000  -0.909290000
| 21> C  -1.955700000   2.515080000   1.698463000
| 22> H  -2.923830000   2.883163000   2.049269000
| 23> H  -1.154850000   3.171830000   2.050990000
| 24> H  -1.790380000   1.506115000   2.087896000
| 25> C  -1.948230000   2.482156000   0.253672000
| 26> N  -1.937550000   2.462523000  -0.913150000
| 27> C   4.602033000   0.321019000  -1.784800000
| 28> H   4.827650000  -0.662160000  -2.207910000
| 29> H   5.320558000   1.057980000  -2.148500000
| 30> H   3.601982000   0.643751000  -2.087520000
| 31> C   4.654967000   0.244048000  -0.343060000
| 32> N   4.691648000   0.166590000   0.820757000
| 33> *
| 34>
| 35>                          ****END OF INPUT****

CARTESIAN COORDINATES (ANGSTROEM)
---------------------------------
  C     -0.869520   -3.929380    1.700199
  H     -0.057420   -3.268850    2.015352
  H     -0.697530   -4.930670    2.101524
  H     -1.821490   -3.546590    2.077146
  C     -0.916080   -3.969960    0.256749
  N     -0.955390   -3.995980   -0.909290
  C     -1.955700    2.515080    1.698463
  H     -2.923830    2.883163    2.049269
  H     -1.154850    3.171830    2.050990
  H     -1.790380    1.506115    2.087896
  C     -1.948230    2.482156    0.253672
  N     -1.937550    2.462523   -0.913150
  C      4.602033    0.321019   -1.784800
  H      4.827650   -0.662160   -2.207910
  H      5.320558    1.057980   -2.148500
  H      3.601982    0.643751   -2.087520
  C      4.654967    0.244048   -0.343060
  N      4.691648    0.166590    0.820757

 Total Charge           Charge          ....    0
 Multiplicity           Mult            ....    1
 Number of Electrons    NEL             ....   66
 Basis Dimension        Dim             ....  333

ORBITAL ENERGIES
----------------

  NO   OCC          E(Eh)            E(eV)
   0   2.0000     -15.573713      -423.7823
   1   2.0000     -15.572718      -423.7552
   2   2.0000     -15.572516      -423.7497
   3   2.0000     -11.286225      -307.1138
   4   2.0000     -11.284901      -307.0778
   5   2.0000     -11.281869      -306.9953
   6   2.0000     -11.280598      -306.9607
   7   2.0000     -11.280223      -306.9505
   8   2.0000     -11.279568      -306.9326
   9   2.0000      -1.214821       -33.0570
  10   2.0000      -1.214242       -33.0412
  11   2.0000      -1.213857       -33.0307
  12   2.0000      -1.044748       -28.4290
  13   2.0000      -1.044154       -28.4129
  14   2.0000      -1.041828       -28.3496
  15   2.0000      -0.700498       -19.0615
  16   2.0000      -0.700000       -19.0480
  17   2.0000      -0.697812       -18.9884
  18   2.0000      -0.633715       -17.2442
  19   2.0000      -0.632564       -17.2129
  20   2.0000      -0.632057       -17.1991
  21   2.0000      -0.631740       -17.1905
  22   2.0000      -0.631524       -17.1847
  23   2.0000      -0.627033       -17.0624
  24   2.0000      -0.556238       -15.1360
  25   2.0000      -0.556102       -15.1323
  26   2.0000      -0.555265       -15.1095
  27   2.0000      -0.458098       -12.4655
  28   2.0000      -0.457819       -12.4579
  29   2.0000      -0.457522       -12.4498
  30   2.0000      -0.456994       -12.4354
  31   2.0000      -0.456961       -12.4345
  32   2.0000      -0.456930       -12.4337
  33   0.0000       0.107833         2.9343
  34   0.0000       0.123058         3.3486
  35   0.0000       0.125702         3.4205
  36   0.0000       0.169630         4.6159
  37   0.0000       0.170462         4.6385

MULLIKEN ATOMIC CHARGES
-----------------------
   0 C :   -0.281836
   1 H :    0.175595
   2 H :    0.172709
   3 H :    0.169356
   4 C :   -0.144732
   5 N :   -0.091103
   6 C :   -0.277086
   7 H :    0.172099
   8 H :    0.174319
   9 H :    0.167926
  10 C :   -0.145739
  11 N :   -0.091507
  12 C :   -0.278160
  13 H :    0.173335
  14 H :    0.170869
  15 H :    0.178843
  16 C :   -0.145446
  17 N :   -0.099442
Sum of atomic charges:    0.0000000

LOEWDIN ATOMIC CHARGES
----------------------
   0 C :   -0.284160
   1 H :    0.153501
   2 H :    0.151878
   3 H :    0.151863
   4 C :   -0.219847
   5 N :    0.046761
   6 C :   -0.283880
   7 H :    0.152396
   8 H :    0.153469
   9 H :    0.151555
  10 C :   -0.219984
  11 N :    0.046448
  12 C :   -0.282147
  13 H :    0.153757
  14 H :    0.151451
  15 H :    0.155468
  16 C :   -0.218684
  17 N :    0.040155

  Mayer bond orders larger than 0.100000
B(  0-C ,  1-H ) :   0.9162 B(  0-C ,  2-H ) :   0.9163 B(  0-C ,  3-H ) :   0.9174
B(  0-C ,  4-C ) :   0.9009 B(  4-C ,  5-N ) :   2.8363 B(  6-C ,  7-H ) :   0.9166
B(  6-C ,  8-H ) :   0.9158 B(  6-C ,  9-H ) :   0.9173 B(  6-C , 10-C ) :   0.9017
B( 10-C , 11-N ) :   2.8361 B( 12-C , 13-H ) :   0.9150 B( 12-C , 14-H ) :   0.9168
B( 12-C , 15-H ) :   0.9145 B( 12-C , 16-C ) :   0.9017 B( 16-C , 17-N ) :   2.8417

MP2 TOTAL ENERGY:     -397.450292609 Eh
FINAL SINGLE POINT ENERGY      -397.450292608519

DIPOLE MOMENT
-------------
                                X             Y             Z
Electronic contribution:      0.03910      -0.33563      -3.16506
Nuclear contribution   :     -0.05474       0.50268       4.64860
                        -----------------------------------------
Total Dipole Moment    :     -0.01564       0.16705       1.48354
                        -----------------------------------------
Magnitude (a.u.)       :      1.49299
Magnitude (Debye)      :      3.79488

Rotational constants in cm-1:     0.016254     0.013778     0.008650
Rotational constants in MHz :   487.287471   413.049586   259.308863

                             ****ORCA TERMINATED NORMALLY****
TOTAL RUN TIME: 0 days 0 hours 2 minutes 11 seconds 59 msec
