                         Program Version 4.2.0 -  RELEASE  -
|  1> # 12h2o.su.etal.mol7,8,9,10,11
|  2> ! MP2 def2-TZVP EnGrad TightSCF
|  3>
|  4> %pal
|  5>     nprocs 6
|  6> end
|  7>
|  8> %maxcore 8000
|  9>
| 10> %scf
| 11>     ConvForced true
| 12> end
| 13>
| 14> *xyz 0 1
| 15> O  -1.737840000  -0.885520000  -0.052730000
| 16> H  -2.090180000  -1.032320000   0.841890000
| 17> H  -0.839590000  -1.284090000  -0.017130000
| 18> O   1.752130000   0.741530000  -2.896280000
| 19> H   2.036450000   0.920500000  -1.984040000
| 20> H   0.921210000   1.242140000  -2.984230000
| 21> O   0.741530000  -1.752130000   2.896280000
| 22> H   0.920500000  -2.036450000   1.984040000
| 23> H   1.242140000  -0.921210000   2.984230000
| 24> O  -0.923410000   1.794470000  -2.768350000
| 25> H  -1.359750000   2.338250000  -3.430940000
| 26> H  -1.303000000   0.879480000  -2.865760000
| 27> O  -0.741530000   1.752130000   2.896280000
| 28> H  -0.920500000   2.036450000   1.984040000
| 29> H  -1.242140000   0.921210000   2.984230000
| 30> *
| 31>
| 32>                          ****END OF INPUT****

CARTESIAN COORDINATES (ANGSTROEM)
---------------------------------
  O     -1.737840   -0.885520   -0.052730
  H     -2.090180   -1.032320    0.841890
  H     -0.839590   -1.284090   -0.017130
  O      1.752130    0.741530   -2.896280
  H      2.036450    0.920500   -1.984040
  H      0.921210    1.242140   -2.984230
  O      0.741530   -1.752130    2.896280
  H      0.920500   -2.036450    1.984040
  H      1.242140   -0.921210    2.984230
  O     -0.923410    1.794470   -2.768350
  H     -1.359750    2.338250   -3.430940
  H     -1.303000    0.879480   -2.865760
  O     -0.741530    1.752130    2.896280
  H     -0.920500    2.036450    1.984040
  H     -1.242140    0.921210    2.984230

 Total Charge           Charge          ....    0
 Multiplicity           Mult            ....    1
 Number of Electrons    NEL             ....   50
 Basis Dimension        Dim             ....  215

ORBITAL ENERGIES
----------------

  NO   OCC          E(Eh)            E(eV)
   0   2.0000     -20.588071      -560.2299
   1   2.0000     -20.582359      -560.0745
   2   2.0000     -20.578739      -559.9759
   3   2.0000     -20.566575      -559.6449
   4   2.0000     -20.536304      -558.8212
   5   2.0000      -1.365808       -37.1655
   6   2.0000      -1.358304       -36.9613
   7   2.0000      -1.357453       -36.9382
   8   2.0000      -1.345640       -36.6167
   9   2.0000      -1.318594       -35.8808
  10   2.0000      -0.732939       -19.9443
  11   2.0000      -0.721400       -19.6303
  12   2.0000      -0.719273       -19.5724
  13   2.0000      -0.708140       -19.2695
  14   2.0000      -0.687518       -18.7083
  15   2.0000      -0.606090       -16.4926
  16   2.0000      -0.598304       -16.2807
  17   2.0000      -0.594999       -16.1908
  18   2.0000      -0.583498       -15.8778
  19   2.0000      -0.560024       -15.2390
  20   2.0000      -0.526310       -14.3216
  21   2.0000      -0.524846       -14.2818
  22   2.0000      -0.522430       -14.2160
  23   2.0000      -0.509962       -13.8768
  24   2.0000      -0.483940       -13.1687
  25   0.0000       0.075863         2.0643
  26   0.0000       0.115443         3.1414
  27   0.0000       0.130692         3.5563
  28   0.0000       0.155588         4.2338
  29   0.0000       0.160864         4.3773

MULLIKEN ATOMIC CHARGES
-----------------------
   0 O :   -0.674609
   1 H :    0.340509
   2 H :    0.334131
   3 O :   -0.705008
   4 H :    0.325364
   5 H :    0.358103
   6 O :   -0.677448
   7 H :    0.327456
   8 H :    0.351528
   9 O :   -0.698547
  10 H :    0.351829
  11 H :    0.367492
  12 O :   -0.680366
  13 H :    0.343628
  14 H :    0.335937
Sum of atomic charges:   -0.0000000

LOEWDIN ATOMIC CHARGES
----------------------
   0 O :   -0.333652
   1 H :    0.165144
   2 H :    0.169044
   3 O :   -0.349148
   4 H :    0.158524
   5 H :    0.147270
   6 O :   -0.328801
   7 H :    0.159422
   8 H :    0.171102
   9 O :   -0.311586
  10 H :    0.163354
  11 H :    0.190381
  12 O :   -0.331227
  13 H :    0.167244
  14 H :    0.162929

  Mayer bond orders larger than 0.100000
B(  0-O ,  1-H ) :   0.8495 B(  0-O ,  2-H ) :   0.8503 B(  3-O ,  4-H ) :   0.8603
B(  3-O ,  5-H ) :   0.8163 B(  6-O ,  7-H ) :   0.8566 B(  6-O ,  8-H ) :   0.8407
B(  9-O , 10-H ) :   0.8419 B(  9-O , 11-H ) :   0.8248 B( 12-O , 13-H ) :   0.8482
B( 12-O , 14-H ) :   0.8503

MP2 TOTAL ENERGY:     -381.578598789 Eh
FINAL SINGLE POINT ENERGY      -381.578598789171

DIPOLE MOMENT
-------------
                                X             Y             Z
Electronic contribution:     -0.09991       0.10932       0.09897
Nuclear contribution   :     -0.67972      -0.19727      -0.54442
                        -----------------------------------------
Total Dipole Moment    :     -0.77963      -0.08795      -0.44546
                        -----------------------------------------
Magnitude (a.u.)       :      0.90221
Magnitude (Debye)      :      2.29324

Rotational constants in cm-1:     0.058889     0.022860     0.021072
Rotational constants in MHz :  1765.443172   685.336955   631.725248

                             ****ORCA TERMINATED NORMALLY****
TOTAL RUN TIME: 0 days 0 hours 0 minutes 22 seconds 855 msec
