                         Program Version 4.2.0 -  RELEASE  -
|  1> # 12mecn.remya.etal.2.mol4,5,6
|  2> ! MP2 def2-TZVP EnGrad TightSCF
|  3>
|  4> %pal
|  5>     nprocs 6
|  6> end
|  7>
|  8> %maxcore 8000
|  9>
| 10> %scf
| 11>     ConvForced true
| 12> end
| 13>
| 14> *xyz 0 1
| 15> C  -1.509690000  -0.693960000  -1.610140000
| 16> H  -1.327010000  -1.692700000  -2.017370000
| 17> H  -0.742170000  -0.000650000  -1.964400000
| 18> H  -2.491920000  -0.334310000  -1.929350000
| 19> C  -1.473570000  -0.748120000  -0.167200000
| 20> N  -1.447490000  -0.793720000   0.998938000
| 21> C  -1.955700000   2.515080000   1.698463000
| 22> H  -2.923830000   2.883163000   2.049269000
| 23> H  -1.154850000   3.171830000   2.050990000
| 24> H  -1.790380000   1.506115000   2.087896000
| 25> C  -1.948230000   2.482156000   0.253672000
| 26> N  -1.937550000   2.462523000  -0.913150000
| 27> C   5.300864000  -2.920090000   1.401103000
| 28> H   5.986071000  -2.139770000   1.737487000
| 29> H   5.636642000  -3.888750000   1.778233000
| 30> H   4.307359000  -2.697240000   1.799307000
| 31> C   5.234791000  -2.933140000  -0.043290000
| 32> N   5.170868000  -2.941760000  -1.207750000
| 33> *
| 34>
| 35>                          ****END OF INPUT****

CARTESIAN COORDINATES (ANGSTROEM)
---------------------------------
  C     -1.509690   -0.693960   -1.610140
  H     -1.327010   -1.692700   -2.017370
  H     -0.742170   -0.000650   -1.964400
  H     -2.491920   -0.334310   -1.929350
  C     -1.473570   -0.748120   -0.167200
  N     -1.447490   -0.793720    0.998938
  C     -1.955700    2.515080    1.698463
  H     -2.923830    2.883163    2.049269
  H     -1.154850    3.171830    2.050990
  H     -1.790380    1.506115    2.087896
  C     -1.948230    2.482156    0.253672
  N     -1.937550    2.462523   -0.913150
  C      5.300864   -2.920090    1.401103
  H      5.986071   -2.139770    1.737487
  H      5.636642   -3.888750    1.778233
  H      4.307359   -2.697240    1.799307
  C      5.234791   -2.933140   -0.043290
  N      5.170868   -2.941760   -1.207750

 Total Charge           Charge          ....    0
 Multiplicity           Mult            ....    1
 Number of Electrons    NEL             ....   66
 Basis Dimension        Dim             ....  333

ORBITAL ENERGIES
----------------

  NO   OCC          E(Eh)            E(eV)
   0   2.0000     -15.572910      -423.7604
   1   2.0000     -15.571620      -423.7253
   2   2.0000     -15.570270      -423.6886
   3   2.0000     -11.283926      -307.0512
   4   2.0000     -11.282836      -307.0216
   5   2.0000     -11.282545      -307.0137
   6   2.0000     -11.280090      -306.9469
   7   2.0000     -11.273815      -306.7761
   8   2.0000     -11.271501      -306.7131
   9   2.0000      -1.217546       -33.1311
  10   2.0000      -1.214651       -33.0523
  11   2.0000      -1.213340       -33.0167
  12   2.0000      -1.043168       -28.3860
  13   2.0000      -1.036912       -28.2158
  14   2.0000      -1.033566       -28.1248
  15   2.0000      -0.700592       -19.0641
  16   2.0000      -0.694322       -18.8935
  17   2.0000      -0.689556       -18.7638
  18   2.0000      -0.632066       -17.1994
  19   2.0000      -0.629646       -17.1335
  20   2.0000      -0.629219       -17.1219
  21   2.0000      -0.625264       -17.0143
  22   2.0000      -0.619095       -16.8464
  23   2.0000      -0.615606       -16.7515
  24   2.0000      -0.558852       -15.2071
  25   2.0000      -0.556005       -15.1297
  26   2.0000      -0.555996       -15.1294
  27   2.0000      -0.461961       -12.5706
  28   2.0000      -0.458744       -12.4831
  29   2.0000      -0.458010       -12.4631
  30   2.0000      -0.457400       -12.4465
  31   2.0000      -0.456724       -12.4281
  32   2.0000      -0.453204       -12.3323
  33   0.0000       0.119732         3.2581
  34   0.0000       0.126062         3.4303
  35   0.0000       0.145329         3.9546
  36   0.0000       0.171715         4.6726
  37   0.0000       0.172477         4.6933

MULLIKEN ATOMIC CHARGES
-----------------------
   0 C :   -0.255871
   1 H :    0.173219
   2 H :    0.181153
   3 H :    0.174804
   4 C :   -0.122460
   5 N :   -0.150097
   6 C :   -0.286676
   7 H :    0.166763
   8 H :    0.166347
   9 H :    0.203844
  10 C :   -0.115354
  11 N :   -0.135668
  12 C :   -0.281419
  13 H :    0.171561
  14 H :    0.172134
  15 H :    0.175447
  16 C :   -0.145362
  17 N :   -0.092365
Sum of atomic charges:   -0.0000000

LOEWDIN ATOMIC CHARGES
----------------------
   0 C :   -0.283017
   1 H :    0.150866
   2 H :    0.157688
   3 H :    0.156784
   4 C :   -0.210759
   5 N :    0.025462
   6 C :   -0.282366
   7 H :    0.151920
   8 H :    0.151915
   9 H :    0.156722
  10 C :   -0.210645
  11 N :    0.035432
  12 C :   -0.283615
  13 H :    0.151466
  14 H :    0.151414
  15 H :    0.154056
  16 C :   -0.218536
  17 N :    0.045212

  Mayer bond orders larger than 0.100000
B(  0-C ,  1-H ) :   0.9091 B(  0-C ,  2-H ) :   0.9108 B(  0-C ,  3-H ) :   0.9131
B(  0-C ,  4-C ) :   0.9118 B(  4-C ,  5-N ) :   2.7820 B(  6-C ,  7-H ) :   0.9155
B(  6-C ,  8-H ) :   0.9159 B(  6-C ,  9-H ) :   0.9036 B(  6-C , 10-C ) :   0.8984
B( 10-C , 11-N ) :   2.7945 B( 12-C , 13-H ) :   0.9168 B( 12-C , 14-H ) :   0.9160
B( 12-C , 15-H ) :   0.9159 B( 12-C , 16-C ) :   0.9027 B( 16-C , 17-N ) :   2.8383

MP2 TOTAL ENERGY:     -397.459622163 Eh
FINAL SINGLE POINT ENERGY      -397.459622162550

DIPOLE MOMENT
-------------
                                X             Y             Z
Electronic contribution:     -0.03391      -0.23927      -3.16412
Nuclear contribution   :      0.06039       0.33995       4.66798
                        -----------------------------------------
Total Dipole Moment    :      0.02648       0.10069       1.50386
                        -----------------------------------------
Magnitude (a.u.)       :      1.50746
Magnitude (Debye)      :      3.83166

Rotational constants in cm-1:     0.054732     0.008780     0.008404
Rotational constants in MHz :  1640.812012   263.225476   251.952340

                             ****ORCA TERMINATED NORMALLY****
TOTAL RUN TIME: 0 days 0 hours 2 minutes 40 seconds 555 msec
