                         Program Version 4.2.0 -  RELEASE  -
|  1> # 12meoh.boyd.etal.mol0,2,6
|  2> ! MP2 def2-TZVP EnGrad TightSCF
|  3>
|  4> %pal
|  5>     nprocs 6
|  6> end
|  7>
|  8> %maxcore 8000
|  9>
| 10> %scf
| 11>     ConvForced true
| 12> end
| 13>
| 14> *xyz 0 1
| 15> O  -1.776108874  -2.741384797  -1.019308298
| 16> H  -2.520094035  -2.452295987  -0.420778302
| 17> C  -2.174025166  -3.952700964  -1.647004581
| 18> H  -1.359803895  -4.272673416  -2.304149236
| 19> H  -3.075973971  -3.808692420  -2.256751112
| 20> H  -2.370225393  -4.752784761  -0.918966137
| 21> O  -3.839777402   2.233595098   0.660436763
| 22> H  -2.958345897   1.907036203   0.973588449
| 23> C  -3.600368059   3.168790682  -0.390480452
| 24> H  -4.551709193   3.344148967  -0.901254863
| 25> H  -2.868237594   2.789240199  -1.113617525
| 26> H  -3.243594915   4.128998607   0.009549480
| 27> O   2.622209273  -1.703002590  -1.445859723
| 28> H   1.828551432  -1.986513781  -0.909754968
| 29> C   2.781117675  -2.615822239  -2.525472890
| 30> H   3.691063626  -2.339003544  -3.065143454
| 31> H   1.934727323  -2.559520367  -3.223226661
| 32> H   2.879948338  -3.653846211  -2.177750170
| 33> *
| 34>
| 35>                          ****END OF INPUT****

CARTESIAN COORDINATES (ANGSTROEM)
---------------------------------
  O     -1.776109   -2.741385   -1.019308
  H     -2.520094   -2.452296   -0.420778
  C     -2.174025   -3.952701   -1.647005
  H     -1.359804   -4.272673   -2.304149
  H     -3.075974   -3.808692   -2.256751
  H     -2.370225   -4.752785   -0.918966
  O     -3.839777    2.233595    0.660437
  H     -2.958346    1.907036    0.973588
  C     -3.600368    3.168791   -0.390480
  H     -4.551709    3.344149   -0.901255
  H     -2.868238    2.789240   -1.113618
  H     -3.243595    4.128999    0.009549
  O      2.622209   -1.703003   -1.445860
  H      1.828551   -1.986514   -0.909755
  C      2.781118   -2.615822   -2.525473
  H      3.691064   -2.339004   -3.065143
  H      1.934727   -2.559520   -3.223227
  H      2.879948   -3.653846   -2.177750

 Total Charge           Charge          ....    0
 Multiplicity           Mult            ....    1
 Number of Electrons    NEL             ....   54
 Basis Dimension        Dim             ....  258

ORBITAL ENERGIES
----------------

  NO   OCC          E(Eh)            E(eV)
   0   2.0000     -20.566425      -559.6409
   1   2.0000     -20.557365      -559.3943
   2   2.0000     -20.549937      -559.1922
   3   2.0000     -11.278351      -306.8995
   4   2.0000     -11.271391      -306.7101
   5   2.0000     -11.265744      -306.5565
   6   2.0000      -1.355423       -36.8829
   7   2.0000      -1.346791       -36.6480
   8   2.0000      -1.338245       -36.4155
   9   2.0000      -0.926210       -25.2035
  10   2.0000      -0.919416       -25.0186
  11   2.0000      -0.913111       -24.8470
  12   2.0000      -0.689568       -18.7641
  13   2.0000      -0.681751       -18.5514
  14   2.0000      -0.673664       -18.3313
  15   2.0000      -0.624521       -16.9941
  16   2.0000      -0.616559       -16.7774
  17   2.0000      -0.610429       -16.6106
  18   2.0000      -0.599235       -16.3060
  19   2.0000      -0.590124       -16.0581
  20   2.0000      -0.584494       -15.9049
  21   2.0000      -0.508324       -13.8322
  22   2.0000      -0.501693       -13.6518
  23   2.0000      -0.493212       -13.4210
  24   2.0000      -0.456780       -12.4296
  25   2.0000      -0.449387       -12.2284
  26   2.0000      -0.441905       -12.0248
  27   0.0000       0.114437         3.1140
  28   0.0000       0.133159         3.6234
  29   0.0000       0.152185         4.1412
  30   0.0000       0.164385         4.4731
  31   0.0000       0.177466         4.8291

MULLIKEN ATOMIC CHARGES
-----------------------
   0 O :   -0.503573
   1 H :    0.326425
   2 C :   -0.174747
   3 H :    0.126912
   4 H :    0.114411
   5 H :    0.112288
   6 O :   -0.500086
   7 H :    0.321940
   8 C :   -0.176146
   9 H :    0.128072
  10 H :    0.115595
  11 H :    0.110705
  12 O :   -0.504017
  13 H :    0.328771
  14 C :   -0.169285
  15 H :    0.126781
  16 H :    0.109756
  17 H :    0.106197
Sum of atomic charges:    0.0000000

LOEWDIN ATOMIC CHARGES
----------------------
   0 O :   -0.112706
   1 H :    0.194756
   2 C :   -0.383568
   3 H :    0.109340
   4 H :    0.097089
   5 H :    0.096193
   6 O :   -0.112669
   7 H :    0.188155
   8 C :   -0.378168
   9 H :    0.109438
  10 H :    0.097132
  11 H :    0.096166
  12 O :   -0.112349
  13 H :    0.195235
  14 C :   -0.383025
  15 H :    0.109059
  16 H :    0.095332
  17 H :    0.094591

  Mayer bond orders larger than 0.100000
B(  0-O ,  1-H ) :   0.8389 B(  0-O ,  2-C ) :   0.9220 B(  2-C ,  3-H ) :   0.9376
B(  2-C ,  4-H ) :   0.9397 B(  2-C ,  5-H ) :   0.9382 B(  6-O ,  7-H ) :   0.8437
B(  6-O ,  8-C ) :   0.9238 B(  8-C ,  9-H ) :   0.9379 B(  8-C , 10-H ) :   0.9410
B(  8-C , 11-H ) :   0.9378 B( 12-O , 13-H ) :   0.8364 B( 12-O , 14-C ) :   0.9294
B( 14-C , 15-H ) :   0.9378 B( 14-C , 16-H ) :   0.9390 B( 14-C , 17-H ) :   0.9394

MP2 TOTAL ENERGY:     -346.522048608 Eh
FINAL SINGLE POINT ENERGY      -346.522048607543

DIPOLE MOMENT
-------------
                                X             Y             Z
Electronic contribution:      0.07336       1.58132       3.31956
Nuclear contribution   :     -0.52432      -2.26571      -3.55481
                        -----------------------------------------
Total Dipole Moment    :     -0.45095      -0.68439      -0.23525
                        -----------------------------------------
Magnitude (a.u.)       :      0.85269
Magnitude (Debye)      :      2.16737

Rotational constants in cm-1:     0.049276     0.014326     0.011474
Rotational constants in MHz :  1477.254578   429.477301   343.996119

                             ****ORCA TERMINATED NORMALLY****
TOTAL RUN TIME: 0 days 0 hours 1 minutes 6 seconds 280 msec
