                         Program Version 4.2.0 -  RELEASE  -
|  1> # 12h2o.su.etal.mol4,6,8,9,11
|  2> ! MP2 def2-TZVP EnGrad TightSCF
|  3>
|  4> %pal
|  5>     nprocs 6
|  6> end
|  7>
|  8> %maxcore 8000
|  9>
| 10> %scf
| 11>     ConvForced true
| 12> end
| 13>
| 14> *xyz 0 1
| 15> O  -0.885520000   1.737840000   0.052730000
| 16> H  -1.032320000   2.090180000  -0.841890000
| 17> H  -1.284090000   0.839590000   0.017130000
| 18> O   1.737840000   0.885520000  -0.052730000
| 19> H   2.090180000   1.032320000   0.841890000
| 20> H   0.839590000   1.284090000  -0.017130000
| 21> O   1.752130000   0.741530000  -2.896280000
| 22> H   2.036450000   0.920500000  -1.984040000
| 23> H   0.921210000   1.242140000  -2.984230000
| 24> O   0.741530000  -1.752130000   2.896280000
| 25> H   0.920500000  -2.036450000   1.984040000
| 26> H   1.242140000  -0.921210000   2.984230000
| 27> O  -0.741530000   1.752130000   2.896280000
| 28> H  -0.920500000   2.036450000   1.984040000
| 29> H  -1.242140000   0.921210000   2.984230000
| 30> *
| 31>
| 32>                          ****END OF INPUT****

CARTESIAN COORDINATES (ANGSTROEM)
---------------------------------
  O     -0.885520    1.737840    0.052730
  H     -1.032320    2.090180   -0.841890
  H     -1.284090    0.839590    0.017130
  O      1.737840    0.885520   -0.052730
  H      2.090180    1.032320    0.841890
  H      0.839590    1.284090   -0.017130
  O      1.752130    0.741530   -2.896280
  H      2.036450    0.920500   -1.984040
  H      0.921210    1.242140   -2.984230
  O      0.741530   -1.752130    2.896280
  H      0.920500   -2.036450    1.984040
  H      1.242140   -0.921210    2.984230
  O     -0.741530    1.752130    2.896280
  H     -0.920500    2.036450    1.984040
  H     -1.242140    0.921210    2.984230

 Total Charge           Charge          ....    0
 Multiplicity           Mult            ....    1
 Number of Electrons    NEL             ....   50
 Basis Dimension        Dim             ....  215

ORBITAL ENERGIES
----------------

  NO   OCC          E(Eh)            E(eV)
   0   2.0000     -20.639731      -561.6356
   1   2.0000     -20.569680      -559.7294
   2   2.0000     -20.566834      -559.6520
   3   2.0000     -20.556640      -559.3746
   4   2.0000     -20.541352      -558.9586
   5   2.0000      -1.422607       -38.7111
   6   2.0000      -1.353474       -36.8299
   7   2.0000      -1.345917       -36.6243
   8   2.0000      -1.338456       -36.4212
   9   2.0000      -1.322658       -35.9914
  10   2.0000      -0.780645       -21.2424
  11   2.0000      -0.729825       -19.8596
  12   2.0000      -0.712001       -19.3745
  13   2.0000      -0.708267       -19.2729
  14   2.0000      -0.692239       -18.8368
  15   2.0000      -0.656863       -17.8741
  16   2.0000      -0.612424       -16.6649
  17   2.0000      -0.583768       -15.8851
  18   2.0000      -0.576919       -15.6988
  19   2.0000      -0.567216       -15.4347
  20   2.0000      -0.552835       -15.0434
  21   2.0000      -0.517975       -14.0948
  22   2.0000      -0.511752       -13.9255
  23   2.0000      -0.501712       -13.6523
  24   2.0000      -0.487353       -13.2615
  25   0.0000       0.066895         1.8203
  26   0.0000       0.109677         2.9845
  27   0.0000       0.134874         3.6701
  28   0.0000       0.169928         4.6240
  29   0.0000       0.179061         4.8725

MULLIKEN ATOMIC CHARGES
-----------------------
   0 O :   -0.706412
   1 H :    0.368232
   2 H :    0.370813
   3 O :   -0.722502
   4 H :    0.343961
   5 H :    0.351516
   6 O :   -0.685129
   7 H :    0.375599
   8 H :    0.302050
   9 O :   -0.681064
  10 H :    0.340333
  11 H :    0.339328
  12 O :   -0.696236
  13 H :    0.365988
  14 H :    0.333522
Sum of atomic charges:    0.0000000

LOEWDIN ATOMIC CHARGES
----------------------
   0 O :   -0.274045
   1 H :    0.176550
   2 H :    0.185624
   3 O :   -0.336804
   4 H :    0.164331
   5 H :    0.141178
   6 O :   -0.336770
   7 H :    0.154457
   8 H :    0.149825
   9 O :   -0.331492
  10 H :    0.165655
  11 H :    0.164479
  12 O :   -0.335002
  13 H :    0.149565
  14 H :    0.162449

  Mayer bond orders larger than 0.100000
B(  0-O ,  1-H ) :   0.8279 B(  0-O ,  2-H ) :   0.8229 B(  3-O ,  4-H ) :   0.8449
B(  3-O ,  5-H ) :   0.7934 B(  6-O ,  7-H ) :   0.8149 B(  6-O ,  8-H ) :   0.8719
B(  9-O , 10-H ) :   0.8502 B(  9-O , 11-H ) :   0.8478 B( 12-O , 13-H ) :   0.8283
B( 12-O , 14-H ) :   0.8514

MP2 TOTAL ENERGY:     -381.586514418 Eh
FINAL SINGLE POINT ENERGY      -381.586514418459

DIPOLE MOMENT
-------------
                                X             Y             Z
Electronic contribution:      0.02610      -0.02369       0.17666
Nuclear contribution   :     -1.36331       0.56521      -0.68611
                        -----------------------------------------
Total Dipole Moment    :     -1.33720       0.54152      -0.50945
                        -----------------------------------------
Magnitude (a.u.)       :      1.53000
Magnitude (Debye)      :      3.88895

Rotational constants in cm-1:     0.076411     0.034215     0.025849
Rotational constants in MHz :  2290.732203  1025.750127   774.927174

                             ****ORCA TERMINATED NORMALLY****
TOTAL RUN TIME: 0 days 0 hours 0 minutes 32 seconds 631 msec
