                         Program Version 4.2.0 -  RELEASE  -
|  1> # 12meoh.boyd.etal.mol2,6,10
|  2> ! MP2 def2-TZVP EnGrad TightSCF
|  3>
|  4> %pal
|  5>     nprocs 6
|  6> end
|  7>
|  8> %maxcore 8000
|  9>
| 10> %scf
| 11>     ConvForced true
| 12> end
| 13>
| 14> *xyz 0 1
| 15> O  -3.839777402   2.233595098   0.660436763
| 16> H  -2.958345897   1.907036203   0.973588449
| 17> C  -3.600368059   3.168790682  -0.390480452
| 18> H  -4.551709193   3.344148967  -0.901254863
| 19> H  -2.868237594   2.789240199  -1.113617525
| 20> H  -3.243594915   4.128998607   0.009549480
| 21> O   2.622209273  -1.703002590  -1.445859723
| 22> H   1.828551432  -1.986513781  -0.909754968
| 23> C   2.781117675  -2.615822239  -2.525472890
| 24> H   3.691063626  -2.339003544  -3.065143454
| 25> H   1.934727323  -2.559520367  -3.223226661
| 26> H   2.879948338  -3.653846211  -2.177750170
| 27> O  -5.201143618   0.064582726  -0.172223772
| 28> H  -4.686891530   0.869258890   0.107806143
| 29> C  -6.513192168   0.171391798   0.359883449
| 30> H  -7.049381312  -0.749234190   0.111361174
| 31> H  -7.057741163   1.017801101  -0.081819420
| 32> H  -6.514770575   0.292264928   1.453058834
| 33> *
| 34>
| 35>                          ****END OF INPUT****

CARTESIAN COORDINATES (ANGSTROEM)
---------------------------------
  O     -3.839777    2.233595    0.660437
  H     -2.958346    1.907036    0.973588
  C     -3.600368    3.168791   -0.390480
  H     -4.551709    3.344149   -0.901255
  H     -2.868238    2.789240   -1.113618
  H     -3.243595    4.128999    0.009549
  O      2.622209   -1.703003   -1.445860
  H      1.828551   -1.986514   -0.909755
  C      2.781118   -2.615822   -2.525473
  H      3.691064   -2.339004   -3.065143
  H      1.934727   -2.559520   -3.223227
  H      2.879948   -3.653846   -2.177750
  O     -5.201144    0.064583   -0.172224
  H     -4.686892    0.869259    0.107806
  C     -6.513192    0.171392    0.359883
  H     -7.049381   -0.749234    0.111361
  H     -7.057741    1.017801   -0.081819
  H     -6.514771    0.292265    1.453059

 Total Charge           Charge          ....    0
 Multiplicity           Mult            ....    1
 Number of Electrons    NEL             ....   54
 Basis Dimension        Dim             ....  258

ORBITAL ENERGIES
----------------

  NO   OCC          E(Eh)            E(eV)
   0   2.0000     -20.590924      -560.3075
   1   2.0000     -20.558600      -559.4280
   2   2.0000     -20.515380      -558.2519
   3   2.0000     -11.291311      -307.2522
   4   2.0000     -11.271915      -306.7244
   5   2.0000     -11.249002      -306.1009
   6   2.0000      -1.384597       -37.6768
   7   2.0000      -1.346695       -36.6454
   8   2.0000      -1.312949       -35.7272
   9   2.0000      -0.943078       -25.6624
  10   2.0000      -0.919730       -25.0271
  11   2.0000      -0.895559       -24.3694
  12   2.0000      -0.716375       -19.4935
  13   2.0000      -0.681523       -18.5452
  14   2.0000      -0.675737       -18.3877
  15   2.0000      -0.634196       -17.2573
  16   2.0000      -0.617450       -16.8017
  17   2.0000      -0.610697       -16.6179
  18   2.0000      -0.591805       -16.1038
  19   2.0000      -0.590775       -16.0758
  20   2.0000      -0.563031       -15.3209
  21   2.0000      -0.530439       -14.4340
  22   2.0000      -0.500391       -13.6163
  23   2.0000      -0.490191       -13.3388
  24   2.0000      -0.456358       -12.4181
  25   2.0000      -0.449598       -12.2342
  26   2.0000      -0.417402       -11.3581
  27   0.0000       0.119014         3.2385
  28   0.0000       0.134331         3.6553
  29   0.0000       0.160855         4.3771
  30   0.0000       0.170507         4.6397
  31   0.0000       0.175355         4.7716

MULLIKEN ATOMIC CHARGES
-----------------------
   0 O :   -0.510860
   1 H :    0.343087
   2 C :   -0.193252
   3 H :    0.143667
   4 H :    0.132841
   5 H :    0.126411
   6 O :   -0.499854
   7 H :    0.322142
   8 C :   -0.172127
   9 H :    0.129079
  10 H :    0.110534
  11 H :    0.110228
  12 O :   -0.535773
  13 H :    0.338489
  14 C :   -0.157084
  15 H :    0.119410
  16 H :    0.092391
  17 H :    0.100671
Sum of atomic charges:    0.0000000

LOEWDIN ATOMIC CHARGES
----------------------
   0 O :   -0.074825
   1 H :    0.197910
   2 C :   -0.370791
   3 H :    0.115588
   4 H :    0.103768
   5 H :    0.104373
   6 O :   -0.112071
   7 H :    0.192677
   8 C :   -0.382192
   9 H :    0.110227
  10 H :    0.095594
  11 H :    0.095765
  12 O :   -0.124992
  13 H :    0.156316
  14 C :   -0.395654
  15 H :    0.105130
  16 H :    0.090322
  17 H :    0.092854

  Mayer bond orders larger than 0.100000
B(  0-O ,  1-H ) :   0.8287 B(  0-O ,  2-C ) :   0.8699 B(  0-O , 13-H ) :   0.1032
B(  2-C ,  3-H ) :   0.9395 B(  2-C ,  4-H ) :   0.9410 B(  2-C ,  5-H ) :   0.9327
B(  6-O ,  7-H ) :   0.8411 B(  6-O ,  8-C ) :   0.9248 B(  8-C ,  9-H ) :   0.9373
B(  8-C , 10-H ) :   0.9391 B(  8-C , 11-H ) :   0.9391 B( 12-O , 13-H ) :   0.7894
B( 12-O , 14-C ) :   0.9411 B( 14-C , 15-H ) :   0.9415 B( 14-C , 16-H ) :   0.9367
B( 14-C , 17-H ) :   0.9412

MP2 TOTAL ENERGY:     -346.529508112 Eh
FINAL SINGLE POINT ENERGY      -346.529508112394

DIPOLE MOMENT
-------------
                                X             Y             Z
Electronic contribution:      1.39100       0.10808       1.88250
Nuclear contribution   :     -1.10423       0.37487      -1.82993
                        -----------------------------------------
Total Dipole Moment    :      0.28677       0.48294       0.05256
                        -----------------------------------------
Magnitude (a.u.)       :      0.56412
Magnitude (Debye)      :      1.43388

Rotational constants in cm-1:     0.080863     0.010471     0.009513
Rotational constants in MHz :  2424.197669   313.910300   285.201417

                             ****ORCA TERMINATED NORMALLY****
TOTAL RUN TIME: 0 days 0 hours 0 minutes 56 seconds 144 msec
