                         Program Version 4.2.0 -  RELEASE  -
|  1> ! MP2 def2-TZVP EnGrad TightSCF FrozenCore
|  2>
|  3> %pal
|  4>     nprocs 12
|  5> end
|  6>
|  7> %maxcore 8000
|  8>
|  9> %scf
| 10>     ConvForced true
| 11> end
| 12>
| 13> *xyz 0 1
| 14> C     3.372270    -1.555138     0.666819
| 15> H     4.463270    -1.621978     0.652914
| 16> H     2.936595    -2.545885     0.813856
| 17> H     3.049759    -0.909560     1.488937
| 18> C     2.891627    -0.992491    -0.592012
| 19> N     2.524213    -0.536256    -1.596040
| 20> C     1.917683     2.714129    -0.672880
| 21> H     0.981039     3.247820    -0.848698
| 22> H     2.065507     1.994662    -1.483468
| 23> H     2.751867     3.420098    -0.646500
| 24> C     1.837546     1.989907     0.592685
| 25> N     1.788459     1.417185     1.603037
| 26> C    -1.027302    -0.018612     2.223081
| 27> H    -1.128221     0.805444     1.509788
| 28> H    -0.457795     0.338751     3.084298
| 29> H    -2.015530    -0.364223     2.539782
| 30> C    -0.307400    -1.113706     1.579729
| 31> N     0.263053    -1.990901     1.074781
| 32> C    -0.580909    -1.260884    -2.164846
| 33> H    -1.567768    -1.599224    -2.491272
| 34> H    -0.199239    -1.951518    -1.407584
| 35> H     0.117244    -1.229865    -3.004578
| 36> C    -0.695858     0.068671    -1.574543
| 37> N    -0.813473     1.126515    -1.105404
| 38> C    -3.956889     1.204505     0.156170
| 39> H    -4.851320     1.497966    -0.399160
| 40> H    -3.103503     1.795447    -0.191076
| 41> H    -4.122446     1.396702     1.220092
| 42> C    -3.670314    -0.212017    -0.059084
| 43> N    -3.419708    -1.333804    -0.228953
| 44> *
| 45>
| 46>                          ****END OF INPUT****

CARTESIAN COORDINATES (ANGSTROEM)
---------------------------------
  C      3.372270   -1.555138    0.666819
  H      4.463270   -1.621978    0.652914
  H      2.936595   -2.545885    0.813856
  H      3.049759   -0.909560    1.488937
  C      2.891627   -0.992491   -0.592012
  N      2.524213   -0.536256   -1.596040
  C      1.917683    2.714129   -0.672880
  H      0.981039    3.247820   -0.848698
  H      2.065507    1.994662   -1.483468
  H      2.751867    3.420098   -0.646500
  C      1.837546    1.989907    0.592685
  N      1.788459    1.417185    1.603037
  C     -1.027302   -0.018612    2.223081
  H     -1.128221    0.805444    1.509788
  H     -0.457795    0.338751    3.084298
  H     -2.015530   -0.364223    2.539782
  C     -0.307400   -1.113706    1.579729
  N      0.263053   -1.990901    1.074781
  C     -0.580909   -1.260884   -2.164846
  H     -1.567768   -1.599224   -2.491272
  H     -0.199239   -1.951518   -1.407584
  H      0.117244   -1.229865   -3.004578
  C     -0.695858    0.068671   -1.574543
  N     -0.813473    1.126515   -1.105404
  C     -3.956889    1.204505    0.156170
  H     -4.851320    1.497966   -0.399160
  H     -3.103503    1.795447   -0.191076
  H     -4.122446    1.396702    1.220092
  C     -3.670314   -0.212017   -0.059084
  N     -3.419708   -1.333804   -0.228953

 Total Charge           Charge          ....    0
 Multiplicity           Mult            ....    1
 Number of Electrons    NEL             ....  110
 Basis Dimension        Dim             ....  555

ORBITAL ENERGIES
----------------

  NO   OCC          E(Eh)            E(eV)
   0   2.0000     -15.571823      -423.7308
   1   2.0000     -15.561985      -423.4631
   2   2.0000     -15.560218      -423.4150
   3   2.0000     -15.559571      -423.3975
   4   2.0000     -15.557380      -423.3378
   5   2.0000     -11.281863      -306.9951
   6   2.0000     -11.279638      -306.9346
   7   2.0000     -11.279199      -306.9226
   8   2.0000     -11.276801      -306.8574
   9   2.0000     -11.274605      -306.7976
  10   2.0000     -11.272411      -306.7379
  11   2.0000     -11.263169      -306.4864
  12   2.0000     -11.261869      -306.4510
  13   2.0000     -11.259234      -306.3793
  14   2.0000     -11.252775      -306.2036
  15   2.0000      -1.219483       -33.1838
  16   2.0000      -1.213685       -33.0260
  17   2.0000      -1.210549       -32.9407
  18   2.0000      -1.208190       -32.8765
  19   2.0000      -1.206367       -32.8269
  20   2.0000      -1.036283       -28.1987
  21   2.0000      -1.021757       -27.8034
  22   2.0000      -1.021042       -27.7840
  23   2.0000      -1.018234       -27.7076
  24   2.0000      -1.014376       -27.6026
  25   2.0000      -0.694975       -18.9112
  26   2.0000      -0.681816       -18.5532
  27   2.0000      -0.681084       -18.5332
  28   2.0000      -0.677351       -18.4317
  29   2.0000      -0.674598       -18.3567
  30   2.0000      -0.630585       -17.1591
  31   2.0000      -0.628045       -17.0900
  32   2.0000      -0.620500       -16.8846
  33   2.0000      -0.614460       -16.7203
  34   2.0000      -0.612672       -16.6716
  35   2.0000      -0.610268       -16.6062
  36   2.0000      -0.609319       -16.5804
  37   2.0000      -0.603476       -16.4214
  38   2.0000      -0.598985       -16.2992
  39   2.0000      -0.595682       -16.2093
  40   2.0000      -0.557722       -15.1764
  41   2.0000      -0.552408       -15.0318
  42   2.0000      -0.551256       -15.0004
  43   2.0000      -0.548487       -14.9251
  44   2.0000      -0.545602       -14.8466
  45   2.0000      -0.465358       -12.6630
  46   2.0000      -0.462640       -12.5891
  47   2.0000      -0.461842       -12.5674
  48   2.0000      -0.456261       -12.4155
  49   2.0000      -0.454208       -12.3596
  50   2.0000      -0.452807       -12.3215
  51   2.0000      -0.447480       -12.1765
  52   2.0000      -0.447194       -12.1688
  53   2.0000      -0.445437       -12.1210
  54   2.0000      -0.444692       -12.1007
  55   0.0000       0.118877         3.2348
  56   0.0000       0.142349         3.8735
  57   0.0000       0.157551         4.2872
  58   0.0000       0.162698         4.4272
  59   0.0000       0.166460         4.5296

MULLIKEN ATOMIC CHARGES
-----------------------
   0 C :   -0.281166
   1 H :    0.166224
   2 H :    0.182765
   3 H :    0.192130
   4 C :   -0.078481
   5 N :   -0.181964
   6 C :   -0.275100
   7 H :    0.173387
   8 H :    0.196476
   9 H :    0.166673
  10 C :   -0.085509
  11 N :   -0.177102
  12 C :   -0.287683
  13 H :    0.179569
  14 H :    0.184542
  15 H :    0.171572
  16 C :   -0.066756
  17 N :   -0.179445
  18 C :   -0.269156
  19 H :    0.178238
  20 H :    0.195218
  21 H :    0.177935
  22 C :   -0.040521
  23 N :   -0.239504
  24 C :   -0.303264
  25 H :    0.175072
  26 H :    0.201425
  27 H :    0.165240
  28 C :   -0.130876
  29 N :   -0.109938
Sum of atomic charges:   -0.0000000

LOEWDIN ATOMIC CHARGES
----------------------
   0 C :   -0.285934
   1 H :    0.145761
   2 H :    0.153976
   3 H :    0.155188
   4 C :   -0.199329
   5 N :    0.029403
   6 C :   -0.286234
   7 H :    0.151605
   8 H :    0.155892
   9 H :    0.146085
  10 C :   -0.201309
  11 N :    0.030333
  12 C :   -0.286891
  13 H :    0.151961
  14 H :    0.152759
  15 H :    0.147376
  16 C :   -0.196665
  17 N :    0.036220
  18 C :   -0.282501
  19 H :    0.150956
  20 H :    0.158040
  21 H :    0.151614
  22 C :   -0.192210
  23 N :    0.017254
  24 C :   -0.287445
  25 H :    0.150015
  26 H :    0.154325
  27 H :    0.148227
  28 C :   -0.216704
  29 N :    0.048233

  Mayer bond orders larger than 0.100000
B(  0-C ,  1-H ) :   0.9103 B(  0-C ,  2-H ) :   0.9142 B(  0-C ,  3-H ) :   0.9102
B(  0-C ,  4-C ) :   0.8952 B(  4-C ,  5-N ) :   2.7337 B(  6-C ,  7-H ) :   0.9152
B(  6-C ,  8-H ) :   0.9083 B(  6-C ,  9-H ) :   0.9106 B(  6-C , 10-C ) :   0.8958
B( 10-C , 11-N ) :   2.7426 B( 12-C , 13-H ) :   0.9137 B( 12-C , 14-H ) :   0.9056
B( 12-C , 15-H ) :   0.9136 B( 12-C , 16-C ) :   0.9053 B( 16-C , 17-N ) :   2.7211
B( 18-C , 19-H ) :   0.9050 B( 18-C , 20-H ) :   0.9081 B( 18-C , 21-H ) :   0.9118
B( 18-C , 22-C ) :   0.8990 B( 22-C , 23-N ) :   2.6597 B( 24-C , 25-H ) :   0.9139
B( 24-C , 26-H ) :   0.9077 B( 24-C , 27-H ) :   0.9192 B( 24-C , 28-C ) :   0.8890
B( 28-C , 29-N ) :   2.7879

MP2 TOTAL ENERGY:     -662.459443745 Eh
FINAL SINGLE POINT ENERGY      -662.459443744709

DIPOLE MOMENT
-------------
                                X             Y             Z
Electronic contribution:      0.74611      -3.05034      -0.63213
Nuclear contribution   :     -1.08548       4.29441       0.84124
                        -----------------------------------------
Total Dipole Moment    :     -0.33937       1.24407       0.20911
                        -----------------------------------------
Magnitude (a.u.)       :      1.30637
Magnitude (Debye)      :      3.32053

Rotational constants in cm-1:     0.022288     0.011560     0.011053
Rotational constants in MHz :   668.165699   346.555131   331.370589

                             ****ORCA TERMINATED NORMALLY****
TOTAL RUN TIME: 0 days 0 hours 34 minutes 31 seconds 573 msec
