                         Program Version 4.2.0 -  RELEASE  -
|  1> # 12h2o.su.etal.mol0,1,3,5,6,8,9
|  2> ! MP2 def2-TZVP EnGrad TightSCF
|  3>
|  4> %pal
|  5>     nprocs 6
|  6> end
|  7>
|  8> %maxcore 8000
|  9>
| 10> %scf
| 11>     ConvForced true
| 12> end
| 13>
| 14> *xyz 0 1
| 15> O   1.794470000   0.923410000   2.768350000
| 16> H   2.338250000   1.359750000   3.430940000
| 17> H   0.879480000   1.303000000   2.865760000
| 18> O  -1.794470000  -0.923410000   2.768350000
| 19> H  -2.338250000  -1.359750000   3.430940000
| 20> H  -0.879480000  -1.303000000   2.865760000
| 21> O  -1.752130000  -0.741530000  -2.896280000
| 22> H  -2.036450000  -0.920500000  -1.984040000
| 23> H  -0.921210000  -1.242140000  -2.984230000
| 24> O   0.885520000  -1.737840000   0.052730000
| 25> H   1.284090000  -0.839590000   0.017130000
| 26> H   1.032320000  -2.090180000  -0.841890000
| 27> O   1.737840000   0.885520000  -0.052730000
| 28> H   2.090180000   1.032320000   0.841890000
| 29> H   0.839590000   1.284090000  -0.017130000
| 30> O   1.752130000   0.741530000  -2.896280000
| 31> H   2.036450000   0.920500000  -1.984040000
| 32> H   0.921210000   1.242140000  -2.984230000
| 33> O   0.741530000  -1.752130000   2.896280000
| 34> H   0.920500000  -2.036450000   1.984040000
| 35> H   1.242140000  -0.921210000   2.984230000
| 36> *
| 37>
| 38>                          ****END OF INPUT****

CARTESIAN COORDINATES (ANGSTROEM)
---------------------------------
  O      1.794470    0.923410    2.768350
  H      2.338250    1.359750    3.430940
  H      0.879480    1.303000    2.865760
  O     -1.794470   -0.923410    2.768350
  H     -2.338250   -1.359750    3.430940
  H     -0.879480   -1.303000    2.865760
  O     -1.752130   -0.741530   -2.896280
  H     -2.036450   -0.920500   -1.984040
  H     -0.921210   -1.242140   -2.984230
  O      0.885520   -1.737840    0.052730
  H      1.284090   -0.839590    0.017130
  H      1.032320   -2.090180   -0.841890
  O      1.737840    0.885520   -0.052730
  H      2.090180    1.032320    0.841890
  H      0.839590    1.284090   -0.017130
  O      1.752130    0.741530   -2.896280
  H      2.036450    0.920500   -1.984040
  H      0.921210    1.242140   -2.984230
  O      0.741530   -1.752130    2.896280
  H      0.920500   -2.036450    1.984040
  H      1.242140   -0.921210    2.984230

 Total Charge           Charge          ....    0
 Multiplicity           Mult            ....    1
 Number of Electrons    NEL             ....   70
 Basis Dimension        Dim             ....  301

ORBITAL ENERGIES
----------------

  NO   OCC          E(Eh)            E(eV)
   0   2.0000     -20.635516      -561.5209
   1   2.0000     -20.608374      -560.7824
   2   2.0000     -20.558991      -559.4386
   3   2.0000     -20.556764      -559.3780
   4   2.0000     -20.549818      -559.1890
   5   2.0000     -20.545445      -559.0700
   6   2.0000     -20.514152      -558.2185
   7   2.0000      -1.416681       -38.5498
   8   2.0000      -1.393675       -37.9238
   9   2.0000      -1.347226       -36.6599
  10   2.0000      -1.336717       -36.3739
  11   2.0000      -1.335850       -36.3503
  12   2.0000      -1.327312       -36.1180
  13   2.0000      -1.295579       -35.2545
  14   2.0000      -0.781635       -21.2694
  15   2.0000      -0.757701       -20.6181
  16   2.0000      -0.718985       -19.5646
  17   2.0000      -0.709435       -19.3047
  18   2.0000      -0.699322       -19.0295
  19   2.0000      -0.697311       -18.9748
  20   2.0000      -0.682145       -18.5621
  21   2.0000      -0.660395       -17.9703
  22   2.0000      -0.629088       -17.1183
  23   2.0000      -0.610737       -16.6190
  24   2.0000      -0.582415       -15.8483
  25   2.0000      -0.573961       -15.6183
  26   2.0000      -0.569029       -15.4841
  27   2.0000      -0.559330       -15.2201
  28   2.0000      -0.542831       -14.7712
  29   2.0000      -0.535195       -14.5634
  30   2.0000      -0.508439       -13.8353
  31   2.0000      -0.501785       -13.6543
  32   2.0000      -0.490919       -13.3586
  33   2.0000      -0.487880       -13.2759
  34   2.0000      -0.465064       -12.6550
  35   0.0000       0.074701         2.0327
  36   0.0000       0.107251         2.9184
  37   0.0000       0.138844         3.7781
  38   0.0000       0.157055         4.2737
  39   0.0000       0.174994         4.7618

MULLIKEN ATOMIC CHARGES
-----------------------
   0 O :   -0.726548
   1 H :    0.373192
   2 H :    0.379987
   3 O :   -0.746749
   4 H :    0.324287
   5 H :    0.369547
   6 O :   -0.684860
   7 H :    0.345340
   8 H :    0.337990
   9 O :   -0.726167
  10 H :    0.359364
  11 H :    0.342057
  12 O :   -0.721023
  13 H :    0.389592
  14 H :    0.355905
  15 O :   -0.700738
  16 H :    0.367805
  17 H :    0.332473
  18 O :   -0.713772
  19 H :    0.387993
  20 H :    0.354324
Sum of atomic charges:   -0.0000000

LOEWDIN ATOMIC CHARGES
----------------------
   0 O :   -0.288406
   1 H :    0.172349
   2 H :    0.195764
   3 O :   -0.380369
   4 H :    0.147696
   5 H :    0.141258
   6 O :   -0.332983
   7 H :    0.167708
   8 H :    0.163849
   9 O :   -0.337248
  10 H :    0.143333
  11 H :    0.163889
  12 O :   -0.281344
  13 H :    0.156908
  14 H :    0.178155
  15 O :   -0.338404
  16 H :    0.149353
  17 H :    0.161694
  18 O :   -0.286492
  19 H :    0.158792
  20 H :    0.144498

  Mayer bond orders larger than 0.100000
B(  0-O ,  1-H ) :   0.8271 B(  0-O ,  2-H ) :   0.8123 B(  3-O ,  4-H ) :   0.8611
B(  3-O ,  5-H ) :   0.7690 B(  5-H , 18-O ) :   0.1029 B(  6-O ,  7-H ) :   0.8472
B(  6-O ,  8-H ) :   0.8486 B(  9-O , 10-H ) :   0.7847 B(  9-O , 11-H ) :   0.8462
B( 12-O , 13-H ) :   0.7942 B( 12-O , 14-H ) :   0.8316 B( 15-O , 16-H ) :   0.8241
B( 15-O , 17-H ) :   0.8521 B( 18-O , 19-H ) :   0.7991 B( 18-O , 20-H ) :   0.8240

MP2 TOTAL ENERGY:     -534.242629943 Eh
FINAL SINGLE POINT ENERGY      -534.242629943200

DIPOLE MOMENT
-------------
                                X             Y             Z
Electronic contribution:      0.41137       0.05591      -0.13947
Nuclear contribution   :      0.56521       1.36331       1.95129
                        -----------------------------------------
Total Dipole Moment    :      0.97658       1.41922       1.81182
                        -----------------------------------------
Magnitude (a.u.)       :      2.50012
Magnitude (Debye)      :      6.35479

Rotational constants in cm-1:     0.039321     0.020867     0.015966
Rotational constants in MHz :  1178.798966   625.586332   478.636223

                             ****ORCA TERMINATED NORMALLY****
TOTAL RUN TIME: 0 days 0 hours 1 minutes 39 seconds 708 msec
