                         Program Version 4.2.0 -  RELEASE  -
|  1> # 12h2o.su.etal.mol1,3,7,8,11
|  2> ! MP2 def2-TZVP EnGrad TightSCF
|  3>
|  4> %pal
|  5>     nprocs 6
|  6> end
|  7>
|  8> %maxcore 8000
|  9>
| 10> %scf
| 11>     ConvForced true
| 12> end
| 13>
| 14> *xyz 0 1
| 15> O  -1.794470000  -0.923410000   2.768350000
| 16> H  -2.338250000  -1.359750000   3.430940000
| 17> H  -0.879480000  -1.303000000   2.865760000
| 18> O  -1.752130000  -0.741530000  -2.896280000
| 19> H  -2.036450000  -0.920500000  -1.984040000
| 20> H  -0.921210000  -1.242140000  -2.984230000
| 21> O  -1.737840000  -0.885520000  -0.052730000
| 22> H  -2.090180000  -1.032320000   0.841890000
| 23> H  -0.839590000  -1.284090000  -0.017130000
| 24> O   1.752130000   0.741530000  -2.896280000
| 25> H   2.036450000   0.920500000  -1.984040000
| 26> H   0.921210000   1.242140000  -2.984230000
| 27> O  -0.741530000   1.752130000   2.896280000
| 28> H  -0.920500000   2.036450000   1.984040000
| 29> H  -1.242140000   0.921210000   2.984230000
| 30> *
| 31>
| 32>                          ****END OF INPUT****

CARTESIAN COORDINATES (ANGSTROEM)
---------------------------------
  O     -1.794470   -0.923410    2.768350
  H     -2.338250   -1.359750    3.430940
  H     -0.879480   -1.303000    2.865760
  O     -1.752130   -0.741530   -2.896280
  H     -2.036450   -0.920500   -1.984040
  H     -0.921210   -1.242140   -2.984230
  O     -1.737840   -0.885520   -0.052730
  H     -2.090180   -1.032320    0.841890
  H     -0.839590   -1.284090   -0.017130
  O      1.752130    0.741530   -2.896280
  H      2.036450    0.920500   -1.984040
  H      0.921210    1.242140   -2.984230
  O     -0.741530    1.752130    2.896280
  H     -0.920500    2.036450    1.984040
  H     -1.242140    0.921210    2.984230

 Total Charge           Charge          ....    0
 Multiplicity           Mult            ....    1
 Number of Electrons    NEL             ....   50
 Basis Dimension        Dim             ....  215

ORBITAL ENERGIES
----------------

  NO   OCC          E(Eh)            E(eV)
   0   2.0000     -20.630528      -561.3852
   1   2.0000     -20.576436      -559.9133
   2   2.0000     -20.559368      -559.4489
   3   2.0000     -20.544913      -559.0555
   4   2.0000     -20.529594      -558.6387
   5   2.0000      -1.410699       -38.3871
   6   2.0000      -1.357721       -36.9455
   7   2.0000      -1.338546       -36.4237
   8   2.0000      -1.327447       -36.1217
   9   2.0000      -1.311323       -35.6829
  10   2.0000      -0.776338       -21.1252
  11   2.0000      -0.727688       -19.8014
  12   2.0000      -0.701180       -19.0801
  13   2.0000      -0.699433       -19.0325
  14   2.0000      -0.679994       -18.5036
  15   2.0000      -0.647830       -17.6283
  16   2.0000      -0.606700       -16.5091
  17   2.0000      -0.578178       -15.7330
  18   2.0000      -0.576466       -15.6864
  19   2.0000      -0.554286       -15.0829
  20   2.0000      -0.545545       -14.8450
  21   2.0000      -0.520663       -14.1680
  22   2.0000      -0.503952       -13.7132
  23   2.0000      -0.492373       -13.3981
  24   2.0000      -0.475738       -12.9455
  25   0.0000       0.075975         2.0674
  26   0.0000       0.113359         3.0846
  27   0.0000       0.147674         4.0184
  28   0.0000       0.163227         4.4416
  29   0.0000       0.167134         4.5479

MULLIKEN ATOMIC CHARGES
-----------------------
   0 O :   -0.713867
   1 H :    0.369760
   2 H :    0.368327
   3 O :   -0.701145
   4 H :    0.370403
   5 H :    0.324415
   6 O :   -0.704373
   7 H :    0.374230
   8 H :    0.327090
   9 O :   -0.683152
  10 H :    0.332667
  11 H :    0.349521
  12 O :   -0.703024
  13 H :    0.335687
  14 H :    0.353461
Sum of atomic charges:   -0.0000000

LOEWDIN ATOMIC CHARGES
----------------------
   0 O :   -0.286501
   1 H :    0.170545
   2 H :    0.191123
   3 O :   -0.341225
   4 H :    0.151952
   5 H :    0.157753
   6 O :   -0.323305
   7 H :    0.152178
   8 H :    0.166208
   9 O :   -0.333529
  10 H :    0.163108
  11 H :    0.169902
  12 O :   -0.345823
  13 H :    0.162955
  14 H :    0.144657

  Mayer bond orders larger than 0.100000
B(  0-O ,  1-H ) :   0.8288 B(  0-O ,  2-H ) :   0.8225 B(  3-O ,  4-H ) :   0.8192
B(  3-O ,  5-H ) :   0.8572 B(  6-O ,  7-H ) :   0.8108 B(  6-O ,  8-H ) :   0.8512
B(  9-O , 10-H ) :   0.8555 B(  9-O , 11-H ) :   0.8417 B( 12-O , 13-H ) :   0.8535
B( 12-O , 14-H ) :   0.8289

MP2 TOTAL ENERGY:     -381.586264271 Eh
FINAL SINGLE POINT ENERGY      -381.586264270509

DIPOLE MOMENT
-------------
                                X             Y             Z
Electronic contribution:     -0.18300       0.12392       0.02262
Nuclear contribution   :      0.19772      -1.58806       2.09298
                        -----------------------------------------
Total Dipole Moment    :      0.01472      -1.46415       2.11560
                        -----------------------------------------
Magnitude (a.u.)       :      2.57288
Magnitude (Debye)      :      6.53973

Rotational constants in cm-1:     0.071324     0.025815     0.020330
Rotational constants in MHz :  2138.226502   773.905818   609.488915

                             ****ORCA TERMINATED NORMALLY****
TOTAL RUN TIME: 0 days 0 hours 0 minutes 28 seconds 599 msec
