                         Program Version 4.2.0 -  RELEASE  -
|  1> # 12h2o.su.etal.mol0,1,3,4,5,8,10,11
|  2> ! MP2 def2-TZVP EnGrad TightSCF
|  3>
|  4> %pal
|  5>     nprocs 6
|  6> end
|  7>
|  8> %maxcore 8000
|  9>
| 10> %scf
| 11>     ConvForced true
| 12> end
| 13>
| 14> *xyz 0 1
| 15> O   1.794470000   0.923410000   2.768350000
| 16> H   2.338250000   1.359750000   3.430940000
| 17> H   0.879480000   1.303000000   2.865760000
| 18> O  -1.794470000  -0.923410000   2.768350000
| 19> H  -2.338250000  -1.359750000   3.430940000
| 20> H  -0.879480000  -1.303000000   2.865760000
| 21> O  -1.752130000  -0.741530000  -2.896280000
| 22> H  -2.036450000  -0.920500000  -1.984040000
| 23> H  -0.921210000  -1.242140000  -2.984230000
| 24> O  -0.885520000   1.737840000   0.052730000
| 25> H  -1.032320000   2.090180000  -0.841890000
| 26> H  -1.284090000   0.839590000   0.017130000
| 27> O   0.885520000  -1.737840000   0.052730000
| 28> H   1.284090000  -0.839590000   0.017130000
| 29> H   1.032320000  -2.090180000  -0.841890000
| 30> O   1.752130000   0.741530000  -2.896280000
| 31> H   2.036450000   0.920500000  -1.984040000
| 32> H   0.921210000   1.242140000  -2.984230000
| 33> O  -0.923410000   1.794470000  -2.768350000
| 34> H  -1.359750000   2.338250000  -3.430940000
| 35> H  -1.303000000   0.879480000  -2.865760000
| 36> O  -0.741530000   1.752130000   2.896280000
| 37> H  -0.920500000   2.036450000   1.984040000
| 38> H  -1.242140000   0.921210000   2.984230000
| 39> *
| 40>
| 41>                          ****END OF INPUT****

CARTESIAN COORDINATES (ANGSTROEM)
---------------------------------
  O      1.794470    0.923410    2.768350
  H      2.338250    1.359750    3.430940
  H      0.879480    1.303000    2.865760
  O     -1.794470   -0.923410    2.768350
  H     -2.338250   -1.359750    3.430940
  H     -0.879480   -1.303000    2.865760
  O     -1.752130   -0.741530   -2.896280
  H     -2.036450   -0.920500   -1.984040
  H     -0.921210   -1.242140   -2.984230
  O     -0.885520    1.737840    0.052730
  H     -1.032320    2.090180   -0.841890
  H     -1.284090    0.839590    0.017130
  O      0.885520   -1.737840    0.052730
  H      1.284090   -0.839590    0.017130
  H      1.032320   -2.090180   -0.841890
  O      1.752130    0.741530   -2.896280
  H      2.036450    0.920500   -1.984040
  H      0.921210    1.242140   -2.984230
  O     -0.923410    1.794470   -2.768350
  H     -1.359750    2.338250   -3.430940
  H     -1.303000    0.879480   -2.865760
  O     -0.741530    1.752130    2.896280
  H     -0.920500    2.036450    1.984040
  H     -1.242140    0.921210    2.984230

 Total Charge           Charge          ....    0
 Multiplicity           Mult            ....    1
 Number of Electrons    NEL             ....   80
 Basis Dimension        Dim             ....  344

ORBITAL ENERGIES
----------------

  NO   OCC          E(Eh)            E(eV)
   0   2.0000     -20.620640      -561.1161
   1   2.0000     -20.587320      -560.2095
   2   2.0000     -20.581350      -560.0470
   3   2.0000     -20.568458      -559.6962
   4   2.0000     -20.563577      -559.5634
   5   2.0000     -20.544808      -559.0527
   6   2.0000     -20.534659      -558.7765
   7   2.0000     -20.504015      -557.9426
   8   2.0000      -1.407010       -38.2867
   9   2.0000      -1.368056       -37.2267
  10   2.0000      -1.365331       -37.1525
  11   2.0000      -1.345022       -36.5999
  12   2.0000      -1.344048       -36.5734
  13   2.0000      -1.326747       -36.1026
  14   2.0000      -1.325760       -36.0758
  15   2.0000      -1.285122       -34.9699
  16   2.0000      -0.762833       -20.7577
  17   2.0000      -0.749538       -20.3960
  18   2.0000      -0.732177       -19.9236
  19   2.0000      -0.715254       -19.4630
  20   2.0000      -0.705583       -19.1999
  21   2.0000      -0.696414       -18.9504
  22   2.0000      -0.691280       -18.8107
  23   2.0000      -0.671020       -18.2594
  24   2.0000      -0.649567       -17.6756
  25   2.0000      -0.614533       -16.7223
  26   2.0000      -0.609004       -16.5718
  27   2.0000      -0.591799       -16.1037
  28   2.0000      -0.584514       -15.9054
  29   2.0000      -0.571036       -15.5387
  30   2.0000      -0.563816       -15.3422
  31   2.0000      -0.550655       -14.9841
  32   2.0000      -0.534706       -14.5501
  33   2.0000      -0.525711       -14.3053
  34   2.0000      -0.519733       -14.1427
  35   2.0000      -0.512893       -13.9565
  36   2.0000      -0.507695       -13.8151
  37   2.0000      -0.492091       -13.3905
  38   2.0000      -0.474519       -12.9123
  39   2.0000      -0.454941       -12.3796
  40   0.0000       0.074867         2.0372
  41   0.0000       0.118754         3.2315
  42   0.0000       0.131523         3.5789
  43   0.0000       0.137337         3.7371
  44   0.0000       0.153966         4.1896

MULLIKEN ATOMIC CHARGES
-----------------------
   0 O :   -0.743289
   1 H :    0.320553
   2 H :    0.370245
   3 O :   -0.710296
   4 H :    0.352450
   5 H :    0.378922
   6 O :   -0.681890
   7 H :    0.361676
   8 H :    0.368985
   9 O :   -0.711913
  10 H :    0.376077
  11 H :    0.328528
  12 O :   -0.687610
  13 H :    0.356773
  14 H :    0.329233
  15 O :   -0.713720
  16 H :    0.334471
  17 H :    0.362885
  18 O :   -0.750785
  19 H :    0.354540
  20 H :    0.382014
  21 O :   -0.719112
  22 H :    0.383150
  23 H :    0.358111
Sum of atomic charges:   -0.0000000

LOEWDIN ATOMIC CHARGES
----------------------
   0 O :   -0.379020
   1 H :    0.146423
   2 H :    0.141975
   3 O :   -0.314619
   4 H :    0.163625
   5 H :    0.194618
   6 O :   -0.264572
   7 H :    0.174206
   8 H :    0.179054
   9 O :   -0.323117
  10 H :    0.152409
  11 H :    0.162789
  12 O :   -0.336309
  13 H :    0.175938
  14 H :    0.159577
  15 O :   -0.347287
  16 H :    0.160108
  17 H :    0.146837
  18 O :   -0.312037
  19 H :    0.161409
  20 H :    0.145732
  21 O :   -0.290352
  22 H :    0.155925
  23 H :    0.146690

  Mayer bond orders larger than 0.100000
B(  0-O ,  1-H ) :   0.8626 B(  0-O ,  2-H ) :   0.7659 B(  2-H , 21-O ) :   0.1055
B(  3-O ,  4-H ) :   0.8417 B(  3-O ,  5-H ) :   0.8154 B(  6-O ,  7-H ) :   0.8335
B(  6-O ,  8-H ) :   0.8254 B(  9-O , 10-H ) :   0.8030 B(  9-O , 11-H ) :   0.8462
B( 12-O , 13-H ) :   0.8311 B( 12-O , 14-H ) :   0.8550 B( 15-O , 16-H ) :   0.8525
B( 15-O , 17-H ) :   0.8122 B( 18-O , 19-H ) :   0.8381 B( 18-O , 20-H ) :   0.7503
B( 21-O , 22-H ) :   0.8049 B( 21-O , 23-H ) :   0.8118

MP2 TOTAL ENERGY:     -610.566827176 Eh
FINAL SINGLE POINT ENERGY      -610.566827176393

DIPOLE MOMENT
-------------
                                X             Y             Z
Electronic contribution:     -0.40116      -0.14550      -0.33642
Nuclear contribution   :     -1.24480      -0.76395      -0.22986
                        -----------------------------------------
Total Dipole Moment    :     -1.64596      -0.90945      -0.56627
                        -----------------------------------------
Magnitude (a.u.)       :      1.96392
Magnitude (Debye)      :      4.99188

Rotational constants in cm-1:     0.032169     0.015125     0.014631
Rotational constants in MHz :   964.389312   453.421135   438.612548

                             ****ORCA TERMINATED NORMALLY****
TOTAL RUN TIME: 0 days 0 hours 2 minutes 39 seconds 889 msec
