                         Program Version 4.2.0 -  RELEASE  -
|  1> # 12meoh.boyd.etal.mol4
|  2> ! MP2 def2-TZVP EnGrad TightSCF
|  3>
|  4> %pal
|  5>     nprocs 6
|  6> end
|  7>
|  8> %maxcore 8000
|  9>
| 10> %scf
| 11>     ConvForced true
| 12> end
| 13>
| 14> *xyz 0 1
| 15> O  -1.358578914   1.232360421   1.189721000
| 16> H  -1.058250183   1.216459361   0.238591307
| 17> C  -0.389763452   1.957872567   1.943072362
| 18> H  -0.747220771   2.012806578   2.975200343
| 19> H  -0.260410585   2.982763209   1.565366540
| 20> H   0.585220638   1.453754179   1.934070793
| 21> *
| 22>
| 23>                          ****END OF INPUT****

CARTESIAN COORDINATES (ANGSTROEM)
---------------------------------
  O     -1.358579    1.232360    1.189721
  H     -1.058250    1.216459    0.238591
  C     -0.389763    1.957873    1.943072
  H     -0.747221    2.012807    2.975200
  H     -0.260411    2.982763    1.565367
  H      0.585221    1.453754    1.934071

 Total Charge           Charge          ....    0
 Multiplicity           Mult            ....    1
 Number of Electrons    NEL             ....   18
 Basis Dimension        Dim             ....   86

ORBITAL ENERGIES
----------------

  NO   OCC          E(Eh)            E(eV)
   0   2.0000     -20.557755      -559.4049
   1   2.0000     -11.271915      -306.7244
   2   2.0000      -1.345290       -36.6072
   3   2.0000      -0.919380       -25.0176
   4   2.0000      -0.680480       -18.5168
   5   2.0000      -0.616871       -16.7859
   6   2.0000      -0.590067       -16.0566
   7   2.0000      -0.500410       -13.6168
   8   2.0000      -0.449414       -12.2292
   9   0.0000       0.134710         3.6657
  10   0.0000       0.175685         4.7806
  11   0.0000       0.229203         6.2369
  12   0.0000       0.230305         6.2669
  13   0.0000       0.254289         6.9196

MULLIKEN ATOMIC CHARGES
-----------------------
   0 O :   -0.496796
   1 H :    0.321312
   2 C :   -0.173564
   3 H :    0.129806
   4 H :    0.109528
   5 H :    0.109714
Sum of atomic charges:    0.0000000

LOEWDIN ATOMIC CHARGES
----------------------
   0 O :   -0.112307
   1 H :    0.191718
   2 C :   -0.380587
   3 H :    0.110450
   4 H :    0.095593
   5 H :    0.095134

  Mayer bond orders larger than 0.100000
B(  0-O ,  1-H ) :   0.8419 B(  0-O ,  2-C ) :   0.9260 B(  2-C ,  3-H ) :   0.9376
B(  2-C ,  4-H ) :   0.9387 B(  2-C ,  5-H ) :   0.9387

MP2 TOTAL ENERGY:     -115.506463421 Eh
FINAL SINGLE POINT ENERGY      -115.506463421322

DIPOLE MOMENT
-------------
                                X             Y             Z
Electronic contribution:     -1.29507      -0.93083      -0.81330
Nuclear contribution   :      1.87242       1.21825       0.53797
                        -----------------------------------------
Total Dipole Moment    :      0.57736       0.28742      -0.27533
                        -----------------------------------------
Magnitude (a.u.)       :      0.70125
Magnitude (Debye)      :      1.78244

Rotational constants in cm-1:     4.185989     0.820329     0.789129
Rotational constants in MHz : 125492.806936 24592.853334 23657.496208

                             ****ORCA TERMINATED NORMALLY****
TOTAL RUN TIME: 0 days 0 hours 0 minutes 8 seconds 911 msec
