                         Program Version 4.2.0 -  RELEASE  -
|  1> # 12h2o.su.etal.mol2,4,5,7,10
|  2> ! MP2 def2-TZVP EnGrad TightSCF
|  3>
|  4> %pal
|  5>     nprocs 6
|  6> end
|  7>
|  8> %maxcore 8000
|  9>
| 10> %scf
| 11>     ConvForced true
| 12> end
| 13>
| 14> *xyz 0 1
| 15> O   0.923410000  -1.794470000  -2.768350000
| 16> H   1.359750000  -2.338250000  -3.430940000
| 17> H   1.303000000  -0.879480000  -2.865760000
| 18> O  -0.885520000   1.737840000   0.052730000
| 19> H  -1.032320000   2.090180000  -0.841890000
| 20> H  -1.284090000   0.839590000   0.017130000
| 21> O   0.885520000  -1.737840000   0.052730000
| 22> H   1.284090000  -0.839590000   0.017130000
| 23> H   1.032320000  -2.090180000  -0.841890000
| 24> O  -1.737840000  -0.885520000  -0.052730000
| 25> H  -2.090180000  -1.032320000   0.841890000
| 26> H  -0.839590000  -1.284090000  -0.017130000
| 27> O  -0.923410000   1.794470000  -2.768350000
| 28> H  -1.359750000   2.338250000  -3.430940000
| 29> H  -1.303000000   0.879480000  -2.865760000
| 30> *
| 31>
| 32>                          ****END OF INPUT****

CARTESIAN COORDINATES (ANGSTROEM)
---------------------------------
  O      0.923410   -1.794470   -2.768350
  H      1.359750   -2.338250   -3.430940
  H      1.303000   -0.879480   -2.865760
  O     -0.885520    1.737840    0.052730
  H     -1.032320    2.090180   -0.841890
  H     -1.284090    0.839590    0.017130
  O      0.885520   -1.737840    0.052730
  H      1.284090   -0.839590    0.017130
  H      1.032320   -2.090180   -0.841890
  O     -1.737840   -0.885520   -0.052730
  H     -2.090180   -1.032320    0.841890
  H     -0.839590   -1.284090   -0.017130
  O     -0.923410    1.794470   -2.768350
  H     -1.359750    2.338250   -3.430940
  H     -1.303000    0.879480   -2.865760

 Total Charge           Charge          ....    0
 Multiplicity           Mult            ....    1
 Number of Electrons    NEL             ....   50
 Basis Dimension        Dim             ....  215

ORBITAL ENERGIES
----------------

  NO   OCC          E(Eh)            E(eV)
   0   2.0000     -20.602493      -560.6223
   1   2.0000     -20.581301      -560.0457
   2   2.0000     -20.566998      -559.6565
   3   2.0000     -20.544669      -559.0489
   4   2.0000     -20.490299      -557.5694
   5   2.0000      -1.380844       -37.5747
   6   2.0000      -1.359189       -36.9854
   7   2.0000      -1.351945       -36.7883
   8   2.0000      -1.328567       -36.1521
   9   2.0000      -1.274551       -34.6823
  10   2.0000      -0.747293       -20.3349
  11   2.0000      -0.725849       -19.7514
  12   2.0000      -0.713803       -19.4236
  13   2.0000      -0.698500       -19.0071
  14   2.0000      -0.657995       -17.9050
  15   2.0000      -0.623204       -16.9582
  16   2.0000      -0.600647       -16.3444
  17   2.0000      -0.591971       -16.1083
  18   2.0000      -0.572287       -15.5727
  19   2.0000      -0.543484       -14.7889
  20   2.0000      -0.539236       -14.6734
  21   2.0000      -0.510675       -13.8962
  22   2.0000      -0.504543       -13.7293
  23   2.0000      -0.478817       -13.0293
  24   2.0000      -0.441517       -12.0143
  25   0.0000       0.090822         2.4714
  26   0.0000       0.128825         3.5055
  27   0.0000       0.154177         4.1954
  28   0.0000       0.170602         4.6423
  29   0.0000       0.194843         5.3019

MULLIKEN ATOMIC CHARGES
-----------------------
   0 O :   -0.701700
   1 H :    0.355800
   2 H :    0.361023
   3 O :   -0.740262
   4 H :    0.354840
   5 H :    0.337677
   6 O :   -0.702848
   7 H :    0.349857
   8 H :    0.378266
   9 O :   -0.718703
  10 H :    0.345928
  11 H :    0.373190
  12 O :   -0.701460
  13 H :    0.346695
  14 H :    0.361698
Sum of atomic charges:   -0.0000000

LOEWDIN ATOMIC CHARGES
----------------------
   0 O :   -0.311145
   1 H :    0.165323
   2 H :    0.187426
   3 O :   -0.375589
   4 H :    0.141542
   5 H :    0.133412
   6 O :   -0.297434
   7 H :    0.174683
   8 H :    0.153068
   9 O :   -0.315833
  10 H :    0.165762
  11 H :    0.145761
  12 O :   -0.314257
  13 H :    0.160806
  14 H :    0.186474

  Mayer bond orders larger than 0.100000
B(  0-O ,  1-H ) :   0.8395 B(  0-O ,  2-H ) :   0.8278 B(  3-O ,  4-H ) :   0.8331
B(  3-O ,  5-H ) :   0.8024 B(  6-O ,  7-H ) :   0.8358 B(  6-O ,  8-H ) :   0.8038
B(  9-O , 10-H ) :   0.8451 B(  9-O , 11-H ) :   0.7737 B( 12-O , 13-H ) :   0.8443
B( 12-O , 14-H ) :   0.8274

MP2 TOTAL ENERGY:     -381.598660835 Eh
FINAL SINGLE POINT ENERGY      -381.598660834855

DIPOLE MOMENT
-------------
                                X             Y             Z
Electronic contribution:      0.12836      -0.27252      -0.02695
Nuclear contribution   :      0.45439      -0.45394      -2.03947
                        -----------------------------------------
Total Dipole Moment    :      0.58275      -0.72646      -2.06642
                        -----------------------------------------
Magnitude (a.u.)       :      2.26659
Magnitude (Debye)      :      5.76122

Rotational constants in cm-1:     0.073024     0.050997     0.035728
Rotational constants in MHz :  2189.192513  1528.852008  1071.111760

                             ****ORCA TERMINATED NORMALLY****
TOTAL RUN TIME: 0 days 0 hours 0 minutes 35 seconds 909 msec
