                         Program Version 4.2.0 -  RELEASE  -
|  1> # 12meoh.boyd.etal.mol0,2
|  2> ! MP2 def2-TZVP EnGrad TightSCF
|  3>
|  4> %pal
|  5>     nprocs 6
|  6> end
|  7>
|  8> %maxcore 8000
|  9>
| 10> %scf
| 11>     ConvForced true
| 12> end
| 13>
| 14> *xyz 0 1
| 15> O  -1.776108874  -2.741384797  -1.019308298
| 16> H  -2.520094035  -2.452295987  -0.420778302
| 17> C  -2.174025166  -3.952700964  -1.647004581
| 18> H  -1.359803895  -4.272673416  -2.304149236
| 19> H  -3.075973971  -3.808692420  -2.256751112
| 20> H  -2.370225393  -4.752784761  -0.918966137
| 21> O  -3.839777402   2.233595098   0.660436763
| 22> H  -2.958345897   1.907036203   0.973588449
| 23> C  -3.600368059   3.168790682  -0.390480452
| 24> H  -4.551709193   3.344148967  -0.901254863
| 25> H  -2.868237594   2.789240199  -1.113617525
| 26> H  -3.243594915   4.128998607   0.009549480
| 27> *
| 28>
| 29>                          ****END OF INPUT****

CARTESIAN COORDINATES (ANGSTROEM)
---------------------------------
  O     -1.776109   -2.741385   -1.019308
  H     -2.520094   -2.452296   -0.420778
  C     -2.174025   -3.952701   -1.647005
  H     -1.359804   -4.272673   -2.304149
  H     -3.075974   -3.808692   -2.256751
  H     -2.370225   -4.752785   -0.918966
  O     -3.839777    2.233595    0.660437
  H     -2.958346    1.907036    0.973588
  C     -3.600368    3.168791   -0.390480
  H     -4.551709    3.344149   -0.901255
  H     -2.868238    2.789240   -1.113618
  H     -3.243595    4.128999    0.009549

 Total Charge           Charge          ....    0
 Multiplicity           Mult            ....    1
 Number of Electrons    NEL             ....   36
 Basis Dimension        Dim             ....  172

ORBITAL ENERGIES
----------------

  NO   OCC          E(Eh)            E(eV)
   0   2.0000     -20.558382      -559.4220
   1   2.0000     -20.557080      -559.3866
   2   2.0000     -11.271580      -306.7153
   3   2.0000     -11.271420      -306.7109
   4   2.0000      -1.347505       -36.6675
   5   2.0000      -1.346517       -36.6406
   6   2.0000      -0.919383       -25.0177
   7   2.0000      -0.919220       -25.0132
   8   2.0000      -0.681845       -18.5539
   9   2.0000      -0.681573       -18.5465
  10   2.0000      -0.617417       -16.8008
  11   2.0000      -0.616485       -16.7754
  12   2.0000      -0.591581       -16.0977
  13   2.0000      -0.589941       -16.0531
  14   2.0000      -0.501556       -13.6480
  15   2.0000      -0.500577       -13.6214
  16   2.0000      -0.449247       -12.2246
  17   2.0000      -0.449206       -12.2235
  18   0.0000       0.123378         3.3573
  19   0.0000       0.144864         3.9419
  20   0.0000       0.173116         4.7107
  21   0.0000       0.181634         4.9425
  22   0.0000       0.228223         6.2103

MULLIKEN ATOMIC CHARGES
-----------------------
   0 O :   -0.498718
   1 H :    0.323129
   2 C :   -0.172895
   3 H :    0.128704
   4 H :    0.110351
   5 H :    0.109351
   6 O :   -0.499285
   7 H :    0.322073
   8 C :   -0.176047
   9 H :    0.128398
  10 H :    0.114929
  11 H :    0.110009
Sum of atomic charges:    0.0000000

LOEWDIN ATOMIC CHARGES
----------------------
   0 O :   -0.110126
   1 H :    0.192982
   2 C :   -0.384015
   3 H :    0.110226
   4 H :    0.095536
   5 H :    0.095345
   6 O :   -0.112237
   7 H :    0.188277
   8 C :   -0.378334
   9 H :    0.109542
  10 H :    0.096925
  11 H :    0.095879

  Mayer bond orders larger than 0.100000
B(  0-O ,  1-H ) :   0.8409 B(  0-O ,  2-C ) :   0.9261 B(  2-C ,  3-H ) :   0.9375
B(  2-C ,  4-H ) :   0.9398 B(  2-C ,  5-H ) :   0.9383 B(  6-O ,  7-H ) :   0.8436
B(  6-O ,  8-C ) :   0.9247 B(  8-C ,  9-H ) :   0.9380 B(  8-C , 10-H ) :   0.9410
B(  8-C , 11-H ) :   0.9377

MP2 TOTAL ENERGY:     -231.013654463 Eh
FINAL SINGLE POINT ENERGY      -231.013654463020

DIPOLE MOMENT
-------------
                                X             Y             Z
Electronic contribution:      0.19994       0.36133       1.99772
Nuclear contribution   :     -0.17322      -0.50008      -2.13494
                        -----------------------------------------
Total Dipole Moment    :      0.02672      -0.13875      -0.13721
                        -----------------------------------------
Magnitude (a.u.)       :      0.19696
Magnitude (Debye)      :      0.50063

Rotational constants in cm-1:     0.626499     0.024488     0.024162
Rotational constants in MHz : 18781.961572   734.117783   724.347980

                             ****ORCA TERMINATED NORMALLY****
TOTAL RUN TIME: 0 days 0 hours 0 minutes 25 seconds 280 msec
