                         Program Version 4.2.0 -  RELEASE  -
|  1> # 12h2o.su.etal.mol0,3
|  2> ! MP2 def2-TZVP EnGrad TightSCF
|  3>
|  4> %pal
|  5>     nprocs 6
|  6> end
|  7>
|  8> %maxcore 8000
|  9>
| 10> %scf
| 11>     ConvForced true
| 12> end
| 13>
| 14> *xyz 0 1
| 15> O   1.794470000   0.923410000   2.768350000
| 16> H   2.338250000   1.359750000   3.430940000
| 17> H   0.879480000   1.303000000   2.865760000
| 18> O  -1.752130000  -0.741530000  -2.896280000
| 19> H  -2.036450000  -0.920500000  -1.984040000
| 20> H  -0.921210000  -1.242140000  -2.984230000
| 21> *
| 22>
| 23>                          ****END OF INPUT****

CARTESIAN COORDINATES (ANGSTROEM)
---------------------------------
  O      1.794470    0.923410    2.768350
  H      2.338250    1.359750    3.430940
  H      0.879480    1.303000    2.865760
  O     -1.752130   -0.741530   -2.896280
  H     -2.036450   -0.920500   -1.984040
  H     -0.921210   -1.242140   -2.984230

 Total Charge           Charge          ....    0
 Multiplicity           Mult            ....    1
 Number of Electrons    NEL             ....   20
 Basis Dimension        Dim             ....   86

ORBITAL ENERGIES
----------------

  NO   OCC          E(Eh)            E(eV)
   0   2.0000     -20.565426      -559.6137
   1   2.0000     -20.560361      -559.4759
   2   2.0000      -1.340766       -36.4841
   3   2.0000      -1.339625       -36.4531
   4   2.0000      -0.709229       -19.2991
   5   2.0000      -0.702473       -19.1153
   6   2.0000      -0.577117       -15.7041
   7   2.0000      -0.576713       -15.6932
   8   2.0000      -0.508592       -13.8395
   9   2.0000      -0.504491       -13.7279
  10   0.0000       0.122910         3.3445
  11   0.0000       0.128973         3.5095
  12   0.0000       0.192458         5.2371
  13   0.0000       0.199088         5.4175
  14   0.0000       0.517360        14.0781

MULLIKEN ATOMIC CHARGES
-----------------------
   0 O :   -0.681925
   1 H :    0.339702
   2 H :    0.342223
   3 O :   -0.674194
   4 H :    0.336277
   5 H :    0.337917
Sum of atomic charges:    0.0000000

LOEWDIN ATOMIC CHARGES
----------------------
   0 O :   -0.338871
   1 H :    0.158212
   2 H :    0.180659
   3 O :   -0.332145
   4 H :    0.165093
   5 H :    0.167052

  Mayer bond orders larger than 0.100000
B(  0-O ,  1-H ) :   0.8527 B(  0-O ,  2-H ) :   0.8462 B(  3-O ,  4-H ) :   0.8539
B(  3-O ,  5-H ) :   0.8527

MP2 TOTAL ENERGY:     -152.625059108 Eh
FINAL SINGLE POINT ENERGY      -152.625059107560

DIPOLE MOMENT
-------------
                                X             Y             Z
Electronic contribution:     -0.01288      -0.01324      -0.20396
Nuclear contribution   :      0.14599       0.11349       1.31870
                        -----------------------------------------
Total Dipole Moment    :      0.13311       0.10025       1.11474
                        -----------------------------------------
Magnitude (a.u.)       :      1.12713
Magnitude (Debye)      :      2.86493

Rotational constants in cm-1:     6.989665     0.039392     0.039249
Rotational constants in MHz : 209544.891596  1180.944916  1176.653464

                             ****ORCA TERMINATED NORMALLY****
TOTAL RUN TIME: 0 days 0 hours 0 minutes 5 seconds 996 msec
