                         Program Version 4.2.0 -  RELEASE  -
|  1> # 12meoh.boyd.etal.mol3,10,11
|  2> ! MP2 def2-TZVP EnGrad TightSCF
|  3>
|  4> %pal
|  5>     nprocs 6
|  6> end
|  7>
|  8> %maxcore 8000
|  9>
| 10> %scf
| 11>     ConvForced true
| 12> end
| 13>
| 14> *xyz 0 1
| 15> O  -3.821405976  -2.118091637   0.596795346
| 16> H  -4.342989117  -1.344303030   0.251966383
| 17> C  -3.443883586  -1.809641231   1.934889393
| 18> H  -2.831494349  -2.637429600   2.305201764
| 19> H  -4.325601146  -1.719364371   2.585074667
| 20> H  -2.858527126  -0.882644791   1.996110694
| 21> O  -5.201143618   0.064582726  -0.172223772
| 22> H  -4.686891530   0.869258890   0.107806143
| 23> C  -6.513192168   0.171391798   0.359883449
| 24> H  -7.049381312  -0.749234190   0.111361174
| 25> H  -7.057741163   1.017801101  -0.081819420
| 26> H  -6.514770575   0.292264928   1.453058834
| 27> O   3.252955559   0.588596242   1.858934315
| 28> H   3.621209177  -0.251605199   1.476063364
| 29> C   4.040824528   0.944288422   2.989639460
| 30> H   3.670521436   1.902573549   3.363847391
| 31> H   5.103749934   1.055868619   2.734277559
| 32> H   3.948540682   0.200279590   3.792908518
| 33> *
| 34>
| 35>                          ****END OF INPUT****

CARTESIAN COORDINATES (ANGSTROEM)
---------------------------------
  O     -3.821406   -2.118092    0.596795
  H     -4.342989   -1.344303    0.251966
  C     -3.443884   -1.809641    1.934889
  H     -2.831494   -2.637430    2.305202
  H     -4.325601   -1.719364    2.585075
  H     -2.858527   -0.882645    1.996111
  O     -5.201144    0.064583   -0.172224
  H     -4.686892    0.869259    0.107806
  C     -6.513192    0.171392    0.359883
  H     -7.049381   -0.749234    0.111361
  H     -7.057741    1.017801   -0.081819
  H     -6.514771    0.292265    1.453059
  O      3.252956    0.588596    1.858934
  H      3.621209   -0.251605    1.476063
  C      4.040825    0.944288    2.989639
  H      3.670521    1.902574    3.363847
  H      5.103750    1.055869    2.734278
  H      3.948541    0.200280    3.792909

 Total Charge           Charge          ....    0
 Multiplicity           Mult            ....    1
 Number of Electrons    NEL             ....   54
 Basis Dimension        Dim             ....  258

ORBITAL ENERGIES
----------------

  NO   OCC          E(Eh)            E(eV)
   0   2.0000     -20.590072      -560.2843
   1   2.0000     -20.556686      -559.3759
   2   2.0000     -20.513616      -558.2039
   3   2.0000     -11.290210      -307.2222
   4   2.0000     -11.271348      -306.7090
   5   2.0000     -11.251426      -306.1669
   6   2.0000      -1.384108       -37.6635
   7   2.0000      -1.346017       -36.6270
   8   2.0000      -1.310473       -35.6598
   9   2.0000      -0.941982       -25.6326
  10   2.0000      -0.919357       -25.0170
  11   2.0000      -0.896897       -24.4058
  12   2.0000      -0.715275       -19.4636
  13   2.0000      -0.681100       -18.5337
  14   2.0000      -0.675519       -18.3818
  15   2.0000      -0.633071       -17.2267
  16   2.0000      -0.616584       -16.7781
  17   2.0000      -0.611173       -16.6309
  18   2.0000      -0.592818       -16.1314
  19   2.0000      -0.590490       -16.0681
  20   2.0000      -0.561194       -15.2709
  21   2.0000      -0.527153       -14.3446
  22   2.0000      -0.499717       -13.5980
  23   2.0000      -0.488850       -13.3023
  24   2.0000      -0.456489       -12.4217
  25   2.0000      -0.448632       -12.2079
  26   2.0000      -0.417402       -11.3581
  27   0.0000       0.115130         3.1329
  28   0.0000       0.136101         3.7035
  29   0.0000       0.159270         4.3340
  30   0.0000       0.176091         4.7917
  31   0.0000       0.178031         4.8445

MULLIKEN ATOMIC CHARGES
-----------------------
   0 O :   -0.526123
   1 H :    0.358757
   2 C :   -0.183546
   3 H :    0.125650
   4 H :    0.094889
   5 H :    0.095029
   6 O :   -0.513386
   7 H :    0.341706
   8 C :   -0.192371
   9 H :    0.148182
  10 H :    0.126748
  11 H :    0.124463
  12 O :   -0.497177
  13 H :    0.322634
  14 C :   -0.172626
  15 H :    0.128073
  16 H :    0.109557
  17 H :    0.109540
Sum of atomic charges:   -0.0000000

LOEWDIN ATOMIC CHARGES
----------------------
   0 O :   -0.121928
   1 H :    0.158995
   2 C :   -0.398834
   3 H :    0.107225
   4 H :    0.089235
   5 H :    0.089193
   6 O :   -0.069728
   7 H :    0.200294
   8 C :   -0.376925
   9 H :    0.117453
  10 H :    0.104145
  11 H :    0.100876
  12 O :   -0.109103
  13 H :    0.190560
  14 C :   -0.382088
  15 H :    0.109892
  16 H :    0.095397
  17 H :    0.095342

  Mayer bond orders larger than 0.100000
B(  0-O ,  1-H ) :   0.7928 B(  0-O ,  2-C ) :   0.9448 B(  2-C ,  3-H ) :   0.9432
B(  2-C ,  4-H ) :   0.9369 B(  2-C ,  5-H ) :   0.9390 B(  6-O ,  7-H ) :   0.8280
B(  6-O ,  8-C ) :   0.8727 B(  8-C ,  9-H ) :   0.9389 B(  8-C , 10-H ) :   0.9352
B(  8-C , 11-H ) :   0.9367 B( 12-O , 13-H ) :   0.8417 B( 12-O , 14-C ) :   0.9273
B( 14-C , 15-H ) :   0.9378 B( 14-C , 16-H ) :   0.9389 B( 14-C , 17-H ) :   0.9388

MP2 TOTAL ENERGY:     -346.528762100 Eh
FINAL SINGLE POINT ENERGY      -346.528762100329

DIPOLE MOMENT
-------------
                                X             Y             Z
Electronic contribution:     -0.09959      -0.87148      -3.98525
Nuclear contribution   :      0.00630       1.87273       4.74689
                        -----------------------------------------
Total Dipole Moment    :     -0.09329       1.00126       0.76165
                        -----------------------------------------
Magnitude (a.u.)       :      1.26148
Magnitude (Debye)      :      3.20642

Rotational constants in cm-1:     0.119220     0.009613     0.009204
Rotational constants in MHz :  3574.134746   288.198414   275.940659

                             ****ORCA TERMINATED NORMALLY****
TOTAL RUN TIME: 0 days 0 hours 0 minutes 56 seconds 469 msec
