                         Program Version 3.0.3 - RELEASE   -
|  1> ! wB97X-D3 MA-Def2-TZVP def2-TZVP/J RIJCOSX TightSCF Grid4
|  2>
|  3> %pal nprocs 1 end
|  4>
|  5> %scf
|  6>         maxiter 400
|  7> end
|  8>
|  9> * xyz  0  1
| 10> O  1.815091	1.292341	0.442395
| 11> H  1.129036	1.130352	1.221038
| 12> H  2.515448	1.862818	0.807855
| 13> O  0.031148	0.778502	2.189036
| 14> H  -0.779439	1.033276	1.661463
| 15> H  0.014450	-0.218928	2.113460
| 16> O  0.077710	-1.798143	1.383888
| 17> H  0.869013	-1.666267	0.705948
| 18> H  0.269492	-2.619627	1.871320
| 19> O  -1.909225	1.168677	0.346938
| 20> H  -1.999747	0.166439	0.048641
| 21> H  -2.817556	1.499979	0.468441
| 22> O  1.892140	-1.294594	-0.332487
| 23> H  1.319342	-1.178621	-1.144023
| 24> H  2.085927	-0.345171	-0.084439
| 25> O  -0.021535	1.792653	-1.479193
| 26> H  0.749753	1.791824	-0.842505
| 27> H  -0.802899	1.768221	-0.855198
| 28> O  0.015651	-0.661455	-2.171771
| 29> H  0.000187	0.369961	-1.975743
| 30> H  0.038349	-0.758027	-3.141303
| 31> O  -1.906511	-1.276891	-0.380647
| 32> H  -1.297571	-1.199700	-1.170803
| 33> H  -1.288258	-1.637618	0.317687
| 34> **                         ****END OF INPUT****

CARTESIAN COORDINATES (ANGSTROEM)
---------------------------------
  O      1.815091    1.292341    0.442395
  H      1.129036    1.130352    1.221038
  H      2.515448    1.862818    0.807855
  O      0.031148    0.778502    2.189036
  H     -0.779439    1.033276    1.661463
  H      0.014450   -0.218928    2.113460
  O      0.077710   -1.798143    1.383888
  H      0.869013   -1.666267    0.705948
  H      0.269492   -2.619627    1.871320
  O     -1.909225    1.168677    0.346938
  H     -1.999747    0.166439    0.048641
  H     -2.817556    1.499979    0.468441
  O      1.892140   -1.294594   -0.332487
  H      1.319342   -1.178621   -1.144023
  H      2.085927   -0.345171   -0.084439
  O     -0.021535    1.792653   -1.479193
  H      0.749753    1.791824   -0.842505
  H     -0.802899    1.768221   -0.855198
  O      0.015651   -0.661455   -2.171771
  H      0.000187    0.369961   -1.975743
  H      0.038349   -0.758027   -3.141303
  O     -1.906511   -1.276891   -0.380647
  H     -1.297571   -1.199700   -1.170803
  H     -1.288258   -1.637618    0.317687

 Total Charge           Charge          ....    0
 Multiplicity           Mult            ....    1
 Number of Electrons    NEL             ....   80
 Basis Dimension        Dim             ....  376

ORBITAL ENERGIES
----------------

  NO   OCC          E(Eh)            E(eV)
   0   2.0000     -19.247101      -523.7402
   1   2.0000     -19.247018      -523.7380
   2   2.0000     -19.246626      -523.7273
   3   2.0000     -19.246499      -523.7239
   4   2.0000     -19.230789      -523.2964
   5   2.0000     -19.230612      -523.2916
   6   2.0000     -19.230590      -523.2910
   7   2.0000     -19.230203      -523.2804
   8   2.0000      -1.153004       -31.3748
   9   2.0000      -1.136859       -30.9355
  10   2.0000      -1.133662       -30.8485
  11   2.0000      -1.133283       -30.8382
  12   2.0000      -1.112314       -30.2676
  13   2.0000      -1.112112       -30.2621
  14   2.0000      -1.108751       -30.1707
  15   2.0000      -1.093643       -29.7595
  16   2.0000      -0.650707       -17.7066
  17   2.0000      -0.647447       -17.6179
  18   2.0000      -0.646422       -17.5900
  19   2.0000      -0.646233       -17.5849
  20   2.0000      -0.627421       -17.0730
  21   2.0000      -0.626364       -17.0442
  22   2.0000      -0.619525       -16.8581
  23   2.0000      -0.619290       -16.8517
  24   2.0000      -0.575302       -15.6548
  25   2.0000      -0.528606       -14.3841
  26   2.0000      -0.528240       -14.3741
  27   2.0000      -0.527633       -14.3576
  28   2.0000      -0.495828       -13.4922
  29   2.0000      -0.495422       -13.4811
  30   2.0000      -0.494764       -13.4632
  31   2.0000      -0.454312       -12.3625
  32   2.0000      -0.429282       -11.6814
  33   2.0000      -0.429016       -11.6741
  34   2.0000      -0.427727       -11.6390
  35   2.0000      -0.426067       -11.5939
  36   2.0000      -0.414491       -11.2789
  37   2.0000      -0.413400       -11.2492
  38   2.0000      -0.413308       -11.2467
  39   2.0000      -0.410362       -11.1665
  40   0.0000       0.056699         1.5429
  41   0.0000       0.080001         2.1769
  42   0.0000       0.081757         2.2247
  43   0.0000       0.081949         2.2299
  44   0.0000       0.121937         3.3181

MULLIKEN ATOMIC CHARGES
-----------------------
   0 O :   -0.877028
   1 H :    0.415263
   2 H :    0.359778
   3 O :   -0.721673
   4 H :    0.410163
   5 H :    0.413615
   6 O :   -0.876727
   7 H :    0.415161
   8 H :    0.359632
   9 O :   -0.877456
  10 H :    0.413795
  11 H :    0.360007
  12 O :   -0.721301
  13 H :    0.411034
  14 H :    0.411884
  15 O :   -0.722127
  16 H :    0.411678
  17 H :    0.413425
  18 O :   -0.877880
  19 H :    0.415171
  20 H :    0.360264
  21 O :   -0.720759
  22 H :    0.413518
  23 H :    0.410564
Sum of atomic charges:   -0.0000000

LOEWDIN ATOMIC CHARGES
----------------------
   0 O :   -0.423695
   1 H :    0.192956
   2 H :    0.194049
   3 O :   -0.362552
   4 H :    0.198728
   5 H :    0.199839
   6 O :   -0.423323
   7 H :    0.192699
   8 H :    0.194004
   9 O :   -0.422502
  10 H :    0.193308
  11 H :    0.194288
  12 O :   -0.362229
  13 H :    0.198891
  14 H :    0.199536
  15 O :   -0.362706
  16 H :    0.199427
  17 H :    0.199648
  18 O :   -0.422537
  19 H :    0.193298
  20 H :    0.194342
  21 O :   -0.363325
  22 H :    0.199269
  23 H :    0.198585

  Mayer bond orders larger than 0.1
B(  0-O ,  1-H ) :   0.7037 B(  0-O ,  2-H ) :   0.8711 B(  1-H ,  3-O ) :   0.1767
B(  3-O ,  4-H ) :   0.8327 B(  3-O ,  5-H ) :   0.8326 B(  6-O ,  7-H ) :   0.7042
B(  6-O ,  8-H ) :   0.8711 B(  7-H , 12-O ) :   0.1763 B(  9-O , 10-H ) :   0.7043
B(  9-O , 11-H ) :   0.8709 B( 10-H , 21-O ) :   0.1778 B( 12-O , 13-H ) :   0.8316
B( 12-O , 14-H ) :   0.8335 B( 15-O , 16-H ) :   0.8314 B( 15-O , 17-H ) :   0.8328
B( 15-O , 19-H ) :   0.1762 B( 18-O , 19-H ) :   0.7041 B( 18-O , 20-H ) :   0.8705
B( 21-O , 22-H ) :   0.8330 B( 21-O , 23-H ) :   0.8328

Dispersion correction           -0.012644529
FINAL SINGLE POINT ENERGY      -611.638786597243

DIPOLE MOMENT
-------------
                                X             Y             Z
Electronic contribution:     -0.00318       0.00357      -0.00469
Nuclear contribution   :      0.01381      -0.00272       0.00460
                        -----------------------------------------
Total Dipole Moment    :      0.01063       0.00085      -0.00009
                        -----------------------------------------
Magnitude (a.u.)       :      0.01067
Magnitude (Debye)      :      0.02711

                             ****ORCA TERMINATED NORMALLY****
TOTAL RUN TIME: 0 days 0 hours 5 minutes 48 seconds 718 msec
