                         Program Version 4.2.0 -  RELEASE  -
|  1> # 12meoh.boyd.etal.mol5,6,8
|  2> ! MP2 def2-TZVP EnGrad TightSCF
|  3>
|  4> %pal
|  5>     nprocs 6
|  6> end
|  7>
|  8> %maxcore 8000
|  9>
| 10> %scf
| 11>     ConvForced true
| 12> end
| 13>
| 14> *xyz 0 1
| 15> O  -0.662721750   1.449094618  -1.383082065
| 16> H   0.064188300   2.119867608  -1.465650660
| 17> C  -0.353319239   0.341218776  -2.229326771
| 18> H  -1.072358530  -0.454743281  -2.019906495
| 19> H   0.657636746  -0.044472139  -2.042736771
| 20> H  -0.434616607   0.624733901  -3.287793021
| 21> O   2.622209273  -1.703002590  -1.445859723
| 22> H   1.828551432  -1.986513781  -0.909754968
| 23> C   2.781117675  -2.615822239  -2.525472890
| 24> H   3.691063626  -2.339003544  -3.065143454
| 25> H   1.934727323  -2.559520367  -3.223226661
| 26> H   2.879948338  -3.653846211  -2.177750170
| 27> O   3.570084754   2.361662577  -0.202416728
| 28> H   3.393280933   1.755669977   0.560634073
| 29> C   4.368082883   1.644741793  -1.143112807
| 30> H   4.552851717   2.311801738  -1.989632421
| 31> H   3.862427494   0.740851663  -1.508095690
| 32> H   5.333949674   1.357289092  -0.706288100
| 33> *
| 34>
| 35>                          ****END OF INPUT****

CARTESIAN COORDINATES (ANGSTROEM)
---------------------------------
  O     -0.662722    1.449095   -1.383082
  H      0.064188    2.119868   -1.465651
  C     -0.353319    0.341219   -2.229327
  H     -1.072359   -0.454743   -2.019906
  H      0.657637   -0.044472   -2.042737
  H     -0.434617    0.624734   -3.287793
  O      2.622209   -1.703003   -1.445860
  H      1.828551   -1.986514   -0.909755
  C      2.781118   -2.615822   -2.525473
  H      3.691064   -2.339004   -3.065143
  H      1.934727   -2.559520   -3.223227
  H      2.879948   -3.653846   -2.177750
  O      3.570085    2.361663   -0.202417
  H      3.393281    1.755670    0.560634
  C      4.368083    1.644742   -1.143113
  H      4.552852    2.311802   -1.989632
  H      3.862427    0.740852   -1.508096
  H      5.333950    1.357289   -0.706288

 Total Charge           Charge          ....    0
 Multiplicity           Mult            ....    1
 Number of Electrons    NEL             ....   54
 Basis Dimension        Dim             ....  258

ORBITAL ENERGIES
----------------

  NO   OCC          E(Eh)            E(eV)
   0   2.0000     -20.572405      -559.8036
   1   2.0000     -20.551851      -559.2443
   2   2.0000     -20.549146      -559.1707
   3   2.0000     -11.282887      -307.0230
   4   2.0000     -11.265902      -306.5608
   5   2.0000     -11.262330      -306.4636
   6   2.0000      -1.360607       -37.0240
   7   2.0000      -1.341011       -36.4908
   8   2.0000      -1.337677       -36.4000
   9   2.0000      -0.931383       -25.3442
  10   2.0000      -0.914869       -24.8949
  11   2.0000      -0.911937       -24.8151
  12   2.0000      -0.694961       -18.9109
  13   2.0000      -0.675200       -18.3731
  14   2.0000      -0.673857       -18.3366
  15   2.0000      -0.630696       -17.1621
  16   2.0000      -0.612322       -16.6621
  17   2.0000      -0.609088       -16.5741
  18   2.0000      -0.602518       -16.3953
  19   2.0000      -0.584877       -15.9153
  20   2.0000      -0.583403       -15.8752
  21   2.0000      -0.513784       -13.9808
  22   2.0000      -0.494742       -13.4626
  23   2.0000      -0.494089       -13.4449
  24   2.0000      -0.463156       -12.6031
  25   2.0000      -0.442630       -12.0446
  26   2.0000      -0.441184       -12.0052
  27   0.0000       0.114937         3.1276
  28   0.0000       0.134531         3.6608
  29   0.0000       0.161628         4.3981
  30   0.0000       0.165913         4.5147
  31   0.0000       0.182341         4.9617

MULLIKEN ATOMIC CHARGES
-----------------------
   0 O :   -0.506649
   1 H :    0.330154
   2 C :   -0.186505
   3 H :    0.120854
   4 H :    0.117159
   5 H :    0.109283
   6 O :   -0.494053
   7 H :    0.328088
   8 C :   -0.177925
   9 H :    0.131723
  10 H :    0.113889
  11 H :    0.118654
  12 O :   -0.507985
  13 H :    0.323505
  14 C :   -0.185822
  15 H :    0.122031
  16 H :    0.134450
  17 H :    0.109148
Sum of atomic charges:    0.0000000

LOEWDIN ATOMIC CHARGES
----------------------
   0 O :   -0.113057
   1 H :    0.191705
   2 C :   -0.384739
   3 H :    0.106346
   4 H :    0.095953
   5 H :    0.095742
   6 O :   -0.104457
   7 H :    0.193668
   8 C :   -0.382135
   9 H :    0.111065
  10 H :    0.096053
  11 H :    0.098903
  12 O :   -0.113982
  13 H :    0.188679
  14 C :   -0.382355
  15 H :    0.107375
  16 H :    0.099468
  17 H :    0.095768

  Mayer bond orders larger than 0.100000
B(  0-O ,  1-H ) :   0.8363 B(  0-O ,  2-C ) :   0.9233 B(  2-C ,  3-H ) :   0.9358
B(  2-C ,  4-H ) :   0.9339 B(  2-C ,  5-H ) :   0.9378 B(  6-O ,  7-H ) :   0.8346
B(  6-O ,  8-C ) :   0.9145 B(  8-C ,  9-H ) :   0.9389 B(  8-C , 10-H ) :   0.9364
B(  8-C , 11-H ) :   0.9373 B( 12-O , 13-H ) :   0.8424 B( 12-O , 14-C ) :   0.9129
B( 14-C , 15-H ) :   0.9369 B( 14-C , 16-H ) :   0.9324 B( 14-C , 17-H ) :   0.9428

MP2 TOTAL ENERGY:     -346.525754199 Eh
FINAL SINGLE POINT ENERGY      -346.525754199234

DIPOLE MOMENT
-------------
                                X             Y             Z
Electronic contribution:     -1.51977       3.43303       3.49177
Nuclear contribution   :      1.96023      -4.78846      -3.91049
                        -----------------------------------------
Total Dipole Moment    :      0.44047      -1.35544      -0.41872
                        -----------------------------------------
Magnitude (a.u.)       :      1.48544
Magnitude (Debye)      :      3.77570

Rotational constants in cm-1:     0.046203     0.043022     0.023578
Rotational constants in MHz :  1385.137671  1289.754066   706.849383

                             ****ORCA TERMINATED NORMALLY****
TOTAL RUN TIME: 0 days 0 hours 1 minutes 13 seconds 438 msec
