                         Program Version 4.2.0 -  RELEASE  -
|  1> # 12mecn.remya.etal.2.mol6,9,10
|  2> ! MP2 def2-TZVP EnGrad TightSCF
|  3>
|  4> %pal
|  5>     nprocs 6
|  6> end
|  7>
|  8> %maxcore 8000
|  9>
| 10> %scf
| 11>     ConvForced true
| 12> end
| 13>
| 14> *xyz 0 1
| 15> C   5.300864000  -2.920090000   1.401103000
| 16> H   5.986071000  -2.139770000   1.737487000
| 17> H   5.636642000  -3.888750000   1.778233000
| 18> H   4.307359000  -2.697240000   1.799307000
| 19> C   5.234791000  -2.933140000  -0.043290000
| 20> N   5.170868000  -2.941760000  -1.207750000
| 21> C   0.923766000   4.000693000  -1.575910000
| 22> H   0.011949000   4.478423000  -1.939550000
| 23> H   0.947903000   2.966558000  -1.929960000
| 24> H   1.805950000   4.519548000  -1.956520000
| 25> C   0.942834000   3.994846000  -0.131200000
| 26> N   0.960035000   3.982544000   1.035639000
| 27> C   4.602033000   0.321019000  -1.784800000
| 28> H   4.827650000  -0.662160000  -2.207910000
| 29> H   5.320558000   1.057980000  -2.148500000
| 30> H   3.601982000   0.643751000  -2.087520000
| 31> C   4.654967000   0.244048000  -0.343060000
| 32> N   4.691648000   0.166590000   0.820757000
| 33> *
| 34>
| 35>                          ****END OF INPUT****

CARTESIAN COORDINATES (ANGSTROEM)
---------------------------------
  C      5.300864   -2.920090    1.401103
  H      5.986071   -2.139770    1.737487
  H      5.636642   -3.888750    1.778233
  H      4.307359   -2.697240    1.799307
  C      5.234791   -2.933140   -0.043290
  N      5.170868   -2.941760   -1.207750
  C      0.923766    4.000693   -1.575910
  H      0.011949    4.478423   -1.939550
  H      0.947903    2.966558   -1.929960
  H      1.805950    4.519548   -1.956520
  C      0.942834    3.994846   -0.131200
  N      0.960035    3.982544    1.035639
  C      4.602033    0.321019   -1.784800
  H      4.827650   -0.662160   -2.207910
  H      5.320558    1.057980   -2.148500
  H      3.601982    0.643751   -2.087520
  C      4.654967    0.244048   -0.343060
  N      4.691648    0.166590    0.820757

 Total Charge           Charge          ....    0
 Multiplicity           Mult            ....    1
 Number of Electrons    NEL             ....   66
 Basis Dimension        Dim             ....  333

ORBITAL ENERGIES
----------------

  NO   OCC          E(Eh)            E(eV)
   0   2.0000     -15.573821      -423.7852
   1   2.0000     -15.571799      -423.7302
   2   2.0000     -15.570418      -423.6926
   3   2.0000     -11.287550      -307.1498
   4   2.0000     -11.282886      -307.0229
   5   2.0000     -11.282660      -307.0168
   6   2.0000     -11.280131      -306.9480
   7   2.0000     -11.275711      -306.8277
   8   2.0000     -11.271285      -306.7072
   9   2.0000      -1.218360       -33.1533
  10   2.0000      -1.214568       -33.0501
  11   2.0000      -1.213603       -33.0238
  12   2.0000      -1.046557       -28.4783
  13   2.0000      -1.038869       -28.2691
  14   2.0000      -1.033466       -28.1220
  15   2.0000      -0.702518       -19.1165
  16   2.0000      -0.696538       -18.9538
  17   2.0000      -0.691836       -18.8258
  18   2.0000      -0.636681       -17.3250
  19   2.0000      -0.633680       -17.2433
  20   2.0000      -0.632754       -17.2181
  21   2.0000      -0.624680       -16.9984
  22   2.0000      -0.618139       -16.8204
  23   2.0000      -0.617012       -16.7897
  24   2.0000      -0.559122       -15.2145
  25   2.0000      -0.555981       -15.1290
  26   2.0000      -0.555771       -15.1233
  27   2.0000      -0.463515       -12.6129
  28   2.0000      -0.458792       -12.4844
  29   2.0000      -0.458075       -12.4648
  30   2.0000      -0.457466       -12.4483
  31   2.0000      -0.457122       -12.4389
  32   2.0000      -0.452991       -12.3265
  33   0.0000       0.097113         2.6426
  34   0.0000       0.132618         3.6087
  35   0.0000       0.147198         4.0055
  36   0.0000       0.160125         4.3572
  37   0.0000       0.168468         4.5843

MULLIKEN ATOMIC CHARGES
-----------------------
   0 C :   -0.262173
   1 H :    0.183636
   2 H :    0.171321
   3 H :    0.175009
   4 C :   -0.117257
   5 N :   -0.149980
   6 C :   -0.283447
   7 H :    0.175144
   8 H :    0.166578
   9 H :    0.172115
  10 C :   -0.143527
  11 N :   -0.086914
  12 C :   -0.287290
  13 H :    0.207683
  14 H :    0.167075
  15 H :    0.155449
  16 C :   -0.109142
  17 N :   -0.134281
Sum of atomic charges:    0.0000000

LOEWDIN ATOMIC CHARGES
----------------------
   0 C :   -0.284346
   1 H :    0.156137
   2 H :    0.148595
   3 H :    0.157447
   4 C :   -0.208721
   5 N :    0.027463
   6 C :   -0.284900
   7 H :    0.152012
   8 H :    0.151022
   9 H :    0.151395
  10 C :   -0.220291
  11 N :    0.050698
  12 C :   -0.283264
  13 H :    0.157520
  14 H :    0.150084
  15 H :    0.148933
  16 C :   -0.210380
  17 N :    0.040594

  Mayer bond orders larger than 0.100000
B(  0-C ,  1-H ) :   0.9106 B(  0-C ,  2-H ) :   0.9098 B(  0-C ,  3-H ) :   0.9131
B(  0-C ,  4-C ) :   0.9130 B(  4-C ,  5-N ) :   2.7750 B(  6-C ,  7-H ) :   0.9159
B(  6-C ,  8-H ) :   0.9190 B(  6-C ,  9-H ) :   0.9174 B(  6-C , 10-C ) :   0.9003
B( 10-C , 11-N ) :   2.8315 B( 12-C , 13-H ) :   0.9013 B( 12-C , 14-H ) :   0.9178
B( 12-C , 15-H ) :   0.9184 B( 12-C , 16-C ) :   0.8978 B( 16-C , 17-N ) :   2.7823

MP2 TOTAL ENERGY:     -397.458139591 Eh
FINAL SINGLE POINT ENERGY      -397.458139591122

DIPOLE MOMENT
-------------
                                X             Y             Z
Electronic contribution:      0.03724      -0.21917       3.18777
Nuclear contribution   :     -0.03044       0.32877      -4.62010
                        -----------------------------------------
Total Dipole Moment    :      0.00680       0.10960      -1.43233
                        -----------------------------------------
Magnitude (a.u.)       :      1.43654
Magnitude (Debye)      :      3.65139

Rotational constants in cm-1:     0.081991     0.011684     0.010756
Rotational constants in MHz :  2458.033975   350.279704   322.450803

                             ****ORCA TERMINATED NORMALLY****
TOTAL RUN TIME: 0 days 0 hours 3 minutes 7 seconds 462 msec
