                         Program Version 4.2.0 -  RELEASE  -
|  1> # 12h2o.su.etal.mol0,3,5,7,8,10,11
|  2> ! MP2 def2-TZVP EnGrad TightSCF
|  3>
|  4> %pal
|  5>     nprocs 6
|  6> end
|  7>
|  8> %maxcore 8000
|  9>
| 10> %scf
| 11>     ConvForced true
| 12> end
| 13>
| 14> *xyz 0 1
| 15> O   1.794470000   0.923410000   2.768350000
| 16> H   2.338250000   1.359750000   3.430940000
| 17> H   0.879480000   1.303000000   2.865760000
| 18> O  -1.752130000  -0.741530000  -2.896280000
| 19> H  -2.036450000  -0.920500000  -1.984040000
| 20> H  -0.921210000  -1.242140000  -2.984230000
| 21> O   0.885520000  -1.737840000   0.052730000
| 22> H   1.284090000  -0.839590000   0.017130000
| 23> H   1.032320000  -2.090180000  -0.841890000
| 24> O  -1.737840000  -0.885520000  -0.052730000
| 25> H  -2.090180000  -1.032320000   0.841890000
| 26> H  -0.839590000  -1.284090000  -0.017130000
| 27> O   1.752130000   0.741530000  -2.896280000
| 28> H   2.036450000   0.920500000  -1.984040000
| 29> H   0.921210000   1.242140000  -2.984230000
| 30> O  -0.923410000   1.794470000  -2.768350000
| 31> H  -1.359750000   2.338250000  -3.430940000
| 32> H  -1.303000000   0.879480000  -2.865760000
| 33> O  -0.741530000   1.752130000   2.896280000
| 34> H  -0.920500000   2.036450000   1.984040000
| 35> H  -1.242140000   0.921210000   2.984230000
| 36> *
| 37>
| 38>                          ****END OF INPUT****

CARTESIAN COORDINATES (ANGSTROEM)
---------------------------------
  O      1.794470    0.923410    2.768350
  H      2.338250    1.359750    3.430940
  H      0.879480    1.303000    2.865760
  O     -1.752130   -0.741530   -2.896280
  H     -2.036450   -0.920500   -1.984040
  H     -0.921210   -1.242140   -2.984230
  O      0.885520   -1.737840    0.052730
  H      1.284090   -0.839590    0.017130
  H      1.032320   -2.090180   -0.841890
  O     -1.737840   -0.885520   -0.052730
  H     -2.090180   -1.032320    0.841890
  H     -0.839590   -1.284090   -0.017130
  O      1.752130    0.741530   -2.896280
  H      2.036450    0.920500   -1.984040
  H      0.921210    1.242140   -2.984230
  O     -0.923410    1.794470   -2.768350
  H     -1.359750    2.338250   -3.430940
  H     -1.303000    0.879480   -2.865760
  O     -0.741530    1.752130    2.896280
  H     -0.920500    2.036450    1.984040
  H     -1.242140    0.921210    2.984230

 Total Charge           Charge          ....    0
 Multiplicity           Mult            ....    1
 Number of Electrons    NEL             ....   70
 Basis Dimension        Dim             ....  301

ORBITAL ENERGIES
----------------

  NO   OCC          E(Eh)            E(eV)
   0   2.0000     -20.603181      -560.6411
   1   2.0000     -20.601833      -560.6044
   2   2.0000     -20.575993      -559.9012
   3   2.0000     -20.572929      -559.8179
   4   2.0000     -20.541388      -558.9596
   5   2.0000     -20.539388      -558.9052
   6   2.0000     -20.528097      -558.5979
   7   2.0000      -1.388459       -37.7819
   8   2.0000      -1.383628       -37.6504
   9   2.0000      -1.367257       -37.2050
  10   2.0000      -1.352400       -36.8007
  11   2.0000      -1.328324       -36.1455
  12   2.0000      -1.317571       -35.8529
  13   2.0000      -1.310291       -35.6548
  14   2.0000      -0.745870       -20.2962
  15   2.0000      -0.739467       -20.1219
  16   2.0000      -0.732971       -19.9452
  17   2.0000      -0.721036       -19.6204
  18   2.0000      -0.709450       -19.3051
  19   2.0000      -0.700535       -19.0625
  20   2.0000      -0.688086       -18.7238
  21   2.0000      -0.632873       -17.2213
  22   2.0000      -0.624037       -16.9809
  23   2.0000      -0.611728       -16.6460
  24   2.0000      -0.594355       -16.1732
  25   2.0000      -0.574118       -15.6226
  26   2.0000      -0.566361       -15.4115
  27   2.0000      -0.552941       -15.0463
  28   2.0000      -0.537762       -14.6333
  29   2.0000      -0.523249       -14.2383
  30   2.0000      -0.522176       -14.2091
  31   2.0000      -0.511546       -13.9199
  32   2.0000      -0.492095       -13.3906
  33   2.0000      -0.485454       -13.2099
  34   2.0000      -0.478509       -13.0209
  35   0.0000       0.077317         2.1039
  36   0.0000       0.105945         2.8829
  37   0.0000       0.136641         3.7182
  38   0.0000       0.153312         4.1718
  39   0.0000       0.163555         4.4506

MULLIKEN ATOMIC CHARGES
-----------------------
   0 O :   -0.736307
   1 H :    0.329856
   2 H :    0.365474
   3 O :   -0.697528
   4 H :    0.390385
   5 H :    0.342212
   6 O :   -0.680099
   7 H :    0.368270
   8 H :    0.353469
   9 O :   -0.726802
  10 H :    0.336416
  11 H :    0.358607
  12 O :   -0.712796
  13 H :    0.321872
  14 H :    0.366000
  15 O :   -0.742933
  16 H :    0.337909
  17 H :    0.384232
  18 O :   -0.676984
  19 H :    0.366627
  20 H :    0.352120
Sum of atomic charges:   -0.0000000

LOEWDIN ATOMIC CHARGES
----------------------
   0 O :   -0.373998
   1 H :    0.151200
   2 H :    0.141656
   3 O :   -0.274829
   4 H :    0.160793
   5 H :    0.166422
   6 O :   -0.283912
   7 H :    0.182688
   8 H :    0.170112
   9 O :   -0.340438
  10 H :    0.161901
  11 H :    0.144198
  12 O :   -0.349491
  13 H :    0.154490
  14 H :    0.148979
  15 O :   -0.341650
  16 H :    0.154107
  17 H :    0.146006
  18 O :   -0.268745
  19 H :    0.177755
  20 H :    0.172755

  Mayer bond orders larger than 0.100000
B(  0-O ,  1-H ) :   0.8580 B(  0-O ,  2-H ) :   0.7857 B(  3-O ,  4-H ) :   0.7952
B(  3-O ,  5-H ) :   0.8432 B(  6-O ,  7-H ) :   0.8218 B(  6-O ,  8-H ) :   0.8382
B(  9-O , 10-H ) :   0.8507 B(  9-O , 11-H ) :   0.7728 B( 12-O , 13-H ) :   0.8604
B( 12-O , 14-H ) :   0.7980 B( 15-O , 16-H ) :   0.8501 B( 15-O , 17-H ) :   0.7557
B( 18-O , 19-H ) :   0.8307 B( 18-O , 20-H ) :   0.8395

MP2 TOTAL ENERGY:     -534.242656839 Eh
FINAL SINGLE POINT ENERGY      -534.242656838852

DIPOLE MOMENT
-------------
                                X             Y             Z
Electronic contribution:     -0.23215      -0.18076       0.07170
Nuclear contribution   :     -0.64545      -0.08435       0.68611
                        -----------------------------------------
Total Dipole Moment    :     -0.87759      -0.26511       0.75781
                        -----------------------------------------
Magnitude (a.u.)       :      1.18942
Magnitude (Debye)      :      3.02328

Rotational constants in cm-1:     0.037766     0.018067     0.017160
Rotational constants in MHz :  1132.199284   541.629968   514.450079

                             ****ORCA TERMINATED NORMALLY****
TOTAL RUN TIME: 0 days 0 hours 1 minutes 38 seconds 626 msec
