                         Program Version 4.2.0 -  RELEASE  -
|  1> # 12h2o.su.etal.mol0,2,4,5,6,7,8
|  2> ! MP2 def2-TZVP EnGrad TightSCF
|  3>
|  4> %pal
|  5>     nprocs 6
|  6> end
|  7>
|  8> %maxcore 8000
|  9>
| 10> %scf
| 11>     ConvForced true
| 12> end
| 13>
| 14> *xyz 0 1
| 15> O   1.794470000   0.923410000   2.768350000
| 16> H   2.338250000   1.359750000   3.430940000
| 17> H   0.879480000   1.303000000   2.865760000
| 18> O   0.923410000  -1.794470000  -2.768350000
| 19> H   1.359750000  -2.338250000  -3.430940000
| 20> H   1.303000000  -0.879480000  -2.865760000
| 21> O  -0.885520000   1.737840000   0.052730000
| 22> H  -1.032320000   2.090180000  -0.841890000
| 23> H  -1.284090000   0.839590000   0.017130000
| 24> O   0.885520000  -1.737840000   0.052730000
| 25> H   1.284090000  -0.839590000   0.017130000
| 26> H   1.032320000  -2.090180000  -0.841890000
| 27> O   1.737840000   0.885520000  -0.052730000
| 28> H   2.090180000   1.032320000   0.841890000
| 29> H   0.839590000   1.284090000  -0.017130000
| 30> O  -1.737840000  -0.885520000  -0.052730000
| 31> H  -2.090180000  -1.032320000   0.841890000
| 32> H  -0.839590000  -1.284090000  -0.017130000
| 33> O   1.752130000   0.741530000  -2.896280000
| 34> H   2.036450000   0.920500000  -1.984040000
| 35> H   0.921210000   1.242140000  -2.984230000
| 36> *
| 37>
| 38>                          ****END OF INPUT****

CARTESIAN COORDINATES (ANGSTROEM)
---------------------------------
  O      1.794470    0.923410    2.768350
  H      2.338250    1.359750    3.430940
  H      0.879480    1.303000    2.865760
  O      0.923410   -1.794470   -2.768350
  H      1.359750   -2.338250   -3.430940
  H      1.303000   -0.879480   -2.865760
  O     -0.885520    1.737840    0.052730
  H     -1.032320    2.090180   -0.841890
  H     -1.284090    0.839590    0.017130
  O      0.885520   -1.737840    0.052730
  H      1.284090   -0.839590    0.017130
  H      1.032320   -2.090180   -0.841890
  O      1.737840    0.885520   -0.052730
  H      2.090180    1.032320    0.841890
  H      0.839590    1.284090   -0.017130
  O     -1.737840   -0.885520   -0.052730
  H     -2.090180   -1.032320    0.841890
  H     -0.839590   -1.284090   -0.017130
  O      1.752130    0.741530   -2.896280
  H      2.036450    0.920500   -1.984040
  H      0.921210    1.242140   -2.984230

 Total Charge           Charge          ....    0
 Multiplicity           Mult            ....    1
 Number of Electrons    NEL             ....   70
 Basis Dimension        Dim             ....  301

ORBITAL ENERGIES
----------------

  NO   OCC          E(Eh)            E(eV)
   0   2.0000     -20.593021      -560.3646
   1   2.0000     -20.575586      -559.8902
   2   2.0000     -20.571328      -559.7743
   3   2.0000     -20.558177      -559.4164
   4   2.0000     -20.550483      -559.2071
   5   2.0000     -20.533452      -558.7436
   6   2.0000     -20.520521      -558.3918
   7   2.0000      -1.372719       -37.3536
   8   2.0000      -1.366989       -37.1977
   9   2.0000      -1.362009       -37.0621
  10   2.0000      -1.344271       -36.5795
  11   2.0000      -1.335336       -36.3363
  12   2.0000      -1.318931       -35.8899
  13   2.0000      -1.303170       -35.4610
  14   2.0000      -0.738724       -20.1017
  15   2.0000      -0.729490       -19.8504
  16   2.0000      -0.722726       -19.6664
  17   2.0000      -0.716559       -19.4986
  18   2.0000      -0.701902       -19.0997
  19   2.0000      -0.700429       -19.0596
  20   2.0000      -0.682947       -18.5839
  21   2.0000      -0.632895       -17.2220
  22   2.0000      -0.609206       -16.5773
  23   2.0000      -0.605535       -16.4775
  24   2.0000      -0.583843       -15.8872
  25   2.0000      -0.581317       -15.8184
  26   2.0000      -0.569605       -15.4997
  27   2.0000      -0.546131       -14.8610
  28   2.0000      -0.532304       -14.4847
  29   2.0000      -0.514267       -13.9939
  30   2.0000      -0.510196       -13.8831
  31   2.0000      -0.501138       -13.6366
  32   2.0000      -0.496635       -13.5141
  33   2.0000      -0.481620       -13.1056
  34   2.0000      -0.469623       -12.7791
  35   0.0000       0.095487         2.5983
  36   0.0000       0.116180         3.1614
  37   0.0000       0.152869         4.1598
  38   0.0000       0.159927         4.3518
  39   0.0000       0.190357         5.1799

MULLIKEN ATOMIC CHARGES
-----------------------
   0 O :   -0.695523
   1 H :    0.352344
   2 H :    0.361680
   3 O :   -0.737029
   4 H :    0.333879
   5 H :    0.371692
   6 O :   -0.717631
   7 H :    0.341959
   8 H :    0.371824
   9 O :   -0.737985
  10 H :    0.361797
  11 H :    0.375865
  12 O :   -0.758243
  13 H :    0.385262
  14 H :    0.350213
  15 O :   -0.719706
  16 H :    0.341344
  17 H :    0.380134
  18 O :   -0.693026
  19 H :    0.391941
  20 H :    0.339208
Sum of atomic charges:    0.0000000

LOEWDIN ATOMIC CHARGES
----------------------
   0 O :   -0.308947
   1 H :    0.163864
   2 H :    0.188349
   3 O :   -0.341248
   4 H :    0.152409
   5 H :    0.144217
   6 O :   -0.313362
   7 H :    0.162728
   8 H :    0.145893
   9 O :   -0.318800
  10 H :    0.138692
  11 H :    0.149352
  12 O :   -0.305438
  13 H :    0.154531
  14 H :    0.138593
  15 O :   -0.311199
  16 H :    0.163141
  17 H :    0.147490
  18 O :   -0.275624
  19 H :    0.158806
  20 H :    0.166554

  Mayer bond orders larger than 0.100000
B(  0-O ,  1-H ) :   0.8420 B(  0-O ,  2-H ) :   0.8295 B(  3-O ,  4-H ) :   0.8522
B(  3-O ,  5-H ) :   0.7620 B(  6-O ,  7-H ) :   0.8472 B(  6-O ,  8-H ) :   0.7515
B(  6-O , 14-H ) :   0.1111 B(  8-H , 15-O ) :   0.1266 B(  9-O , 10-H ) :   0.7863
B(  9-O , 11-H ) :   0.7997 B(  9-O , 17-H ) :   0.1224 B( 12-O , 13-H ) :   0.7978
B( 12-O , 14-H ) :   0.7632 B( 15-O , 16-H ) :   0.8465 B( 15-O , 17-H ) :   0.7475
B( 18-O , 19-H ) :   0.7924 B( 18-O , 20-H ) :   0.8473

MP2 TOTAL ENERGY:     -534.270202660 Eh
FINAL SINGLE POINT ENERGY      -534.270202659941

DIPOLE MOMENT
-------------
                                X             Y             Z
Electronic contribution:      0.16757      -0.05792       0.10721
Nuclear contribution   :     -0.08480       1.55378       0.68611
                        -----------------------------------------
Total Dipole Moment    :      0.08277       1.49587       0.79332
                        -----------------------------------------
Magnitude (a.u.)       :      1.69524
Magnitude (Debye)      :      4.30895

Rotational constants in cm-1:     0.042502     0.027066     0.024499
Rotational constants in MHz :  1274.192048   811.421272   734.472653

                             ****ORCA TERMINATED NORMALLY****
TOTAL RUN TIME: 0 days 0 hours 2 minutes 10 seconds 410 msec
