                         Program Version 4.2.0 -  RELEASE  -
|  1> # 12h2o.su.etal.mol0,1,2,3,4,5,6,7,8,10
|  2> ! MP2 def2-TZVP EnGrad TightSCF
|  3>
|  4> %pal
|  5>     nprocs 6
|  6> end
|  7>
|  8> %maxcore 8000
|  9>
| 10> %scf
| 11>     ConvForced true
| 12> end
| 13>
| 14> *xyz 0 1
| 15> O   1.794470000   0.923410000   2.768350000
| 16> H   2.338250000   1.359750000   3.430940000
| 17> H   0.879480000   1.303000000   2.865760000
| 18> O  -1.794470000  -0.923410000   2.768350000
| 19> H  -2.338250000  -1.359750000   3.430940000
| 20> H  -0.879480000  -1.303000000   2.865760000
| 21> O   0.923410000  -1.794470000  -2.768350000
| 22> H   1.359750000  -2.338250000  -3.430940000
| 23> H   1.303000000  -0.879480000  -2.865760000
| 24> O  -1.752130000  -0.741530000  -2.896280000
| 25> H  -2.036450000  -0.920500000  -1.984040000
| 26> H  -0.921210000  -1.242140000  -2.984230000
| 27> O  -0.885520000   1.737840000   0.052730000
| 28> H  -1.032320000   2.090180000  -0.841890000
| 29> H  -1.284090000   0.839590000   0.017130000
| 30> O   0.885520000  -1.737840000   0.052730000
| 31> H   1.284090000  -0.839590000   0.017130000
| 32> H   1.032320000  -2.090180000  -0.841890000
| 33> O   1.737840000   0.885520000  -0.052730000
| 34> H   2.090180000   1.032320000   0.841890000
| 35> H   0.839590000   1.284090000  -0.017130000
| 36> O  -1.737840000  -0.885520000  -0.052730000
| 37> H  -2.090180000  -1.032320000   0.841890000
| 38> H  -0.839590000  -1.284090000  -0.017130000
| 39> O   1.752130000   0.741530000  -2.896280000
| 40> H   2.036450000   0.920500000  -1.984040000
| 41> H   0.921210000   1.242140000  -2.984230000
| 42> O  -0.923410000   1.794470000  -2.768350000
| 43> H  -1.359750000   2.338250000  -3.430940000
| 44> H  -1.303000000   0.879480000  -2.865760000
| 45> *
| 46>
| 47>                          ****END OF INPUT****

CARTESIAN COORDINATES (ANGSTROEM)
---------------------------------
  O      1.794470    0.923410    2.768350
  H      2.338250    1.359750    3.430940
  H      0.879480    1.303000    2.865760
  O     -1.794470   -0.923410    2.768350
  H     -2.338250   -1.359750    3.430940
  H     -0.879480   -1.303000    2.865760
  O      0.923410   -1.794470   -2.768350
  H      1.359750   -2.338250   -3.430940
  H      1.303000   -0.879480   -2.865760
  O     -1.752130   -0.741530   -2.896280
  H     -2.036450   -0.920500   -1.984040
  H     -0.921210   -1.242140   -2.984230
  O     -0.885520    1.737840    0.052730
  H     -1.032320    2.090180   -0.841890
  H     -1.284090    0.839590    0.017130
  O      0.885520   -1.737840    0.052730
  H      1.284090   -0.839590    0.017130
  H      1.032320   -2.090180   -0.841890
  O      1.737840    0.885520   -0.052730
  H      2.090180    1.032320    0.841890
  H      0.839590    1.284090   -0.017130
  O     -1.737840   -0.885520   -0.052730
  H     -2.090180   -1.032320    0.841890
  H     -0.839590   -1.284090   -0.017130
  O      1.752130    0.741530   -2.896280
  H      2.036450    0.920500   -1.984040
  H      0.921210    1.242140   -2.984230
  O     -0.923410    1.794470   -2.768350
  H     -1.359750    2.338250   -3.430940
  H     -1.303000    0.879480   -2.865760

 Total Charge           Charge          ....    0
 Multiplicity           Mult            ....    1
 Number of Electrons    NEL             ....  100
 Basis Dimension        Dim             ....  430

ORBITAL ENERGIES
----------------

  NO   OCC          E(Eh)            E(eV)
   0   2.0000     -20.590020      -560.2829
   1   2.0000     -20.590020      -560.2829
   2   2.0000     -20.556809      -559.3792
   3   2.0000     -20.556809      -559.3792
   4   2.0000     -20.544475      -559.0436
   5   2.0000     -20.544475      -559.0436
   6   2.0000     -20.543459      -559.0159
   7   2.0000     -20.543459      -559.0159
   8   2.0000     -20.528961      -558.6214
   9   2.0000     -20.528961      -558.6214
  10   2.0000      -1.368793       -37.2467
  11   2.0000      -1.368139       -37.2289
  12   2.0000      -1.357645       -36.9434
  13   2.0000      -1.347193       -36.6590
  14   2.0000      -1.342689       -36.5364
  15   2.0000      -1.338705       -36.4280
  16   2.0000      -1.328335       -36.1458
  17   2.0000      -1.324436       -36.0397
  18   2.0000      -1.316709       -35.8295
  19   2.0000      -1.306553       -35.5531
  20   2.0000      -0.736248       -20.0343
  21   2.0000      -0.733424       -19.9575
  22   2.0000      -0.722689       -19.6654
  23   2.0000      -0.721769       -19.6403
  24   2.0000      -0.711516       -19.3613
  25   2.0000      -0.708835       -19.2884
  26   2.0000      -0.699870       -19.0444
  27   2.0000      -0.693502       -18.8711
  28   2.0000      -0.692811       -18.8523
  29   2.0000      -0.688282       -18.7291
  30   2.0000      -0.631166       -17.1749
  31   2.0000      -0.613558       -16.6958
  32   2.0000      -0.610257       -16.6059
  33   2.0000      -0.599334       -16.3087
  34   2.0000      -0.590027       -16.0555
  35   2.0000      -0.586025       -15.9466
  36   2.0000      -0.571294       -15.5457
  37   2.0000      -0.564048       -15.3485
  38   2.0000      -0.563176       -15.3248
  39   2.0000      -0.540311       -14.7026
  40   2.0000      -0.528100       -14.3703
  41   2.0000      -0.525367       -14.2960
  42   2.0000      -0.504174       -13.7193
  43   2.0000      -0.503460       -13.6998
  44   2.0000      -0.493678       -13.4337
  45   2.0000      -0.493313       -13.4237
  46   2.0000      -0.489153       -13.3105
  47   2.0000      -0.488253       -13.2860
  48   2.0000      -0.478771       -13.0280
  49   2.0000      -0.475996       -12.9525
  50   0.0000       0.100469         2.7339
  51   0.0000       0.129111         3.5133
  52   0.0000       0.135645         3.6911
  53   0.0000       0.153810         4.1854
  54   0.0000       0.189140         5.1468

MULLIKEN ATOMIC CHARGES
-----------------------
   0 O :   -0.704757
   1 H :    0.351506
   2 H :    0.369313
   3 O :   -0.704757
   4 H :    0.351506
   5 H :    0.369313
   6 O :   -0.759245
   7 H :    0.348237
   8 H :    0.384648
   9 O :   -0.727096
  10 H :    0.388003
  11 H :    0.369676
  12 O :   -0.739292
  13 H :    0.373294
  14 H :    0.367119
  15 O :   -0.739292
  16 H :    0.367119
  17 H :    0.373294
  18 O :   -0.761586
  19 H :    0.379513
  20 H :    0.360667
  21 O :   -0.761586
  22 H :    0.379513
  23 H :    0.360667
  24 O :   -0.727096
  25 H :    0.388003
  26 H :    0.369676
  27 O :   -0.759245
  28 H :    0.348237
  29 H :    0.384648
Sum of atomic charges:   -0.0000000

LOEWDIN ATOMIC CHARGES
----------------------
   0 O :   -0.312462
   1 H :    0.163442
   2 H :    0.190168
   3 O :   -0.312462
   4 H :    0.163442
   5 H :    0.190168
   6 O :   -0.317071
   7 H :    0.157848
   8 H :    0.146589
   9 O :   -0.288652
  10 H :    0.156026
  11 H :    0.149584
  12 O :   -0.320861
  13 H :    0.147567
  14 H :    0.140455
  15 O :   -0.320861
  16 H :    0.140455
  17 H :    0.147567
  18 O :   -0.305893
  19 H :    0.151954
  20 H :    0.141306
  21 O :   -0.305893
  22 H :    0.151954
  23 H :    0.141306
  24 O :   -0.288652
  25 H :    0.156026
  26 H :    0.149584
  27 O :   -0.317071
  28 H :    0.157848
  29 H :    0.146589

  Mayer bond orders larger than 0.100000
B(  0-O ,  1-H ) :   0.8422 B(  0-O ,  2-H ) :   0.8223 B(  3-O ,  4-H ) :   0.8422
B(  3-O ,  5-H ) :   0.8223 B(  6-O ,  7-H ) :   0.8416 B(  6-O ,  8-H ) :   0.7234
B(  8-H , 24-O ) :   0.1263 B(  9-O , 10-H ) :   0.7983 B(  9-O , 11-H ) :   0.7970
B(  9-O , 29-H ) :   0.1263 B( 12-O , 13-H ) :   0.8062 B( 12-O , 14-H ) :   0.7739
B( 12-O , 20-H ) :   0.1263 B( 15-O , 16-H ) :   0.7739 B( 15-O , 17-H ) :   0.8062
B( 15-O , 23-H ) :   0.1263 B( 18-O , 19-H ) :   0.8031 B( 18-O , 20-H ) :   0.7476
B( 21-O , 22-H ) :   0.8031 B( 21-O , 23-H ) :   0.7476 B( 24-O , 25-H ) :   0.7983
B( 24-O , 26-H ) :   0.7970 B( 27-O , 28-H ) :   0.8416 B( 27-O , 29-H ) :   0.7234

MP2 TOTAL ENERGY:     -763.273392137 Eh
FINAL SINGLE POINT ENERGY      -763.273392137424

DIPOLE MOMENT
-------------
                                X             Y             Z
Electronic contribution:     -0.00000      -0.00000       0.18480
Nuclear contribution   :     -0.00000       0.00000       1.37221
                        -----------------------------------------
Total Dipole Moment    :     -0.00000      -0.00000       1.55701
                        -----------------------------------------
Magnitude (a.u.)       :      1.55701
Magnitude (Debye)      :      3.95761

Rotational constants in cm-1:     0.023888     0.015346     0.013741
Rotational constants in MHz :   716.156695   460.056891   411.941575

                             ****ORCA TERMINATED NORMALLY****
TOTAL RUN TIME: 0 days 0 hours 7 minutes 53 seconds 715 msec
