                         Program Version 3.0.3 - RELEASE   -
|  1> ! wB97X-D3 MA-Def2-TZVP def2-TZVP/J RIJCOSX TightSCF Grid4
|  2>
|  3> %pal nprocs 1 end
|  4>
|  5> %scf
|  6>         maxiter 400
|  7> end
|  8>
|  9> %cosmo
| 10>         SMD true
| 11>         solvent "WATER"
| 12> end
| 13>
| 14> * xyz  0  1
| 15> O  -2.097228	0.363136	-2.552636
| 16> H  -2.513469	0.834502	-1.770382
| 17> H  -1.707747	-0.448195	-2.127672
| 18> O  -0.065345	-1.886520	2.734524
| 19> H  -0.739453	-1.265903	2.347191
| 20> H  0.145605	-2.487069	1.958873
| 21> O  1.397246	0.045036	-1.275120
| 22> H  1.105519	0.744489	-1.936963
| 23> H  0.572005	-0.547680	-1.218035
| 24> O  -0.679271	3.225149	-0.411024
| 25> H  -0.361783	2.875593	-1.296801
| 26> H  -0.075969	2.758048	0.227359
| 27> O  -2.765495	1.655067	-0.277366
| 28> H  -2.016019	2.359968	-0.301437
| 29> H  -3.587284	2.150607	-0.090808
| 30> O  0.038308	1.866388	-2.630956
| 31> H  0.186057	2.246647	-3.519211
| 32> H  -0.812605	1.293562	-2.712301
| 33> O  -1.411961	-0.025130	1.255123
| 34> H  -0.584287	0.563786	1.203659
| 35> H  -2.115876	0.566458	0.846832
| 36> O  0.660058	-3.131110	0.443083
| 37> H  1.573402	-2.673243	0.330841
| 38> H  0.822739	-4.088155	0.328003
| 39> O  2.844533	-1.712229	0.233195
| 40> H  2.527518	-1.051863	-0.439862
| 41> H  2.718467	-1.216785	1.096254
| 42> O  2.062434	-0.385358	2.460739
| 43> H  1.253719	-0.978022	2.682966
| 44> H  2.576754	-0.313228	3.288905
| 45> O  -0.788246	-1.399385	-0.928290
| 46> H  -0.352056	-2.229026	-0.563542
| 47> H  -1.087372	-0.920828	-0.082379
| 48> O  0.807970	1.380868	0.949596
| 49> H  1.098310	0.910621	0.097308
| 50> H  1.368389	0.922951	1.647739
| 51> **                         ****END OF INPUT****

CARTESIAN COORDINATES (ANGSTROEM)
---------------------------------
  O     -2.097228    0.363136   -2.552636
  H     -2.513469    0.834502   -1.770382
  H     -1.707747   -0.448195   -2.127672
  O     -0.065345   -1.886520    2.734524
  H     -0.739453   -1.265903    2.347191
  H      0.145605   -2.487069    1.958873
  O      1.397246    0.045036   -1.275120
  H      1.105519    0.744489   -1.936963
  H      0.572005   -0.547680   -1.218035
  O     -0.679271    3.225149   -0.411024
  H     -0.361783    2.875593   -1.296801
  H     -0.075969    2.758048    0.227359
  O     -2.765495    1.655067   -0.277366
  H     -2.016019    2.359968   -0.301437
  H     -3.587284    2.150607   -0.090808
  O      0.038308    1.866388   -2.630956
  H      0.186057    2.246647   -3.519211
  H     -0.812605    1.293562   -2.712301
  O     -1.411961   -0.025130    1.255123
  H     -0.584287    0.563786    1.203659
  H     -2.115876    0.566458    0.846832
  O      0.660058   -3.131110    0.443083
  H      1.573402   -2.673243    0.330841
  H      0.822739   -4.088155    0.328003
  O      2.844533   -1.712229    0.233195
  H      2.527518   -1.051863   -0.439862
  H      2.718467   -1.216785    1.096254
  O      2.062434   -0.385358    2.460739
  H      1.253719   -0.978022    2.682966
  H      2.576754   -0.313228    3.288905
  O     -0.788246   -1.399385   -0.928290
  H     -0.352056   -2.229026   -0.563542
  H     -1.087372   -0.920828   -0.082379
  O      0.807970    1.380868    0.949596
  H      1.098310    0.910621    0.097308
  H      1.368389    0.922951    1.647739

 Total Charge           Charge          ....    0
 Multiplicity           Mult            ....    1
 Number of Electrons    NEL             ....  120
 Basis Dimension        Dim             ....  564

ORBITAL ENERGIES
----------------

  NO   OCC          E(Eh)            E(eV)
   0   2.0000     -19.242712      -523.6208
   1   2.0000     -19.242474      -523.6143
   2   2.0000     -19.242300      -523.6096
   3   2.0000     -19.241963      -523.6004
   4   2.0000     -19.234286      -523.3915
   5   2.0000     -19.234282      -523.3914
   6   2.0000     -19.233944      -523.3822
   7   2.0000     -19.233855      -523.3798
   8   2.0000     -19.233519      -523.3707
   9   2.0000     -19.233113      -523.3596
  10   2.0000     -19.232775      -523.3504
  11   2.0000     -19.232493      -523.3427
  12   2.0000      -1.152917       -31.3725
  13   2.0000      -1.141956       -31.0742
  14   2.0000      -1.134083       -30.8600
  15   2.0000      -1.131037       -30.7771
  16   2.0000      -1.128276       -30.7019
  17   2.0000      -1.124065       -30.5874
  18   2.0000      -1.118700       -30.4414
  19   2.0000      -1.110937       -30.2301
  20   2.0000      -1.109194       -30.1827
  21   2.0000      -1.106230       -30.1020
  22   2.0000      -1.102938       -30.0125
  23   2.0000      -1.087588       -29.5948
  24   2.0000      -0.646968       -17.6049
  25   2.0000      -0.645067       -17.5532
  26   2.0000      -0.644474       -17.5370
  27   2.0000      -0.640782       -17.4366
  28   2.0000      -0.638860       -17.3843
  29   2.0000      -0.632708       -17.2169
  30   2.0000      -0.631654       -17.1882
  31   2.0000      -0.627804       -17.0834
  32   2.0000      -0.622764       -16.9463
  33   2.0000      -0.616064       -16.7639
  34   2.0000      -0.615038       -16.7360
  35   2.0000      -0.613256       -16.6875
  36   2.0000      -0.580445       -15.7947
  37   2.0000      -0.549647       -14.9567
  38   2.0000      -0.542957       -14.7746
  39   2.0000      -0.536444       -14.5974
  40   2.0000      -0.518811       -14.1176
  41   2.0000      -0.518103       -14.0983
  42   2.0000      -0.507133       -13.7998
  43   2.0000      -0.505776       -13.7629
  44   2.0000      -0.485479       -13.2106
  45   2.0000      -0.480625       -13.0785
  46   2.0000      -0.480521       -13.0756
  47   2.0000      -0.454138       -12.3577
  48   2.0000      -0.428996       -11.6736
  49   2.0000      -0.428038       -11.6475
  50   2.0000      -0.424827       -11.5601
  51   2.0000      -0.423916       -11.5354
  52   2.0000      -0.422757       -11.5038
  53   2.0000      -0.421400       -11.4669
  54   2.0000      -0.420362       -11.4386
  55   2.0000      -0.418808       -11.3963
  56   2.0000      -0.417501       -11.3608
  57   2.0000      -0.416142       -11.3238
  58   2.0000      -0.414591       -11.2816
  59   2.0000      -0.412730       -11.2310
  60   0.0000       0.063532         1.7288
  61   0.0000       0.082682         2.2499
  62   0.0000       0.093641         2.5481
  63   0.0000       0.095538         2.5997
  64   0.0000       0.110508         3.0071

MULLIKEN ATOMIC CHARGES
-----------------------
   0 O :   -0.825214
   1 H :    0.432935
   2 H :    0.443168
   3 O :   -0.827436
   4 H :    0.445120
   5 H :    0.431238
   6 O :   -0.907530
   7 H :    0.449901
   8 H :    0.428443
   9 O :   -0.826728
  10 H :    0.432390
  11 H :    0.443296
  12 O :   -0.865675
  13 H :    0.436364
  14 H :    0.418033
  15 O :   -0.865544
  16 H :    0.417630
  17 H :    0.435546
  18 O :   -0.907545
  19 H :    0.427429
  20 H :    0.449960
  21 O :   -0.872981
  22 H :    0.438154
  23 H :    0.418961
  24 O :   -0.826769
  25 H :    0.444796
  26 H :    0.432148
  27 O :   -0.872139
  28 H :    0.437268
  29 H :    0.419028
  30 O :   -0.923384
  31 H :    0.445368
  32 H :    0.433786
  33 O :   -0.916503
  34 H :    0.431232
  35 H :    0.445255
Sum of atomic charges:    0.0000000

LOEWDIN ATOMIC CHARGES
----------------------
   0 O :   -0.406932
   1 H :    0.202402
   2 H :    0.206479
   3 O :   -0.407866
   4 H :    0.205841
   5 H :    0.201749
   6 O :   -0.436077
   7 H :    0.204348
   8 H :    0.194876
   9 O :   -0.407325
  10 H :    0.201999
  11 H :    0.206403
  12 O :   -0.390391
  13 H :    0.202075
  14 H :    0.220331
  15 O :   -0.390159
  16 H :    0.220090
  17 H :    0.201461
  18 O :   -0.434303
  19 H :    0.195054
  20 H :    0.203658
  21 O :   -0.389576
  22 H :    0.201450
  23 H :    0.220517
  24 O :   -0.406385
  25 H :    0.205700
  26 H :    0.201892
  27 O :   -0.389028
  28 H :    0.201947
  29 H :    0.220637
  30 O :   -0.430882
  31 H :    0.203414
  32 H :    0.196423
  33 O :   -0.430300
  34 H :    0.196813
  35 H :    0.203666

  Mayer bond orders larger than 0.1
B(  0-O ,  1-H ) :   0.8022 B(  0-O ,  2-H ) :   0.8132 B(  3-O ,  4-H ) :   0.8128
B(  3-O ,  5-H ) :   0.8028 B(  6-O ,  7-H ) :   0.7793 B(  6-O ,  8-H ) :   0.7681
B(  9-O , 10-H ) :   0.8015 B(  9-O , 11-H ) :   0.8132 B( 12-O , 13-H ) :   0.7467
B( 12-O , 14-H ) :   0.8293 B( 15-O , 16-H ) :   0.8297 B( 15-O , 17-H ) :   0.7466
B( 18-O , 19-H ) :   0.7696 B( 18-O , 20-H ) :   0.7787 B( 21-O , 22-H ) :   0.7457
B( 21-O , 23-H ) :   0.8279 B( 24-O , 25-H ) :   0.8128 B( 24-O , 26-H ) :   0.8029
B( 27-O , 28-H ) :   0.7473 B( 27-O , 29-H ) :   0.8280 B( 30-O , 31-H ) :   0.7775
B( 30-O , 32-H ) :   0.7710 B( 33-O , 34-H ) :   0.7734 B( 33-O , 35-H ) :   0.7777

Dispersion correction           -0.022797870
FINAL SINGLE POINT ENERGY      -917.507928386601

DIPOLE MOMENT
-------------
                                X             Y             Z
Electronic contribution:      0.00502      -0.00224       0.00743
Nuclear contribution   :     -0.00952       0.01283      -0.00433
                        -----------------------------------------
Total Dipole Moment    :     -0.00450       0.01059       0.00311
                        -----------------------------------------
Magnitude (a.u.)       :      0.01192
Magnitude (Debye)      :      0.03029

                             ****ORCA TERMINATED NORMALLY****
TOTAL RUN TIME: 0 days 0 hours 17 minutes 21 seconds 600 msec
