                         Program Version 3.0.3 - RELEASE   -
|  1> ! wB97X-D3 MA-Def2-TZVP def2-TZVP/J RIJCOSX TightSCF Grid4
|  2>
|  3> %pal nprocs 1 end
|  4>
|  5> %scf
|  6>         maxiter 400
|  7> end
|  8>
|  9> * xyz  0  1
| 10> O  -2.043123	0.390282	-2.542485
| 11> H  -2.507328	0.830970	-1.774793
| 12> H  -1.694074	-0.450275	-2.137401
| 13> O  -0.022762	-1.842890	2.721333
| 14> H  -0.739013	-1.253192	2.358862
| 15> H  0.142864	-2.483379	1.973070
| 16> O  1.400617	0.046934	-1.253858
| 17> H  1.147397	0.727900	-1.942315
| 18> H  0.573244	-0.545032	-1.211409
| 19> O  -0.716870	3.179492	-0.403469
| 20> H  -0.364311	2.878712	-1.288911
| 21> H  -0.085770	2.755726	0.239896
| 22> O  -2.778579	1.671272	-0.253443
| 23> H  -1.985128	2.355472	-0.294103
| 24> H  -3.579791	2.199491	-0.082931
| 25> O  0.046656	1.859587	-2.661741
| 26> H  0.154765	2.225434	-3.558493
| 27> H  -0.819226	1.269351	-2.694211
| 28> O  -1.400271	-0.043906	1.249855
| 29> H  -0.580752	0.557831	1.200770
| 30> H  -2.125092	0.543063	0.887143
| 31> O  0.664291	-3.155003	0.421566
| 32> H  1.574181	-2.646782	0.320208
| 33> H  0.867194	-4.101811	0.311160
| 34> O  2.784698	-1.734420	0.229766
| 35> H  2.523818	-1.059002	-0.454367
| 36> H  2.718591	-1.223779	1.085471
| 37> O  2.061938	-0.370804	2.486323
| 38> H  1.227557	-0.975519	2.666782
| 39> H  2.551886	-0.325852	3.327584
| 40> O  -0.788634	-1.389726	-0.938354
| 41> H  -0.388407	-2.241707	-0.598624
| 42> H  -1.089942	-0.923155	-0.085412
| 43> O  0.795248	1.387809	0.945846
| 44> H  1.099828	0.916932	0.097358
| 45> H  1.371867	0.973121	1.650729
| 46> **                         ****END OF INPUT****

CARTESIAN COORDINATES (ANGSTROEM)
---------------------------------
  O     -2.043123    0.390282   -2.542485
  H     -2.507328    0.830970   -1.774793
  H     -1.694074   -0.450275   -2.137401
  O     -0.022762   -1.842890    2.721333
  H     -0.739013   -1.253192    2.358862
  H      0.142864   -2.483379    1.973070
  O      1.400617    0.046934   -1.253858
  H      1.147397    0.727900   -1.942315
  H      0.573244   -0.545032   -1.211409
  O     -0.716870    3.179492   -0.403469
  H     -0.364311    2.878712   -1.288911
  H     -0.085770    2.755726    0.239896
  O     -2.778579    1.671272   -0.253443
  H     -1.985128    2.355472   -0.294103
  H     -3.579791    2.199491   -0.082931
  O      0.046656    1.859587   -2.661741
  H      0.154765    2.225434   -3.558493
  H     -0.819226    1.269351   -2.694211
  O     -1.400271   -0.043906    1.249855
  H     -0.580752    0.557831    1.200770
  H     -2.125092    0.543063    0.887143
  O      0.664291   -3.155003    0.421566
  H      1.574181   -2.646782    0.320208
  H      0.867194   -4.101811    0.311160
  O      2.784698   -1.734420    0.229766
  H      2.523818   -1.059002   -0.454367
  H      2.718591   -1.223779    1.085471
  O      2.061938   -0.370804    2.486323
  H      1.227557   -0.975519    2.666782
  H      2.551886   -0.325852    3.327584
  O     -0.788634   -1.389726   -0.938354
  H     -0.388407   -2.241707   -0.598624
  H     -1.089942   -0.923155   -0.085412
  O      0.795248    1.387809    0.945846
  H      1.099828    0.916932    0.097358
  H      1.371867    0.973121    1.650729

 Total Charge           Charge          ....    0
 Multiplicity           Mult            ....    1
 Number of Electrons    NEL             ....  120
 Basis Dimension        Dim             ....  564

ORBITAL ENERGIES
----------------

  NO   OCC          E(Eh)            E(eV)
   0   2.0000     -19.252243      -523.8802
   1   2.0000     -19.251870      -523.8700
   2   2.0000     -19.251643      -523.8638
   3   2.0000     -19.251364      -523.8563
   4   2.0000     -19.237423      -523.4769
   5   2.0000     -19.237203      -523.4709
   6   2.0000     -19.236995      -523.4652
   7   2.0000     -19.236983      -523.4649
   8   2.0000     -19.236382      -523.4486
   9   2.0000     -19.236278      -523.4457
  10   2.0000     -19.236234      -523.4445
  11   2.0000     -19.236177      -523.4430
  12   2.0000      -1.159011       -31.5383
  13   2.0000      -1.149261       -31.2730
  14   2.0000      -1.141443       -31.0602
  15   2.0000      -1.137653       -30.9571
  16   2.0000      -1.134708       -30.8770
  17   2.0000      -1.130211       -30.7546
  18   2.0000      -1.122547       -30.5460
  19   2.0000      -1.115360       -30.3505
  20   2.0000      -1.114711       -30.3328
  21   2.0000      -1.110534       -30.2192
  22   2.0000      -1.107572       -30.1386
  23   2.0000      -1.092512       -29.7288
  24   2.0000      -0.657766       -17.8987
  25   2.0000      -0.655269       -17.8308
  26   2.0000      -0.653877       -17.7929
  27   2.0000      -0.651106       -17.7175
  28   2.0000      -0.647965       -17.6320
  29   2.0000      -0.640162       -17.4197
  30   2.0000      -0.639228       -17.3943
  31   2.0000      -0.636827       -17.3289
  32   2.0000      -0.628768       -17.1096
  33   2.0000      -0.621446       -16.9104
  34   2.0000      -0.619801       -16.8657
  35   2.0000      -0.617450       -16.8017
  36   2.0000      -0.586575       -15.9615
  37   2.0000      -0.557538       -15.1714
  38   2.0000      -0.544757       -14.8236
  39   2.0000      -0.540900       -14.7186
  40   2.0000      -0.518901       -14.1200
  41   2.0000      -0.518714       -14.1149
  42   2.0000      -0.515005       -14.0140
  43   2.0000      -0.511698       -13.9240
  44   2.0000      -0.487589       -13.2680
  45   2.0000      -0.484883       -13.1943
  46   2.0000      -0.481666       -13.1068
  47   2.0000      -0.452804       -12.3214
  48   2.0000      -0.436835       -11.8869
  49   2.0000      -0.434994       -11.8368
  50   2.0000      -0.433033       -11.7834
  51   2.0000      -0.430680       -11.7194
  52   2.0000      -0.424720       -11.5572
  53   2.0000      -0.423617       -11.5272
  54   2.0000      -0.423440       -11.5224
  55   2.0000      -0.418647       -11.3920
  56   2.0000      -0.418240       -11.3809
  57   2.0000      -0.416376       -11.3302
  58   2.0000      -0.416182       -11.3249
  59   2.0000      -0.414697       -11.2845
  60   0.0000       0.052887         1.4391
  61   0.0000       0.067243         1.8298
  62   0.0000       0.076493         2.0815
  63   0.0000       0.077861         2.1187
  64   0.0000       0.108342         2.9481

MULLIKEN ATOMIC CHARGES
-----------------------
   0 O :   -0.754720
   1 H :    0.417493
   2 H :    0.432294
   3 O :   -0.756525
   4 H :    0.434949
   5 H :    0.416630
   6 O :   -0.859493
   7 H :    0.429005
   8 H :    0.408389
   9 O :   -0.755332
  10 H :    0.416620
  11 H :    0.432104
  12 O :   -0.851272
  13 H :    0.420914
  14 H :    0.360759
  15 O :   -0.850812
  16 H :    0.360575
  17 H :    0.419922
  18 O :   -0.858583
  19 H :    0.407369
  20 H :    0.429388
  21 O :   -0.860439
  22 H :    0.423499
  23 H :    0.361407
  24 O :   -0.755727
  25 H :    0.434858
  26 H :    0.415909
  27 O :   -0.859170
  28 H :    0.422414
  29 H :    0.361761
  30 O :   -0.869547
  31 H :    0.424771
  32 H :    0.421065
  33 O :   -0.865956
  34 H :    0.420362
  35 H :    0.425121
Sum of atomic charges:   -0.0000000

LOEWDIN ATOMIC CHARGES
----------------------
   0 O :   -0.357107
   1 H :    0.201060
   2 H :    0.206366
   3 O :   -0.358403
   4 H :    0.206055
   5 H :    0.200693
   6 O :   -0.417907
   7 H :    0.202586
   8 H :    0.193102
   9 O :   -0.357470
  10 H :    0.200701
  11 H :    0.206243
  12 O :   -0.418784
  13 H :    0.194888
  14 H :    0.195059
  15 O :   -0.418976
  16 H :    0.194877
  17 H :    0.194237
  18 O :   -0.416628
  19 H :    0.193097
  20 H :    0.202014
  21 O :   -0.418866
  22 H :    0.195045
  23 H :    0.195064
  24 O :   -0.357422
  25 H :    0.206017
  26 H :    0.200243
  27 O :   -0.417526
  28 H :    0.195408
  29 H :    0.195311
  30 O :   -0.416284
  31 H :    0.202000
  32 H :    0.194173
  33 O :   -0.415689
  34 H :    0.194698
  35 H :    0.202127

  Mayer bond orders larger than 0.1
B(  0-O ,  1-H ) :   0.8354 B(  0-O ,  2-H ) :   0.8254 B(  0-O , 17-H ) :   0.1638
B(  3-O ,  4-H ) :   0.8241 B(  3-O ,  5-H ) :   0.8366 B(  3-O , 28-H ) :   0.1585
B(  6-O ,  7-H ) :   0.8059 B(  6-O ,  8-H ) :   0.7787 B(  8-H , 30-O ) :   0.1064
B(  9-O , 10-H ) :   0.8353 B(  9-O , 11-H ) :   0.8255 B(  9-O , 13-H ) :   0.1617
B( 12-O , 13-H ) :   0.7108 B( 12-O , 14-H ) :   0.8711 B( 15-O , 16-H ) :   0.8714
B( 15-O , 17-H ) :   0.7100 B( 18-O , 19-H ) :   0.7794 B( 18-O , 20-H ) :   0.8055
B( 18-O , 32-H ) :   0.1005 B( 19-H , 33-O ) :   0.1068 B( 21-O , 22-H ) :   0.7114
B( 21-O , 23-H ) :   0.8703 B( 22-H , 24-O ) :   0.1581 B( 24-O , 25-H ) :   0.8239
B( 24-O , 26-H ) :   0.8369 B( 27-O , 28-H ) :   0.7121 B( 27-O , 29-H ) :   0.8702
B( 30-O , 31-H ) :   0.8041 B( 30-O , 32-H ) :   0.7785 B( 33-O , 34-H ) :   0.7801
B( 33-O , 35-H ) :   0.8039

Dispersion correction           -0.022851460
FINAL SINGLE POINT ENERGY      -917.472286287412

DIPOLE MOMENT
-------------
                                X             Y             Z
Electronic contribution:      0.00443      -0.00053       0.00825
Nuclear contribution   :     -0.01004       0.00605      -0.00551
                        -----------------------------------------
Total Dipole Moment    :     -0.00561       0.00552       0.00275
                        -----------------------------------------
Magnitude (a.u.)       :      0.00834
Magnitude (Debye)      :      0.02119

                             ****ORCA TERMINATED NORMALLY****
TOTAL RUN TIME: 0 days 0 hours 15 minutes 9 seconds 566 msec
