                         Program Version 3.0.3 - RELEASE   -
|  1> ! B3LYP Def2-TZVP def2-TZVP/J RIJCOSX TightSCF Grid4 D3BJ
|  2>
|  3> %pal nprocs 12 end
|  4>
|  5> %scf
|  6>         maxiter 400
|  7> end
|  8>
|  9> * xyz  0  1
| 10> O  -2.043123	0.390282	-2.542485
| 11> H  -2.507328	0.830970	-1.774793
| 12> H  -1.694074	-0.450275	-2.137401
| 13> O  -0.022762	-1.842890	2.721333
| 14> H  -0.739013	-1.253192	2.358862
| 15> H  0.142864	-2.483379	1.973070
| 16> O  1.400617	0.046934	-1.253858
| 17> H  1.147397	0.727900	-1.942315
| 18> H  0.573244	-0.545032	-1.211409
| 19> O  -0.716870	3.179492	-0.403469
| 20> H  -0.364311	2.878712	-1.288911
| 21> H  -0.085770	2.755726	0.239896
| 22> O  -2.778579	1.671272	-0.253443
| 23> H  -1.985128	2.355472	-0.294103
| 24> H  -3.579791	2.199491	-0.082931
| 25> O  0.046656	1.859587	-2.661741
| 26> H  0.154765	2.225434	-3.558493
| 27> H  -0.819226	1.269351	-2.694211
| 28> O  -1.400271	-0.043906	1.249855
| 29> H  -0.580752	0.557831	1.200770
| 30> H  -2.125092	0.543063	0.887143
| 31> O  0.664291	-3.155003	0.421566
| 32> H  1.574181	-2.646782	0.320208
| 33> H  0.867194	-4.101811	0.311160
| 34> O  2.784698	-1.734420	0.229766
| 35> H  2.523818	-1.059002	-0.454367
| 36> H  2.718591	-1.223779	1.085471
| 37> O  2.061938	-0.370804	2.486323
| 38> H  1.227557	-0.975519	2.666782
| 39> H  2.551886	-0.325852	3.327584
| 40> O  -0.788634	-1.389726	-0.938354
| 41> H  -0.388407	-2.241707	-0.598624
| 42> H  -1.089942	-0.923155	-0.085412
| 43> O  0.795248	1.387809	0.945846
| 44> H  1.099828	0.916932	0.097358
| 45> H  1.371867	0.973121	1.650729
| 46> **                         ****END OF INPUT****

CARTESIAN COORDINATES (ANGSTROEM)
---------------------------------
  O     -2.043123    0.390282   -2.542485
  H     -2.507328    0.830970   -1.774793
  H     -1.694074   -0.450275   -2.137401
  O     -0.022762   -1.842890    2.721333
  H     -0.739013   -1.253192    2.358862
  H      0.142864   -2.483379    1.973070
  O      1.400617    0.046934   -1.253858
  H      1.147397    0.727900   -1.942315
  H      0.573244   -0.545032   -1.211409
  O     -0.716870    3.179492   -0.403469
  H     -0.364311    2.878712   -1.288911
  H     -0.085770    2.755726    0.239896
  O     -2.778579    1.671272   -0.253443
  H     -1.985128    2.355472   -0.294103
  H     -3.579791    2.199491   -0.082931
  O      0.046656    1.859587   -2.661741
  H      0.154765    2.225434   -3.558493
  H     -0.819226    1.269351   -2.694211
  O     -1.400271   -0.043906    1.249855
  H     -0.580752    0.557831    1.200770
  H     -2.125092    0.543063    0.887143
  O      0.664291   -3.155003    0.421566
  H      1.574181   -2.646782    0.320208
  H      0.867194   -4.101811    0.311160
  O      2.784698   -1.734420    0.229766
  H      2.523818   -1.059002   -0.454367
  H      2.718591   -1.223779    1.085471
  O      2.061938   -0.370804    2.486323
  H      1.227557   -0.975519    2.666782
  H      2.551886   -0.325852    3.327584
  O     -0.788634   -1.389726   -0.938354
  H     -0.388407   -2.241707   -0.598624
  H     -1.089942   -0.923155   -0.085412
  O      0.795248    1.387809    0.945846
  H      1.099828    0.916932    0.097358
  H      1.371867    0.973121    1.650729

 Total Charge           Charge          ....    0
 Multiplicity           Mult            ....    1
 Number of Electrons    NEL             ....  120
 Basis Dimension        Dim             ....  516

ORBITAL ENERGIES
----------------

  NO   OCC          E(Eh)            E(eV)
   0   2.0000     -19.141907      -520.8778
   1   2.0000     -19.141602      -520.8695
   2   2.0000     -19.141281      -520.8607
   3   2.0000     -19.141093      -520.8556
   4   2.0000     -19.126700      -520.4640
   5   2.0000     -19.126543      -520.4597
   6   2.0000     -19.126327      -520.4538
   7   2.0000     -19.126220      -520.4509
   8   2.0000     -19.125866      -520.4413
   9   2.0000     -19.125778      -520.4389
  10   2.0000     -19.125708      -520.4370
  11   2.0000     -19.125659      -520.4356
  12   2.0000      -1.040215       -28.3057
  13   2.0000      -1.031086       -28.0573
  14   2.0000      -1.023428       -27.8489
  15   2.0000      -1.019830       -27.7510
  16   2.0000      -1.016824       -27.6692
  17   2.0000      -1.012241       -27.5445
  18   2.0000      -1.004890       -27.3444
  19   2.0000      -0.997772       -27.1508
  20   2.0000      -0.997205       -27.1353
  21   2.0000      -0.993155       -27.0251
  22   2.0000      -0.990371       -26.9494
  23   2.0000      -0.975433       -26.5429
  24   2.0000      -0.551741       -15.0136
  25   2.0000      -0.549305       -14.9473
  26   2.0000      -0.547820       -14.9069
  27   2.0000      -0.545711       -14.8496
  28   2.0000      -0.540688       -14.7129
  29   2.0000      -0.534039       -14.5319
  30   2.0000      -0.532518       -14.4906
  31   2.0000      -0.531050       -14.4506
  32   2.0000      -0.522287       -14.2122
  33   2.0000      -0.515972       -14.0403
  34   2.0000      -0.514634       -14.0039
  35   2.0000      -0.512413       -13.9435
  36   2.0000      -0.478341       -13.0163
  37   2.0000      -0.452040       -12.3006
  38   2.0000      -0.439210       -11.9515
  39   2.0000      -0.435982       -11.8637
  40   2.0000      -0.414721       -11.2851
  41   2.0000      -0.413678       -11.2567
  42   2.0000      -0.412135       -11.2148
  43   2.0000      -0.409799       -11.1512
  44   2.0000      -0.385444       -10.4885
  45   2.0000      -0.383295       -10.4300
  46   2.0000      -0.378918       -10.3109
  47   2.0000      -0.352231        -9.5847
  48   2.0000      -0.336303        -9.1513
  49   2.0000      -0.334754        -9.1091
  50   2.0000      -0.333190        -9.0666
  51   2.0000      -0.330622        -8.9967
  52   2.0000      -0.324283        -8.8242
  53   2.0000      -0.323499        -8.8029
  54   2.0000      -0.323171        -8.7939
  55   2.0000      -0.318407        -8.6643
  56   2.0000      -0.318192        -8.6584
  57   2.0000      -0.316404        -8.6098
  58   2.0000      -0.316119        -8.6020
  59   2.0000      -0.314867        -8.5680
  60   0.0000       0.000187         0.0051
  61   0.0000       0.017859         0.4860
  62   0.0000       0.030574         0.8320
  63   0.0000       0.030978         0.8430
  64   0.0000       0.074448         2.0258

MULLIKEN ATOMIC CHARGES
-----------------------
   0 O :   -0.677616
   1 H :    0.359312
   2 H :    0.382754
   3 O :   -0.680234
   4 H :    0.383117
   5 H :    0.358530
   6 O :   -0.747490
   7 H :    0.371658
   8 H :    0.350683
   9 O :   -0.678060
  10 H :    0.358690
  11 H :    0.382740
  12 O :   -0.742171
  13 H :    0.366397
  14 H :    0.334452
  15 O :   -0.741878
  16 H :    0.334209
  17 H :    0.365641
  18 O :   -0.747311
  19 H :    0.350654
  20 H :    0.371716
  21 O :   -0.742191
  22 H :    0.367282
  23 H :    0.334497
  24 O :   -0.679748
  25 H :    0.383013
  26 H :    0.358289
  27 O :   -0.741480
  28 H :    0.367065
  29 H :    0.334811
  30 O :   -0.748742
  31 H :    0.371305
  32 H :    0.358255
  33 O :   -0.748531
  34 H :    0.358328
  35 H :    0.372053
Sum of atomic charges:   -0.0000000

LOEWDIN ATOMIC CHARGES
----------------------
   0 O :   -0.268353
   1 H :    0.147605
   2 H :    0.155193
   3 O :   -0.269821
   4 H :    0.155039
   5 H :    0.147279
   6 O :   -0.306082
   7 H :    0.147577
   8 H :    0.135698
   9 O :   -0.268744
  10 H :    0.147262
  11 H :    0.155157
  12 O :   -0.316289
  13 H :    0.143379
  14 H :    0.160107
  15 O :   -0.316472
  16 H :    0.159889
  17 H :    0.142764
  18 O :   -0.304758
  19 H :    0.135729
  20 H :    0.147018
  21 O :   -0.316197
  22 H :    0.143425
  23 H :    0.160166
  24 O :   -0.268796
  25 H :    0.154995
  26 H :    0.146891
  27 O :   -0.314887
  28 H :    0.143763
  29 H :    0.160464
  30 O :   -0.303966
  31 H :    0.146973
  32 H :    0.136924
  33 O :   -0.303522
  34 H :    0.137394
  35 H :    0.147198

  Mayer bond orders larger than 0.1
B(  0-O ,  1-H ) :   0.8141 B(  0-O ,  2-H ) :   0.8159 B(  0-O , 17-H ) :   0.2261
B(  1-H , 12-O ) :   0.1043 B(  3-O ,  4-H ) :   0.8154 B(  3-O ,  5-H ) :   0.8147
B(  3-O , 28-H ) :   0.2226 B(  5-H , 21-O ) :   0.1045 B(  6-O ,  7-H ) :   0.7984
B(  6-O ,  8-H ) :   0.7502 B(  6-O , 34-H ) :   0.1690 B(  7-H , 15-O ) :   0.1098
B(  8-H , 30-O ) :   0.1709 B(  9-O , 10-H ) :   0.8140 B(  9-O , 11-H ) :   0.8163
B(  9-O , 13-H ) :   0.2247 B( 10-H , 15-O ) :   0.1054 B( 12-O , 13-H ) :   0.6924
B( 12-O , 14-H ) :   0.8868 B( 12-O , 20-H ) :   0.1112 B( 15-O , 16-H ) :   0.8871
B( 15-O , 17-H ) :   0.6919 B( 18-O , 19-H ) :   0.7505 B( 18-O , 20-H ) :   0.7977
B( 18-O , 32-H ) :   0.1704 B( 19-H , 33-O ) :   0.1706 B( 21-O , 22-H ) :   0.6933
B( 21-O , 23-H ) :   0.8869 B( 21-O , 31-H ) :   0.1120 B( 22-H , 24-O ) :   0.2236
B( 24-O , 25-H ) :   0.8150 B( 24-O , 26-H ) :   0.8145 B( 26-H , 27-O ) :   0.1052
B( 27-O , 28-H ) :   0.6944 B( 27-O , 29-H ) :   0.8867 B( 27-O , 35-H ) :   0.1111
B( 30-O , 31-H ) :   0.7971 B( 30-O , 32-H ) :   0.7487 B( 33-O , 34-H ) :   0.7501
B( 33-O , 35-H ) :   0.7972

Dispersion correction           -0.044677283
FINAL SINGLE POINT ENERGY      -917.332324369105

DIPOLE MOMENT
-------------
                                X             Y             Z
Electronic contribution:      0.00524      -0.00089       0.00875
Nuclear contribution   :     -0.01004       0.00605      -0.00551
                        -----------------------------------------
Total Dipole Moment    :     -0.00480       0.00515       0.00324
                        -----------------------------------------
Magnitude (a.u.)       :      0.00775
Magnitude (Debye)      :      0.01970

                             ****ORCA TERMINATED NORMALLY****
TOTAL RUN TIME: 0 days 0 hours 1 minutes 24 seconds 577 msec
