                         Program Version 3.0.3 - RELEASE   -
|  1> ! B3LYP Def2-TZVP def2-TZVP/J RIJCOSX TightSCF Grid4 D3BJ
|  2>
|  3> %pal nprocs 12 end
|  4>
|  5> %scf
|  6>         maxiter 400
|  7> end
|  8>
|  9> * xyz  0  1
| 10> O  1.742989	-0.547808	-0.356012
| 11> H  2.381645	0.102124	-0.703683
| 12> H  0.949081	-0.458314	-0.986364
| 13> O  -0.454856	-0.283420	-1.800847
| 14> H  -0.788266	-1.184648	-1.966945
| 15> H  -1.047046	0.057965	-1.048242
| 16> O  -1.743420	0.547024	0.356353
| 17> H  -0.949224	0.458284	0.986451
| 18> H  -2.381244	-0.103691	0.704094
| 19> O  0.454921	0.284485	1.800779
| 20> H  1.046780	-0.057795	1.048325
| 21> H  0.788610	1.185788	1.965889
| 22> **                         ****END OF INPUT****

CARTESIAN COORDINATES (ANGSTROEM)
---------------------------------
  O      1.742989   -0.547808   -0.356012
  H      2.381645    0.102124   -0.703683
  H      0.949081   -0.458314   -0.986364
  O     -0.454856   -0.283420   -1.800847
  H     -0.788266   -1.184648   -1.966945
  H     -1.047046    0.057965   -1.048242
  O     -1.743420    0.547024    0.356353
  H     -0.949224    0.458284    0.986451
  H     -2.381244   -0.103691    0.704094
  O      0.454921    0.284485    1.800779
  H      1.046780   -0.057795    1.048325
  H      0.788610    1.185788    1.965889

 Total Charge           Charge          ....    0
 Multiplicity           Mult            ....    1
 Number of Electrons    NEL             ....   40
 Basis Dimension        Dim             ....  172

ORBITAL ENERGIES
----------------

  NO   OCC          E(Eh)            E(eV)
   0   2.0000     -19.127874      -520.4959
   1   2.0000     -19.127869      -520.4958
   2   2.0000     -19.126880      -520.4689
   3   2.0000     -19.126871      -520.4686
   4   2.0000      -1.024282       -27.8721
   5   2.0000      -1.005608       -27.3640
   6   2.0000      -1.004180       -27.3251
   7   2.0000      -0.985823       -26.8256
   8   2.0000      -0.537846       -14.6355
   9   2.0000      -0.528062       -14.3693
  10   2.0000      -0.520262       -14.1571
  11   2.0000      -0.517329       -14.0772
  12   2.0000      -0.434546       -11.8246
  13   2.0000      -0.406385       -11.0583
  14   2.0000      -0.398530       -10.8445
  15   2.0000      -0.375645       -10.2218
  16   2.0000      -0.322008        -8.7623
  17   2.0000      -0.319983        -8.7072
  18   2.0000      -0.314746        -8.5647
  19   2.0000      -0.309553        -8.4234
  20   0.0000       0.002294         0.0624
  21   0.0000       0.036533         0.9941
  22   0.0000       0.047325         1.2878
  23   0.0000       0.070333         1.9139
  24   0.0000       0.169044         4.5999

MULLIKEN ATOMIC CHARGES
-----------------------
   0 O :   -0.689358
   1 H :    0.321750
   2 H :    0.356894
   3 O :   -0.683702
   4 H :    0.321211
   5 H :    0.373186
   6 O :   -0.689357
   7 H :    0.356936
   8 H :    0.321747
   9 O :   -0.683720
  10 H :    0.373200
  11 H :    0.321212
Sum of atomic charges:   -0.0000000

LOEWDIN ATOMIC CHARGES
----------------------
   0 O :   -0.307842
   1 H :    0.158097
   2 H :    0.145066
   3 O :   -0.301233
   4 H :    0.157836
   5 H :    0.148068
   6 O :   -0.307837
   7 H :    0.145073
   8 H :    0.158098
   9 O :   -0.301228
  10 H :    0.148064
  11 H :    0.157837

  Mayer bond orders larger than 0.1
B(  0-O ,  1-H ) :   0.8997 B(  0-O ,  2-H ) :   0.7622 B(  0-O , 10-H ) :   0.1475
B(  2-H ,  3-O ) :   0.1701 B(  3-O ,  4-H ) :   0.8998 B(  3-O ,  5-H ) :   0.7661
B(  5-H ,  6-O ) :   0.1476 B(  6-O ,  7-H ) :   0.7622 B(  6-O ,  8-H ) :   0.8997
B(  7-H ,  9-O ) :   0.1701 B(  9-O , 10-H ) :   0.7661 B(  9-O , 11-H ) :   0.8998

Dispersion correction           -0.008281065
FINAL SINGLE POINT ENERGY      -305.753754176074

DIPOLE MOMENT
-------------
                                X             Y             Z
Electronic contribution:     -0.00018       0.00018       0.00019
Nuclear contribution   :      0.00089      -0.00071      -0.00085
                        -----------------------------------------
Total Dipole Moment    :      0.00071      -0.00052      -0.00065
                        -----------------------------------------
Magnitude (a.u.)       :      0.00110
Magnitude (Debye)      :      0.00279

                             ****ORCA TERMINATED NORMALLY****
TOTAL RUN TIME: 0 days 0 hours 0 minutes 51 seconds 712 msec
