                         Program Version 3.0.3 - RELEASE   -
|  1> ! wB97X-D3 MA-Def2-TZVP def2-TZVP/J RIJCOSX TightSCF Grid4
|  2>
|  3> %pal nprocs 1 end
|  4>
|  5> %scf
|  6>         maxiter 400
|  7> end
|  8>
|  9> %cosmo
| 10>         SMD true
| 11>         solvent "WATER"
| 12> end
| 13>
| 14> * xyz  0  1
| 15> O  1.744082	-0.595891	-0.374912
| 16> H  2.318017	0.157298	-0.621374
| 17> H  0.937967	-0.473602	-0.982694
| 18> O  -0.476056	-0.265192	-1.795583
| 19> H  -0.791044	-1.184464	-1.907292
| 20> H  -1.034207	0.075177	-1.017178
| 21> O  -1.743522	0.595862	0.374372
| 22> H  -0.937873	0.473649	0.982601
| 23> H  -2.319110	-0.155246	0.623313
| 24> O  0.476681	0.264358	1.795533
| 25> H  1.033643	-0.075716	1.016073
| 26> H  0.791391	1.183760	1.906940
| 27> **                         ****END OF INPUT****

CARTESIAN COORDINATES (ANGSTROEM)
---------------------------------
  O      1.744082   -0.595891   -0.374912
  H      2.318017    0.157298   -0.621374
  H      0.937967   -0.473602   -0.982694
  O     -0.476056   -0.265192   -1.795583
  H     -0.791044   -1.184464   -1.907292
  H     -1.034207    0.075177   -1.017178
  O     -1.743522    0.595862    0.374372
  H     -0.937873    0.473649    0.982601
  H     -2.319110   -0.155246    0.623313
  O      0.476681    0.264358    1.795533
  H      1.033643   -0.075716    1.016073
  H      0.791391    1.183760    1.906940

 Total Charge           Charge          ....    0
 Multiplicity           Mult            ....    1
 Number of Electrons    NEL             ....   40
 Basis Dimension        Dim             ....  188

ORBITAL ENERGIES
----------------

  NO   OCC          E(Eh)            E(eV)
   0   2.0000     -19.236772      -523.4592
   1   2.0000     -19.236687      -523.4569
   2   2.0000     -19.236659      -523.4561
   3   2.0000     -19.236635      -523.4554
   4   2.0000      -1.140403       -31.0319
   5   2.0000      -1.120271       -30.4841
   6   2.0000      -1.119873       -30.4733
   7   2.0000      -1.100152       -29.9367
   8   2.0000      -0.633249       -17.2316
   9   2.0000      -0.625161       -17.0115
  10   2.0000      -0.621087       -16.9006
  11   2.0000      -0.618951       -16.8425
  12   2.0000      -0.534642       -14.5484
  13   2.0000      -0.516037       -14.0421
  14   2.0000      -0.502467       -13.6728
  15   2.0000      -0.491921       -13.3859
  16   2.0000      -0.423729       -11.5303
  17   2.0000      -0.420111       -11.4318
  18   2.0000      -0.418676       -11.3928
  19   2.0000      -0.413806       -11.2602
  20   0.0000       0.073193         1.9917
  21   0.0000       0.111483         3.0336
  22   0.0000       0.113327         3.0838
  23   0.0000       0.131685         3.5833
  24   0.0000       0.143744         3.9115

MULLIKEN ATOMIC CHARGES
-----------------------
   0 O :   -0.810136
   1 H :    0.414107
   2 H :    0.396497
   3 O :   -0.826243
   4 H :    0.416735
   5 H :    0.409524
   6 O :   -0.810572
   7 H :    0.396444
   8 H :    0.414156
   9 O :   -0.826018
  10 H :    0.408709
  11 H :    0.416798
Sum of atomic charges:   -0.0000000

LOEWDIN ATOMIC CHARGES
----------------------
   0 O :   -0.411050
   1 H :    0.217050
   2 H :    0.193315
   3 O :   -0.410270
   4 H :    0.216860
   5 H :    0.194208
   6 O :   -0.410954
   7 H :    0.193320
   8 H :    0.217051
   9 O :   -0.410465
  10 H :    0.194068
  11 H :    0.216866

  Mayer bond orders larger than 0.1
B(  0-O ,  1-H ) :   0.8494 B(  0-O ,  2-H ) :   0.7712 B(  0-O , 10-H ) :   0.1036
B(  2-H ,  3-O ) :   0.1124 B(  3-O ,  4-H ) :   0.8495 B(  3-O ,  5-H ) :   0.7654
B(  5-H ,  6-O ) :   0.1027 B(  6-O ,  7-H ) :   0.7715 B(  6-O ,  8-H ) :   0.8493
B(  7-H ,  9-O ) :   0.1120 B(  9-O , 10-H ) :   0.7655 B(  9-O , 11-H ) :   0.8495

Dispersion correction           -0.003163136
FINAL SINGLE POINT ENERGY      -305.827537905759

DIPOLE MOMENT
-------------
                                X             Y             Z
Electronic contribution:     -0.00068       0.00050      -0.00069
Nuclear contribution   :     -0.00298       0.00215       0.00131
                        -----------------------------------------
Total Dipole Moment    :     -0.00367       0.00265       0.00062
                        -----------------------------------------
Magnitude (a.u.)       :      0.00456
Magnitude (Debye)      :      0.01160

                             ****ORCA TERMINATED NORMALLY****
TOTAL RUN TIME: 0 days 0 hours 1 minutes 32 seconds 176 msec
