                         Program Version 3.0.3 - RELEASE   -
|  1> ! B3LYP Def2-TZVP def2-TZVP/J RIJCOSX TightSCF Grid4 D3BJ
|  2>
|  3> %pal nprocs 12 end
|  4>
|  5> %scf
|  6>         maxiter 400
|  7> end
|  8>
|  9> * xyz  0  1
| 10> O  1.741207	-0.503850	-0.362236
| 11> H  2.431746	0.048226	-0.752432
| 12> H  0.981513	-0.443232	-1.002681
| 13> O  -0.466686	-0.301265	-1.847822
| 14> H  -0.791885	-1.200344	-1.996426
| 15> H  -1.040943	0.041954	-1.111371
| 16> O  -1.741779	0.504648	0.362504
| 17> H  -0.981788	0.443904	1.002590
| 18> H  -2.430797	-0.050385	0.751233
| 19> O  0.466165	0.301841	1.847635
| 20> H  1.040212	-0.041580	1.111147
| 21> H  0.793004	1.200076	1.997658
| 22> **                         ****END OF INPUT****

CARTESIAN COORDINATES (ANGSTROEM)
---------------------------------
  O      1.741207   -0.503850   -0.362236
  H      2.431746    0.048226   -0.752432
  H      0.981513   -0.443232   -1.002681
  O     -0.466686   -0.301265   -1.847822
  H     -0.791885   -1.200344   -1.996426
  H     -1.040943    0.041954   -1.111371
  O     -1.741779    0.504648    0.362504
  H     -0.981788    0.443904    1.002590
  H     -2.430797   -0.050385    0.751233
  O      0.466165    0.301841    1.847635
  H      1.040212   -0.041580    1.111147
  H      0.793004    1.200076    1.997658

 Total Charge           Charge          ....    0
 Multiplicity           Mult            ....    1
 Number of Electrons    NEL             ....   40
 Basis Dimension        Dim             ....  172

ORBITAL ENERGIES
----------------

  NO   OCC          E(Eh)            E(eV)
   0   2.0000     -19.125159      -520.4220
   1   2.0000     -19.125123      -520.4210
   2   2.0000     -19.123617      -520.3801
   3   2.0000     -19.123579      -520.3791
   4   2.0000      -1.024901       -27.8890
   5   2.0000      -1.008762       -27.4498
   6   2.0000      -1.006624       -27.3916
   7   2.0000      -0.990854       -26.9625
   8   2.0000      -0.541240       -14.7279
   9   2.0000      -0.531307       -14.4576
  10   2.0000      -0.524700       -14.2778
  11   2.0000      -0.520530       -14.1644
  12   2.0000      -0.431830       -11.7507
  13   2.0000      -0.402216       -10.9448
  14   2.0000      -0.398652       -10.8479
  15   2.0000      -0.371293       -10.1034
  16   2.0000      -0.321851        -8.7580
  17   2.0000      -0.321745        -8.7551
  18   2.0000      -0.313365        -8.5271
  19   2.0000      -0.309912        -8.4331
  20   0.0000       0.005800         0.1578
  21   0.0000       0.039986         1.0881
  22   0.0000       0.048353         1.3158
  23   0.0000       0.071026         1.9327
  24   0.0000       0.169492         4.6121

MULLIKEN ATOMIC CHARGES
-----------------------
   0 O :   -0.690011
   1 H :    0.320570
   2 H :    0.354670
   3 O :   -0.678803
   4 H :    0.320005
   5 H :    0.373516
   6 O :   -0.689979
   7 H :    0.354782
   8 H :    0.320531
   9 O :   -0.678900
  10 H :    0.373575
  11 H :    0.320044
Sum of atomic charges:   -0.0000000

LOEWDIN ATOMIC CHARGES
----------------------
   0 O :   -0.300213
   1 H :    0.154549
   2 H :    0.138274
   3 O :   -0.290605
   4 H :    0.154763
   5 H :    0.143229
   6 O :   -0.300187
   7 H :    0.138259
   8 H :    0.154522
   9 O :   -0.290591
  10 H :    0.143209
  11 H :    0.154792

  Mayer bond orders larger than 0.1
B(  0-O ,  1-H ) :   0.9013 B(  0-O ,  2-H ) :   0.7809 B(  0-O , 10-H ) :   0.1182
B(  2-H ,  3-O ) :   0.1508 B(  3-O ,  4-H ) :   0.9015 B(  3-O ,  5-H ) :   0.7912
B(  5-H ,  6-O ) :   0.1184 B(  6-O ,  7-H ) :   0.7809 B(  6-O ,  8-H ) :   0.9014
B(  7-H ,  9-O ) :   0.1507 B(  9-O , 10-H ) :   0.7913 B(  9-O , 11-H ) :   0.9015

Dispersion correction           -0.008084592
FINAL SINGLE POINT ENERGY      -305.756976761975

DIPOLE MOMENT
-------------
                                X             Y             Z
Electronic contribution:     -0.00022       0.00098       0.00008
Nuclear contribution   :      0.00270      -0.00344      -0.00037
                        -----------------------------------------
Total Dipole Moment    :      0.00248      -0.00246      -0.00029
                        -----------------------------------------
Magnitude (a.u.)       :      0.00351
Magnitude (Debye)      :      0.00892

                             ****ORCA TERMINATED NORMALLY****
TOTAL RUN TIME: 0 days 0 hours 0 minutes 51 seconds 33 msec
