                         Program Version 4.2.0 -  RELEASE  -
|  1> # 12h2o.su.etal.mol1,3,4,8,11
|  2> ! MP2 def2-TZVP EnGrad TightSCF
|  3>
|  4> %pal
|  5>     nprocs 6
|  6> end
|  7>
|  8> %maxcore 8000
|  9>
| 10> %scf
| 11>     ConvForced true
| 12> end
| 13>
| 14> *xyz 0 1
| 15> O  -1.794470000  -0.923410000   2.768350000
| 16> H  -2.338250000  -1.359750000   3.430940000
| 17> H  -0.879480000  -1.303000000   2.865760000
| 18> O  -1.752130000  -0.741530000  -2.896280000
| 19> H  -2.036450000  -0.920500000  -1.984040000
| 20> H  -0.921210000  -1.242140000  -2.984230000
| 21> O  -0.885520000   1.737840000   0.052730000
| 22> H  -1.032320000   2.090180000  -0.841890000
| 23> H  -1.284090000   0.839590000   0.017130000
| 24> O   1.752130000   0.741530000  -2.896280000
| 25> H   2.036450000   0.920500000  -1.984040000
| 26> H   0.921210000   1.242140000  -2.984230000
| 27> O  -0.741530000   1.752130000   2.896280000
| 28> H  -0.920500000   2.036450000   1.984040000
| 29> H  -1.242140000   0.921210000   2.984230000
| 30> *
| 31>
| 32>                          ****END OF INPUT****

CARTESIAN COORDINATES (ANGSTROEM)
---------------------------------
  O     -1.794470   -0.923410    2.768350
  H     -2.338250   -1.359750    3.430940
  H     -0.879480   -1.303000    2.865760
  O     -1.752130   -0.741530   -2.896280
  H     -2.036450   -0.920500   -1.984040
  H     -0.921210   -1.242140   -2.984230
  O     -0.885520    1.737840    0.052730
  H     -1.032320    2.090180   -0.841890
  H     -1.284090    0.839590    0.017130
  O      1.752130    0.741530   -2.896280
  H      2.036450    0.920500   -1.984040
  H      0.921210    1.242140   -2.984230
  O     -0.741530    1.752130    2.896280
  H     -0.920500    2.036450    1.984040
  H     -1.242140    0.921210    2.984230

 Total Charge           Charge          ....    0
 Multiplicity           Mult            ....    1
 Number of Electrons    NEL             ....   50
 Basis Dimension        Dim             ....  215

ORBITAL ENERGIES
----------------

  NO   OCC          E(Eh)            E(eV)
   0   2.0000     -20.598338      -560.5093
   1   2.0000     -20.590555      -560.2975
   2   2.0000     -20.579849      -560.0062
   3   2.0000     -20.567588      -559.6725
   4   2.0000     -20.508666      -558.0692
   5   2.0000      -1.375976       -37.4422
   6   2.0000      -1.368592       -37.2413
   7   2.0000      -1.358814       -36.9752
   8   2.0000      -1.346638       -36.6439
   9   2.0000      -1.294069       -35.2134
  10   2.0000      -0.743087       -20.2204
  11   2.0000      -0.730958       -19.8904
  12   2.0000      -0.721408       -19.6305
  13   2.0000      -0.709150       -19.2969
  14   2.0000      -0.673321       -18.3220
  15   2.0000      -0.619592       -16.8600
  16   2.0000      -0.602104       -16.3841
  17   2.0000      -0.596258       -16.2250
  18   2.0000      -0.584504       -15.9052
  19   2.0000      -0.550390       -14.9769
  20   2.0000      -0.535034       -14.5590
  21   2.0000      -0.524390       -14.2694
  22   2.0000      -0.517610       -14.0849
  23   2.0000      -0.510935       -13.9032
  24   2.0000      -0.458495       -12.4763
  25   0.0000       0.076999         2.0952
  26   0.0000       0.107735         2.9316
  27   0.0000       0.132703         3.6110
  28   0.0000       0.157110         4.2752
  29   0.0000       0.175933         4.7874

MULLIKEN ATOMIC CHARGES
-----------------------
   0 O :   -0.700825
   1 H :    0.356899
   2 H :    0.361758
   3 O :   -0.677902
   4 H :    0.328988
   5 H :    0.351306
   6 O :   -0.687792
   7 H :    0.346112
   8 H :    0.341170
   9 O :   -0.679331
  10 H :    0.342960
  11 H :    0.336026
  12 O :   -0.723245
  13 H :    0.364291
  14 H :    0.339585
Sum of atomic charges:   -0.0000000

LOEWDIN ATOMIC CHARGES
----------------------
   0 O :   -0.314061
   1 H :    0.165313
   2 H :    0.188481
   3 O :   -0.328873
   4 H :    0.159870
   5 H :    0.171031
   6 O :   -0.313814
   7 H :    0.166794
   8 H :    0.171202
   9 O :   -0.330819
  10 H :    0.167023
  11 H :    0.163027
  12 O :   -0.354274
  13 H :    0.149429
  14 H :    0.139671

  Mayer bond orders larger than 0.100000
B(  0-O ,  1-H ) :   0.8393 B(  0-O ,  2-H ) :   0.8297 B(  3-O ,  4-H ) :   0.8560
B(  3-O ,  5-H ) :   0.8407 B(  6-O ,  7-H ) :   0.8427 B(  6-O ,  8-H ) :   0.8406
B(  9-O , 10-H ) :   0.8488 B(  9-O , 11-H ) :   0.8504 B( 12-O , 13-H ) :   0.8296
B( 12-O , 14-H ) :   0.8339

MP2 TOTAL ENERGY:     -381.581549925 Eh
FINAL SINGLE POINT ENERGY      -381.581549924950

DIPOLE MOMENT
-------------
                                X             Y             Z
Electronic contribution:      0.07040       0.08796      -0.21707
Nuclear contribution   :     -0.71062      -1.58851       0.54442
                        -----------------------------------------
Total Dipole Moment    :     -0.64021      -1.50055       0.32736
                        -----------------------------------------
Magnitude (a.u.)       :      1.66394
Magnitude (Debye)      :      4.22940

Rotational constants in cm-1:     0.070947     0.024980     0.020895
Rotational constants in MHz :  2126.939121   748.892433   626.409456

                             ****ORCA TERMINATED NORMALLY****
TOTAL RUN TIME: 0 days 0 hours 0 minutes 26 seconds 333 msec
