                         Program Version 4.2.0 -  RELEASE  -
|  1> # 12h2o.su.etal.mol1,2,6,7,8,10,11
|  2> ! MP2 def2-TZVP EnGrad TightSCF
|  3>
|  4> %pal
|  5>     nprocs 6
|  6> end
|  7>
|  8> %maxcore 8000
|  9>
| 10> %scf
| 11>     ConvForced true
| 12> end
| 13>
| 14> *xyz 0 1
| 15> O  -1.794470000  -0.923410000   2.768350000
| 16> H  -2.338250000  -1.359750000   3.430940000
| 17> H  -0.879480000  -1.303000000   2.865760000
| 18> O   0.923410000  -1.794470000  -2.768350000
| 19> H   1.359750000  -2.338250000  -3.430940000
| 20> H   1.303000000  -0.879480000  -2.865760000
| 21> O   1.737840000   0.885520000  -0.052730000
| 22> H   2.090180000   1.032320000   0.841890000
| 23> H   0.839590000   1.284090000  -0.017130000
| 24> O  -1.737840000  -0.885520000  -0.052730000
| 25> H  -2.090180000  -1.032320000   0.841890000
| 26> H  -0.839590000  -1.284090000  -0.017130000
| 27> O   1.752130000   0.741530000  -2.896280000
| 28> H   2.036450000   0.920500000  -1.984040000
| 29> H   0.921210000   1.242140000  -2.984230000
| 30> O  -0.923410000   1.794470000  -2.768350000
| 31> H  -1.359750000   2.338250000  -3.430940000
| 32> H  -1.303000000   0.879480000  -2.865760000
| 33> O  -0.741530000   1.752130000   2.896280000
| 34> H  -0.920500000   2.036450000   1.984040000
| 35> H  -1.242140000   0.921210000   2.984230000
| 36> *
| 37>
| 38>                          ****END OF INPUT****

CARTESIAN COORDINATES (ANGSTROEM)
---------------------------------
  O     -1.794470   -0.923410    2.768350
  H     -2.338250   -1.359750    3.430940
  H     -0.879480   -1.303000    2.865760
  O      0.923410   -1.794470   -2.768350
  H      1.359750   -2.338250   -3.430940
  H      1.303000   -0.879480   -2.865760
  O      1.737840    0.885520   -0.052730
  H      2.090180    1.032320    0.841890
  H      0.839590    1.284090   -0.017130
  O     -1.737840   -0.885520   -0.052730
  H     -2.090180   -1.032320    0.841890
  H     -0.839590   -1.284090   -0.017130
  O      1.752130    0.741530   -2.896280
  H      2.036450    0.920500   -1.984040
  H      0.921210    1.242140   -2.984230
  O     -0.923410    1.794470   -2.768350
  H     -1.359750    2.338250   -3.430940
  H     -1.303000    0.879480   -2.865760
  O     -0.741530    1.752130    2.896280
  H     -0.920500    2.036450    1.984040
  H     -1.242140    0.921210    2.984230

 Total Charge           Charge          ....    0
 Multiplicity           Mult            ....    1
 Number of Electrons    NEL             ....   70
 Basis Dimension        Dim             ....  301

ORBITAL ENERGIES
----------------

  NO   OCC          E(Eh)            E(eV)
   0   2.0000     -20.620214      -561.1046
   1   2.0000     -20.581579      -560.0532
   2   2.0000     -20.579477      -559.9960
   3   2.0000     -20.549676      -559.1851
   4   2.0000     -20.539857      -558.9179
   5   2.0000     -20.534754      -558.7791
   6   2.0000     -20.501854      -557.8838
   7   2.0000      -1.400354       -38.1056
   8   2.0000      -1.360162       -37.0119
   9   2.0000      -1.357651       -36.9436
  10   2.0000      -1.331844       -36.2413
  11   2.0000      -1.326140       -36.0861
  12   2.0000      -1.318914       -35.8895
  13   2.0000      -1.283113       -34.9153
  14   2.0000      -0.766079       -20.8461
  15   2.0000      -0.726586       -19.7714
  16   2.0000      -0.720994       -19.6193
  17   2.0000      -0.702507       -19.1162
  18   2.0000      -0.692180       -18.8352
  19   2.0000      -0.690570       -18.7914
  20   2.0000      -0.669213       -18.2102
  21   2.0000      -0.635151       -17.2833
  22   2.0000      -0.611743       -16.6464
  23   2.0000      -0.593443       -16.1484
  24   2.0000      -0.587688       -15.9918
  25   2.0000      -0.564213       -15.3530
  26   2.0000      -0.561223       -15.2717
  27   2.0000      -0.541910       -14.7461
  28   2.0000      -0.531016       -14.4497
  29   2.0000      -0.523871       -14.2552
  30   2.0000      -0.516153       -14.0452
  31   2.0000      -0.496807       -13.5188
  32   2.0000      -0.485198       -13.2029
  33   2.0000      -0.473988       -12.8979
  34   2.0000      -0.452738       -12.3196
  35   0.0000       0.083902         2.2831
  36   0.0000       0.114271         3.1095
  37   0.0000       0.133782         3.6404
  38   0.0000       0.158364         4.3093
  39   0.0000       0.173227         4.7137

MULLIKEN ATOMIC CHARGES
-----------------------
   0 O :   -0.713324
   1 H :    0.366382
   2 H :    0.368467
   3 O :   -0.740167
   4 H :    0.318720
   5 H :    0.369279
   6 O :   -0.700872
   7 H :    0.352226
   8 H :    0.352035
   9 O :   -0.704244
  10 H :    0.358478
  11 H :    0.340791
  12 O :   -0.717583
  13 H :    0.380619
  14 H :    0.359842
  15 O :   -0.709445
  16 H :    0.351555
  17 H :    0.380044
  18 O :   -0.702792
  19 H :    0.331055
  20 H :    0.358933
Sum of atomic charges:   -0.0000000

LOEWDIN ATOMIC CHARGES
----------------------
   0 O :   -0.286798
   1 H :    0.168831
   2 H :    0.191138
   3 O :   -0.377674
   4 H :    0.145597
   5 H :    0.141911
   6 O :   -0.316891
   7 H :    0.170947
   8 H :    0.173976
   9 O :   -0.346262
  10 H :    0.145152
  11 H :    0.169044
  12 O :   -0.289213
  13 H :    0.156163
  14 H :    0.147531
  15 O :   -0.313965
  16 H :    0.163305
  17 H :    0.195068
  18 O :   -0.343876
  19 H :    0.158919
  20 H :    0.147098

  Mayer bond orders larger than 0.100000
B(  0-O ,  1-H ) :   0.8304 B(  0-O ,  2-H ) :   0.8220 B(  3-O ,  4-H ) :   0.8635
B(  3-O ,  5-H ) :   0.7673 B(  5-H , 12-O ) :   0.1044 B(  6-O ,  7-H ) :   0.8401
B(  6-O ,  8-H ) :   0.8313 B(  9-O , 10-H ) :   0.8279 B(  9-O , 11-H ) :   0.8425
B( 12-O , 13-H ) :   0.8096 B( 12-O , 14-H ) :   0.8092 B( 15-O , 16-H ) :   0.8422
B( 15-O , 17-H ) :   0.8145 B( 18-O , 19-H ) :   0.8549 B( 18-O , 20-H ) :   0.8216

MP2 TOTAL ENERGY:     -534.236913644 Eh
FINAL SINGLE POINT ENERGY      -534.236913644466

DIPOLE MOMENT
-------------
                                X             Y             Z
Electronic contribution:     -0.09588       0.28813       0.19605
Nuclear contribution   :     -0.71164      -0.56846       0.91596
                        -----------------------------------------
Total Dipole Moment    :     -0.80752      -0.28033       1.11202
                        -----------------------------------------
Magnitude (a.u.)       :      1.40259
Magnitude (Debye)      :      3.56510

Rotational constants in cm-1:     0.043057     0.017685     0.016310
Rotational constants in MHz :  1290.813882   530.182429   488.975569

                             ****ORCA TERMINATED NORMALLY****
TOTAL RUN TIME: 0 days 0 hours 2 minutes 20 seconds 373 msec
