                         Program Version 4.2.0 -  RELEASE  -
|  1> # 12h2o.su.etal.mol0,2,3,4,6,8,10,11
|  2> ! MP2 def2-TZVP EnGrad TightSCF
|  3>
|  4> %pal
|  5>     nprocs 6
|  6> end
|  7>
|  8> %maxcore 8000
|  9>
| 10> %scf
| 11>     ConvForced true
| 12> end
| 13>
| 14> *xyz 0 1
| 15> O   1.794470000   0.923410000   2.768350000
| 16> H   2.338250000   1.359750000   3.430940000
| 17> H   0.879480000   1.303000000   2.865760000
| 18> O   0.923410000  -1.794470000  -2.768350000
| 19> H   1.359750000  -2.338250000  -3.430940000
| 20> H   1.303000000  -0.879480000  -2.865760000
| 21> O  -1.752130000  -0.741530000  -2.896280000
| 22> H  -2.036450000  -0.920500000  -1.984040000
| 23> H  -0.921210000  -1.242140000  -2.984230000
| 24> O  -0.885520000   1.737840000   0.052730000
| 25> H  -1.032320000   2.090180000  -0.841890000
| 26> H  -1.284090000   0.839590000   0.017130000
| 27> O   1.737840000   0.885520000  -0.052730000
| 28> H   2.090180000   1.032320000   0.841890000
| 29> H   0.839590000   1.284090000  -0.017130000
| 30> O   1.752130000   0.741530000  -2.896280000
| 31> H   2.036450000   0.920500000  -1.984040000
| 32> H   0.921210000   1.242140000  -2.984230000
| 33> O  -0.923410000   1.794470000  -2.768350000
| 34> H  -1.359750000   2.338250000  -3.430940000
| 35> H  -1.303000000   0.879480000  -2.865760000
| 36> O  -0.741530000   1.752130000   2.896280000
| 37> H  -0.920500000   2.036450000   1.984040000
| 38> H  -1.242140000   0.921210000   2.984230000
| 39> *
| 40>
| 41>                          ****END OF INPUT****

CARTESIAN COORDINATES (ANGSTROEM)
---------------------------------
  O      1.794470    0.923410    2.768350
  H      2.338250    1.359750    3.430940
  H      0.879480    1.303000    2.865760
  O      0.923410   -1.794470   -2.768350
  H      1.359750   -2.338250   -3.430940
  H      1.303000   -0.879480   -2.865760
  O     -1.752130   -0.741530   -2.896280
  H     -2.036450   -0.920500   -1.984040
  H     -0.921210   -1.242140   -2.984230
  O     -0.885520    1.737840    0.052730
  H     -1.032320    2.090180   -0.841890
  H     -1.284090    0.839590    0.017130
  O      1.737840    0.885520   -0.052730
  H      2.090180    1.032320    0.841890
  H      0.839590    1.284090   -0.017130
  O      1.752130    0.741530   -2.896280
  H      2.036450    0.920500   -1.984040
  H      0.921210    1.242140   -2.984230
  O     -0.923410    1.794470   -2.768350
  H     -1.359750    2.338250   -3.430940
  H     -1.303000    0.879480   -2.865760
  O     -0.741530    1.752130    2.896280
  H     -0.920500    2.036450    1.984040
  H     -1.242140    0.921210    2.984230

 Total Charge           Charge          ....    0
 Multiplicity           Mult            ....    1
 Number of Electrons    NEL             ....   80
 Basis Dimension        Dim             ....  344

ORBITAL ENERGIES
----------------

  NO   OCC          E(Eh)            E(eV)
   0   2.0000     -20.602340      -560.6182
   1   2.0000     -20.586602      -560.1899
   2   2.0000     -20.584073      -560.1211
   3   2.0000     -20.582061      -560.0663
   4   2.0000     -20.536982      -558.8397
   5   2.0000     -20.536701      -558.8320
   6   2.0000     -20.535577      -558.8015
   7   2.0000     -20.516379      -558.2791
   8   2.0000      -1.392084       -37.8805
   9   2.0000      -1.381174       -37.5836
  10   2.0000      -1.371494       -37.3203
  11   2.0000      -1.361182       -37.0396
  12   2.0000      -1.334929       -36.3253
  13   2.0000      -1.320985       -35.9458
  14   2.0000      -1.314293       -35.7637
  15   2.0000      -1.299959       -35.3737
  16   2.0000      -0.755256       -20.5516
  17   2.0000      -0.746194       -20.3050
  18   2.0000      -0.736740       -20.0477
  19   2.0000      -0.731559       -19.9067
  20   2.0000      -0.705019       -19.1846
  21   2.0000      -0.699660       -19.0387
  22   2.0000      -0.696923       -18.9642
  23   2.0000      -0.683606       -18.6019
  24   2.0000      -0.649856       -17.6835
  25   2.0000      -0.629126       -17.1194
  26   2.0000      -0.605631       -16.4801
  27   2.0000      -0.595746       -16.2111
  28   2.0000      -0.592044       -16.1103
  29   2.0000      -0.577669       -15.7192
  30   2.0000      -0.558971       -15.2104
  31   2.0000      -0.546262       -14.8646
  32   2.0000      -0.529369       -14.4049
  33   2.0000      -0.525955       -14.3120
  34   2.0000      -0.522663       -14.2224
  35   2.0000      -0.515720       -14.0335
  36   2.0000      -0.488217       -13.2850
  37   2.0000      -0.485180       -13.2024
  38   2.0000      -0.480932       -13.0868
  39   2.0000      -0.467593       -12.7239
  40   0.0000       0.082694         2.2502
  41   0.0000       0.126938         3.4542
  42   0.0000       0.139715         3.8018
  43   0.0000       0.158804         4.3213
  44   0.0000       0.168547         4.5864

MULLIKEN ATOMIC CHARGES
-----------------------
   0 O :   -0.734762
   1 H :    0.333347
   2 H :    0.370382
   3 O :   -0.745717
   4 H :    0.337947
   5 H :    0.386721
   6 O :   -0.702783
   7 H :    0.341388
   8 H :    0.386129
   9 O :   -0.720630
  10 H :    0.394838
  11 H :    0.339064
  12 O :   -0.745998
  13 H :    0.372430
  14 H :    0.341229
  15 O :   -0.727554
  16 H :    0.391818
  17 H :    0.359550
  18 O :   -0.758787
  19 H :    0.356291
  20 H :    0.382266
  21 O :   -0.691755
  22 H :    0.388050
  23 H :    0.346538
Sum of atomic charges:   -0.0000000

LOEWDIN ATOMIC CHARGES
----------------------
   0 O :   -0.340380
   1 H :    0.152143
   2 H :    0.143732
   3 O :   -0.341571
   4 H :    0.154290
   5 H :    0.146459
   6 O :   -0.279690
   7 H :    0.164120
   8 H :    0.157841
   9 O :   -0.283880
  10 H :    0.158821
  11 H :    0.169737
  12 O :   -0.348636
  13 H :    0.150768
  14 H :    0.135878
  15 O :   -0.290558
  16 H :    0.158852
  17 H :    0.145371
  18 O :   -0.314977
  19 H :    0.161946
  20 H :    0.145601
  21 O :   -0.274356
  22 H :    0.157923
  23 H :    0.170567

  Mayer bond orders larger than 0.100000
B(  0-O ,  1-H ) :   0.8525 B(  0-O ,  2-H ) :   0.7660 B(  3-O ,  4-H ) :   0.8498
B(  3-O ,  5-H ) :   0.7369 B(  5-H , 15-O ) :   0.1175 B(  6-O ,  7-H ) :   0.8474
B(  6-O ,  8-H ) :   0.7658 B(  6-O , 20-H ) :   0.1158 B(  9-O , 10-H ) :   0.7811
B(  9-O , 11-H ) :   0.8396 B( 12-O , 13-H ) :   0.8049 B( 12-O , 14-H ) :   0.8021
B( 15-O , 16-H ) :   0.7886 B( 15-O , 17-H ) :   0.8122 B( 18-O , 19-H ) :   0.8377
B( 18-O , 20-H ) :   0.7323 B( 21-O , 22-H ) :   0.8008 B( 21-O , 23-H ) :   0.8439

MP2 TOTAL ENERGY:     -610.597618783 Eh
FINAL SINGLE POINT ENERGY      -610.597618782742

DIPOLE MOMENT
-------------
                                X             Y             Z
Electronic contribution:     -0.07020       0.11536      -0.01979
Nuclear contribution   :     -1.78297       0.22373       0.05351
                        -----------------------------------------
Total Dipole Moment    :     -1.85318       0.33909       0.03373
                        -----------------------------------------
Magnitude (a.u.)       :      1.88425
Magnitude (Debye)      :      4.78938

Rotational constants in cm-1:     0.040448     0.016821     0.014598
Rotational constants in MHz :  1212.603902   504.275823   437.623341

                             ****ORCA TERMINATED NORMALLY****
TOTAL RUN TIME: 0 days 0 hours 3 minutes 15 seconds 453 msec
