                         Program Version 4.2.0 -  RELEASE  -
|  1> # 12h2o.su.etal.mol0,1,4,5,10
|  2> ! MP2 def2-TZVP EnGrad TightSCF
|  3>
|  4> %pal
|  5>     nprocs 6
|  6> end
|  7>
|  8> %maxcore 8000
|  9>
| 10> %scf
| 11>     ConvForced true
| 12> end
| 13>
| 14> *xyz 0 1
| 15> O   1.794470000   0.923410000   2.768350000
| 16> H   2.338250000   1.359750000   3.430940000
| 17> H   0.879480000   1.303000000   2.865760000
| 18> O  -1.794470000  -0.923410000   2.768350000
| 19> H  -2.338250000  -1.359750000   3.430940000
| 20> H  -0.879480000  -1.303000000   2.865760000
| 21> O  -0.885520000   1.737840000   0.052730000
| 22> H  -1.032320000   2.090180000  -0.841890000
| 23> H  -1.284090000   0.839590000   0.017130000
| 24> O   0.885520000  -1.737840000   0.052730000
| 25> H   1.284090000  -0.839590000   0.017130000
| 26> H   1.032320000  -2.090180000  -0.841890000
| 27> O  -0.923410000   1.794470000  -2.768350000
| 28> H  -1.359750000   2.338250000  -3.430940000
| 29> H  -1.303000000   0.879480000  -2.865760000
| 30> *
| 31>
| 32>                          ****END OF INPUT****

CARTESIAN COORDINATES (ANGSTROEM)
---------------------------------
  O      1.794470    0.923410    2.768350
  H      2.338250    1.359750    3.430940
  H      0.879480    1.303000    2.865760
  O     -1.794470   -0.923410    2.768350
  H     -2.338250   -1.359750    3.430940
  H     -0.879480   -1.303000    2.865760
  O     -0.885520    1.737840    0.052730
  H     -1.032320    2.090180   -0.841890
  H     -1.284090    0.839590    0.017130
  O      0.885520   -1.737840    0.052730
  H      1.284090   -0.839590    0.017130
  H      1.032320   -2.090180   -0.841890
  O     -0.923410    1.794470   -2.768350
  H     -1.359750    2.338250   -3.430940
  H     -1.303000    0.879480   -2.865760

 Total Charge           Charge          ....    0
 Multiplicity           Mult            ....    1
 Number of Electrons    NEL             ....   50
 Basis Dimension        Dim             ....  215

ORBITAL ENERGIES
----------------

  NO   OCC          E(Eh)            E(eV)
   0   2.0000     -20.589297      -560.2632
   1   2.0000     -20.550214      -559.1998
   2   2.0000     -20.548614      -559.1562
   3   2.0000     -20.546227      -559.0912
   4   2.0000     -20.522323      -558.4408
   5   2.0000      -1.367099       -37.2006
   6   2.0000      -1.326245       -36.0890
   7   2.0000      -1.323971       -36.0271
   8   2.0000      -1.321569       -35.9617
   9   2.0000      -1.301318       -35.4107
  10   2.0000      -0.734048       -19.9744
  11   2.0000      -0.692990       -18.8572
  12   2.0000      -0.688995       -18.7485
  13   2.0000      -0.687412       -18.7054
  14   2.0000      -0.671293       -18.2668
  15   2.0000      -0.602743       -16.4015
  16   2.0000      -0.566372       -15.4118
  17   2.0000      -0.560628       -15.2555
  18   2.0000      -0.558458       -15.1964
  19   2.0000      -0.553433       -15.0597
  20   2.0000      -0.519803       -14.1446
  21   2.0000      -0.494041       -13.4435
  22   2.0000      -0.491842       -13.3837
  23   2.0000      -0.489218       -13.3123
  24   2.0000      -0.467685       -12.7264
  25   0.0000       0.100807         2.7431
  26   0.0000       0.126425         3.4402
  27   0.0000       0.149289         4.0624
  28   0.0000       0.156559         4.2602
  29   0.0000       0.182868         4.9761

MULLIKEN ATOMIC CHARGES
-----------------------
   0 O :   -0.692865
   1 H :    0.332889
   2 H :    0.360283
   3 O :   -0.690699
   4 H :    0.332778
   5 H :    0.358350
   6 O :   -0.702012
   7 H :    0.360817
   8 H :    0.332343
   9 O :   -0.687710
  10 H :    0.358292
  11 H :    0.328114
  12 O :   -0.690917
  13 H :    0.350263
  14 H :    0.350074
Sum of atomic charges:   -0.0000000

LOEWDIN ATOMIC CHARGES
----------------------
   0 O :   -0.341642
   1 H :    0.155507
   2 H :    0.186199
   3 O :   -0.340731
   4 H :    0.155457
   5 H :    0.185504
   6 O :   -0.347500
   7 H :    0.146928
   8 H :    0.165137
   9 O :   -0.339776
  10 H :    0.177925
  11 H :    0.161099
  12 O :   -0.310054
  13 H :    0.162374
  14 H :    0.183572

  Mayer bond orders larger than 0.100000
B(  0-O ,  1-H ) :   0.8558 B(  0-O ,  2-H ) :   0.8309 B(  3-O ,  4-H ) :   0.8557
B(  3-O ,  5-H ) :   0.8322 B(  6-O ,  7-H ) :   0.8242 B(  6-O ,  8-H ) :   0.8485
B(  9-O , 10-H ) :   0.8326 B(  9-O , 11-H ) :   0.8574 B( 12-O , 13-H ) :   0.8427
B( 12-O , 14-H ) :   0.8370

MP2 TOTAL ENERGY:     -381.576272974 Eh
FINAL SINGLE POINT ENERGY      -381.576272973975

DIPOLE MOMENT
-------------
                                X             Y             Z
Electronic contribution:      0.12555       0.11311      -0.01237
Nuclear contribution   :     -0.67915      -0.30898      -0.91596
                        -----------------------------------------
Total Dipole Moment    :     -0.55359      -0.19587      -0.92833
                        -----------------------------------------
Magnitude (a.u.)       :      1.09847
Magnitude (Debye)      :      2.79208

Rotational constants in cm-1:     0.058158     0.028179     0.027632
Rotational constants in MHz :  1743.540502   844.781624   828.393439

                             ****ORCA TERMINATED NORMALLY****
TOTAL RUN TIME: 0 days 0 hours 0 minutes 24 seconds 958 msec
