                         Program Version 4.2.0 -  RELEASE  -
|  1> # 12h2o.su.etal.mol0,1,4,5,9,10,11
|  2> ! MP2 def2-TZVP EnGrad TightSCF
|  3>
|  4> %pal
|  5>     nprocs 6
|  6> end
|  7>
|  8> %maxcore 8000
|  9>
| 10> %scf
| 11>     ConvForced true
| 12> end
| 13>
| 14> *xyz 0 1
| 15> O   1.794470000   0.923410000   2.768350000
| 16> H   2.338250000   1.359750000   3.430940000
| 17> H   0.879480000   1.303000000   2.865760000
| 18> O  -1.794470000  -0.923410000   2.768350000
| 19> H  -2.338250000  -1.359750000   3.430940000
| 20> H  -0.879480000  -1.303000000   2.865760000
| 21> O  -0.885520000   1.737840000   0.052730000
| 22> H  -1.032320000   2.090180000  -0.841890000
| 23> H  -1.284090000   0.839590000   0.017130000
| 24> O   0.885520000  -1.737840000   0.052730000
| 25> H   1.284090000  -0.839590000   0.017130000
| 26> H   1.032320000  -2.090180000  -0.841890000
| 27> O   0.741530000  -1.752130000   2.896280000
| 28> H   0.920500000  -2.036450000   1.984040000
| 29> H   1.242140000  -0.921210000   2.984230000
| 30> O  -0.923410000   1.794470000  -2.768350000
| 31> H  -1.359750000   2.338250000  -3.430940000
| 32> H  -1.303000000   0.879480000  -2.865760000
| 33> O  -0.741530000   1.752130000   2.896280000
| 34> H  -0.920500000   2.036450000   1.984040000
| 35> H  -1.242140000   0.921210000   2.984230000
| 36> *
| 37>
| 38>                          ****END OF INPUT****

CARTESIAN COORDINATES (ANGSTROEM)
---------------------------------
  O      1.794470    0.923410    2.768350
  H      2.338250    1.359750    3.430940
  H      0.879480    1.303000    2.865760
  O     -1.794470   -0.923410    2.768350
  H     -2.338250   -1.359750    3.430940
  H     -0.879480   -1.303000    2.865760
  O     -0.885520    1.737840    0.052730
  H     -1.032320    2.090180   -0.841890
  H     -1.284090    0.839590    0.017130
  O      0.885520   -1.737840    0.052730
  H      1.284090   -0.839590    0.017130
  H      1.032320   -2.090180   -0.841890
  O      0.741530   -1.752130    2.896280
  H      0.920500   -2.036450    1.984040
  H      1.242140   -0.921210    2.984230
  O     -0.923410    1.794470   -2.768350
  H     -1.359750    2.338250   -3.430940
  H     -1.303000    0.879480   -2.865760
  O     -0.741530    1.752130    2.896280
  H     -0.920500    2.036450    1.984040
  H     -1.242140    0.921210    2.984230

 Total Charge           Charge          ....    0
 Multiplicity           Mult            ....    1
 Number of Electrons    NEL             ....   70
 Basis Dimension        Dim             ....  301

ORBITAL ENERGIES
----------------

  NO   OCC          E(Eh)            E(eV)
   0   2.0000     -20.602735      -560.6289
   1   2.0000     -20.583126      -560.0953
   2   2.0000     -20.555693      -559.3488
   3   2.0000     -20.532731      -558.7240
   4   2.0000     -20.529419      -558.6339
   5   2.0000     -20.527526      -558.5824
   6   2.0000     -20.527427      -558.5797
   7   2.0000      -1.380651       -37.5694
   8   2.0000      -1.361851       -37.0579
   9   2.0000      -1.338476       -36.4218
  10   2.0000      -1.332150       -36.2496
  11   2.0000      -1.321261       -35.9533
  12   2.0000      -1.311571       -35.6897
  13   2.0000      -1.300936       -35.4003
  14   2.0000      -0.747597       -20.3431
  15   2.0000      -0.724161       -19.7054
  16   2.0000      -0.707356       -19.2481
  17   2.0000      -0.696921       -18.9642
  18   2.0000      -0.695621       -18.9288
  19   2.0000      -0.686062       -18.6687
  20   2.0000      -0.680012       -18.5041
  21   2.0000      -0.619949       -16.8697
  22   2.0000      -0.610867       -16.6225
  23   2.0000      -0.594338       -16.1728
  24   2.0000      -0.578158       -15.7325
  25   2.0000      -0.563563       -15.3353
  26   2.0000      -0.554647       -15.0927
  27   2.0000      -0.539724       -14.6866
  28   2.0000      -0.529238       -14.4013
  29   2.0000      -0.524377       -14.2690
  30   2.0000      -0.501928       -13.6582
  31   2.0000      -0.479729       -13.0541
  32   2.0000      -0.478776       -13.0282
  33   2.0000      -0.476120       -12.9559
  34   2.0000      -0.472905       -12.8684
  35   0.0000       0.087580         2.3832
  36   0.0000       0.123226         3.3532
  37   0.0000       0.153449         4.1756
  38   0.0000       0.166431         4.5288
  39   0.0000       0.173240         4.7141

MULLIKEN ATOMIC CHARGES
-----------------------
   0 O :   -0.747892
   1 H :    0.335132
   2 H :    0.384866
   3 O :   -0.746983
   4 H :    0.334890
   5 H :    0.383292
   6 O :   -0.717173
   7 H :    0.373763
   8 H :    0.341410
   9 O :   -0.704698
  10 H :    0.366697
  11 H :    0.344525
  12 O :   -0.725962
  13 H :    0.379423
  14 H :    0.366308
  15 O :   -0.693611
  16 H :    0.355490
  17 H :    0.351890
  18 O :   -0.729012
  19 H :    0.383122
  20 H :    0.364522
Sum of atomic charges:   -0.0000000

LOEWDIN ATOMIC CHARGES
----------------------
   0 O :   -0.344844
   1 H :    0.152756
   2 H :    0.146065
   3 O :   -0.344839
   4 H :    0.152604
   5 H :    0.145706
   6 O :   -0.325942
   7 H :    0.153043
   8 H :    0.169397
   9 O :   -0.319862
  10 H :    0.181658
  11 H :    0.168517
  12 O :   -0.290310
  13 H :    0.155411
  14 H :    0.149283
  15 O :   -0.310019
  16 H :    0.165061
  17 H :    0.184475
  18 O :   -0.292196
  19 H :    0.155667
  20 H :    0.148369

  Mayer bond orders larger than 0.100000
B(  0-O ,  1-H ) :   0.8517 B(  0-O ,  2-H ) :   0.7381 B(  2-H , 18-O ) :   0.1193
B(  3-O ,  4-H ) :   0.8518 B(  3-O ,  5-H ) :   0.7404 B(  5-H , 12-O ) :   0.1178
B(  6-O ,  7-H ) :   0.8091 B(  6-O ,  8-H ) :   0.8393 B(  9-O , 10-H ) :   0.8239
B(  9-O , 11-H ) :   0.8453 B( 12-O , 13-H ) :   0.8110 B( 12-O , 14-H ) :   0.7907
B( 15-O , 16-H ) :   0.8400 B( 15-O , 17-H ) :   0.8362 B( 18-O , 19-H ) :   0.8043
B( 18-O , 20-H ) :   0.7941

MP2 TOTAL ENERGY:     -534.261940281 Eh
FINAL SINGLE POINT ENERGY      -534.261940281305

DIPOLE MOMENT
-------------
                                X             Y             Z
Electronic contribution:      0.12275       0.12361      -0.18265
Nuclear contribution   :     -0.67915      -0.30898      -2.28818
                        -----------------------------------------
Total Dipole Moment    :     -0.55640      -0.18537      -2.47083
                        -----------------------------------------
Magnitude (a.u.)       :      2.53947
Magnitude (Debye)      :      6.45483

Rotational constants in cm-1:     0.041472     0.022026     0.019404
Rotational constants in MHz :  1243.310548   660.308589   581.711790

                             ****ORCA TERMINATED NORMALLY****
TOTAL RUN TIME: 0 days 0 hours 3 minutes 14 seconds 210 msec
