                         Program Version 4.2.0 -  RELEASE  -
|  1> # 12h2o.su.etal.mol0,1,5,9,11
|  2> ! MP2 def2-TZVP EnGrad TightSCF
|  3>
|  4> %pal
|  5>     nprocs 6
|  6> end
|  7>
|  8> %maxcore 8000
|  9>
| 10> %scf
| 11>     ConvForced true
| 12> end
| 13>
| 14> *xyz 0 1
| 15> O   1.794470000   0.923410000   2.768350000
| 16> H   2.338250000   1.359750000   3.430940000
| 17> H   0.879480000   1.303000000   2.865760000
| 18> O  -1.794470000  -0.923410000   2.768350000
| 19> H  -2.338250000  -1.359750000   3.430940000
| 20> H  -0.879480000  -1.303000000   2.865760000
| 21> O   0.885520000  -1.737840000   0.052730000
| 22> H   1.284090000  -0.839590000   0.017130000
| 23> H   1.032320000  -2.090180000  -0.841890000
| 24> O   0.741530000  -1.752130000   2.896280000
| 25> H   0.920500000  -2.036450000   1.984040000
| 26> H   1.242140000  -0.921210000   2.984230000
| 27> O  -0.741530000   1.752130000   2.896280000
| 28> H  -0.920500000   2.036450000   1.984040000
| 29> H  -1.242140000   0.921210000   2.984230000
| 30> *
| 31>
| 32>                          ****END OF INPUT****

CARTESIAN COORDINATES (ANGSTROEM)
---------------------------------
  O      1.794470    0.923410    2.768350
  H      2.338250    1.359750    3.430940
  H      0.879480    1.303000    2.865760
  O     -1.794470   -0.923410    2.768350
  H     -2.338250   -1.359750    3.430940
  H     -0.879480   -1.303000    2.865760
  O      0.885520   -1.737840    0.052730
  H      1.284090   -0.839590    0.017130
  H      1.032320   -2.090180   -0.841890
  O      0.741530   -1.752130    2.896280
  H      0.920500   -2.036450    1.984040
  H      1.242140   -0.921210    2.984230
  O     -0.741530    1.752130    2.896280
  H     -0.920500    2.036450    1.984040
  H     -1.242140    0.921210    2.984230

 Total Charge           Charge          ....    0
 Multiplicity           Mult            ....    1
 Number of Electrons    NEL             ....   50
 Basis Dimension        Dim             ....  215

ORBITAL ENERGIES
----------------

  NO   OCC          E(Eh)            E(eV)
   0   2.0000     -20.584672      -560.1374
   1   2.0000     -20.566130      -559.6329
   2   2.0000     -20.546568      -559.1005
   3   2.0000     -20.539805      -558.9165
   4   2.0000     -20.534989      -558.7855
   5   2.0000      -1.363595       -37.1053
   6   2.0000      -1.358590       -36.9691
   7   2.0000      -1.336238       -36.3609
   8   2.0000      -1.327736       -36.1295
   9   2.0000      -1.312405       -35.7123
  10   2.0000      -0.726242       -19.7621
  11   2.0000      -0.717895       -19.5349
  12   2.0000      -0.713820       -19.4240
  13   2.0000      -0.697866       -18.9899
  14   2.0000      -0.694689       -18.9034
  15   2.0000      -0.618604       -16.8331
  16   2.0000      -0.603688       -16.4272
  17   2.0000      -0.576322       -15.6825
  18   2.0000      -0.573226       -15.5983
  19   2.0000      -0.543431       -14.7875
  20   2.0000      -0.527711       -14.3598
  21   2.0000      -0.506801       -13.7908
  22   2.0000      -0.495932       -13.4950
  23   2.0000      -0.485890       -13.2217
  24   2.0000      -0.484265       -13.1775
  25   0.0000       0.109576         2.9817
  26   0.0000       0.139932         3.8078
  27   0.0000       0.163222         4.4415
  28   0.0000       0.171271         4.6605
  29   0.0000       0.201932         5.4949

MULLIKEN ATOMIC CHARGES
-----------------------
   0 O :   -0.747162
   1 H :    0.341702
   2 H :    0.378769
   3 O :   -0.744895
   4 H :    0.336694
   5 H :    0.383916
   6 O :   -0.696116
   7 H :    0.355397
   8 H :    0.348811
   9 O :   -0.725621
  10 H :    0.382286
  11 H :    0.364955
  12 O :   -0.708580
  13 H :    0.350383
  14 H :    0.379461
Sum of atomic charges:   -0.0000000

LOEWDIN ATOMIC CHARGES
----------------------
   0 O :   -0.344450
   1 H :    0.155825
   2 H :    0.144737
   3 O :   -0.342295
   4 H :    0.153508
   5 H :    0.145836
   6 O :   -0.318261
   7 H :    0.178714
   8 H :    0.170882
   9 O :   -0.289378
  10 H :    0.156668
  11 H :    0.148534
  12 O :   -0.284917
  13 H :    0.169653
  14 H :    0.154944

  Mayer bond orders larger than 0.100000
B(  0-O ,  1-H ) :   0.8484 B(  0-O ,  2-H ) :   0.7486 B(  2-H , 12-O ) :   0.1104
B(  3-O ,  4-H ) :   0.8507 B(  3-O ,  5-H ) :   0.7409 B(  5-H ,  9-O ) :   0.1159
B(  6-O ,  7-H ) :   0.8345 B(  6-O ,  8-H ) :   0.8434 B(  9-O , 10-H ) :   0.8079
B(  9-O , 11-H ) :   0.7957 B( 12-O , 13-H ) :   0.8423 B( 12-O , 14-H ) :   0.7769

MP2 TOTAL ENERGY:     -381.619038702 Eh
FINAL SINGLE POINT ENERGY      -381.619038701871

DIPOLE MOMENT
-------------
                                X             Y             Z
Electronic contribution:     -0.06650      -0.12600      -0.02197
Nuclear contribution   :      0.45394       0.45439      -0.88130
                        -----------------------------------------
Total Dipole Moment    :      0.38744       0.32840      -0.90327
                        -----------------------------------------
Magnitude (a.u.)       :      1.03627
Magnitude (Debye)      :      2.63399

Rotational constants in cm-1:     0.077957     0.055510     0.043303
Rotational constants in MHz :  2337.084408  1664.157495  1298.179889

                             ****ORCA TERMINATED NORMALLY****
TOTAL RUN TIME: 0 days 0 hours 0 minutes 36 seconds 504 msec
