                         Program Version 4.2.0 -  RELEASE  -
|  1> # 12h2o.su.etal.mol0,2,3,6,10
|  2> ! MP2 def2-TZVP EnGrad TightSCF
|  3>
|  4> %pal
|  5>     nprocs 6
|  6> end
|  7>
|  8> %maxcore 8000
|  9>
| 10> %scf
| 11>     ConvForced true
| 12> end
| 13>
| 14> *xyz 0 1
| 15> O   1.794470000   0.923410000   2.768350000
| 16> H   2.338250000   1.359750000   3.430940000
| 17> H   0.879480000   1.303000000   2.865760000
| 18> O   0.923410000  -1.794470000  -2.768350000
| 19> H   1.359750000  -2.338250000  -3.430940000
| 20> H   1.303000000  -0.879480000  -2.865760000
| 21> O  -1.752130000  -0.741530000  -2.896280000
| 22> H  -2.036450000  -0.920500000  -1.984040000
| 23> H  -0.921210000  -1.242140000  -2.984230000
| 24> O   1.737840000   0.885520000  -0.052730000
| 25> H   2.090180000   1.032320000   0.841890000
| 26> H   0.839590000   1.284090000  -0.017130000
| 27> O  -0.923410000   1.794470000  -2.768350000
| 28> H  -1.359750000   2.338250000  -3.430940000
| 29> H  -1.303000000   0.879480000  -2.865760000
| 30> *
| 31>
| 32>                          ****END OF INPUT****

CARTESIAN COORDINATES (ANGSTROEM)
---------------------------------
  O      1.794470    0.923410    2.768350
  H      2.338250    1.359750    3.430940
  H      0.879480    1.303000    2.865760
  O      0.923410   -1.794470   -2.768350
  H      1.359750   -2.338250   -3.430940
  H      1.303000   -0.879480   -2.865760
  O     -1.752130   -0.741530   -2.896280
  H     -2.036450   -0.920500   -1.984040
  H     -0.921210   -1.242140   -2.984230
  O      1.737840    0.885520   -0.052730
  H      2.090180    1.032320    0.841890
  H      0.839590    1.284090   -0.017130
  O     -0.923410    1.794470   -2.768350
  H     -1.359750    2.338250   -3.430940
  H     -1.303000    0.879480   -2.865760

 Total Charge           Charge          ....    0
 Multiplicity           Mult            ....    1
 Number of Electrons    NEL             ....   50
 Basis Dimension        Dim             ....  215

ORBITAL ENERGIES
----------------

  NO   OCC          E(Eh)            E(eV)
   0   2.0000     -20.587863      -560.2242
   1   2.0000     -20.577876      -559.9525
   2   2.0000     -20.562166      -559.5250
   3   2.0000     -20.523098      -558.4619
   4   2.0000     -20.512211      -558.1656
   5   2.0000      -1.365654       -37.1613
   6   2.0000      -1.358828       -36.9756
   7   2.0000      -1.347632       -36.6709
   8   2.0000      -1.302140       -35.4330
   9   2.0000      -1.294018       -35.2120
  10   2.0000      -0.732606       -19.9352
  11   2.0000      -0.725261       -19.7353
  12   2.0000      -0.709262       -19.3000
  13   2.0000      -0.681475       -18.5439
  14   2.0000      -0.672089       -18.2885
  15   2.0000      -0.606292       -16.4980
  16   2.0000      -0.601564       -16.3694
  17   2.0000      -0.580368       -15.7926
  18   2.0000      -0.553315       -15.0565
  19   2.0000      -0.542252       -14.7554
  20   2.0000      -0.519939       -14.1483
  21   2.0000      -0.518238       -14.1020
  22   2.0000      -0.494727       -13.4622
  23   2.0000      -0.468765       -12.7558
  24   2.0000      -0.462920       -12.5967
  25   0.0000       0.106028         2.8852
  26   0.0000       0.121154         3.2968
  27   0.0000       0.154250         4.1973
  28   0.0000       0.175578         4.7777
  29   0.0000       0.182081         4.9547

MULLIKEN ATOMIC CHARGES
-----------------------
   0 O :   -0.689334
   1 H :    0.349594
   2 H :    0.349866
   3 O :   -0.702658
   4 H :    0.349012
   5 H :    0.379339
   6 O :   -0.701432
   7 H :    0.350762
   8 H :    0.374690
   9 O :   -0.700191
  10 H :    0.361958
  11 H :    0.327099
  12 O :   -0.735073
  13 H :    0.322511
  14 H :    0.363857
Sum of atomic charges:   -0.0000000

LOEWDIN ATOMIC CHARGES
----------------------
   0 O :   -0.309315
   1 H :    0.162122
   2 H :    0.183599
   3 O :   -0.310329
   4 H :    0.162452
   5 H :    0.195128
   6 O :   -0.284560
   7 H :    0.170132
   8 H :    0.154013
   9 O :   -0.349018
  10 H :    0.147451
  11 H :    0.164793
  12 O :   -0.374905
  13 H :    0.147501
  14 H :    0.140937

  Mayer bond orders larger than 0.100000
B(  0-O ,  1-H ) :   0.8431 B(  0-O ,  2-H ) :   0.8374 B(  3-O ,  4-H ) :   0.8434
B(  3-O ,  5-H ) :   0.8151 B(  6-O ,  7-H ) :   0.8424 B(  6-O ,  8-H ) :   0.7937
B(  9-O , 10-H ) :   0.8237 B(  9-O , 11-H ) :   0.8533 B( 12-O , 13-H ) :   0.8616
B( 12-O , 14-H ) :   0.7758

MP2 TOTAL ENERGY:     -381.591048192 Eh
FINAL SINGLE POINT ENERGY      -381.591048191756

DIPOLE MOMENT
-------------
                                X             Y             Z
Electronic contribution:      0.23160      -0.48616       0.04603
Nuclear contribution   :     -0.30841       0.56744       0.82779
                        -----------------------------------------
Total Dipole Moment    :     -0.07681       0.08128       0.87383
                        -----------------------------------------
Magnitude (a.u.)       :      0.88095
Magnitude (Debye)      :      2.23920

Rotational constants in cm-1:     0.083829     0.025806     0.022351
Rotational constants in MHz :  2513.127690   773.653705   670.059929

                             ****ORCA TERMINATED NORMALLY****
TOTAL RUN TIME: 0 days 0 hours 0 minutes 26 seconds 343 msec
