                         Program Version 4.2.0 -  RELEASE  -
|  1> # 12h2o.su.etal.mol3,4,5,7,10
|  2> ! MP2 def2-TZVP EnGrad TightSCF
|  3>
|  4> %pal
|  5>     nprocs 6
|  6> end
|  7>
|  8> %maxcore 8000
|  9>
| 10> %scf
| 11>     ConvForced true
| 12> end
| 13>
| 14> *xyz 0 1
| 15> O  -1.752130000  -0.741530000  -2.896280000
| 16> H  -2.036450000  -0.920500000  -1.984040000
| 17> H  -0.921210000  -1.242140000  -2.984230000
| 18> O  -0.885520000   1.737840000   0.052730000
| 19> H  -1.032320000   2.090180000  -0.841890000
| 20> H  -1.284090000   0.839590000   0.017130000
| 21> O   0.885520000  -1.737840000   0.052730000
| 22> H   1.284090000  -0.839590000   0.017130000
| 23> H   1.032320000  -2.090180000  -0.841890000
| 24> O  -1.737840000  -0.885520000  -0.052730000
| 25> H  -2.090180000  -1.032320000   0.841890000
| 26> H  -0.839590000  -1.284090000  -0.017130000
| 27> O  -0.923410000   1.794470000  -2.768350000
| 28> H  -1.359750000   2.338250000  -3.430940000
| 29> H  -1.303000000   0.879480000  -2.865760000
| 30> *
| 31>
| 32>                          ****END OF INPUT****

CARTESIAN COORDINATES (ANGSTROEM)
---------------------------------
  O     -1.752130   -0.741530   -2.896280
  H     -2.036450   -0.920500   -1.984040
  H     -0.921210   -1.242140   -2.984230
  O     -0.885520    1.737840    0.052730
  H     -1.032320    2.090180   -0.841890
  H     -1.284090    0.839590    0.017130
  O      0.885520   -1.737840    0.052730
  H      1.284090   -0.839590    0.017130
  H      1.032320   -2.090180   -0.841890
  O     -1.737840   -0.885520   -0.052730
  H     -2.090180   -1.032320    0.841890
  H     -0.839590   -1.284090   -0.017130
  O     -0.923410    1.794470   -2.768350
  H     -1.359750    2.338250   -3.430940
  H     -1.303000    0.879480   -2.865760

 Total Charge           Charge          ....    0
 Multiplicity           Mult            ....    1
 Number of Electrons    NEL             ....   50
 Basis Dimension        Dim             ....  215

ORBITAL ENERGIES
----------------

  NO   OCC          E(Eh)            E(eV)
   0   2.0000     -20.614584      -560.9513
   1   2.0000     -20.586626      -560.1906
   2   2.0000     -20.585838      -560.1691
   3   2.0000     -20.534331      -558.7675
   4   2.0000     -20.495446      -557.7094
   5   2.0000      -1.397062       -38.0160
   6   2.0000      -1.378510       -37.5112
   7   2.0000      -1.368214       -37.2310
   8   2.0000      -1.319047       -35.8931
   9   2.0000      -1.279627       -34.8204
  10   2.0000      -0.752221       -20.4690
  11   2.0000      -0.746283       -20.3074
  12   2.0000      -0.732761       -19.9394
  13   2.0000      -0.704146       -19.1608
  14   2.0000      -0.666191       -18.1280
  15   2.0000      -0.644927       -17.5493
  16   2.0000      -0.623023       -16.9533
  17   2.0000      -0.599158       -16.3039
  18   2.0000      -0.574112       -15.6224
  19   2.0000      -0.553023       -15.0485
  20   2.0000      -0.543346       -14.7852
  21   2.0000      -0.515914       -14.0387
  22   2.0000      -0.507484       -13.8094
  23   2.0000      -0.479052       -13.0357
  24   2.0000      -0.446413       -12.1475
  25   0.0000       0.078479         2.1355
  26   0.0000       0.141881         3.8608
  27   0.0000       0.151574         4.1245
  28   0.0000       0.163979         4.4621
  29   0.0000       0.202795         5.5183

MULLIKEN ATOMIC CHARGES
-----------------------
   0 O :   -0.686611
   1 H :    0.390552
   2 H :    0.335025
   3 O :   -0.739870
   4 H :    0.364316
   5 H :    0.334142
   6 O :   -0.685228
   7 H :    0.378842
   8 H :    0.350699
   9 O :   -0.735306
  10 H :    0.365561
  11 H :    0.363858
  12 O :   -0.736285
  13 H :    0.333091
  14 H :    0.367212
Sum of atomic charges:   -0.0000000

LOEWDIN ATOMIC CHARGES
----------------------
   0 O :   -0.272469
   1 H :    0.159702
   2 H :    0.164910
   3 O :   -0.374318
   4 H :    0.145264
   5 H :    0.130604
   6 O :   -0.285733
   7 H :    0.188831
   8 H :    0.169479
   9 O :   -0.298258
  10 H :    0.175129
  11 H :    0.144652
  12 O :   -0.342307
  13 H :    0.151617
  14 H :    0.142899

  Mayer bond orders larger than 0.100000
B(  0-O ,  1-H ) :   0.7970 B(  0-O ,  2-H ) :   0.8498 B(  3-O ,  4-H ) :   0.8175
B(  3-O ,  5-H ) :   0.8210 B(  6-O ,  7-H ) :   0.8170 B(  6-O ,  8-H ) :   0.8412
B(  9-O , 10-H ) :   0.8319 B(  9-O , 11-H ) :   0.7688 B( 12-O , 13-H ) :   0.8525
B( 12-O , 14-H ) :   0.7679

MP2 TOTAL ENERGY:     -381.605066094 Eh
FINAL SINGLE POINT ENERGY      -381.605066093822

DIPOLE MOMENT
-------------
                                X             Y             Z
Electronic contribution:      0.07160      -0.33250       0.15433
Nuclear contribution   :      0.23021      -1.32858      -0.72077
                        -----------------------------------------
Total Dipole Moment    :      0.30181      -1.66108      -0.56643
                        -----------------------------------------
Magnitude (a.u.)       :      1.78076
Magnitude (Debye)      :      4.52634

Rotational constants in cm-1:     0.083829     0.053254     0.043282
Rotational constants in MHz :  2513.117605  1596.515930  1297.559580

                             ****ORCA TERMINATED NORMALLY****
TOTAL RUN TIME: 0 days 0 hours 0 minutes 37 seconds 576 msec
