                         Program Version 4.2.0 -  RELEASE  -
|  1> # 12h2o.su.etal.mol0,3,4,6,9,10
|  2> ! MP2 def2-TZVP EnGrad TightSCF
|  3>
|  4> %pal
|  5>     nprocs 6
|  6> end
|  7>
|  8> %maxcore 8000
|  9>
| 10> %scf
| 11>     ConvForced true
| 12> end
| 13>
| 14> *xyz 0 1
| 15> O   1.794470000   0.923410000   2.768350000
| 16> H   2.338250000   1.359750000   3.430940000
| 17> H   0.879480000   1.303000000   2.865760000
| 18> O  -1.752130000  -0.741530000  -2.896280000
| 19> H  -2.036450000  -0.920500000  -1.984040000
| 20> H  -0.921210000  -1.242140000  -2.984230000
| 21> O  -0.885520000   1.737840000   0.052730000
| 22> H  -1.032320000   2.090180000  -0.841890000
| 23> H  -1.284090000   0.839590000   0.017130000
| 24> O   1.737840000   0.885520000  -0.052730000
| 25> H   2.090180000   1.032320000   0.841890000
| 26> H   0.839590000   1.284090000  -0.017130000
| 27> O   0.741530000  -1.752130000   2.896280000
| 28> H   0.920500000  -2.036450000   1.984040000
| 29> H   1.242140000  -0.921210000   2.984230000
| 30> O  -0.923410000   1.794470000  -2.768350000
| 31> H  -1.359750000   2.338250000  -3.430940000
| 32> H  -1.303000000   0.879480000  -2.865760000
| 33> *
| 34>
| 35>                          ****END OF INPUT****

CARTESIAN COORDINATES (ANGSTROEM)
---------------------------------
  O      1.794470    0.923410    2.768350
  H      2.338250    1.359750    3.430940
  H      0.879480    1.303000    2.865760
  O     -1.752130   -0.741530   -2.896280
  H     -2.036450   -0.920500   -1.984040
  H     -0.921210   -1.242140   -2.984230
  O     -0.885520    1.737840    0.052730
  H     -1.032320    2.090180   -0.841890
  H     -1.284090    0.839590    0.017130
  O      1.737840    0.885520   -0.052730
  H      2.090180    1.032320    0.841890
  H      0.839590    1.284090   -0.017130
  O      0.741530   -1.752130    2.896280
  H      0.920500   -2.036450    1.984040
  H      1.242140   -0.921210    2.984230
  O     -0.923410    1.794470   -2.768350
  H     -1.359750    2.338250   -3.430940
  H     -1.303000    0.879480   -2.865760

 Total Charge           Charge          ....    0
 Multiplicity           Mult            ....    1
 Number of Electrons    NEL             ....   60
 Basis Dimension        Dim             ....  258

ORBITAL ENERGIES
----------------

  NO   OCC          E(Eh)            E(eV)
   0   2.0000     -20.614914      -560.9603
   1   2.0000     -20.600062      -560.5562
   2   2.0000     -20.565720      -559.6217
   3   2.0000     -20.552221      -559.2544
   4   2.0000     -20.532595      -558.7203
   5   2.0000     -20.497866      -557.7753
   6   2.0000      -1.400367       -38.1059
   7   2.0000      -1.380274       -37.5592
   8   2.0000      -1.351912       -36.7874
   9   2.0000      -1.333773       -36.2938
  10   2.0000      -1.314992       -35.7828
  11   2.0000      -1.282245       -34.8917
  12   2.0000      -0.757464       -20.6116
  13   2.0000      -0.745903       -20.2970
  14   2.0000      -0.722992       -19.6736
  15   2.0000      -0.711909       -19.3720
  16   2.0000      -0.685408       -18.6509
  17   2.0000      -0.667483       -18.1631
  18   2.0000      -0.639096       -17.3907
  19   2.0000      -0.618139       -16.8204
  20   2.0000      -0.599998       -16.3268
  21   2.0000      -0.579743       -15.7756
  22   2.0000      -0.566699       -15.4207
  23   2.0000      -0.543352       -14.7853
  24   2.0000      -0.538453       -14.6521
  25   2.0000      -0.521844       -14.2001
  26   2.0000      -0.501381       -13.6433
  27   2.0000      -0.492815       -13.4102
  28   2.0000      -0.480381       -13.0718
  29   2.0000      -0.448716       -12.2102
  30   0.0000       0.081466         2.2168
  31   0.0000       0.112052         3.0491
  32   0.0000       0.149853         4.0777
  33   0.0000       0.155529         4.2322
  34   0.0000       0.173446         4.7197

MULLIKEN ATOMIC CHARGES
-----------------------
   0 O :   -0.711684
   1 H :    0.359016
   2 H :    0.373617
   3 O :   -0.675968
   4 H :    0.352244
   5 H :    0.373180
   6 O :   -0.696706
   7 H :    0.384506
   8 H :    0.322653
   9 O :   -0.737144
  10 H :    0.351021
  11 H :    0.346981
  12 O :   -0.708513
  13 H :    0.331266
  14 H :    0.358058
  15 O :   -0.729821
  16 H :    0.339289
  17 H :    0.368004
Sum of atomic charges:   -0.0000000

LOEWDIN ATOMIC CHARGES
----------------------
   0 O :   -0.286725
   1 H :    0.165374
   2 H :    0.192476
   3 O :   -0.266478
   4 H :    0.170951
   5 H :    0.183395
   6 O :   -0.301468
   7 H :    0.155154
   8 H :    0.162151
   9 O :   -0.372004
  10 H :    0.139666
  11 H :    0.136561
  12 O :   -0.349380
  13 H :    0.160624
  14 H :    0.146503
  15 O :   -0.335473
  16 H :    0.155349
  17 H :    0.143326

  Mayer bond orders larger than 0.100000
B(  0-O ,  1-H ) :   0.8346 B(  0-O ,  2-H ) :   0.8184 B(  3-O ,  4-H ) :   0.8402
B(  3-O ,  5-H ) :   0.8273 B(  6-O ,  7-H ) :   0.7902 B(  6-O ,  8-H ) :   0.8539
B(  9-O , 10-H ) :   0.8371 B(  9-O , 11-H ) :   0.8043 B( 12-O , 13-H ) :   0.8555
B( 12-O , 14-H ) :   0.8220 B( 15-O , 16-H ) :   0.8494 B( 15-O , 17-H ) :   0.7714

MP2 TOTAL ENERGY:     -457.915467384 Eh
FINAL SINGLE POINT ENERGY      -457.915467384367

DIPOLE MOMENT
-------------
                                X             Y             Z
Electronic contribution:     -0.07060      -0.04339      -0.18318
Nuclear contribution   :     -0.87584       0.25903       0.00000
                        -----------------------------------------
Total Dipole Moment    :     -0.94645       0.21565      -0.18318
                        -----------------------------------------
Magnitude (a.u.)       :      0.98784
Magnitude (Debye)      :      2.51088

Rotational constants in cm-1:     0.070138     0.021335     0.018389
Rotational constants in MHz :  2102.672162   639.592985   551.302323

                             ****ORCA TERMINATED NORMALLY****
TOTAL RUN TIME: 0 days 0 hours 0 minutes 58 seconds 989 msec
