                         Program Version 4.2.0 -  RELEASE  -
|  1> # 12h2o.su.etal.mol1,4,5,11
|  2> ! MP2 def2-TZVP EnGrad TightSCF
|  3>
|  4> %pal
|  5>     nprocs 6
|  6> end
|  7>
|  8> %maxcore 8000
|  9>
| 10> %scf
| 11>     ConvForced true
| 12> end
| 13>
| 14> *xyz 0 1
| 15> O  -1.794470000  -0.923410000   2.768350000
| 16> H  -2.338250000  -1.359750000   3.430940000
| 17> H  -0.879480000  -1.303000000   2.865760000
| 18> O  -0.885520000   1.737840000   0.052730000
| 19> H  -1.032320000   2.090180000  -0.841890000
| 20> H  -1.284090000   0.839590000   0.017130000
| 21> O   0.885520000  -1.737840000   0.052730000
| 22> H   1.284090000  -0.839590000   0.017130000
| 23> H   1.032320000  -2.090180000  -0.841890000
| 24> O  -0.741530000   1.752130000   2.896280000
| 25> H  -0.920500000   2.036450000   1.984040000
| 26> H  -1.242140000   0.921210000   2.984230000
| 27> *
| 28>
| 29>                          ****END OF INPUT****

CARTESIAN COORDINATES (ANGSTROEM)
---------------------------------
  O     -1.794470   -0.923410    2.768350
  H     -2.338250   -1.359750    3.430940
  H     -0.879480   -1.303000    2.865760
  O     -0.885520    1.737840    0.052730
  H     -1.032320    2.090180   -0.841890
  H     -1.284090    0.839590    0.017130
  O      0.885520   -1.737840    0.052730
  H      1.284090   -0.839590    0.017130
  H      1.032320   -2.090180   -0.841890
  O     -0.741530    1.752130    2.896280
  H     -0.920500    2.036450    1.984040
  H     -1.242140    0.921210    2.984230

 Total Charge           Charge          ....    0
 Multiplicity           Mult            ....    1
 Number of Electrons    NEL             ....   40
 Basis Dimension        Dim             ....  172

ORBITAL ENERGIES
----------------

  NO   OCC          E(Eh)            E(eV)
   0   2.0000     -20.579203      -559.9886
   1   2.0000     -20.578354      -559.9655
   2   2.0000     -20.571364      -559.7753
   3   2.0000     -20.498326      -557.7878
   4   2.0000      -1.357672       -36.9441
   5   2.0000      -1.355855       -36.8947
   6   2.0000      -1.347312       -36.6622
   7   2.0000      -1.283690       -34.9310
   8   2.0000      -0.723113       -19.6769
   9   2.0000      -0.719442       -19.5770
  10   2.0000      -0.708963       -19.2919
  11   2.0000      -0.662102       -18.0167
  12   2.0000      -0.604256       -16.4426
  13   2.0000      -0.587379       -15.9834
  14   2.0000      -0.587080       -15.9753
  15   2.0000      -0.535619       -14.5749
  16   2.0000      -0.522035       -14.2053
  17   2.0000      -0.514139       -13.9904
  18   2.0000      -0.504805       -13.7365
  19   2.0000      -0.448340       -12.2000
  20   0.0000       0.100959         2.7472
  21   0.0000       0.133374         3.6293
  22   0.0000       0.141313         3.8453
  23   0.0000       0.195473         5.3191
  24   0.0000       0.208595         5.6762

MULLIKEN ATOMIC CHARGES
-----------------------
   0 O :   -0.699394
   1 H :    0.349774
   2 H :    0.368350
   3 O :   -0.696480
   4 H :    0.342792
   5 H :    0.356789
   6 O :   -0.685266
   7 H :    0.348780
   8 H :    0.337868
   9 O :   -0.726680
  10 H :    0.362367
  11 H :    0.341099
Sum of atomic charges:   -0.0000000

LOEWDIN ATOMIC CHARGES
----------------------
   0 O :   -0.312853
   1 H :    0.162184
   2 H :    0.190633
   3 O :   -0.318584
   4 H :    0.167392
   5 H :    0.177132
   6 O :   -0.339075
   7 H :    0.174900
   8 H :    0.165715
   9 O :   -0.356476
  10 H :    0.148713
  11 H :    0.140319

  Mayer bond orders larger than 0.100000
B(  0-O ,  1-H ) :   0.8433 B(  0-O ,  2-H ) :   0.8240 B(  3-O ,  4-H ) :   0.8456
B(  3-O ,  5-H ) :   0.8311 B(  6-O ,  7-H ) :   0.8407 B(  6-O ,  8-H ) :   0.8522
B(  9-O , 10-H ) :   0.8301 B(  9-O , 11-H ) :   0.8307

MP2 TOTAL ENERGY:     -305.268522640 Eh
FINAL SINGLE POINT ENERGY      -305.268522639828

DIPOLE MOMENT
-------------
                                X             Y             Z
Electronic contribution:      0.00195      -0.00012       0.11958
Nuclear contribution   :     -0.25668      -1.13412      -1.60207
                        -----------------------------------------
Total Dipole Moment    :     -0.25473      -1.13423      -1.48249
                        -----------------------------------------
Magnitude (a.u.)       :      1.88392
Magnitude (Debye)      :      4.78855

Rotational constants in cm-1:     0.096610     0.068237     0.046272
Rotational constants in MHz :  2896.290196  2045.681287  1387.199035

                             ****ORCA TERMINATED NORMALLY****
TOTAL RUN TIME: 0 days 0 hours 0 minutes 26 seconds 226 msec
