                         Program Version 4.2.0 -  RELEASE  -
|  1> # 12h2o.su.etal.mol0,3,4,5,6,9,11
|  2> ! MP2 def2-TZVP EnGrad TightSCF
|  3>
|  4> %pal
|  5>     nprocs 6
|  6> end
|  7>
|  8> %maxcore 8000
|  9>
| 10> %scf
| 11>     ConvForced true
| 12> end
| 13>
| 14> *xyz 0 1
| 15> O   1.794470000   0.923410000   2.768350000
| 16> H   2.338250000   1.359750000   3.430940000
| 17> H   0.879480000   1.303000000   2.865760000
| 18> O  -1.752130000  -0.741530000  -2.896280000
| 19> H  -2.036450000  -0.920500000  -1.984040000
| 20> H  -0.921210000  -1.242140000  -2.984230000
| 21> O  -0.885520000   1.737840000   0.052730000
| 22> H  -1.032320000   2.090180000  -0.841890000
| 23> H  -1.284090000   0.839590000   0.017130000
| 24> O   0.885520000  -1.737840000   0.052730000
| 25> H   1.284090000  -0.839590000   0.017130000
| 26> H   1.032320000  -2.090180000  -0.841890000
| 27> O   1.737840000   0.885520000  -0.052730000
| 28> H   2.090180000   1.032320000   0.841890000
| 29> H   0.839590000   1.284090000  -0.017130000
| 30> O   0.741530000  -1.752130000   2.896280000
| 31> H   0.920500000  -2.036450000   1.984040000
| 32> H   1.242140000  -0.921210000   2.984230000
| 33> O  -0.741530000   1.752130000   2.896280000
| 34> H  -0.920500000   2.036450000   1.984040000
| 35> H  -1.242140000   0.921210000   2.984230000
| 36> *
| 37>
| 38>                          ****END OF INPUT****

CARTESIAN COORDINATES (ANGSTROEM)
---------------------------------
  O      1.794470    0.923410    2.768350
  H      2.338250    1.359750    3.430940
  H      0.879480    1.303000    2.865760
  O     -1.752130   -0.741530   -2.896280
  H     -2.036450   -0.920500   -1.984040
  H     -0.921210   -1.242140   -2.984230
  O     -0.885520    1.737840    0.052730
  H     -1.032320    2.090180   -0.841890
  H     -1.284090    0.839590    0.017130
  O      0.885520   -1.737840    0.052730
  H      1.284090   -0.839590    0.017130
  H      1.032320   -2.090180   -0.841890
  O      1.737840    0.885520   -0.052730
  H      2.090180    1.032320    0.841890
  H      0.839590    1.284090   -0.017130
  O      0.741530   -1.752130    2.896280
  H      0.920500   -2.036450    1.984040
  H      1.242140   -0.921210    2.984230
  O     -0.741530    1.752130    2.896280
  H     -0.920500    2.036450    1.984040
  H     -1.242140    0.921210    2.984230

 Total Charge           Charge          ....    0
 Multiplicity           Mult            ....    1
 Number of Electrons    NEL             ....   70
 Basis Dimension        Dim             ....  301

ORBITAL ENERGIES
----------------

  NO   OCC          E(Eh)            E(eV)
   0   2.0000     -20.633889      -561.4767
   1   2.0000     -20.590843      -560.3053
   2   2.0000     -20.585387      -560.1569
   3   2.0000     -20.564414      -559.5862
   4   2.0000     -20.553036      -559.2765
   5   2.0000     -20.548772      -559.1605
   6   2.0000     -20.502921      -557.9128
   7   2.0000      -1.417239       -38.5650
   8   2.0000      -1.380461       -37.5642
   9   2.0000      -1.364255       -37.1233
  10   2.0000      -1.352174       -36.7945
  11   2.0000      -1.342726       -36.5374
  12   2.0000      -1.328495       -36.1502
  13   2.0000      -1.287872       -35.0448
  14   2.0000      -0.776048       -21.1173
  15   2.0000      -0.741027       -20.1644
  16   2.0000      -0.731645       -19.9091
  17   2.0000      -0.727194       -19.7879
  18   2.0000      -0.715152       -19.4603
  19   2.0000      -0.707265       -19.2457
  20   2.0000      -0.666268       -18.1301
  21   2.0000      -0.661764       -18.0075
  22   2.0000      -0.621625       -16.9153
  23   2.0000      -0.610893       -16.6232
  24   2.0000      -0.601618       -16.3709
  25   2.0000      -0.586416       -15.9572
  26   2.0000      -0.578348       -15.7376
  27   2.0000      -0.555282       -15.1100
  28   2.0000      -0.533482       -14.5168
  29   2.0000      -0.529084       -14.3971
  30   2.0000      -0.524687       -14.2775
  31   2.0000      -0.506482       -13.7821
  32   2.0000      -0.501659       -13.6508
  33   2.0000      -0.493180       -13.4201
  34   2.0000      -0.453052       -12.3282
  35   0.0000       0.069650         1.8953
  36   0.0000       0.115885         3.1534
  37   0.0000       0.133918         3.6441
  38   0.0000       0.147185         4.0051
  39   0.0000       0.162340         4.4175

MULLIKEN ATOMIC CHARGES
-----------------------
   0 O :   -0.751319
   1 H :    0.349657
   2 H :    0.382612
   3 O :   -0.671010
   4 H :    0.331378
   5 H :    0.341932
   6 O :   -0.718082
   7 H :    0.382836
   8 H :    0.362875
   9 O :   -0.732789
  10 H :    0.361341
  11 H :    0.325876
  12 O :   -0.724665
  13 H :    0.380247
  14 H :    0.351871
  15 O :   -0.735804
  16 H :    0.368065
  17 H :    0.346225
  18 O :   -0.697792
  19 H :    0.385468
  20 H :    0.361078
Sum of atomic charges:   -0.0000000

LOEWDIN ATOMIC CHARGES
----------------------
   0 O :   -0.313576
   1 H :    0.158881
   2 H :    0.146409
   3 O :   -0.327151
   4 H :    0.160221
   5 H :    0.168180
   6 O :   -0.276206
   7 H :    0.183765
   8 H :    0.179816
   9 O :   -0.344669
  10 H :    0.143286
  11 H :    0.155742
  12 O :   -0.315013
  13 H :    0.150584
  14 H :    0.137378
  15 O :   -0.359251
  16 H :    0.150049
  17 H :    0.139616
  18 O :   -0.271609
  19 H :    0.157789
  20 H :    0.175757

  Mayer bond orders larger than 0.100000
B(  0-O ,  1-H ) :   0.8407 B(  0-O ,  2-H ) :   0.7447 B(  3-O ,  4-H ) :   0.8546
B(  3-O ,  5-H ) :   0.8488 B(  6-O ,  7-H ) :   0.8196 B(  6-O ,  8-H ) :   0.8220
B(  9-O , 10-H ) :   0.7602 B(  9-O , 11-H ) :   0.8546 B( 10-H , 12-O ) :   0.1124
B( 12-O , 13-H ) :   0.7997 B( 12-O , 14-H ) :   0.8047 B( 15-O , 16-H ) :   0.8224
B( 15-O , 17-H ) :   0.8262 B( 18-O , 19-H ) :   0.8076 B( 18-O , 20-H ) :   0.8308

MP2 TOTAL ENERGY:     -534.253179722 Eh
FINAL SINGLE POINT ENERGY      -534.253179722280

DIPOLE MOMENT
-------------
                                X             Y             Z
Electronic contribution:     -0.30556       0.50335       0.01052
Nuclear contribution   :     -0.30841       0.56744      -0.82779
                        -----------------------------------------
Total Dipole Moment    :     -0.61396       1.07079      -0.81727
                        -----------------------------------------
Magnitude (a.u.)       :      1.48036
Magnitude (Debye)      :      3.76278

Rotational constants in cm-1:     0.043148     0.023990     0.019906
Rotational constants in MHz :  1293.538751   719.191792   596.773541

                             ****ORCA TERMINATED NORMALLY****
TOTAL RUN TIME: 0 days 0 hours 1 minutes 56 seconds 847 msec
