                         Program Version 4.2.0 -  RELEASE  -
|  1> # 12h2o.su.etal.mol1,2,7,8,10,11
|  2> ! MP2 def2-TZVP EnGrad TightSCF
|  3>
|  4> %pal
|  5>     nprocs 6
|  6> end
|  7>
|  8> %maxcore 8000
|  9>
| 10> %scf
| 11>     ConvForced true
| 12> end
| 13>
| 14> *xyz 0 1
| 15> O  -1.794470000  -0.923410000   2.768350000
| 16> H  -2.338250000  -1.359750000   3.430940000
| 17> H  -0.879480000  -1.303000000   2.865760000
| 18> O   0.923410000  -1.794470000  -2.768350000
| 19> H   1.359750000  -2.338250000  -3.430940000
| 20> H   1.303000000  -0.879480000  -2.865760000
| 21> O  -1.737840000  -0.885520000  -0.052730000
| 22> H  -2.090180000  -1.032320000   0.841890000
| 23> H  -0.839590000  -1.284090000  -0.017130000
| 24> O   1.752130000   0.741530000  -2.896280000
| 25> H   2.036450000   0.920500000  -1.984040000
| 26> H   0.921210000   1.242140000  -2.984230000
| 27> O  -0.923410000   1.794470000  -2.768350000
| 28> H  -1.359750000   2.338250000  -3.430940000
| 29> H  -1.303000000   0.879480000  -2.865760000
| 30> O  -0.741530000   1.752130000   2.896280000
| 31> H  -0.920500000   2.036450000   1.984040000
| 32> H  -1.242140000   0.921210000   2.984230000
| 33> *
| 34>
| 35>                          ****END OF INPUT****

CARTESIAN COORDINATES (ANGSTROEM)
---------------------------------
  O     -1.794470   -0.923410    2.768350
  H     -2.338250   -1.359750    3.430940
  H     -0.879480   -1.303000    2.865760
  O      0.923410   -1.794470   -2.768350
  H      1.359750   -2.338250   -3.430940
  H      1.303000   -0.879480   -2.865760
  O     -1.737840   -0.885520   -0.052730
  H     -2.090180   -1.032320    0.841890
  H     -0.839590   -1.284090   -0.017130
  O      1.752130    0.741530   -2.896280
  H      2.036450    0.920500   -1.984040
  H      0.921210    1.242140   -2.984230
  O     -0.923410    1.794470   -2.768350
  H     -1.359750    2.338250   -3.430940
  H     -1.303000    0.879480   -2.865760
  O     -0.741530    1.752130    2.896280
  H     -0.920500    2.036450    1.984040
  H     -1.242140    0.921210    2.984230

 Total Charge           Charge          ....    0
 Multiplicity           Mult            ....    1
 Number of Electrons    NEL             ....   60
 Basis Dimension        Dim             ....  258

ORBITAL ENERGIES
----------------

  NO   OCC          E(Eh)            E(eV)
   0   2.0000     -20.614536      -560.9501
   1   2.0000     -20.583396      -560.1027
   2   2.0000     -20.565010      -559.6024
   3   2.0000     -20.537269      -558.8475
   4   2.0000     -20.533135      -558.7350
   5   2.0000     -20.515521      -558.2557
   6   2.0000      -1.394646       -37.9503
   7   2.0000      -1.363547       -37.1040
   8   2.0000      -1.351309       -36.7710
   9   2.0000      -1.316382       -35.8206
  10   2.0000      -1.315615       -35.7997
  11   2.0000      -1.297310       -35.3016
  12   2.0000      -0.760306       -20.6890
  13   2.0000      -0.730205       -19.8699
  14   2.0000      -0.712766       -19.3953
  15   2.0000      -0.689303       -18.7569
  16   2.0000      -0.686002       -18.6671
  17   2.0000      -0.684482       -18.6257
  18   2.0000      -0.628911       -17.1135
  19   2.0000      -0.610507       -16.6128
  20   2.0000      -0.584680       -15.9100
  21   2.0000      -0.580073       -15.7846
  22   2.0000      -0.550810       -14.9883
  23   2.0000      -0.545684       -14.8488
  24   2.0000      -0.535508       -14.5719
  25   2.0000      -0.524115       -14.2619
  26   2.0000      -0.497750       -13.5445
  27   2.0000      -0.483119       -13.1463
  28   2.0000      -0.480396       -13.0722
  29   2.0000      -0.466266       -12.6877
  30   0.0000       0.092851         2.5266
  31   0.0000       0.115204         3.1349
  32   0.0000       0.149168         4.0591
  33   0.0000       0.165514         4.5039
  34   0.0000       0.174075         4.7368

MULLIKEN ATOMIC CHARGES
-----------------------
   0 O :   -0.710812
   1 H :    0.364250
   2 H :    0.367623
   3 O :   -0.736821
   4 H :    0.323824
   5 H :    0.364353
   6 O :   -0.698531
   7 H :    0.359340
   8 H :    0.332722
   9 O :   -0.701300
  10 H :    0.351778
  11 H :    0.374504
  12 O :   -0.704784
  13 H :    0.350933
  14 H :    0.378869
  15 O :   -0.707433
  16 H :    0.337862
  17 H :    0.353624
Sum of atomic charges:    0.0000000

LOEWDIN ATOMIC CHARGES
----------------------
   0 O :   -0.286327
   1 H :    0.167811
   2 H :    0.190798
   3 O :   -0.375609
   4 H :    0.148097
   5 H :    0.140969
   6 O :   -0.346329
   7 H :    0.145620
   8 H :    0.167413
   9 O :   -0.284086
  10 H :    0.170565
  11 H :    0.153857
  12 O :   -0.311311
  13 H :    0.163286
  14 H :    0.194829
  15 O :   -0.348100
  16 H :    0.163714
  17 H :    0.144803

  Mayer bond orders larger than 0.100000
B(  0-O ,  1-H ) :   0.8317 B(  0-O ,  2-H ) :   0.8227 B(  3-O ,  4-H ) :   0.8610
B(  3-O ,  5-H ) :   0.7753 B(  6-O ,  7-H ) :   0.8273 B(  6-O ,  8-H ) :   0.8497
B(  9-O , 10-H ) :   0.8417 B(  9-O , 11-H ) :   0.7947 B( 12-O , 13-H ) :   0.8423
B( 12-O , 14-H ) :   0.8155 B( 15-O , 16-H ) :   0.8520 B( 15-O , 17-H ) :   0.8277

MP2 TOTAL ENERGY:     -457.912668009 Eh
FINAL SINGLE POINT ENERGY      -457.912668008872

DIPOLE MOMENT
-------------
                                X             Y             Z
Electronic contribution:     -0.18580       0.37706       0.10855
Nuclear contribution   :     -0.25725      -1.02241       0.14168
                        -----------------------------------------
Total Dipole Moment    :     -0.44305      -0.64535       0.25024
                        -----------------------------------------
Magnitude (a.u.)       :      0.82182
Magnitude (Debye)      :      2.08890

Rotational constants in cm-1:     0.054613     0.018915     0.016735
Rotational constants in MHz :  1637.254214   567.068886   501.697350

                             ****ORCA TERMINATED NORMALLY****
TOTAL RUN TIME: 0 days 0 hours 0 minutes 52 seconds 322 msec
