                         Program Version 4.2.0 -  RELEASE  -
|  1> # 12h2o.su.etal.mol1,5,6,7,8,9
|  2> ! MP2 def2-TZVP EnGrad TightSCF
|  3>
|  4> %pal
|  5>     nprocs 6
|  6> end
|  7>
|  8> %maxcore 8000
|  9>
| 10> %scf
| 11>     ConvForced true
| 12> end
| 13>
| 14> *xyz 0 1
| 15> O  -1.794470000  -0.923410000   2.768350000
| 16> H  -2.338250000  -1.359750000   3.430940000
| 17> H  -0.879480000  -1.303000000   2.865760000
| 18> O   0.885520000  -1.737840000   0.052730000
| 19> H   1.284090000  -0.839590000   0.017130000
| 20> H   1.032320000  -2.090180000  -0.841890000
| 21> O   1.737840000   0.885520000  -0.052730000
| 22> H   2.090180000   1.032320000   0.841890000
| 23> H   0.839590000   1.284090000  -0.017130000
| 24> O  -1.737840000  -0.885520000  -0.052730000
| 25> H  -2.090180000  -1.032320000   0.841890000
| 26> H  -0.839590000  -1.284090000  -0.017130000
| 27> O   1.752130000   0.741530000  -2.896280000
| 28> H   2.036450000   0.920500000  -1.984040000
| 29> H   0.921210000   1.242140000  -2.984230000
| 30> O   0.741530000  -1.752130000   2.896280000
| 31> H   0.920500000  -2.036450000   1.984040000
| 32> H   1.242140000  -0.921210000   2.984230000
| 33> *
| 34>
| 35>                          ****END OF INPUT****

CARTESIAN COORDINATES (ANGSTROEM)
---------------------------------
  O     -1.794470   -0.923410    2.768350
  H     -2.338250   -1.359750    3.430940
  H     -0.879480   -1.303000    2.865760
  O      0.885520   -1.737840    0.052730
  H      1.284090   -0.839590    0.017130
  H      1.032320   -2.090180   -0.841890
  O      1.737840    0.885520   -0.052730
  H      2.090180    1.032320    0.841890
  H      0.839590    1.284090   -0.017130
  O     -1.737840   -0.885520   -0.052730
  H     -2.090180   -1.032320    0.841890
  H     -0.839590   -1.284090   -0.017130
  O      1.752130    0.741530   -2.896280
  H      2.036450    0.920500   -1.984040
  H      0.921210    1.242140   -2.984230
  O      0.741530   -1.752130    2.896280
  H      0.920500   -2.036450    1.984040
  H      1.242140   -0.921210    2.984230

 Total Charge           Charge          ....    0
 Multiplicity           Mult            ....    1
 Number of Electrons    NEL             ....   60
 Basis Dimension        Dim             ....  258

ORBITAL ENERGIES
----------------

  NO   OCC          E(Eh)            E(eV)
   0   2.0000     -20.638266      -561.5958
   1   2.0000     -20.589589      -560.2712
   2   2.0000     -20.589544      -560.2700
   3   2.0000     -20.552115      -559.2515
   4   2.0000     -20.537662      -558.8582
   5   2.0000     -20.499476      -557.8191
   6   2.0000      -1.421674       -38.6857
   7   2.0000      -1.382884       -37.6302
   8   2.0000      -1.372067       -37.3358
   9   2.0000      -1.334009       -36.3002
  10   2.0000      -1.322410       -35.9846
  11   2.0000      -1.283582       -34.9280
  12   2.0000      -0.778804       -21.1923
  13   2.0000      -0.750458       -20.4210
  14   2.0000      -0.737085       -20.0571
  15   2.0000      -0.708598       -19.2819
  16   2.0000      -0.707509       -19.2523
  17   2.0000      -0.670192       -18.2368
  18   2.0000      -0.657456       -17.8903
  19   2.0000      -0.635606       -17.2957
  20   2.0000      -0.606179       -16.4950
  21   2.0000      -0.578144       -15.7321
  22   2.0000      -0.576038       -15.6748
  23   2.0000      -0.563803       -15.3419
  24   2.0000      -0.548151       -14.9160
  25   2.0000      -0.519440       -14.1347
  26   2.0000      -0.511012       -13.9053
  27   2.0000      -0.498199       -13.5567
  28   2.0000      -0.482551       -13.1309
  29   2.0000      -0.450435       -12.2569
  30   0.0000       0.067047         1.8244
  31   0.0000       0.126830         3.4512
  32   0.0000       0.144080         3.9206
  33   0.0000       0.158585         4.3153
  34   0.0000       0.178572         4.8592

MULLIKEN ATOMIC CHARGES
-----------------------
   0 O :   -0.737494
   1 H :    0.334297
   2 H :    0.367251
   3 O :   -0.736411
   4 H :    0.362424
   5 H :    0.373651
   6 O :   -0.714280
   7 H :    0.364323
   8 H :    0.382090
   9 O :   -0.741212
  10 H :    0.365076
  11 H :    0.335705
  12 O :   -0.691741
  13 H :    0.364115
  14 H :    0.332207
  15 O :   -0.685091
  16 H :    0.391747
  17 H :    0.333344
Sum of atomic charges:   -0.0000000

LOEWDIN ATOMIC CHARGES
----------------------
   0 O :   -0.342682
   1 H :    0.152174
   2 H :    0.142828
   3 O :   -0.296036
   4 H :    0.143496
   5 H :    0.178242
   6 O :   -0.274229
   7 H :    0.174724
   8 H :    0.189518
   9 O :   -0.374643
  10 H :    0.145540
  11 H :    0.130968
  12 O :   -0.335353
  13 H :    0.148921
  14 H :    0.164254
  15 O :   -0.271813
  16 H :    0.159918
  17 H :    0.164172

  Mayer bond orders larger than 0.100000
B(  0-O ,  1-H ) :   0.8519 B(  0-O ,  2-H ) :   0.7679 B(  3-O ,  4-H ) :   0.7791
B(  3-O ,  5-H ) :   0.8258 B(  6-O ,  7-H ) :   0.8307 B(  6-O ,  8-H ) :   0.8102
B(  9-O , 10-H ) :   0.8169 B(  9-O , 11-H ) :   0.8196 B( 12-O , 13-H ) :   0.8306
B( 12-O , 14-H ) :   0.8554 B( 15-O , 16-H ) :   0.7963 B( 15-O , 17-H ) :   0.8510

MP2 TOTAL ENERGY:     -457.922666797 Eh
FINAL SINGLE POINT ENERGY      -457.922666797376

DIPOLE MOMENT
-------------
                                X             Y             Z
Electronic contribution:      0.40565      -0.06451      -0.15628
Nuclear contribution   :      0.87361       0.79587       1.40687
                        -----------------------------------------
Total Dipole Moment    :      1.27926       0.73136       1.25059
                        -----------------------------------------
Magnitude (a.u.)       :      1.93271
Magnitude (Debye)      :      4.91256

Rotational constants in cm-1:     0.078430     0.026772     0.023558
Rotational constants in MHz :  2351.284020   802.608675   706.252527

                             ****ORCA TERMINATED NORMALLY****
TOTAL RUN TIME: 0 days 0 hours 1 minutes 12 seconds 615 msec
