                         Program Version 4.2.0 -  RELEASE  -
|  1> # 12h2o.su.etal.mol4,7,10
|  2> ! MP2 def2-TZVP EnGrad TightSCF
|  3>
|  4> %pal
|  5>     nprocs 6
|  6> end
|  7>
|  8> %maxcore 8000
|  9>
| 10> %scf
| 11>     ConvForced true
| 12> end
| 13>
| 14> *xyz 0 1
| 15> O  -0.885520000   1.737840000   0.052730000
| 16> H  -1.032320000   2.090180000  -0.841890000
| 17> H  -1.284090000   0.839590000   0.017130000
| 18> O  -1.737840000  -0.885520000  -0.052730000
| 19> H  -2.090180000  -1.032320000   0.841890000
| 20> H  -0.839590000  -1.284090000  -0.017130000
| 21> O  -0.923410000   1.794470000  -2.768350000
| 22> H  -1.359750000   2.338250000  -3.430940000
| 23> H  -1.303000000   0.879480000  -2.865760000
| 24> *
| 25>
| 26>                          ****END OF INPUT****

CARTESIAN COORDINATES (ANGSTROEM)
---------------------------------
  O     -0.885520    1.737840    0.052730
  H     -1.032320    2.090180   -0.841890
  H     -1.284090    0.839590    0.017130
  O     -1.737840   -0.885520   -0.052730
  H     -2.090180   -1.032320    0.841890
  H     -0.839590   -1.284090   -0.017130
  O     -0.923410    1.794470   -2.768350
  H     -1.359750    2.338250   -3.430940
  H     -1.303000    0.879480   -2.865760

 Total Charge           Charge          ....    0
 Multiplicity           Mult            ....    1
 Number of Electrons    NEL             ....   30
 Basis Dimension        Dim             ....  129

ORBITAL ENERGIES
----------------

  NO   OCC          E(Eh)            E(eV)
   0   2.0000     -20.594483      -560.4044
   1   2.0000     -20.577867      -559.9522
   2   2.0000     -20.495213      -557.7031
   3   2.0000      -1.375034       -37.4166
   4   2.0000      -1.355677       -36.8899
   5   2.0000      -1.279958       -34.8294
   6   2.0000      -0.733474       -19.9588
   7   2.0000      -0.722543       -19.6614
   8   2.0000      -0.666401       -18.1337
   9   2.0000      -0.615055       -16.7365
  10   2.0000      -0.592629       -16.1263
  11   2.0000      -0.551308       -15.0018
  12   2.0000      -0.521118       -14.1803
  13   2.0000      -0.498021       -13.5519
  14   2.0000      -0.446147       -12.1403
  15   0.0000       0.105130         2.8607
  16   0.0000       0.131821         3.5870
  17   0.0000       0.182941         4.9781
  18   0.0000       0.199932         5.4404
  19   0.0000       0.257820         7.0156

MULLIKEN ATOMIC CHARGES
-----------------------
   0 O :   -0.731975
   1 H :    0.358599
   2 H :    0.332357
   3 O :   -0.685053
   4 H :    0.359247
   5 H :    0.358547
   6 O :   -0.690727
   7 H :    0.345591
   8 H :    0.353415
Sum of atomic charges:   -0.0000000

LOEWDIN ATOMIC CHARGES
----------------------
   0 O :   -0.371688
   1 H :    0.143668
   2 H :    0.132944
   3 O :   -0.293898
   4 H :    0.174244
   5 H :    0.180480
   6 O :   -0.310290
   7 H :    0.160238
   8 H :    0.184303

  Mayer bond orders larger than 0.100000
B(  0-O ,  1-H ) :   0.8297 B(  0-O ,  2-H ) :   0.8207 B(  3-O ,  4-H ) :   0.8373
B(  3-O ,  5-H ) :   0.8346 B(  6-O ,  7-H ) :   0.8452 B(  6-O ,  8-H ) :   0.8350

MP2 TOTAL ENERGY:     -228.949701283 Eh
FINAL SINGLE POINT ENERGY      -228.949701282645

DIPOLE MOMENT
-------------
                                X             Y             Z
Electronic contribution:      0.05760      -0.00789      -0.04432
Nuclear contribution   :     -0.67870      -1.21732      -0.63259
                        -----------------------------------------
Total Dipole Moment    :     -0.62110      -1.22521      -0.67691
                        -----------------------------------------
Magnitude (a.u.)       :      1.53138
Magnitude (Debye)      :      3.89245

Rotational constants in cm-1:     0.349120     0.115952     0.088309
Rotational constants in MHz : 10466.347583  3476.165057  2647.443574

                             ****ORCA TERMINATED NORMALLY****
TOTAL RUN TIME: 0 days 0 hours 0 minutes 29 seconds 240 msec
