                         Program Version 4.2.0 -  RELEASE  -
|  1> # 12h2o.su.etal.mol2,4,5,6,7,9
|  2> ! MP2 def2-TZVP EnGrad TightSCF
|  3>
|  4> %pal
|  5>     nprocs 6
|  6> end
|  7>
|  8> %maxcore 8000
|  9>
| 10> %scf
| 11>     ConvForced true
| 12> end
| 13>
| 14> *xyz 0 1
| 15> O   0.923410000  -1.794470000  -2.768350000
| 16> H   1.359750000  -2.338250000  -3.430940000
| 17> H   1.303000000  -0.879480000  -2.865760000
| 18> O  -0.885520000   1.737840000   0.052730000
| 19> H  -1.032320000   2.090180000  -0.841890000
| 20> H  -1.284090000   0.839590000   0.017130000
| 21> O   0.885520000  -1.737840000   0.052730000
| 22> H   1.284090000  -0.839590000   0.017130000
| 23> H   1.032320000  -2.090180000  -0.841890000
| 24> O   1.737840000   0.885520000  -0.052730000
| 25> H   2.090180000   1.032320000   0.841890000
| 26> H   0.839590000   1.284090000  -0.017130000
| 27> O  -1.737840000  -0.885520000  -0.052730000
| 28> H  -2.090180000  -1.032320000   0.841890000
| 29> H  -0.839590000  -1.284090000  -0.017130000
| 30> O   0.741530000  -1.752130000   2.896280000
| 31> H   0.920500000  -2.036450000   1.984040000
| 32> H   1.242140000  -0.921210000   2.984230000
| 33> *
| 34>
| 35>                          ****END OF INPUT****

CARTESIAN COORDINATES (ANGSTROEM)
---------------------------------
  O      0.923410   -1.794470   -2.768350
  H      1.359750   -2.338250   -3.430940
  H      1.303000   -0.879480   -2.865760
  O     -0.885520    1.737840    0.052730
  H     -1.032320    2.090180   -0.841890
  H     -1.284090    0.839590    0.017130
  O      0.885520   -1.737840    0.052730
  H      1.284090   -0.839590    0.017130
  H      1.032320   -2.090180   -0.841890
  O      1.737840    0.885520   -0.052730
  H      2.090180    1.032320    0.841890
  H      0.839590    1.284090   -0.017130
  O     -1.737840   -0.885520   -0.052730
  H     -2.090180   -1.032320    0.841890
  H     -0.839590   -1.284090   -0.017130
  O      0.741530   -1.752130    2.896280
  H      0.920500   -2.036450    1.984040
  H      1.242140   -0.921210    2.984230

 Total Charge           Charge          ....    0
 Multiplicity           Mult            ....    1
 Number of Electrons    NEL             ....   60
 Basis Dimension        Dim             ....  258

ORBITAL ENERGIES
----------------

  NO   OCC          E(Eh)            E(eV)
   0   2.0000     -20.595513      -560.4324
   1   2.0000     -20.573540      -559.8345
   2   2.0000     -20.564088      -559.5773
   3   2.0000     -20.557512      -559.3983
   4   2.0000     -20.554095      -559.3054
   5   2.0000     -20.537020      -558.8407
   6   2.0000      -1.374693       -37.4073
   7   2.0000      -1.367465       -37.2106
   8   2.0000      -1.349312       -36.7166
   9   2.0000      -1.348661       -36.6989
  10   2.0000      -1.330437       -36.2030
  11   2.0000      -1.318235       -35.8710
  12   2.0000      -0.740656       -20.1543
  13   2.0000      -0.725895       -19.7526
  14   2.0000      -0.721689       -19.6382
  15   2.0000      -0.715084       -19.4584
  16   2.0000      -0.706357       -19.2210
  17   2.0000      -0.687341       -18.7035
  18   2.0000      -0.630287       -17.1510
  19   2.0000      -0.612179       -16.6582
  20   2.0000      -0.594927       -16.1888
  21   2.0000      -0.593118       -16.1396
  22   2.0000      -0.572831       -15.5875
  23   2.0000      -0.554362       -15.0850
  24   2.0000      -0.534052       -14.5323
  25   2.0000      -0.516406       -14.0521
  26   2.0000      -0.509814       -13.8727
  27   2.0000      -0.505092       -13.7443
  28   2.0000      -0.498153       -13.5554
  29   2.0000      -0.483324       -13.1519
  30   0.0000       0.095237         2.5915
  31   0.0000       0.118967         3.2373
  32   0.0000       0.146239         3.9794
  33   0.0000       0.164861         4.4861
  34   0.0000       0.188724         5.1354

MULLIKEN ATOMIC CHARGES
-----------------------
   0 O :   -0.697672
   1 H :    0.353712
   2 H :    0.361386
   3 O :   -0.717972
   4 H :    0.347049
   5 H :    0.371215
   6 O :   -0.755096
   7 H :    0.350570
   8 H :    0.383841
   9 O :   -0.718119
  10 H :    0.345793
  11 H :    0.370941
  12 O :   -0.721827
  13 H :    0.352903
  14 H :    0.379553
  15 O :   -0.694266
  16 H :    0.374573
  17 H :    0.313414
Sum of atomic charges:    0.0000000

LOEWDIN ATOMIC CHARGES
----------------------
   0 O :   -0.310110
   1 H :    0.164445
   2 H :    0.188095
   3 O :   -0.311439
   4 H :    0.165824
   5 H :    0.145770
   6 O :   -0.302732
   7 H :    0.138891
   8 H :    0.153383
   9 O :   -0.313006
  10 H :    0.164622
  11 H :    0.145460
  12 O :   -0.309617
  13 H :    0.168194
  14 H :    0.145964
  15 O :   -0.339742
  16 H :    0.151329
  17 H :    0.154668

  Mayer bond orders larger than 0.100000
B(  0-O ,  1-H ) :   0.8413 B(  0-O ,  2-H ) :   0.8297 B(  3-O ,  4-H ) :   0.8439
B(  3-O ,  5-H ) :   0.7580 B(  3-O , 11-H ) :   0.1176 B(  5-H , 12-O ) :   0.1174
B(  6-O ,  7-H ) :   0.7641 B(  6-O ,  8-H ) :   0.7990 B(  7-H ,  9-O ) :   0.1081
B(  9-O , 10-H ) :   0.8446 B(  9-O , 11-H ) :   0.7582 B( 12-O , 13-H ) :   0.8391
B( 12-O , 14-H ) :   0.7668 B( 15-O , 16-H ) :   0.8141 B( 15-O , 17-H ) :   0.8653

MP2 TOTAL ENERGY:     -457.938976239 Eh
FINAL SINGLE POINT ENERGY      -457.938976239195

DIPOLE MOMENT
-------------
                                X             Y             Z
Electronic contribution:     -0.25384      -0.20392      -0.18326
Nuclear contribution   :      1.24480       0.76395      -1.31870
                        -----------------------------------------
Total Dipole Moment    :      0.99096       0.56003      -1.50196
                        -----------------------------------------
Magnitude (a.u.)       :      1.88455
Magnitude (Debye)      :      4.79014

Rotational constants in cm-1:     0.045765     0.038987     0.032177
Rotational constants in MHz :  1371.999374  1168.788300   964.655957

                             ****ORCA TERMINATED NORMALLY****
TOTAL RUN TIME: 0 days 0 hours 1 minutes 6 seconds 230 msec
