                         Program Version 4.2.0 -  RELEASE  -
|  1> ! MP2 def2-TZVP EnGrad TightSCF FrozenCore
|  2>
|  3> %pal
|  4>     nprocs 12
|  5> end
|  6>
|  7> %maxcore 8000
|  8>
|  9> %scf
| 10>     ConvForced true
| 11> end
| 12>
| 13> *xyz 0 1
| 14> C    -3.780445     1.263327     0.514467
| 15> H    -4.487034     1.718437     1.213467
| 16> H    -4.150534     1.364826    -0.508304
| 17> H    -2.815661     1.778632     0.577371
| 18> C    -3.605000    -0.151804     0.830542
| 19> N    -3.445604    -1.271453     1.098923
| 20> C     0.535552     1.236369    -2.314975
| 21> H     0.532978     2.307720    -2.535471
| 22> H     0.974796     0.682774    -3.148541
| 23> H     1.139073     1.043772    -1.421444
| 24> C    -0.830849     0.776826    -2.085707
| 25> N    -1.914615     0.400214    -1.900575
| 26> C    -1.250236    -2.886319    -0.941050
| 27> H    -1.237878    -3.122465     0.126799
| 28> H    -1.470263    -3.792949    -1.510542
| 29> H    -2.030477    -2.140735    -1.121834
| 30> C     0.042644    -2.342892    -1.345331
| 31> N     1.064630    -1.890938    -1.666919
| 32> C     3.688488    -1.820628     0.167123
| 33> H     3.028324    -2.506314     0.706741
| 34> H     4.700702    -1.882365     0.574941
| 35> H     3.688814    -2.097054    -0.889693
| 36> C     3.177557    -0.460692     0.307327
| 37> N     2.779071     0.625376     0.423730
| 38> C    -0.230097    -0.152057     1.704191
| 39> H     0.500234     0.626871     1.933485
| 40> H    -1.110206    -0.042945     2.342530
| 41> H    -0.540009    -0.034885     0.658672
| 42> C     0.373775    -1.466491     1.899988
| 43> N     0.867165    -2.509719     2.040197
| 44> C     1.986820     3.773657     0.447673
| 45> H     2.012826     4.866007     0.465311
| 46> H     2.468652     3.404324    -0.461689
| 47> H     2.540914     3.371875     1.298891
| 48> C     0.604455     3.304174     0.494385
| 49> N    -0.496537     2.934185     0.522861
| 50> *
| 51>
| 52>                          ****END OF INPUT****

CARTESIAN COORDINATES (ANGSTROEM)
---------------------------------
  C     -3.780445    1.263327    0.514467
  H     -4.487034    1.718437    1.213467
  H     -4.150534    1.364826   -0.508304
  H     -2.815661    1.778632    0.577371
  C     -3.605000   -0.151804    0.830542
  N     -3.445604   -1.271453    1.098923
  C      0.535552    1.236369   -2.314975
  H      0.532978    2.307720   -2.535471
  H      0.974796    0.682774   -3.148541
  H      1.139073    1.043772   -1.421444
  C     -0.830849    0.776826   -2.085707
  N     -1.914615    0.400214   -1.900575
  C     -1.250236   -2.886319   -0.941050
  H     -1.237878   -3.122465    0.126799
  H     -1.470263   -3.792949   -1.510542
  H     -2.030477   -2.140735   -1.121834
  C      0.042644   -2.342892   -1.345331
  N      1.064630   -1.890938   -1.666919
  C      3.688488   -1.820628    0.167123
  H      3.028324   -2.506314    0.706741
  H      4.700702   -1.882365    0.574941
  H      3.688814   -2.097054   -0.889693
  C      3.177557   -0.460692    0.307327
  N      2.779071    0.625376    0.423730
  C     -0.230097   -0.152057    1.704191
  H      0.500234    0.626871    1.933485
  H     -1.110206   -0.042945    2.342530
  H     -0.540009   -0.034885    0.658672
  C      0.373775   -1.466491    1.899988
  N      0.867165   -2.509719    2.040197
  C      1.986820    3.773657    0.447673
  H      2.012826    4.866007    0.465311
  H      2.468652    3.404324   -0.461689
  H      2.540914    3.371875    1.298891
  C      0.604455    3.304174    0.494385
  N     -0.496537    2.934185    0.522861

 Total Charge           Charge          ....    0
 Multiplicity           Mult            ....    1
 Number of Electrons    NEL             ....  132
 Basis Dimension        Dim             ....  666

ORBITAL ENERGIES
----------------

  NO   OCC          E(Eh)            E(eV)
   0   2.0000     -15.581623      -423.9975
   1   2.0000     -15.571683      -423.7270
   2   2.0000     -15.565911      -423.5700
   3   2.0000     -15.562410      -423.4747
   4   2.0000     -15.559657      -423.3998
   5   2.0000     -15.558480      -423.3678
   6   2.0000     -11.293870      -307.3218
   7   2.0000     -11.289357      -307.1990
   8   2.0000     -11.284493      -307.0667
   9   2.0000     -11.280611      -306.9610
  10   2.0000     -11.277844      -306.8857
  11   2.0000     -11.272098      -306.7294
  12   2.0000     -11.270923      -306.6974
  13   2.0000     -11.267583      -306.6065
  14   2.0000     -11.265550      -306.5512
  15   2.0000     -11.258948      -306.3715
  16   2.0000     -11.256951      -306.3172
  17   2.0000     -11.255274      -306.2716
  18   2.0000      -1.230052       -33.4714
  19   2.0000      -1.222680       -33.2708
  20   2.0000      -1.216668       -33.1072
  21   2.0000      -1.211898       -32.9774
  22   2.0000      -1.207891       -32.8684
  23   2.0000      -1.206604       -32.8334
  24   2.0000      -1.041897       -28.3514
  25   2.0000      -1.027300       -27.9543
  26   2.0000      -1.026516       -27.9329
  27   2.0000      -1.017875       -27.6978
  28   2.0000      -1.017528       -27.6883
  29   2.0000      -1.015476       -27.6325
  30   2.0000      -0.702341       -19.1117
  31   2.0000      -0.689559       -18.7639
  32   2.0000      -0.686345       -18.6764
  33   2.0000      -0.679407       -18.4876
  34   2.0000      -0.678380       -18.4597
  35   2.0000      -0.675969       -18.3940
  36   2.0000      -0.636589       -17.3225
  37   2.0000      -0.630015       -17.1436
  38   2.0000      -0.625436       -17.0190
  39   2.0000      -0.620697       -16.8900
  40   2.0000      -0.617707       -16.8087
  41   2.0000      -0.616716       -16.7817
  42   2.0000      -0.610609       -16.6155
  43   2.0000      -0.609166       -16.5763
  44   2.0000      -0.606498       -16.5037
  45   2.0000      -0.600278       -16.3344
  46   2.0000      -0.599603       -16.3160
  47   2.0000      -0.593620       -16.1532
  48   2.0000      -0.568268       -15.4634
  49   2.0000      -0.562503       -15.3065
  50   2.0000      -0.554069       -15.0770
  51   2.0000      -0.552058       -15.0223
  52   2.0000      -0.547883       -14.9087
  53   2.0000      -0.545630       -14.8473
  54   2.0000      -0.473478       -12.8840
  55   2.0000      -0.472824       -12.8662
  56   2.0000      -0.469195       -12.7675
  57   2.0000      -0.463677       -12.6173
  58   2.0000      -0.461049       -12.5458
  59   2.0000      -0.457372       -12.4457
  60   2.0000      -0.456348       -12.4178
  61   2.0000      -0.454419       -12.3654
  62   2.0000      -0.451518       -12.2864
  63   2.0000      -0.445932       -12.1344
  64   2.0000      -0.443507       -12.0684
  65   2.0000      -0.442849       -12.0505
  66   0.0000       0.116073         3.1585
  67   0.0000       0.142050         3.8654
  68   0.0000       0.147428         4.0117
  69   0.0000       0.151569         4.1244
  70   0.0000       0.157302         4.2804

MULLIKEN ATOMIC CHARGES
-----------------------
   0 C :   -0.255248
   1 H :    0.165937
   2 H :    0.173988
   3 H :    0.179999
   4 C :   -0.139998
   5 N :   -0.131887
   6 C :   -0.254746
   7 H :    0.167186
   8 H :    0.179482
   9 H :    0.171190
  10 C :   -0.099961
  11 N :   -0.166789
  12 C :   -0.303168
  13 H :    0.199216
  14 H :    0.167965
  15 H :    0.205611
  16 C :   -0.078771
  17 N :   -0.187730
  18 C :   -0.281620
  19 H :    0.202245
  20 H :    0.166714
  21 H :    0.182188
  22 C :   -0.061894
  23 N :   -0.201759
  24 C :   -0.284975
  25 H :    0.181902
  26 H :    0.182913
  27 H :    0.153331
  28 C :   -0.114403
  29 N :   -0.131910
  30 C :   -0.248334
  31 H :    0.177241
  32 H :    0.169522
  33 H :    0.178358
  34 C :   -0.129522
  35 N :   -0.132274
Sum of atomic charges:   -0.0000000

LOEWDIN ATOMIC CHARGES
----------------------
   0 C :   -0.289754
   1 H :    0.145650
   2 H :    0.153380
   3 H :    0.152946
   4 C :   -0.217358
   5 N :    0.029924
   6 C :   -0.286068
   7 H :    0.147234
   8 H :    0.153759
   9 H :    0.154349
  10 C :   -0.205801
  11 N :    0.039082
  12 C :   -0.279278
  13 H :    0.157176
  14 H :    0.149209
  15 H :    0.156864
  16 C :   -0.198723
  17 N :    0.032828
  18 C :   -0.280779
  19 H :    0.158505
  20 H :    0.147109
  21 H :    0.154487
  22 C :   -0.192171
  23 N :    0.019200
  24 C :   -0.284381
  25 H :    0.150510
  26 H :    0.152442
  27 H :    0.154139
  28 C :   -0.207679
  29 N :    0.029955
  30 C :   -0.284072
  31 H :    0.148116
  32 H :    0.151432
  33 H :    0.154857
  34 C :   -0.207055
  35 N :    0.039966

  Mayer bond orders larger than 0.100000
B(  0-C ,  1-H ) :   0.9130 B(  0-C ,  2-H ) :   0.9143 B(  0-C ,  3-H ) :   0.9115
B(  0-C ,  4-C ) :   0.8933 B(  4-C ,  5-N ) :   2.7862 B(  6-C ,  7-H ) :   0.9156
B(  6-C ,  8-H ) :   0.9071 B(  6-C ,  9-H ) :   0.9094 B(  6-C , 10-C ) :   0.9115
B( 10-C , 11-N ) :   2.7229 B( 12-C , 13-H ) :   0.9100 B( 12-C , 14-H ) :   0.9113
B( 12-C , 15-H ) :   0.9051 B( 12-C , 16-C ) :   0.8851 B( 16-C , 17-N ) :   2.7211
B( 18-C , 19-H ) :   0.9054 B( 18-C , 20-H ) :   0.9095 B( 18-C , 21-H ) :   0.9139
B( 18-C , 22-C ) :   0.8929 B( 22-C , 23-N ) :   2.7227 B( 24-C , 25-H ) :   0.9038
B( 24-C , 26-H ) :   0.9051 B( 24-C , 27-H ) :   0.9126 B( 24-C , 28-C ) :   0.9264
B( 28-C , 29-N ) :   2.7711 B( 30-C , 31-H ) :   0.9076 B( 30-C , 32-H ) :   0.9178
B( 30-C , 33-H ) :   0.9147 B( 30-C , 34-C ) :   0.9000 B( 34-C , 35-N ) :   2.7484

MP2 TOTAL ENERGY:     -794.953495944 Eh
FINAL SINGLE POINT ENERGY      -794.953495944145

DIPOLE MOMENT
-------------
                                X             Y             Z
Electronic contribution:     -2.47445      -3.80288       1.11487
Nuclear contribution   :      3.76262       5.57115      -1.70720
                        -----------------------------------------
Total Dipole Moment    :      1.28817       1.76828      -0.59233
                        -----------------------------------------
Magnitude (a.u.)       :      2.26650
Magnitude (Debye)      :      5.76099

Rotational constants in cm-1:     0.011783     0.010363     0.007844
Rotational constants in MHz :   353.231004   310.666748   235.154042

                             ****ORCA TERMINATED NORMALLY****
TOTAL RUN TIME: 0 days 0 hours 35 minutes 47 seconds 20 msec
