                         Program Version 4.2.0 -  RELEASE  -
|  1> # 12h2o.su.etal.mol0,1,2,3,4,6,7,10,11
|  2> ! MP2 def2-TZVP EnGrad TightSCF
|  3>
|  4> %pal
|  5>     nprocs 6
|  6> end
|  7>
|  8> %maxcore 8000
|  9>
| 10> %scf
| 11>     ConvForced true
| 12> end
| 13>
| 14> *xyz 0 1
| 15> O   1.794470000   0.923410000   2.768350000
| 16> H   2.338250000   1.359750000   3.430940000
| 17> H   0.879480000   1.303000000   2.865760000
| 18> O  -1.794470000  -0.923410000   2.768350000
| 19> H  -2.338250000  -1.359750000   3.430940000
| 20> H  -0.879480000  -1.303000000   2.865760000
| 21> O   0.923410000  -1.794470000  -2.768350000
| 22> H   1.359750000  -2.338250000  -3.430940000
| 23> H   1.303000000  -0.879480000  -2.865760000
| 24> O  -1.752130000  -0.741530000  -2.896280000
| 25> H  -2.036450000  -0.920500000  -1.984040000
| 26> H  -0.921210000  -1.242140000  -2.984230000
| 27> O  -0.885520000   1.737840000   0.052730000
| 28> H  -1.032320000   2.090180000  -0.841890000
| 29> H  -1.284090000   0.839590000   0.017130000
| 30> O   1.737840000   0.885520000  -0.052730000
| 31> H   2.090180000   1.032320000   0.841890000
| 32> H   0.839590000   1.284090000  -0.017130000
| 33> O  -1.737840000  -0.885520000  -0.052730000
| 34> H  -2.090180000  -1.032320000   0.841890000
| 35> H  -0.839590000  -1.284090000  -0.017130000
| 36> O  -0.923410000   1.794470000  -2.768350000
| 37> H  -1.359750000   2.338250000  -3.430940000
| 38> H  -1.303000000   0.879480000  -2.865760000
| 39> O  -0.741530000   1.752130000   2.896280000
| 40> H  -0.920500000   2.036450000   1.984040000
| 41> H  -1.242140000   0.921210000   2.984230000
| 42> *
| 43>
| 44>                          ****END OF INPUT****

CARTESIAN COORDINATES (ANGSTROEM)
---------------------------------
  O      1.794470    0.923410    2.768350
  H      2.338250    1.359750    3.430940
  H      0.879480    1.303000    2.865760
  O     -1.794470   -0.923410    2.768350
  H     -2.338250   -1.359750    3.430940
  H     -0.879480   -1.303000    2.865760
  O      0.923410   -1.794470   -2.768350
  H      1.359750   -2.338250   -3.430940
  H      1.303000   -0.879480   -2.865760
  O     -1.752130   -0.741530   -2.896280
  H     -2.036450   -0.920500   -1.984040
  H     -0.921210   -1.242140   -2.984230
  O     -0.885520    1.737840    0.052730
  H     -1.032320    2.090180   -0.841890
  H     -1.284090    0.839590    0.017130
  O      1.737840    0.885520   -0.052730
  H      2.090180    1.032320    0.841890
  H      0.839590    1.284090   -0.017130
  O     -1.737840   -0.885520   -0.052730
  H     -2.090180   -1.032320    0.841890
  H     -0.839590   -1.284090   -0.017130
  O     -0.923410    1.794470   -2.768350
  H     -1.359750    2.338250   -3.430940
  H     -1.303000    0.879480   -2.865760
  O     -0.741530    1.752130    2.896280
  H     -0.920500    2.036450    1.984040
  H     -1.242140    0.921210    2.984230

 Total Charge           Charge          ....    0
 Multiplicity           Mult            ....    1
 Number of Electrons    NEL             ....   90
 Basis Dimension        Dim             ....  387

ORBITAL ENERGIES
----------------

  NO   OCC          E(Eh)            E(eV)
   0   2.0000     -20.630037      -561.3719
   1   2.0000     -20.595614      -560.4351
   2   2.0000     -20.582227      -560.0709
   3   2.0000     -20.550308      -559.2023
   4   2.0000     -20.548777      -559.1606
   5   2.0000     -20.538705      -558.8866
   6   2.0000     -20.532972      -558.7306
   7   2.0000     -20.527057      -558.5696
   8   2.0000     -20.481407      -557.3274
   9   2.0000      -1.410881       -38.3920
  10   2.0000      -1.381889       -37.6031
  11   2.0000      -1.360886       -37.0316
  12   2.0000      -1.344740       -36.5922
  13   2.0000      -1.342620       -36.5345
  14   2.0000      -1.329534       -36.1785
  15   2.0000      -1.312644       -35.7189
  16   2.0000      -1.310141       -35.6507
  17   2.0000      -1.265303       -34.4306
  18   2.0000      -0.775987       -21.1157
  19   2.0000      -0.746128       -20.3032
  20   2.0000      -0.728146       -19.8139
  21   2.0000      -0.712966       -19.4008
  22   2.0000      -0.707413       -19.2497
  23   2.0000      -0.701658       -19.0931
  24   2.0000      -0.698289       -19.0014
  25   2.0000      -0.693707       -18.8767
  26   2.0000      -0.655622       -17.8404
  27   2.0000      -0.647402       -17.6167
  28   2.0000      -0.627481       -17.0746
  29   2.0000      -0.609460       -16.5842
  30   2.0000      -0.601940       -16.3796
  31   2.0000      -0.582775       -15.8581
  32   2.0000      -0.576754       -15.6943
  33   2.0000      -0.568197       -15.4614
  34   2.0000      -0.550528       -14.9806
  35   2.0000      -0.546259       -14.8645
  36   2.0000      -0.533298       -14.5118
  37   2.0000      -0.522574       -14.2199
  38   2.0000      -0.517650       -14.0860
  39   2.0000      -0.493138       -13.4190
  40   2.0000      -0.490923       -13.3587
  41   2.0000      -0.482613       -13.1326
  42   2.0000      -0.478763       -13.0278
  43   2.0000      -0.469221       -12.7682
  44   2.0000      -0.432781       -11.7766
  45   0.0000       0.084550         2.3007
  46   0.0000       0.119235         3.2445
  47   0.0000       0.149630         4.0717
  48   0.0000       0.158530         4.3138
  49   0.0000       0.166958         4.5432

MULLIKEN ATOMIC CHARGES
-----------------------
   0 O :   -0.743835
   1 H :    0.330675
   2 H :    0.368514
   3 O :   -0.725908
   4 H :    0.371422
   5 H :    0.381532
   6 O :   -0.710037
   7 H :    0.351614
   8 H :    0.383106
   9 O :   -0.717822
  10 H :    0.381017
  11 H :    0.366533
  12 O :   -0.753444
  13 H :    0.384674
  14 H :    0.353357
  15 O :   -0.752044
  16 H :    0.358703
  17 H :    0.349901
  18 O :   -0.732009
  19 H :    0.386041
  20 H :    0.370306
  21 O :   -0.738710
  22 H :    0.333119
  23 H :    0.371285
  24 O :   -0.716369
  25 H :    0.390597
  26 H :    0.357781
Sum of atomic charges:   -0.0000000

LOEWDIN ATOMIC CHARGES
----------------------
   0 O :   -0.347194
   1 H :    0.150156
   2 H :    0.142295
   3 O :   -0.288163
   4 H :    0.171516
   5 H :    0.196473
   6 O :   -0.313482
   7 H :    0.163608
   8 H :    0.196584
   9 O :   -0.287351
  10 H :    0.153919
  11 H :    0.149981
  12 O :   -0.304486
  13 H :    0.154222
  14 H :    0.139085
  15 O :   -0.379043
  16 H :    0.143090
  17 H :    0.134436
  18 O :   -0.283110
  19 H :    0.155780
  20 H :    0.181967
  21 O :   -0.341719
  22 H :    0.152126
  23 H :    0.143419
  24 O :   -0.286909
  25 H :    0.157346
  26 H :    0.145455

  Mayer bond orders larger than 0.100000
B(  0-O ,  1-H ) :   0.8536 B(  0-O ,  2-H ) :   0.7536 B(  2-H , 24-O ) :   0.1084
B(  3-O ,  4-H ) :   0.8281 B(  3-O ,  5-H ) :   0.8116 B(  6-O ,  7-H ) :   0.8421
B(  6-O ,  8-H ) :   0.8120 B(  9-O , 10-H ) :   0.8112 B(  9-O , 11-H ) :   0.8009
B(  9-O , 23-H ) :   0.1112 B( 12-O , 13-H ) :   0.7882 B( 12-O , 14-H ) :   0.7833
B( 15-O , 16-H ) :   0.8215 B( 15-O , 17-H ) :   0.8023 B( 18-O , 19-H ) :   0.7980
B( 18-O , 20-H ) :   0.8176 B( 21-O , 22-H ) :   0.8526 B( 21-O , 23-H ) :   0.7508
B( 24-O , 25-H ) :   0.7936 B( 24-O , 26-H ) :   0.8214

MP2 TOTAL ENERGY:     -686.915473171 Eh
FINAL SINGLE POINT ENERGY      -686.915473171081

DIPOLE MOMENT
-------------
                                X             Y             Z
Electronic contribution:     -0.44844      -0.35095      -0.04244
Nuclear contribution   :     -0.56463      -1.47502       0.77428
                        -----------------------------------------
Total Dipole Moment    :     -1.01307      -1.82597       0.73183
                        -----------------------------------------
Magnitude (a.u.)       :      2.21270
Magnitude (Debye)      :      5.62425

Rotational constants in cm-1:     0.029716     0.014781     0.013744
Rotational constants in MHz :   890.870759   443.129243   412.037433

                             ****ORCA TERMINATED NORMALLY****
TOTAL RUN TIME: 0 days 0 hours 4 minutes 40 seconds 876 msec
