                         Program Version 4.2.0 -  RELEASE  -
|  1> # 12h2o.su.etal.mol0,1,2,3,5,7,8,9
|  2> ! MP2 def2-TZVP EnGrad TightSCF
|  3>
|  4> %pal
|  5>     nprocs 6
|  6> end
|  7>
|  8> %maxcore 8000
|  9>
| 10> %scf
| 11>     ConvForced true
| 12> end
| 13>
| 14> *xyz 0 1
| 15> O   1.794470000   0.923410000   2.768350000
| 16> H   2.338250000   1.359750000   3.430940000
| 17> H   0.879480000   1.303000000   2.865760000
| 18> O  -1.794470000  -0.923410000   2.768350000
| 19> H  -2.338250000  -1.359750000   3.430940000
| 20> H  -0.879480000  -1.303000000   2.865760000
| 21> O   0.923410000  -1.794470000  -2.768350000
| 22> H   1.359750000  -2.338250000  -3.430940000
| 23> H   1.303000000  -0.879480000  -2.865760000
| 24> O  -1.752130000  -0.741530000  -2.896280000
| 25> H  -2.036450000  -0.920500000  -1.984040000
| 26> H  -0.921210000  -1.242140000  -2.984230000
| 27> O   0.885520000  -1.737840000   0.052730000
| 28> H   1.284090000  -0.839590000   0.017130000
| 29> H   1.032320000  -2.090180000  -0.841890000
| 30> O  -1.737840000  -0.885520000  -0.052730000
| 31> H  -2.090180000  -1.032320000   0.841890000
| 32> H  -0.839590000  -1.284090000  -0.017130000
| 33> O   1.752130000   0.741530000  -2.896280000
| 34> H   2.036450000   0.920500000  -1.984040000
| 35> H   0.921210000   1.242140000  -2.984230000
| 36> O   0.741530000  -1.752130000   2.896280000
| 37> H   0.920500000  -2.036450000   1.984040000
| 38> H   1.242140000  -0.921210000   2.984230000
| 39> *
| 40>
| 41>                          ****END OF INPUT****

CARTESIAN COORDINATES (ANGSTROEM)
---------------------------------
  O      1.794470    0.923410    2.768350
  H      2.338250    1.359750    3.430940
  H      0.879480    1.303000    2.865760
  O     -1.794470   -0.923410    2.768350
  H     -2.338250   -1.359750    3.430940
  H     -0.879480   -1.303000    2.865760
  O      0.923410   -1.794470   -2.768350
  H      1.359750   -2.338250   -3.430940
  H      1.303000   -0.879480   -2.865760
  O     -1.752130   -0.741530   -2.896280
  H     -2.036450   -0.920500   -1.984040
  H     -0.921210   -1.242140   -2.984230
  O      0.885520   -1.737840    0.052730
  H      1.284090   -0.839590    0.017130
  H      1.032320   -2.090180   -0.841890
  O     -1.737840   -0.885520   -0.052730
  H     -2.090180   -1.032320    0.841890
  H     -0.839590   -1.284090   -0.017130
  O      1.752130    0.741530   -2.896280
  H      2.036450    0.920500   -1.984040
  H      0.921210    1.242140   -2.984230
  O      0.741530   -1.752130    2.896280
  H      0.920500   -2.036450    1.984040
  H      1.242140   -0.921210    2.984230

 Total Charge           Charge          ....    0
 Multiplicity           Mult            ....    1
 Number of Electrons    NEL             ....   80
 Basis Dimension        Dim             ....  344

ORBITAL ENERGIES
----------------

  NO   OCC          E(Eh)            E(eV)
   0   2.0000     -20.615660      -560.9806
   1   2.0000     -20.606409      -560.7289
   2   2.0000     -20.590894      -560.3067
   3   2.0000     -20.575821      -559.8965
   4   2.0000     -20.555212      -559.3358
   5   2.0000     -20.532871      -558.7278
   6   2.0000     -20.506718      -558.0162
   7   2.0000     -20.493155      -557.6471
   8   2.0000      -1.402043       -38.1515
   9   2.0000      -1.384528       -37.6749
  10   2.0000      -1.379292       -37.5324
  11   2.0000      -1.359296       -36.9883
  12   2.0000      -1.347524       -36.6680
  13   2.0000      -1.316619       -35.8270
  14   2.0000      -1.294084       -35.2138
  15   2.0000      -1.277061       -34.7506
  16   2.0000      -0.757770       -20.6200
  17   2.0000      -0.751429       -20.4474
  18   2.0000      -0.745404       -20.2835
  19   2.0000      -0.739768       -20.1301
  20   2.0000      -0.712810       -19.3965
  21   2.0000      -0.699730       -19.0406
  22   2.0000      -0.676475       -18.4078
  23   2.0000      -0.658875       -17.9289
  24   2.0000      -0.646203       -17.5841
  25   2.0000      -0.632306       -17.2059
  26   2.0000      -0.618820       -16.8390
  27   2.0000      -0.599857       -16.3229
  28   2.0000      -0.584951       -15.9173
  29   2.0000      -0.574697       -15.6383
  30   2.0000      -0.554091       -15.0776
  31   2.0000      -0.550043       -14.9674
  32   2.0000      -0.542352       -14.7581
  33   2.0000      -0.530051       -14.4234
  34   2.0000      -0.513982       -13.9862
  35   2.0000      -0.504335       -13.7236
  36   2.0000      -0.496800       -13.5186
  37   2.0000      -0.479581       -13.0501
  38   2.0000      -0.458624       -12.4798
  39   2.0000      -0.442967       -12.0538
  40   0.0000       0.077485         2.1085
  41   0.0000       0.106019         2.8849
  42   0.0000       0.142842         3.8869
  43   0.0000       0.154428         4.2022
  44   0.0000       0.164118         4.4659

MULLIKEN ATOMIC CHARGES
-----------------------
   0 O :   -0.711489
   1 H :    0.359582
   2 H :    0.373783
   3 O :   -0.742661
   4 H :    0.332862
   5 H :    0.369614
   6 O :   -0.748668
   7 H :    0.353554
   8 H :    0.381378
   9 O :   -0.737849
  10 H :    0.374611
  11 H :    0.339648
  12 O :   -0.718771
  13 H :    0.339473
  14 H :    0.391641
  15 O :   -0.747681
  16 H :    0.368485
  17 H :    0.340333
  18 O :   -0.683603
  19 H :    0.351977
  20 H :    0.382379
  21 O :   -0.716462
  22 H :    0.385038
  23 H :    0.362826
Sum of atomic charges:    0.0000000

LOEWDIN ATOMIC CHARGES
----------------------
   0 O :   -0.314961
   1 H :    0.166934
   2 H :    0.193314
   3 O :   -0.345454
   4 H :    0.151538
   5 H :    0.142554
   6 O :   -0.311385
   7 H :    0.160910
   8 H :    0.145797
   9 O :   -0.361415
  10 H :    0.151624
  11 H :    0.136598
  12 O :   -0.282605
  13 H :    0.168649
  14 H :    0.157499
  15 O :   -0.351375
  16 H :    0.148368
  17 H :    0.135721
  18 O :   -0.266015
  19 H :    0.170551
  20 H :    0.185994
  21 O :   -0.286359
  22 H :    0.155334
  23 H :    0.148184

  Mayer bond orders larger than 0.100000
B(  0-O ,  1-H ) :   0.8377 B(  0-O ,  2-H ) :   0.8202 B(  3-O ,  4-H ) :   0.8526
B(  3-O ,  5-H ) :   0.7539 B(  5-H , 21-O ) :   0.1082 B(  6-O ,  7-H ) :   0.8389
B(  6-O ,  8-H ) :   0.7510 B(  9-O , 10-H ) :   0.8106 B(  9-O , 11-H ) :   0.8353
B( 12-O , 13-H ) :   0.8388 B( 12-O , 14-H ) :   0.7839 B( 15-O , 16-H ) :   0.8086
B( 15-O , 17-H ) :   0.8012 B( 18-O , 19-H ) :   0.8408 B( 18-O , 20-H ) :   0.8163
B( 21-O , 22-H ) :   0.8064 B( 21-O , 23-H ) :   0.8091

MP2 TOTAL ENERGY:     -610.581255123 Eh
FINAL SINGLE POINT ENERGY      -610.581255123478

DIPOLE MOMENT
-------------
                                X             Y             Z
Electronic contribution:      0.42832       0.16191      -0.21633
Nuclear contribution   :      2.15314       0.76440       1.31870
                        -----------------------------------------
Total Dipole Moment    :      2.58146       0.92630       1.10237
                        -----------------------------------------
Magnitude (a.u.)       :      2.95588
Magnitude (Debye)      :      7.51324

Rotational constants in cm-1:     0.035712     0.016852     0.013880
Rotational constants in MHz :  1070.614726   505.205904   416.113487

                             ****ORCA TERMINATED NORMALLY****
TOTAL RUN TIME: 0 days 0 hours 2 minutes 57 seconds 752 msec
