                         Program Version 4.2.0 -  RELEASE  -
|  1> # 12meoh.boyd.etal.mol0,7,9
|  2> ! MP2 def2-TZVP EnGrad TightSCF
|  3>
|  4> %pal
|  5>     nprocs 6
|  6> end
|  7>
|  8> %maxcore 8000
|  9>
| 10> %scf
| 11>     ConvForced true
| 12> end
| 13>
| 14> *xyz 0 1
| 15> O  -1.776108874  -2.741384797  -1.019308298
| 16> H  -2.520094035  -2.452295987  -0.420778302
| 17> C  -2.174025166  -3.952700964  -1.647004581
| 18> H  -1.359803895  -4.272673416  -2.304149236
| 19> H  -3.075973971  -3.808692420  -2.256751112
| 20> H  -2.370225393  -4.752784761  -0.918966137
| 21> O   4.310535586  -1.588322800   0.656128299
| 22> H   3.804372199  -1.630404735  -0.196849819
| 23> C   4.312298137  -2.894980854   1.222112691
| 24> H   4.713177833  -2.819907076   2.237066773
| 25> H   4.957796734  -3.574699304   0.648211180
| 26> H   3.302735989  -3.324433205   1.269756773
| 27> O   1.390610024   3.194080770  -1.536658882
| 28> H   2.162932299   2.881562730  -0.993525056
| 29> C   1.202977189   4.580367182  -1.302880219
| 30> H   0.374773115   4.915764831  -1.934164643
| 31> H   2.098649340   5.157710875  -1.570472348
| 32> H   0.950320401   4.800436015  -0.254328827
| 33> *
| 34>
| 35>                          ****END OF INPUT****

CARTESIAN COORDINATES (ANGSTROEM)
---------------------------------
  O     -1.776109   -2.741385   -1.019308
  H     -2.520094   -2.452296   -0.420778
  C     -2.174025   -3.952701   -1.647005
  H     -1.359804   -4.272673   -2.304149
  H     -3.075974   -3.808692   -2.256751
  H     -2.370225   -4.752785   -0.918966
  O      4.310536   -1.588323    0.656128
  H      3.804372   -1.630405   -0.196850
  C      4.312298   -2.894981    1.222113
  H      4.713178   -2.819907    2.237067
  H      4.957797   -3.574699    0.648211
  H      3.302736   -3.324433    1.269757
  O      1.390610    3.194081   -1.536659
  H      2.162932    2.881563   -0.993525
  C      1.202977    4.580367   -1.302880
  H      0.374773    4.915765   -1.934165
  H      2.098649    5.157711   -1.570472
  H      0.950320    4.800436   -0.254329

 Total Charge           Charge          ....    0
 Multiplicity           Mult            ....    1
 Number of Electrons    NEL             ....   54
 Basis Dimension        Dim             ....  258

ORBITAL ENERGIES
----------------

  NO   OCC          E(Eh)            E(eV)
   0   2.0000     -20.558200      -559.4171
   1   2.0000     -20.553858      -559.2989
   2   2.0000     -20.552727      -559.2681
   3   2.0000     -11.272053      -306.7282
   4   2.0000     -11.268335      -306.6270
   5   2.0000     -11.267520      -306.6048
   6   2.0000      -1.347346       -36.6632
   7   2.0000      -1.343585       -36.5608
   8   2.0000      -1.343477       -36.5579
   9   2.0000      -0.919561       -25.0225
  10   2.0000      -0.916247       -24.9323
  11   2.0000      -0.915347       -24.9079
  12   2.0000      -0.681905       -18.5556
  13   2.0000      -0.678386       -18.4598
  14   2.0000      -0.678269       -18.4566
  15   2.0000      -0.617694       -16.8083
  16   2.0000      -0.613556       -16.6957
  17   2.0000      -0.612782       -16.6746
  18   2.0000      -0.591592       -16.0980
  19   2.0000      -0.587966       -15.9994
  20   2.0000      -0.587635       -15.9904
  21   2.0000      -0.500695       -13.6246
  22   2.0000      -0.497687       -13.5428
  23   2.0000      -0.494942       -13.4681
  24   2.0000      -0.449232       -12.2242
  25   2.0000      -0.445704       -12.1282
  26   2.0000      -0.444086       -12.0842
  27   0.0000       0.131588         3.5807
  28   0.0000       0.135261         3.6806
  29   0.0000       0.146393         3.9836
  30   0.0000       0.175414         4.7733
  31   0.0000       0.175809         4.7840

MULLIKEN ATOMIC CHARGES
-----------------------
   0 O :   -0.495268
   1 H :    0.322548
   2 C :   -0.173538
   3 H :    0.127610
   4 H :    0.110294
   5 H :    0.108371
   6 O :   -0.500495
   7 H :    0.324687
   8 C :   -0.174308
   9 H :    0.127053
  10 H :    0.108154
  11 H :    0.114911
  12 O :   -0.497692
  13 H :    0.324168
  14 C :   -0.170399
  15 H :    0.127709
  16 H :    0.108153
  17 H :    0.108043
Sum of atomic charges:   -0.0000000

LOEWDIN ATOMIC CHARGES
----------------------
   0 O :   -0.108622
   1 H :    0.193033
   2 C :   -0.384709
   3 H :    0.109907
   4 H :    0.095538
   5 H :    0.094862
   6 O :   -0.110831
   7 H :    0.190796
   8 C :   -0.381263
   9 H :    0.109269
  10 H :    0.095042
  11 H :    0.096988
  12 O :   -0.105587
  13 H :    0.191655
  14 C :   -0.386102
  15 H :    0.109976
  16 H :    0.094945
  17 H :    0.095103

  Mayer bond orders larger than 0.100000
B(  0-O ,  1-H ) :   0.8412 B(  0-O ,  2-C ) :   0.9279 B(  2-C ,  3-H ) :   0.9376
B(  2-C ,  4-H ) :   0.9399 B(  2-C ,  5-H ) :   0.9379 B(  6-O ,  7-H ) :   0.8414
B(  6-O ,  8-C ) :   0.9265 B(  8-C ,  9-H ) :   0.9378 B(  8-C , 10-H ) :   0.9383
B(  8-C , 11-H ) :   0.9401 B( 12-O , 13-H ) :   0.8404 B( 12-O , 14-C ) :   0.9292
B( 14-C , 15-H ) :   0.9376 B( 14-C , 16-H ) :   0.9401 B( 14-C , 17-H ) :   0.9375

MP2 TOTAL ENERGY:     -346.520332946 Eh
FINAL SINGLE POINT ENERGY      -346.520332946446

DIPOLE MOMENT
-------------
                                X             Y             Z
Electronic contribution:      0.80879       1.45185      -0.25496
Nuclear contribution   :     -1.35705      -1.95736       0.49830
                        -----------------------------------------
Total Dipole Moment    :     -0.54826      -0.50551       0.24334
                        -----------------------------------------
Magnitude (a.u.)       :      0.78444
Magnitude (Debye)      :      1.99389

Rotational constants in cm-1:     0.023474     0.015707     0.009548
Rotational constants in MHz :   703.745643   470.885691   286.236888

                             ****ORCA TERMINATED NORMALLY****
TOTAL RUN TIME: 0 days 0 hours 0 minutes 40 seconds 280 msec
