                         Program Version 4.2.0 -  RELEASE  -
|  1> # 12h2o.su.etal.mol1,3,5,9,10
|  2> ! MP2 def2-TZVP EnGrad TightSCF
|  3>
|  4> %pal
|  5>     nprocs 6
|  6> end
|  7>
|  8> %maxcore 8000
|  9>
| 10> %scf
| 11>     ConvForced true
| 12> end
| 13>
| 14> *xyz 0 1
| 15> O  -1.794470000  -0.923410000   2.768350000
| 16> H  -2.338250000  -1.359750000   3.430940000
| 17> H  -0.879480000  -1.303000000   2.865760000
| 18> O  -1.752130000  -0.741530000  -2.896280000
| 19> H  -2.036450000  -0.920500000  -1.984040000
| 20> H  -0.921210000  -1.242140000  -2.984230000
| 21> O   0.885520000  -1.737840000   0.052730000
| 22> H   1.284090000  -0.839590000   0.017130000
| 23> H   1.032320000  -2.090180000  -0.841890000
| 24> O   0.741530000  -1.752130000   2.896280000
| 25> H   0.920500000  -2.036450000   1.984040000
| 26> H   1.242140000  -0.921210000   2.984230000
| 27> O  -0.923410000   1.794470000  -2.768350000
| 28> H  -1.359750000   2.338250000  -3.430940000
| 29> H  -1.303000000   0.879480000  -2.865760000
| 30> *
| 31>
| 32>                          ****END OF INPUT****

CARTESIAN COORDINATES (ANGSTROEM)
---------------------------------
  O     -1.794470   -0.923410    2.768350
  H     -2.338250   -1.359750    3.430940
  H     -0.879480   -1.303000    2.865760
  O     -1.752130   -0.741530   -2.896280
  H     -2.036450   -0.920500   -1.984040
  H     -0.921210   -1.242140   -2.984230
  O      0.885520   -1.737840    0.052730
  H      1.284090   -0.839590    0.017130
  H      1.032320   -2.090180   -0.841890
  O      0.741530   -1.752130    2.896280
  H      0.920500   -2.036450    1.984040
  H      1.242140   -0.921210    2.984230
  O     -0.923410    1.794470   -2.768350
  H     -1.359750    2.338250   -3.430940
  H     -1.303000    0.879480   -2.865760

 Total Charge           Charge          ....    0
 Multiplicity           Mult            ....    1
 Number of Electrons    NEL             ....   50
 Basis Dimension        Dim             ....  215

ORBITAL ENERGIES
----------------

  NO   OCC          E(Eh)            E(eV)
   0   2.0000     -20.606918      -560.7428
   1   2.0000     -20.600527      -560.5689
   2   2.0000     -20.572997      -559.8197
   3   2.0000     -20.519955      -558.3764
   4   2.0000     -20.508307      -558.0594
   5   2.0000      -1.385977       -37.7143
   6   2.0000      -1.385507       -37.7016
   7   2.0000      -1.360358       -37.0172
   8   2.0000      -1.302384       -35.4397
   9   2.0000      -1.290534       -35.1172
  10   2.0000      -0.748989       -20.3810
  11   2.0000      -0.743138       -20.2218
  12   2.0000      -0.721936       -19.6449
  13   2.0000      -0.693644       -18.8750
  14   2.0000      -0.679640       -18.4940
  15   2.0000      -0.631475       -17.1833
  16   2.0000      -0.620380       -16.8814
  17   2.0000      -0.592096       -16.1118
  18   2.0000      -0.560808       -15.2604
  19   2.0000      -0.550233       -14.9726
  20   2.0000      -0.541959       -14.7474
  21   2.0000      -0.517104       -14.0711
  22   2.0000      -0.498895       -13.5756
  23   2.0000      -0.470316       -12.7980
  24   2.0000      -0.458837       -12.4856
  25   0.0000       0.074226         2.0198
  26   0.0000       0.123415         3.3583
  27   0.0000       0.152753         4.1566
  28   0.0000       0.169525         4.6130
  29   0.0000       0.180454         4.9104

MULLIKEN ATOMIC CHARGES
-----------------------
   0 O :   -0.734777
   1 H :    0.321218
   2 H :    0.367287
   3 O :   -0.675103
   4 H :    0.370788
   5 H :    0.345287
   6 O :   -0.692009
   7 H :    0.357676
   8 H :    0.346049
   9 O :   -0.690235
  10 H :    0.383109
  11 H :    0.343326
  12 O :   -0.733573
  13 H :    0.327064
  14 H :    0.363894
Sum of atomic charges:    0.0000000

LOEWDIN ATOMIC CHARGES
----------------------
   0 O :   -0.374232
   1 H :    0.146448
   2 H :    0.142029
   3 O :   -0.268447
   4 H :    0.179613
   5 H :    0.169744
   6 O :   -0.315048
   7 H :    0.181134
   8 H :    0.168578
   9 O :   -0.275435
  10 H :    0.158772
  11 H :    0.169246
  12 O :   -0.373069
  13 H :    0.149402
  14 H :    0.141264

  Mayer bond orders larger than 0.100000
B(  0-O ,  1-H ) :   0.8627 B(  0-O ,  2-H ) :   0.7832 B(  3-O ,  4-H ) :   0.8285
B(  3-O ,  5-H ) :   0.8439 B(  6-O ,  7-H ) :   0.8344 B(  6-O ,  8-H ) :   0.8443
B(  9-O , 10-H ) :   0.8056 B(  9-O , 11-H ) :   0.8459 B( 12-O , 13-H ) :   0.8599
B( 12-O , 14-H ) :   0.7899

MP2 TOTAL ENERGY:     -381.586699228 Eh
FINAL SINGLE POINT ENERGY      -381.586699228408

DIPOLE MOMENT
-------------
                                X             Y             Z
Electronic contribution:      0.03309      -0.28886      -0.02686
Nuclear contribution   :      1.10440      -0.64442      -0.77428
                        -----------------------------------------
Total Dipole Moment    :      1.13750      -0.93328      -0.80114
                        -----------------------------------------
Magnitude (a.u.)       :      1.67533
Magnitude (Debye)      :      4.25835

Rotational constants in cm-1:     0.088677     0.022913     0.021190
Rotational constants in MHz :  2658.459551   686.909049   635.247856

                             ****ORCA TERMINATED NORMALLY****
TOTAL RUN TIME: 0 days 0 hours 0 minutes 30 seconds 599 msec
