                         Program Version 4.2.0 -  RELEASE  -
|  1> # 12h2o.su.etal.mol1,4,8,11
|  2> ! MP2 def2-TZVP EnGrad TightSCF
|  3>
|  4> %pal
|  5>     nprocs 6
|  6> end
|  7>
|  8> %maxcore 8000
|  9>
| 10> %scf
| 11>     ConvForced true
| 12> end
| 13>
| 14> *xyz 0 1
| 15> O  -1.794470000  -0.923410000   2.768350000
| 16> H  -2.338250000  -1.359750000   3.430940000
| 17> H  -0.879480000  -1.303000000   2.865760000
| 18> O  -0.885520000   1.737840000   0.052730000
| 19> H  -1.032320000   2.090180000  -0.841890000
| 20> H  -1.284090000   0.839590000   0.017130000
| 21> O   1.752130000   0.741530000  -2.896280000
| 22> H   2.036450000   0.920500000  -1.984040000
| 23> H   0.921210000   1.242140000  -2.984230000
| 24> O  -0.741530000   1.752130000   2.896280000
| 25> H  -0.920500000   2.036450000   1.984040000
| 26> H  -1.242140000   0.921210000   2.984230000
| 27> *
| 28>
| 29>                          ****END OF INPUT****

CARTESIAN COORDINATES (ANGSTROEM)
---------------------------------
  O     -1.794470   -0.923410    2.768350
  H     -2.338250   -1.359750    3.430940
  H     -0.879480   -1.303000    2.865760
  O     -0.885520    1.737840    0.052730
  H     -1.032320    2.090180   -0.841890
  H     -1.284090    0.839590    0.017130
  O      1.752130    0.741530   -2.896280
  H      2.036450    0.920500   -1.984040
  H      0.921210    1.242140   -2.984230
  O     -0.741530    1.752130    2.896280
  H     -0.920500    2.036450    1.984040
  H     -1.242140    0.921210    2.984230

 Total Charge           Charge          ....    0
 Multiplicity           Mult            ....    1
 Number of Electrons    NEL             ....   40
 Basis Dimension        Dim             ....  172

ORBITAL ENERGIES
----------------

  NO   OCC          E(Eh)            E(eV)
   0   2.0000     -20.593381      -560.3744
   1   2.0000     -20.589908      -560.2799
   2   2.0000     -20.566311      -559.6378
   3   2.0000     -20.506474      -558.0095
   4   2.0000      -1.371077       -37.3089
   5   2.0000      -1.367958       -37.2240
   6   2.0000      -1.345445       -36.6114
   7   2.0000      -1.291868       -35.1535
   8   2.0000      -0.738163       -20.0864
   9   2.0000      -0.730109       -19.8673
  10   2.0000      -0.708290       -19.2736
  11   2.0000      -0.671052       -18.2603
  12   2.0000      -0.616347       -16.7716
  13   2.0000      -0.599327       -16.3085
  14   2.0000      -0.582901       -15.8616
  15   2.0000      -0.547010       -14.8849
  16   2.0000      -0.533224       -14.5098
  17   2.0000      -0.515199       -14.0193
  18   2.0000      -0.510218       -13.8838
  19   2.0000      -0.456334       -12.4175
  20   0.0000       0.087581         2.3832
  21   0.0000       0.110755         3.0138
  22   0.0000       0.160908         4.3785
  23   0.0000       0.175438         4.7739
  24   0.0000       0.187070         5.0904

MULLIKEN ATOMIC CHARGES
-----------------------
   0 O :   -0.698782
   1 H :    0.355346
   2 H :    0.361888
   3 O :   -0.689131
   4 H :    0.337962
   5 H :    0.354607
   6 O :   -0.670998
   7 H :    0.343743
   8 H :    0.326021
   9 O :   -0.723675
  10 H :    0.362954
  11 H :    0.340065
Sum of atomic charges:    0.0000000

LOEWDIN ATOMIC CHARGES
----------------------
   0 O :   -0.313104
   1 H :    0.164683
   2 H :    0.188667
   3 O :   -0.315804
   4 H :    0.164190
   5 H :    0.178225
   6 O :   -0.329630
   7 H :    0.167523
   8 H :    0.160847
   9 O :   -0.354589
  10 H :    0.149072
  11 H :    0.139920

  Mayer bond orders larger than 0.100000
B(  0-O ,  1-H ) :   0.8402 B(  0-O ,  2-H ) :   0.8297 B(  3-O ,  4-H ) :   0.8475
B(  3-O ,  5-H ) :   0.8354 B(  6-O ,  7-H ) :   0.8488 B(  6-O ,  8-H ) :   0.8589
B(  9-O , 10-H ) :   0.8303 B(  9-O , 11-H ) :   0.8329

MP2 TOTAL ENERGY:     -305.264794213 Eh
FINAL SINGLE POINT ENERGY      -305.264794213250

DIPOLE MOMENT
-------------
                                X             Y             Z
Electronic contribution:      0.13541      -0.01054      -0.06016
Nuclear contribution   :     -1.16559      -1.02285      -0.14168
                        -----------------------------------------
Total Dipole Moment    :     -1.03017      -1.03339      -0.20184
                        -----------------------------------------
Magnitude (a.u.)       :      1.47306
Magnitude (Debye)      :      3.74422

Rotational constants in cm-1:     0.158990     0.031656     0.028439
Rotational constants in MHz :  4766.411587   949.030306   852.576277

                             ****ORCA TERMINATED NORMALLY****
TOTAL RUN TIME: 0 days 0 hours 0 minutes 19 seconds 791 msec
