                         Program Version 3.0.3 - RELEASE   -
|  1> ! B3LYP Def2-SVP def2-SVP/J RIJCOSX TightSCF Grid4 D3BJ OPT
|  2>
|  3> %pal nprocs 12 end
|  4>
|  5> %scf
|  6>         maxiter 400
|  7> end
|  8>
|  9> * xyz  0  1
| 10>   O     -0.174069   -1.233289   -0.652935
| 11>   H      0.103241   -0.336228   -0.904363
| 12>   H      0.646573   -1.741867   -0.711486
| 13>   O      0.161811    1.194798    0.627179
| 14>   H     -0.097909    0.280193    0.830635
| 15>   H     -0.678537    1.673614    0.650327
| 16> **                         ****END OF INPUT****
 Total Charge           Charge          ....    0
 Multiplicity           Mult            ....    1
 Number of Electrons    NEL             ....   20
Dispersion correction           -0.002401116
FINAL SINGLE POINT ENERGY      -152.658732260087
Dispersion correction            ...
                    ***********************HURRAY********************

CARTESIAN COORDINATES (ANGSTROEM)
---------------------------------
  O     -0.173776   -1.232856   -0.653106
  H      0.103189   -0.335831   -0.904492
  H      0.646359   -1.742665   -0.711175
  O      0.161576    1.194881    0.627069
  H     -0.097528    0.280234    0.830516
  H     -0.678710    1.673458    0.650544

 Multiplicity           Mult            ....    1
 Number of Electrons    NEL             ....   20
 Basis Dimension        Dim             ....   48

ORBITAL ENERGIES
----------------

  NO   OCC          E(Eh)            E(eV)
   0   2.0000     -19.127429      -520.4838
   1   2.0000     -19.123383      -520.3737
   2   2.0000      -0.991613       -26.9832
   3   2.0000      -0.975913       -26.5559
   4   2.0000      -0.528693       -14.3865
   5   2.0000      -0.502040       -13.6612
   6   2.0000      -0.380761       -10.3610
   7   2.0000      -0.369061       -10.0427
   8   2.0000      -0.307574        -8.3695
   9   2.0000      -0.291884        -7.9426
  10   0.0000       0.039629         1.0784
  11   0.0000       0.080373         2.1871
  12   0.0000       0.140790         3.8311
  13   0.0000       0.165331         4.4989
  14   0.0000       0.529918        14.4198

MULLIKEN ATOMIC CHARGES
-----------------------
   0 O :   -0.295566
   1 H :    0.141467
   2 H :    0.157274
   3 O :   -0.299136
   4 H :    0.140428
   5 H :    0.155533
Sum of atomic charges:   -0.0000000

LOEWDIN ATOMIC CHARGES
----------------------
   0 O :   -0.137885
   1 H :    0.060849
   2 H :    0.080827
   3 O :   -0.141675
   4 H :    0.058392
   5 H :    0.079493

  Mayer bond orders larger than 0.1
B(  0-O ,  1-H ) :   0.9661 B(  0-O ,  2-H ) :   1.0023 B(  0-O ,  4-H ) :   0.1023
B(  3-O ,  4-H ) :   0.9644 B(  3-O ,  5-H ) :   1.0034

Dispersion correction           -0.002401128
FINAL SINGLE POINT ENERGY      -152.658734174019

DIPOLE MOMENT
-------------
                                X             Y             Z
Electronic contribution:      0.00085      -0.00510       0.00848
Nuclear contribution   :     -0.00191      -0.04066      -0.06870
                        -----------------------------------------
Total Dipole Moment    :     -0.00106      -0.04576      -0.06022
                        -----------------------------------------
Magnitude (a.u.)       :      0.07564
Magnitude (Debye)      :      0.19227

                             ****ORCA TERMINATED NORMALLY****
TOTAL RUN TIME: 0 days 0 hours 1 minutes 41 seconds 430 msec
