                         Program Version 4.2.0 -  RELEASE  -
|  1> # 12h2o.su.etal.mol1,5,6,9,10,11
|  2> ! MP2 def2-TZVP EnGrad TightSCF
|  3>
|  4> %pal
|  5>     nprocs 6
|  6> end
|  7>
|  8> %maxcore 8000
|  9>
| 10> %scf
| 11>     ConvForced true
| 12> end
| 13>
| 14> *xyz 0 1
| 15> O  -1.794470000  -0.923410000   2.768350000
| 16> H  -2.338250000  -1.359750000   3.430940000
| 17> H  -0.879480000  -1.303000000   2.865760000
| 18> O   0.885520000  -1.737840000   0.052730000
| 19> H   1.284090000  -0.839590000   0.017130000
| 20> H   1.032320000  -2.090180000  -0.841890000
| 21> O   1.737840000   0.885520000  -0.052730000
| 22> H   2.090180000   1.032320000   0.841890000
| 23> H   0.839590000   1.284090000  -0.017130000
| 24> O   0.741530000  -1.752130000   2.896280000
| 25> H   0.920500000  -2.036450000   1.984040000
| 26> H   1.242140000  -0.921210000   2.984230000
| 27> O  -0.923410000   1.794470000  -2.768350000
| 28> H  -1.359750000   2.338250000  -3.430940000
| 29> H  -1.303000000   0.879480000  -2.865760000
| 30> O  -0.741530000   1.752130000   2.896280000
| 31> H  -0.920500000   2.036450000   1.984040000
| 32> H  -1.242140000   0.921210000   2.984230000
| 33> *
| 34>
| 35>                          ****END OF INPUT****

CARTESIAN COORDINATES (ANGSTROEM)
---------------------------------
  O     -1.794470   -0.923410    2.768350
  H     -2.338250   -1.359750    3.430940
  H     -0.879480   -1.303000    2.865760
  O      0.885520   -1.737840    0.052730
  H      1.284090   -0.839590    0.017130
  H      1.032320   -2.090180   -0.841890
  O      1.737840    0.885520   -0.052730
  H      2.090180    1.032320    0.841890
  H      0.839590    1.284090   -0.017130
  O      0.741530   -1.752130    2.896280
  H      0.920500   -2.036450    1.984040
  H      1.242140   -0.921210    2.984230
  O     -0.923410    1.794470   -2.768350
  H     -1.359750    2.338250   -3.430940
  H     -1.303000    0.879480   -2.865760
  O     -0.741530    1.752130    2.896280
  H     -0.920500    2.036450    1.984040
  H     -1.242140    0.921210    2.984230

 Total Charge           Charge          ....    0
 Multiplicity           Mult            ....    1
 Number of Electrons    NEL             ....   60
 Basis Dimension        Dim             ....  258

ORBITAL ENERGIES
----------------

  NO   OCC          E(Eh)            E(eV)
   0   2.0000     -20.598614      -560.5168
   1   2.0000     -20.573911      -559.8446
   2   2.0000     -20.569644      -559.7285
   3   2.0000     -20.559031      -559.4397
   4   2.0000     -20.536632      -558.8302
   5   2.0000     -20.534967      -558.7849
   6   2.0000      -1.379756       -37.5451
   7   2.0000      -1.360461       -37.0200
   8   2.0000      -1.349171       -36.7128
   9   2.0000      -1.339889       -36.4602
  10   2.0000      -1.323687       -36.0193
  11   2.0000      -1.312977       -35.7279
  12   2.0000      -0.736501       -20.0412
  13   2.0000      -0.723322       -19.6826
  14   2.0000      -0.717567       -19.5260
  15   2.0000      -0.711285       -19.3551
  16   2.0000      -0.703322       -19.1384
  17   2.0000      -0.684892       -18.6369
  18   2.0000      -0.626091       -17.0368
  19   2.0000      -0.606134       -16.4937
  20   2.0000      -0.586108       -15.9488
  21   2.0000      -0.585924       -15.9438
  22   2.0000      -0.568765       -15.4769
  23   2.0000      -0.548192       -14.9171
  24   2.0000      -0.532207       -14.4821
  25   2.0000      -0.517188       -14.0734
  26   2.0000      -0.510370       -13.8879
  27   2.0000      -0.504037       -13.7156
  28   2.0000      -0.487080       -13.2541
  29   2.0000      -0.481389       -13.0993
  30   0.0000       0.087897         2.3918
  31   0.0000       0.118151         3.2151
  32   0.0000       0.146769         3.9938
  33   0.0000       0.155525         4.2321
  34   0.0000       0.160291         4.3617

MULLIKEN ATOMIC CHARGES
-----------------------
   0 O :   -0.740025
   1 H :    0.335840
   2 H :    0.384652
   3 O :   -0.727683
   4 H :    0.355169
   5 H :    0.343294
   6 O :   -0.679387
   7 H :    0.353339
   8 H :    0.366154
   9 O :   -0.698604
  10 H :    0.391038
  11 H :    0.340444
  12 O :   -0.688981
  13 H :    0.344281
  14 H :    0.346744
  15 O :   -0.712980
  16 H :    0.320201
  17 H :    0.366504
Sum of atomic charges:   -0.0000000

LOEWDIN ATOMIC CHARGES
----------------------
   0 O :   -0.340272
   1 H :    0.153255
   2 H :    0.146259
   3 O :   -0.341917
   4 H :    0.143190
   5 H :    0.166436
   6 O :   -0.284621
   7 H :    0.169981
   8 H :    0.181644
   9 O :   -0.275705
  10 H :    0.161137
  11 H :    0.165522
  12 O :   -0.341063
  13 H :    0.160585
  14 H :    0.182465
  15 O :   -0.349960
  16 H :    0.153788
  17 H :    0.149277

  Mayer bond orders larger than 0.100000
B(  0-O ,  1-H ) :   0.8512 B(  0-O ,  2-H ) :   0.7557 B(  3-O ,  4-H ) :   0.7795
B(  3-O ,  5-H ) :   0.8475 B(  6-O ,  7-H ) :   0.8385 B(  6-O ,  8-H ) :   0.8245
B(  9-O , 10-H ) :   0.7925 B(  9-O , 11-H ) :   0.8444 B( 12-O , 13-H ) :   0.8500
B( 12-O , 14-H ) :   0.8426 B( 15-O , 16-H ) :   0.8614 B( 15-O , 17-H ) :   0.7965

MP2 TOTAL ENERGY:     -457.920103369 Eh
FINAL SINGLE POINT ENERGY      -457.920103368876

DIPOLE MOMENT
-------------
                                X             Y             Z
Electronic contribution:      0.32734      -0.03939      -0.01929
Nuclear contribution   :     -0.37062      -0.07979      -1.37221
                        -----------------------------------------
Total Dipole Moment    :     -0.04328      -0.11918      -1.39150
                        -----------------------------------------
Magnitude (a.u.)       :      1.39727
Magnitude (Debye)      :      3.55157

Rotational constants in cm-1:     0.047856     0.025334     0.021442
Rotational constants in MHz :  1434.676333   759.497896   642.825747

                             ****ORCA TERMINATED NORMALLY****
TOTAL RUN TIME: 0 days 0 hours 0 minutes 50 seconds 670 msec
