                         Program Version 4.2.0 -  RELEASE  -
|  1> ! MP2 def2-TZVP EnGrad TightSCF FrozenCore
|  2>
|  3> %pal
|  4>     nprocs 12
|  5> end
|  6>
|  7> %maxcore 8000
|  8>
|  9> %scf
| 10>     ConvForced true
| 11> end
| 12>
| 13> *xyz 0 1
| 14> C     2.797725    -0.981509    -2.186509
| 15> H     3.048673    -1.708013    -1.407337
| 16> H     3.463886    -1.118731    -3.042141
| 17> H     1.759795    -1.124279    -2.500135
| 18> C     2.950149     0.365680    -1.644582
| 19> N     3.079512     1.435097    -1.208168
| 20> C     2.797773     0.981539     2.186481
| 21> H     3.463983     1.118804     3.042069
| 22> H     1.759858     1.124289     2.500167
| 23> H     3.048651     1.708033     1.407277
| 24> C     2.950219    -0.365655     1.644573
| 25> N     3.079612    -1.435075     1.208173
| 26> C     0.250772    -2.604987     0.230260
| 27> H     0.729859    -3.358407    -0.400854
| 28> H     0.568562    -2.745960     1.265891
| 29> H     0.569296    -1.606707    -0.084446
| 30> C    -1.201990    -2.696768     0.124180
| 31> N    -2.360883    -2.746679     0.042549
| 32> C    -3.180392     0.046790     1.886035
| 33> H    -3.541992     0.948085     1.381836
| 34> H    -3.570060     0.020628     2.906997
| 35> H    -3.517346    -0.845085     1.348668
| 36> C    -1.720842     0.067499     1.912139
| 37> N    -0.558893     0.083797     1.937682
| 38> C    -3.180460    -0.046923    -1.885935
| 39> H    -3.541962    -0.948214    -1.381657
| 40> H    -3.570186    -0.020858    -2.906878
| 41> H    -3.517454     0.844957    -1.348601
| 42> C    -1.720910    -0.067527    -1.912113
| 43> N    -0.558961    -0.083741    -1.937714
| 44> C     0.250645     2.605110    -0.230380
| 45> H     0.569307     1.606942     0.084542
| 46> H     0.729712     3.358734     0.400505
| 47> H     0.568325     2.745858    -1.266074
| 48> C    -1.202117     2.696767    -0.124190
| 49> N    -2.361007     2.746576    -0.042462
| 50> *
| 51>
| 52>                          ****END OF INPUT****

CARTESIAN COORDINATES (ANGSTROEM)
---------------------------------
  C      2.797725   -0.981509   -2.186509
  H      3.048673   -1.708013   -1.407337
  H      3.463886   -1.118731   -3.042141
  H      1.759795   -1.124279   -2.500135
  C      2.950149    0.365680   -1.644582
  N      3.079512    1.435097   -1.208168
  C      2.797773    0.981539    2.186481
  H      3.463983    1.118804    3.042069
  H      1.759858    1.124289    2.500167
  H      3.048651    1.708033    1.407277
  C      2.950219   -0.365655    1.644573
  N      3.079612   -1.435075    1.208173
  C      0.250772   -2.604987    0.230260
  H      0.729859   -3.358407   -0.400854
  H      0.568562   -2.745960    1.265891
  H      0.569296   -1.606707   -0.084446
  C     -1.201990   -2.696768    0.124180
  N     -2.360883   -2.746679    0.042549
  C     -3.180392    0.046790    1.886035
  H     -3.541992    0.948085    1.381836
  H     -3.570060    0.020628    2.906997
  H     -3.517346   -0.845085    1.348668
  C     -1.720842    0.067499    1.912139
  N     -0.558893    0.083797    1.937682
  C     -3.180460   -0.046923   -1.885935
  H     -3.541962   -0.948214   -1.381657
  H     -3.570186   -0.020858   -2.906878
  H     -3.517454    0.844957   -1.348601
  C     -1.720910   -0.067527   -1.912113
  N     -0.558961   -0.083741   -1.937714
  C      0.250645    2.605110   -0.230380
  H      0.569307    1.606942    0.084542
  H      0.729712    3.358734    0.400505
  H      0.568325    2.745858   -1.266074
  C     -1.202117    2.696767   -0.124190
  N     -2.361007    2.746576   -0.042462

 Total Charge           Charge          ....    0
 Multiplicity           Mult            ....    1
 Number of Electrons    NEL             ....  132
 Basis Dimension        Dim             ....  666

ORBITAL ENERGIES
----------------

  NO   OCC          E(Eh)            E(eV)
   0   2.0000     -15.573415      -423.7742
   1   2.0000     -15.573414      -423.7741
   2   2.0000     -15.566904      -423.5970
   3   2.0000     -15.566903      -423.5970
   4   2.0000     -15.565464      -423.5578
   5   2.0000     -15.565463      -423.5578
   6   2.0000     -11.288887      -307.1862
   7   2.0000     -11.288886      -307.1862
   8   2.0000     -11.281988      -306.9985
   9   2.0000     -11.281987      -306.9985
  10   2.0000     -11.279800      -306.9390
  11   2.0000     -11.279798      -306.9389
  12   2.0000     -11.272097      -306.7294
  13   2.0000     -11.272096      -306.7293
  14   2.0000     -11.266428      -306.5751
  15   2.0000     -11.266426      -306.5750
  16   2.0000     -11.260463      -306.4128
  17   2.0000     -11.260463      -306.4128
  18   2.0000      -1.225512       -33.3479
  19   2.0000      -1.222937       -33.2778
  20   2.0000      -1.216779       -33.1102
  21   2.0000      -1.216440       -33.1010
  22   2.0000      -1.215282       -33.0695
  23   2.0000      -1.212721       -32.9998
  24   2.0000      -1.034595       -28.1528
  25   2.0000      -1.030952       -28.0536
  26   2.0000      -1.027654       -27.9639
  27   2.0000      -1.024984       -27.8912
  28   2.0000      -1.020741       -27.7758
  29   2.0000      -1.020509       -27.7695
  30   2.0000      -0.695959       -18.9380
  31   2.0000      -0.690592       -18.7920
  32   2.0000      -0.688597       -18.7377
  33   2.0000      -0.684519       -18.6267
  34   2.0000      -0.682677       -18.5766
  35   2.0000      -0.679975       -18.5031
  36   2.0000      -0.633225       -17.2309
  37   2.0000      -0.631263       -17.1775
  38   2.0000      -0.625067       -17.0089
  39   2.0000      -0.621823       -16.9207
  40   2.0000      -0.621602       -16.9146
  41   2.0000      -0.620940       -16.8966
  42   2.0000      -0.614304       -16.7161
  43   2.0000      -0.610048       -16.6003
  44   2.0000      -0.607143       -16.5212
  45   2.0000      -0.607114       -16.5204
  46   2.0000      -0.601659       -16.3720
  47   2.0000      -0.601201       -16.3595
  48   2.0000      -0.562299       -15.3009
  49   2.0000      -0.561753       -15.2861
  50   2.0000      -0.558192       -15.1892
  51   2.0000      -0.558089       -15.1864
  52   2.0000      -0.552896       -15.0451
  53   2.0000      -0.552287       -15.0285
  54   2.0000      -0.471317       -12.8252
  55   2.0000      -0.466892       -12.7048
  56   2.0000      -0.466878       -12.7044
  57   2.0000      -0.463610       -12.6155
  58   2.0000      -0.461351       -12.5540
  59   2.0000      -0.461117       -12.5476
  60   2.0000      -0.460830       -12.5398
  61   2.0000      -0.457343       -12.4449
  62   2.0000      -0.456084       -12.4107
  63   2.0000      -0.452223       -12.3056
  64   2.0000      -0.451658       -12.2902
  65   2.0000      -0.450883       -12.2691
  66   0.0000       0.124971         3.4006
  67   0.0000       0.141493         3.8502
  68   0.0000       0.143732         3.9111
  69   0.0000       0.150437         4.0936
  70   0.0000       0.155879         4.2417

MULLIKEN ATOMIC CHARGES
-----------------------
   0 C :   -0.314442
   1 H :    0.193885
   2 H :    0.171705
   3 H :    0.190624
   4 C :   -0.072803
   5 N :   -0.170780
   6 C :   -0.314441
   7 H :    0.171705
   8 H :    0.190623
   9 H :    0.193886
  10 C :   -0.072807
  11 N :   -0.170777
  12 C :   -0.296781
  13 H :    0.167430
  14 H :    0.184811
  15 H :    0.185931
  16 C :   -0.070708
  17 N :   -0.171921
  18 C :   -0.301483
  19 H :    0.196034
  20 H :    0.174547
  21 H :    0.193109
  22 C :   -0.075594
  23 N :   -0.183564
  24 C :   -0.301484
  25 H :    0.196032
  26 H :    0.174547
  27 H :    0.193111
  28 C :   -0.075598
  29 N :   -0.183561
  30 C :   -0.296769
  31 H :    0.185922
  32 H :    0.167435
  33 H :    0.184806
  34 C :   -0.070709
  35 N :   -0.171923
Sum of atomic charges:   -0.0000000

LOEWDIN ATOMIC CHARGES
----------------------
   0 C :   -0.286936
   1 H :    0.153266
   2 H :    0.148261
   3 H :    0.150865
   4 C :   -0.199947
   5 N :    0.029152
   6 C :   -0.286937
   7 H :    0.148261
   8 H :    0.150865
   9 H :    0.153266
  10 C :   -0.199947
  11 N :    0.029151
  12 C :   -0.287356
  13 H :    0.148789
  14 H :    0.155701
  15 H :    0.152401
  16 C :   -0.200358
  17 N :    0.018032
  18 C :   -0.280263
  19 H :    0.153547
  20 H :    0.150757
  21 H :    0.153365
  22 C :   -0.194490
  23 N :    0.035213
  24 C :   -0.280263
  25 H :    0.153547
  26 H :    0.150757
  27 H :    0.153366
  28 C :   -0.194491
  29 N :    0.035215
  30 C :   -0.287355
  31 H :    0.152400
  32 H :    0.148790
  33 H :    0.155700
  34 C :   -0.200357
  35 N :    0.018032

  Mayer bond orders larger than 0.100000
B(  0-C ,  1-H ) :   0.9078 B(  0-C ,  2-H ) :   0.9105 B(  0-C ,  3-H ) :   0.9098
B(  0-C ,  4-C ) :   0.8980 B(  4-C ,  5-N ) :   2.7427 B(  6-C ,  7-H ) :   0.9105
B(  6-C ,  8-H ) :   0.9098 B(  6-C ,  9-H ) :   0.9078 B(  6-C , 10-C ) :   0.8980
B( 10-C , 11-N ) :   2.7427 B( 12-C , 13-H ) :   0.9112 B( 12-C , 14-H ) :   0.9110
B( 12-C , 15-H ) :   0.9002 B( 12-C , 16-C ) :   0.9201 B( 16-C , 17-N ) :   2.7417
B( 18-C , 19-H ) :   0.9101 B( 18-C , 20-H ) :   0.9084 B( 18-C , 21-H ) :   0.9080
B( 18-C , 22-C ) :   0.8890 B( 22-C , 23-N ) :   2.7061 B( 24-C , 25-H ) :   0.9101
B( 24-C , 26-H ) :   0.9084 B( 24-C , 27-H ) :   0.9080 B( 24-C , 28-C ) :   0.8890
B( 28-C , 29-N ) :   2.7061 B( 30-C , 31-H ) :   0.9002 B( 30-C , 32-H ) :   0.9112
B( 30-C , 33-H ) :   0.9110 B( 30-C , 34-C ) :   0.9201 B( 34-C , 35-N ) :   2.7417

MP2 TOTAL ENERGY:     -794.956971466 Eh
FINAL SINGLE POINT ENERGY      -794.956971465615

DIPOLE MOMENT
-------------
                                X             Y             Z
Electronic contribution:      0.64432      -0.00004       0.00011
Nuclear contribution   :     -0.98352       0.00008      -0.00017
                        -----------------------------------------
Total Dipole Moment    :     -0.33920       0.00004      -0.00006
                        -----------------------------------------
Magnitude (a.u.)       :      0.33920
Magnitude (Debye)      :      0.86217

Rotational constants in cm-1:     0.013432     0.009023     0.008438
Rotational constants in MHz :   402.677431   270.503545   252.971943

                             ****ORCA TERMINATED NORMALLY****
TOTAL RUN TIME: 0 days 1 hours 6 minutes 6 seconds 934 msec
