                         Program Version 4.2.0 -  RELEASE  -
|  1> ! MP2 def2-TZVP EnGrad TightSCF FrozenCore
|  2>
|  3> %pal
|  4>     nprocs 8
|  5> end
|  6>
|  7> %maxcore 8000
|  8>
|  9> %scf
| 10>     ConvForced true
| 11> end
| 12>
| 13> *xyz 0 1
| 14> O          0.00000        0.00000        0.00000
| 15> H          0.96500        0.00000        0.00000
| 16> H         -0.25594        0.00000       -0.95055
| 17> O         -1.38897       -2.22741        0.81600
| 18> H         -0.85023       -1.42024        0.64668
| 19> H         -1.87194       -2.03837        1.62953
| 20> O         -2.44628       -2.49481       -1.71525
| 21> H         -2.19006       -2.49514       -0.76478
| 22> H         -3.41118       -2.49390       -1.71488
| 23> O         -1.05623       -0.26821       -2.53167
| 24> H         -1.59500       -1.07520       -2.36222
| 25> H         -0.57273       -0.45763       -3.34492
| 26> *
| 27>
| 28>
| 29>                          ****END OF INPUT****

CARTESIAN COORDINATES (ANGSTROEM)
---------------------------------
  O      0.000000    0.000000    0.000000
  H      0.965000    0.000000    0.000000
  H     -0.255940    0.000000   -0.950550
  O     -1.388970   -2.227410    0.816000
  H     -0.850230   -1.420240    0.646680
  H     -1.871940   -2.038370    1.629530
  O     -2.446280   -2.494810   -1.715250
  H     -2.190060   -2.495140   -0.764780
  H     -3.411180   -2.493900   -1.714880
  O     -1.056230   -0.268210   -2.531670
  H     -1.595000   -1.075200   -2.362220
  H     -0.572730   -0.457630   -3.344920

 Total Charge           Charge          ....    0
 Multiplicity           Mult            ....    1
 Number of Electrons    NEL             ....   40
 Basis Dimension        Dim             ....  172

ORBITAL ENERGIES
----------------

  NO   OCC          E(Eh)            E(eV)
   0   2.0000     -20.555454      -559.3424
   1   2.0000     -20.555428      -559.3416
   2   2.0000     -20.553779      -559.2968
   3   2.0000     -20.553768      -559.2965
   4   2.0000      -1.356167       -36.9032
   5   2.0000      -1.341999       -36.5177
   6   2.0000      -1.340210       -36.4690
   7   2.0000      -1.326306       -36.0906
   8   2.0000      -0.726548       -19.7704
   9   2.0000      -0.713793       -19.4233
  10   2.0000      -0.709557       -19.3080
  11   2.0000      -0.701804       -19.0971
  12   2.0000      -0.614853       -16.7310
  13   2.0000      -0.586853       -15.9691
  14   2.0000      -0.578986       -15.7550
  15   2.0000      -0.552702       -15.0398
  16   2.0000      -0.507990       -13.8231
  17   2.0000      -0.505133       -13.7454
  18   2.0000      -0.498071       -13.5532
  19   2.0000      -0.497987       -13.5509
  20   0.0000       0.121218         3.2985
  21   0.0000       0.152735         4.1561
  22   0.0000       0.158992         4.3264
  23   0.0000       0.180522         4.9122
  24   0.0000       0.289730         7.8840

MULLIKEN ATOMIC CHARGES
-----------------------
   0 O :   -0.726076
   1 H :    0.341373
   2 H :    0.387412
   3 O :   -0.729380
   4 H :    0.385415
   5 H :    0.341247
   6 O :   -0.726067
   7 H :    0.387407
   8 H :    0.341352
   9 O :   -0.729378
  10 H :    0.385427
  11 H :    0.341268
Sum of atomic charges:   -0.0000000

LOEWDIN ATOMIC CHARGES
----------------------
   0 O :   -0.310935
   1 H :    0.159897
   2 H :    0.154732
   3 O :   -0.315845
   4 H :    0.152567
   5 H :    0.159580
   6 O :   -0.310888
   7 H :    0.154733
   8 H :    0.159830
   9 O :   -0.315826
  10 H :    0.152496
  11 H :    0.159658

  Mayer bond orders larger than 0.100000
B(  0-O ,  1-H ) :   0.8470 B(  0-O ,  2-H ) :   0.7684 B(  3-O ,  4-H ) :   0.7652
B(  3-O ,  5-H ) :   0.8481 B(  6-O ,  7-H ) :   0.7684 B(  6-O ,  8-H ) :   0.8471
B(  9-O , 10-H ) :   0.7653 B(  9-O , 11-H ) :   0.8481

MP2 TOTAL ENERGY:     -305.299899487 Eh
FINAL SINGLE POINT ENERGY      -305.299899486748

DIPOLE MOMENT
-------------
                                X             Y             Z
Electronic contribution:     -0.00013       0.00004      -0.00014
Nuclear contribution   :      0.00073       0.00032       0.00058
                        -----------------------------------------
Total Dipole Moment    :      0.00060       0.00035       0.00044
                        -----------------------------------------
Magnitude (a.u.)       :      0.00082
Magnitude (Debye)      :      0.00209

Rotational constants in cm-1:     0.119673     0.118498     0.060349
Rotational constants in MHz :  3587.720308  3552.493544  1809.210351

                             ****ORCA TERMINATED NORMALLY****
TOTAL RUN TIME: 0 days 0 hours 0 minutes 19 seconds 909 msec
