                         Program Version 4.2.0 -  RELEASE  -
|  1> # 12meoh.boyd.etal.mol3,4,5
|  2> ! MP2 def2-TZVP EnGrad TightSCF
|  3>
|  4> %pal
|  5>     nprocs 6
|  6> end
|  7>
|  8> %maxcore 8000
|  9>
| 10> %scf
| 11>     ConvForced true
| 12> end
| 13>
| 14> *xyz 0 1
| 15> O  -3.821405976  -2.118091637   0.596795346
| 16> H  -4.342989117  -1.344303030   0.251966383
| 17> C  -3.443883586  -1.809641231   1.934889393
| 18> H  -2.831494349  -2.637429600   2.305201764
| 19> H  -4.325601146  -1.719364371   2.585074667
| 20> H  -2.858527126  -0.882644791   1.996110694
| 21> O  -1.358578914   1.232360421   1.189721000
| 22> H  -1.058250183   1.216459361   0.238591307
| 23> C  -0.389763452   1.957872567   1.943072362
| 24> H  -0.747220771   2.012806578   2.975200343
| 25> H  -0.260410585   2.982763209   1.565366540
| 26> H   0.585220638   1.453754179   1.934070793
| 27> O  -0.662721750   1.449094618  -1.383082065
| 28> H   0.064188300   2.119867608  -1.465650660
| 29> C  -0.353319239   0.341218776  -2.229326771
| 30> H  -1.072358530  -0.454743281  -2.019906495
| 31> H   0.657636746  -0.044472139  -2.042736771
| 32> H  -0.434616607   0.624733901  -3.287793021
| 33> *
| 34>
| 35>                          ****END OF INPUT****

CARTESIAN COORDINATES (ANGSTROEM)
---------------------------------
  O     -3.821406   -2.118092    0.596795
  H     -4.342989   -1.344303    0.251966
  C     -3.443884   -1.809641    1.934889
  H     -2.831494   -2.637430    2.305202
  H     -4.325601   -1.719364    2.585075
  H     -2.858527   -0.882645    1.996111
  O     -1.358579    1.232360    1.189721
  H     -1.058250    1.216459    0.238591
  C     -0.389763    1.957873    1.943072
  H     -0.747221    2.012807    2.975200
  H     -0.260411    2.982763    1.565367
  H      0.585221    1.453754    1.934071
  O     -0.662722    1.449095   -1.383082
  H      0.064188    2.119868   -1.465651
  C     -0.353319    0.341219   -2.229327
  H     -1.072359   -0.454743   -2.019906
  H      0.657637   -0.044472   -2.042737
  H     -0.434617    0.624734   -3.287793

 Total Charge           Charge          ....    0
 Multiplicity           Mult            ....    1
 Number of Electrons    NEL             ....   54
 Basis Dimension        Dim             ....  258

ORBITAL ENERGIES
----------------

  NO   OCC          E(Eh)            E(eV)
   0   2.0000     -20.591988      -560.3365
   1   2.0000     -20.541496      -558.9625
   2   2.0000     -20.519460      -558.3629
   3   2.0000     -11.291223      -307.2498
   4   2.0000     -11.256775      -306.3124
   5   2.0000     -11.249524      -306.1151
   6   2.0000      -1.384323       -37.6693
   7   2.0000      -1.330102       -36.1939
   8   2.0000      -1.315105       -35.7858
   9   2.0000      -0.943881       -25.6843
  10   2.0000      -0.902677       -24.5631
  11   2.0000      -0.899005       -24.4632
  12   2.0000      -0.716491       -19.4967
  13   2.0000      -0.678068       -18.4512
  14   2.0000      -0.663183       -18.0461
  15   2.0000      -0.637054       -17.3351
  16   2.0000      -0.611920       -16.6512
  17   2.0000      -0.599170       -16.3042
  18   2.0000      -0.595837       -16.2136
  19   2.0000      -0.572654       -15.5827
  20   2.0000      -0.566956       -15.4277
  21   2.0000      -0.530077       -14.4241
  22   2.0000      -0.491131       -13.3643
  23   2.0000      -0.482233       -13.1222
  24   2.0000      -0.462169       -12.5763
  25   2.0000      -0.431196       -11.7334
  26   2.0000      -0.422235       -11.4896
  27   0.0000       0.111189         3.0256
  28   0.0000       0.145051         3.9470
  29   0.0000       0.162335         4.4173
  30   0.0000       0.175459         4.7745
  31   0.0000       0.193317         5.2604

MULLIKEN ATOMIC CHARGES
-----------------------
   0 O :   -0.509324
   1 H :    0.321799
   2 C :   -0.189505
   3 H :    0.116637
   4 H :    0.101381
   5 H :    0.148629
   6 O :   -0.523449
   7 H :    0.357322
   8 C :   -0.183259
   9 H :    0.124474
  10 H :    0.096047
  11 H :    0.099540
  12 O :   -0.519063
  13 H :    0.340852
  14 C :   -0.187717
  15 H :    0.157299
  16 H :    0.123630
  17 H :    0.124707
Sum of atomic charges:   -0.0000000

LOEWDIN ATOMIC CHARGES
----------------------
   0 O :   -0.116143
   1 H :    0.190347
   2 C :   -0.385280
   3 H :    0.106473
   4 H :    0.092302
   5 H :    0.102571
   6 O :   -0.122246
   7 H :    0.160506
   8 C :   -0.397144
   9 H :    0.107043
  10 H :    0.090741
  11 H :    0.090688
  12 O :   -0.075833
  13 H :    0.197063
  14 C :   -0.365789
  15 H :    0.118987
  16 H :    0.101473
  17 H :    0.104240

  Mayer bond orders larger than 0.100000
B(  0-O ,  1-H ) :   0.8429 B(  0-O ,  2-C ) :   0.9117 B(  2-C ,  3-H ) :   0.9381
B(  2-C ,  4-H ) :   0.9408 B(  2-C ,  5-H ) :   0.9282 B(  6-O ,  7-H ) :   0.7813
B(  6-O ,  8-C ) :   0.9392 B(  8-C ,  9-H ) :   0.9438 B(  8-C , 10-H ) :   0.9350
B(  8-C , 11-H ) :   0.9368 B( 12-O , 13-H ) :   0.8289 B( 12-O , 14-C ) :   0.8673
B( 14-C , 15-H ) :   0.9369 B( 14-C , 16-H ) :   0.9379 B( 14-C , 17-H ) :   0.9335

MP2 TOTAL ENERGY:     -346.531587007 Eh
FINAL SINGLE POINT ENERGY      -346.531587006608

DIPOLE MOMENT
-------------
                                X             Y             Z
Electronic contribution:     -2.10870      -0.14348      -1.81771
Nuclear contribution   :      3.19141       0.98467       1.04613
                        -----------------------------------------
Total Dipole Moment    :      1.08271       0.84119      -0.77158
                        -----------------------------------------
Magnitude (a.u.)       :      1.57327
Magnitude (Debye)      :      3.99894

Rotational constants in cm-1:     0.073415     0.034507     0.024373
Rotational constants in MHz :  2200.922224  1034.494826   730.697752

                             ****ORCA TERMINATED NORMALLY****
TOTAL RUN TIME: 0 days 0 hours 1 minutes 19 seconds 533 msec
