                         Program Version 4.2.0 -  RELEASE  -
|  1> # 12h2o.su.etal.mol0,2,3,4,6,7,8,10
|  2> ! MP2 def2-TZVP EnGrad TightSCF
|  3>
|  4> %pal
|  5>     nprocs 6
|  6> end
|  7>
|  8> %maxcore 8000
|  9>
| 10> %scf
| 11>     ConvForced true
| 12> end
| 13>
| 14> *xyz 0 1
| 15> O   1.794470000   0.923410000   2.768350000
| 16> H   2.338250000   1.359750000   3.430940000
| 17> H   0.879480000   1.303000000   2.865760000
| 18> O   0.923410000  -1.794470000  -2.768350000
| 19> H   1.359750000  -2.338250000  -3.430940000
| 20> H   1.303000000  -0.879480000  -2.865760000
| 21> O  -1.752130000  -0.741530000  -2.896280000
| 22> H  -2.036450000  -0.920500000  -1.984040000
| 23> H  -0.921210000  -1.242140000  -2.984230000
| 24> O  -0.885520000   1.737840000   0.052730000
| 25> H  -1.032320000   2.090180000  -0.841890000
| 26> H  -1.284090000   0.839590000   0.017130000
| 27> O   1.737840000   0.885520000  -0.052730000
| 28> H   2.090180000   1.032320000   0.841890000
| 29> H   0.839590000   1.284090000  -0.017130000
| 30> O  -1.737840000  -0.885520000  -0.052730000
| 31> H  -2.090180000  -1.032320000   0.841890000
| 32> H  -0.839590000  -1.284090000  -0.017130000
| 33> O   1.752130000   0.741530000  -2.896280000
| 34> H   2.036450000   0.920500000  -1.984040000
| 35> H   0.921210000   1.242140000  -2.984230000
| 36> O  -0.923410000   1.794470000  -2.768350000
| 37> H  -1.359750000   2.338250000  -3.430940000
| 38> H  -1.303000000   0.879480000  -2.865760000
| 39> *
| 40>
| 41>                          ****END OF INPUT****

CARTESIAN COORDINATES (ANGSTROEM)
---------------------------------
  O      1.794470    0.923410    2.768350
  H      2.338250    1.359750    3.430940
  H      0.879480    1.303000    2.865760
  O      0.923410   -1.794470   -2.768350
  H      1.359750   -2.338250   -3.430940
  H      1.303000   -0.879480   -2.865760
  O     -1.752130   -0.741530   -2.896280
  H     -2.036450   -0.920500   -1.984040
  H     -0.921210   -1.242140   -2.984230
  O     -0.885520    1.737840    0.052730
  H     -1.032320    2.090180   -0.841890
  H     -1.284090    0.839590    0.017130
  O      1.737840    0.885520   -0.052730
  H      2.090180    1.032320    0.841890
  H      0.839590    1.284090   -0.017130
  O     -1.737840   -0.885520   -0.052730
  H     -2.090180   -1.032320    0.841890
  H     -0.839590   -1.284090   -0.017130
  O      1.752130    0.741530   -2.896280
  H      2.036450    0.920500   -1.984040
  H      0.921210    1.242140   -2.984230
  O     -0.923410    1.794470   -2.768350
  H     -1.359750    2.338250   -3.430940
  H     -1.303000    0.879480   -2.865760

 Total Charge           Charge          ....    0
 Multiplicity           Mult            ....    1
 Number of Electrons    NEL             ....   80
 Basis Dimension        Dim             ....  344

ORBITAL ENERGIES
----------------

  NO   OCC          E(Eh)            E(eV)
   0   2.0000     -20.615347      -560.9721
   1   2.0000     -20.585544      -560.1611
   2   2.0000     -20.558658      -559.4295
   3   2.0000     -20.551434      -559.2329
   4   2.0000     -20.540221      -558.9278
   5   2.0000     -20.533163      -558.7358
   6   2.0000     -20.529376      -558.6327
   7   2.0000     -20.515684      -558.2601
   8   2.0000      -1.398714       -38.0609
   9   2.0000      -1.363462       -37.1017
  10   2.0000      -1.355790       -36.8929
  11   2.0000      -1.337093       -36.3841
  12   2.0000      -1.328810       -36.1588
  13   2.0000      -1.327597       -36.1258
  14   2.0000      -1.309351       -35.6292
  15   2.0000      -1.298465       -35.3330
  16   2.0000      -0.756546       -20.5867
  17   2.0000      -0.730357       -19.8740
  18   2.0000      -0.723846       -19.6969
  19   2.0000      -0.713236       -19.4081
  20   2.0000      -0.705665       -19.2021
  21   2.0000      -0.694604       -18.9011
  22   2.0000      -0.690510       -18.7897
  23   2.0000      -0.677339       -18.4313
  24   2.0000      -0.644304       -17.5324
  25   2.0000      -0.611191       -16.6314
  26   2.0000      -0.603508       -16.4223
  27   2.0000      -0.594446       -16.1757
  28   2.0000      -0.578467       -15.7409
  29   2.0000      -0.567571       -15.4444
  30   2.0000      -0.559570       -15.2267
  31   2.0000      -0.542191       -14.7538
  32   2.0000      -0.534856       -14.5542
  33   2.0000      -0.516924       -14.0662
  34   2.0000      -0.504284       -13.7223
  35   2.0000      -0.498079       -13.5534
  36   2.0000      -0.484894       -13.1946
  37   2.0000      -0.483465       -13.1557
  38   2.0000      -0.476029       -12.9534
  39   2.0000      -0.466877       -12.7044
  40   0.0000       0.096859         2.6357
  41   0.0000       0.123785         3.3684
  42   0.0000       0.143104         3.8940
  43   0.0000       0.160696         4.3728
  44   0.0000       0.189147         5.1469

MULLIKEN ATOMIC CHARGES
-----------------------
   0 O :   -0.696618
   1 H :    0.349280
   2 H :    0.358343
   3 O :   -0.750444
   4 H :    0.337447
   5 H :    0.386717
   6 O :   -0.722796
   7 H :    0.378895
   8 H :    0.372045
   9 O :   -0.730682
  10 H :    0.378325
  11 H :    0.351972
  12 O :   -0.753132
  13 H :    0.365223
  14 H :    0.346653
  15 O :   -0.722350
  16 H :    0.367305
  17 H :    0.387469
  18 O :   -0.729421
  19 H :    0.389115
  20 H :    0.362956
  21 O :   -0.756825
  22 H :    0.348370
  23 H :    0.382155
Sum of atomic charges:   -0.0000000

LOEWDIN ATOMIC CHARGES
----------------------
   0 O :   -0.312014
   1 H :    0.162037
   2 H :    0.186302
   3 O :   -0.345124
   4 H :    0.153938
   5 H :    0.146418
   6 O :   -0.286500
   7 H :    0.153733
   8 H :    0.151470
   9 O :   -0.320523
  10 H :    0.149883
  11 H :    0.137447
  12 O :   -0.352359
  13 H :    0.147670
  14 H :    0.137094
  15 O :   -0.278231
  16 H :    0.177405
  17 H :    0.190524
  18 O :   -0.291750
  19 H :    0.157785
  20 H :    0.146889
  21 O :   -0.316146
  22 H :    0.157963
  23 H :    0.146086

  Mayer bond orders larger than 0.100000
B(  0-O ,  1-H ) :   0.8436 B(  0-O ,  2-H ) :   0.8315 B(  3-O ,  4-H ) :   0.8503
B(  3-O ,  5-H ) :   0.7350 B(  5-H , 18-O ) :   0.1210 B(  6-O ,  7-H ) :   0.8155
B(  6-O ,  8-H ) :   0.7830 B(  6-O , 23-H ) :   0.1231 B(  9-O , 10-H ) :   0.8019
B(  9-O , 11-H ) :   0.8005 B(  9-O , 14-H ) :   0.1029 B( 12-O , 13-H ) :   0.8192
B( 12-O , 14-H ) :   0.7751 B( 15-O , 16-H ) :   0.8298 B( 15-O , 17-H ) :   0.8069
B( 18-O , 19-H ) :   0.7924 B( 18-O , 20-H ) :   0.8056 B( 21-O , 22-H ) :   0.8417
B( 21-O , 23-H ) :   0.7274

MP2 TOTAL ENERGY:     -610.600867006 Eh
FINAL SINGLE POINT ENERGY      -610.600867005569

DIPOLE MOMENT
-------------
                                X             Y             Z
Electronic contribution:     -0.09001      -0.19481       0.07333
Nuclear contribution   :     -0.76293       0.22475       1.51390
                        -----------------------------------------
Total Dipole Moment    :     -0.85293       0.02994       1.58723
                        -----------------------------------------
Magnitude (a.u.)       :      1.80213
Magnitude (Debye)      :      4.58066

Rotational constants in cm-1:     0.035478     0.020427     0.018499
Rotational constants in MHz :  1063.618087   612.391268   554.572029

                             ****ORCA TERMINATED NORMALLY****
TOTAL RUN TIME: 0 days 0 hours 3 minutes 24 seconds 748 msec
