                         Program Version 4.2.0 -  RELEASE  -
|  1> # 12h2o.su.etal.mol1,3,6,8,11
|  2> ! MP2 def2-TZVP EnGrad TightSCF
|  3>
|  4> %pal
|  5>     nprocs 6
|  6> end
|  7>
|  8> %maxcore 8000
|  9>
| 10> %scf
| 11>     ConvForced true
| 12> end
| 13>
| 14> *xyz 0 1
| 15> O  -1.794470000  -0.923410000   2.768350000
| 16> H  -2.338250000  -1.359750000   3.430940000
| 17> H  -0.879480000  -1.303000000   2.865760000
| 18> O  -1.752130000  -0.741530000  -2.896280000
| 19> H  -2.036450000  -0.920500000  -1.984040000
| 20> H  -0.921210000  -1.242140000  -2.984230000
| 21> O   1.737840000   0.885520000  -0.052730000
| 22> H   2.090180000   1.032320000   0.841890000
| 23> H   0.839590000   1.284090000  -0.017130000
| 24> O   1.752130000   0.741530000  -2.896280000
| 25> H   2.036450000   0.920500000  -1.984040000
| 26> H   0.921210000   1.242140000  -2.984230000
| 27> O  -0.741530000   1.752130000   2.896280000
| 28> H  -0.920500000   2.036450000   1.984040000
| 29> H  -1.242140000   0.921210000   2.984230000
| 30> *
| 31>
| 32>                          ****END OF INPUT****

CARTESIAN COORDINATES (ANGSTROEM)
---------------------------------
  O     -1.794470   -0.923410    2.768350
  H     -2.338250   -1.359750    3.430940
  H     -0.879480   -1.303000    2.865760
  O     -1.752130   -0.741530   -2.896280
  H     -2.036450   -0.920500   -1.984040
  H     -0.921210   -1.242140   -2.984230
  O      1.737840    0.885520   -0.052730
  H      2.090180    1.032320    0.841890
  H      0.839590    1.284090   -0.017130
  O      1.752130    0.741530   -2.896280
  H      2.036450    0.920500   -1.984040
  H      0.921210    1.242140   -2.984230
  O     -0.741530    1.752130    2.896280
  H     -0.920500    2.036450    1.984040
  H     -1.242140    0.921210    2.984230

 Total Charge           Charge          ....    0
 Multiplicity           Mult            ....    1
 Number of Electrons    NEL             ....   50
 Basis Dimension        Dim             ....  215

ORBITAL ENERGIES
----------------

  NO   OCC          E(Eh)            E(eV)
   0   2.0000     -20.605828      -560.7131
   1   2.0000     -20.591247      -560.3163
   2   2.0000     -20.560313      -559.4745
   3   2.0000     -20.555409      -559.3411
   4   2.0000     -20.532491      -558.7175
   5   2.0000      -1.383527       -37.6477
   6   2.0000      -1.369529       -37.2668
   7   2.0000      -1.339505       -36.4498
   8   2.0000      -1.337380       -36.3920
   9   2.0000      -1.314208       -35.7614
  10   2.0000      -0.750811       -20.4306
  11   2.0000      -0.732256       -19.9257
  12   2.0000      -0.706201       -19.2167
  13   2.0000      -0.702118       -19.1056
  14   2.0000      -0.683679       -18.6039
  15   2.0000      -0.623902       -16.9772
  16   2.0000      -0.610477       -16.6119
  17   2.0000      -0.578258       -15.7352
  18   2.0000      -0.577399       -15.7118
  19   2.0000      -0.552378       -15.0310
  20   2.0000      -0.543524       -14.7900
  21   2.0000      -0.532185       -14.4815
  22   2.0000      -0.504961       -13.7407
  23   2.0000      -0.502315       -13.6687
  24   2.0000      -0.478478       -13.0201
  25   0.0000       0.078457         2.1349
  26   0.0000       0.110862         3.0167
  27   0.0000       0.134272         3.6537
  28   0.0000       0.156394         4.2557
  29   0.0000       0.171739         4.6733

MULLIKEN ATOMIC CHARGES
-----------------------
   0 O :   -0.699067
   1 H :    0.358793
   2 H :    0.361709
   3 O :   -0.683729
   4 H :    0.333655
   5 H :    0.349057
   6 O :   -0.691615
   7 H :    0.356731
   8 H :    0.335339
   9 O :   -0.699095
  10 H :    0.369581
  11 H :    0.325599
  12 O :   -0.698625
  13 H :    0.320574
  14 H :    0.361092
Sum of atomic charges:   -0.0000000

LOEWDIN ATOMIC CHARGES
----------------------
   0 O :   -0.311732
   1 H :    0.166448
   2 H :    0.188759
   3 O :   -0.333677
   4 H :    0.163465
   5 H :    0.169667
   6 O :   -0.316988
   7 H :    0.172809
   8 H :    0.169707
   9 O :   -0.339476
  10 H :    0.152656
  11 H :    0.158404
  12 O :   -0.343495
  13 H :    0.154795
  14 H :    0.148658

  Mayer bond orders larger than 0.100000
B(  0-O ,  1-H ) :   0.8381 B(  0-O ,  2-H ) :   0.8298 B(  3-O ,  4-H ) :   0.8548
B(  3-O ,  5-H ) :   0.8420 B(  6-O ,  7-H ) :   0.8375 B(  6-O ,  8-H ) :   0.8443
B(  9-O , 10-H ) :   0.8216 B(  9-O , 11-H ) :   0.8567 B( 12-O , 13-H ) :   0.8616
B( 12-O , 14-H ) :   0.8138

MP2 TOTAL ENERGY:     -381.582900348 Eh
FINAL SINGLE POINT ENERGY      -381.582900348023

DIPOLE MOMENT
-------------
                                X             Y             Z
Electronic contribution:      0.06726      -0.11930      -0.09688
Nuclear contribution   :     -0.71107      -0.68017       2.09298
                        -----------------------------------------
Total Dipole Moment    :     -0.64381      -0.79947       1.99610
                        -----------------------------------------
Magnitude (a.u.)       :      2.24456
Magnitude (Debye)      :      5.70521

Rotational constants in cm-1:     0.059202     0.025353     0.019273
Rotational constants in MHz :  1774.844376   760.061454   577.788088

                             ****ORCA TERMINATED NORMALLY****
TOTAL RUN TIME: 0 days 0 hours 0 minutes 50 seconds 361 msec
