                         Program Version 4.2.0 -  RELEASE  -
|  1> # 12h2o.su.etal.mol0,3,5,7,8,9,10,11
|  2> ! MP2 def2-TZVP EnGrad TightSCF
|  3>
|  4> %pal
|  5>     nprocs 6
|  6> end
|  7>
|  8> %maxcore 8000
|  9>
| 10> %scf
| 11>     ConvForced true
| 12> end
| 13>
| 14> *xyz 0 1
| 15> O   1.794470000   0.923410000   2.768350000
| 16> H   2.338250000   1.359750000   3.430940000
| 17> H   0.879480000   1.303000000   2.865760000
| 18> O  -1.752130000  -0.741530000  -2.896280000
| 19> H  -2.036450000  -0.920500000  -1.984040000
| 20> H  -0.921210000  -1.242140000  -2.984230000
| 21> O   0.885520000  -1.737840000   0.052730000
| 22> H   1.284090000  -0.839590000   0.017130000
| 23> H   1.032320000  -2.090180000  -0.841890000
| 24> O  -1.737840000  -0.885520000  -0.052730000
| 25> H  -2.090180000  -1.032320000   0.841890000
| 26> H  -0.839590000  -1.284090000  -0.017130000
| 27> O   1.752130000   0.741530000  -2.896280000
| 28> H   2.036450000   0.920500000  -1.984040000
| 29> H   0.921210000   1.242140000  -2.984230000
| 30> O   0.741530000  -1.752130000   2.896280000
| 31> H   0.920500000  -2.036450000   1.984040000
| 32> H   1.242140000  -0.921210000   2.984230000
| 33> O  -0.923410000   1.794470000  -2.768350000
| 34> H  -1.359750000   2.338250000  -3.430940000
| 35> H  -1.303000000   0.879480000  -2.865760000
| 36> O  -0.741530000   1.752130000   2.896280000
| 37> H  -0.920500000   2.036450000   1.984040000
| 38> H  -1.242140000   0.921210000   2.984230000
| 39> *
| 40>
| 41>                          ****END OF INPUT****

CARTESIAN COORDINATES (ANGSTROEM)
---------------------------------
  O      1.794470    0.923410    2.768350
  H      2.338250    1.359750    3.430940
  H      0.879480    1.303000    2.865760
  O     -1.752130   -0.741530   -2.896280
  H     -2.036450   -0.920500   -1.984040
  H     -0.921210   -1.242140   -2.984230
  O      0.885520   -1.737840    0.052730
  H      1.284090   -0.839590    0.017130
  H      1.032320   -2.090180   -0.841890
  O     -1.737840   -0.885520   -0.052730
  H     -2.090180   -1.032320    0.841890
  H     -0.839590   -1.284090   -0.017130
  O      1.752130    0.741530   -2.896280
  H      2.036450    0.920500   -1.984040
  H      0.921210    1.242140   -2.984230
  O      0.741530   -1.752130    2.896280
  H      0.920500   -2.036450    1.984040
  H      1.242140   -0.921210    2.984230
  O     -0.923410    1.794470   -2.768350
  H     -1.359750    2.338250   -3.430940
  H     -1.303000    0.879480   -2.865760
  O     -0.741530    1.752130    2.896280
  H     -0.920500    2.036450    1.984040
  H     -1.242140    0.921210    2.984230

 Total Charge           Charge          ....    0
 Multiplicity           Mult            ....    1
 Number of Electrons    NEL             ....   80
 Basis Dimension        Dim             ....  344

ORBITAL ENERGIES
----------------

  NO   OCC          E(Eh)            E(eV)
   0   2.0000     -20.624117      -561.2107
   1   2.0000     -20.605866      -560.7141
   2   2.0000     -20.579312      -559.9915
   3   2.0000     -20.574647      -559.8646
   4   2.0000     -20.555351      -559.3395
   5   2.0000     -20.545670      -559.0761
   6   2.0000     -20.544931      -559.0560
   7   2.0000     -20.523108      -558.4622
   8   2.0000      -1.407280       -38.2940
   9   2.0000      -1.391710       -37.8704
  10   2.0000      -1.370781       -37.3008
  11   2.0000      -1.355099       -36.8741
  12   2.0000      -1.339551       -36.4510
  13   2.0000      -1.333119       -36.2760
  14   2.0000      -1.322510       -35.9873
  15   2.0000      -1.307843       -35.5882
  16   2.0000      -0.764613       -20.8062
  17   2.0000      -0.748144       -20.3580
  18   2.0000      -0.736101       -20.0303
  19   2.0000      -0.724820       -19.7234
  20   2.0000      -0.724385       -19.7115
  21   2.0000      -0.713193       -19.4070
  22   2.0000      -0.694084       -18.8870
  23   2.0000      -0.689427       -18.7603
  24   2.0000      -0.645910       -17.5761
  25   2.0000      -0.630455       -17.1556
  26   2.0000      -0.621748       -16.9186
  27   2.0000      -0.601736       -16.3741
  28   2.0000      -0.587129       -15.9766
  29   2.0000      -0.579537       -15.7700
  30   2.0000      -0.560764       -15.2592
  31   2.0000      -0.555674       -15.1207
  32   2.0000      -0.546090       -14.8599
  33   2.0000      -0.533747       -14.5240
  34   2.0000      -0.524636       -14.2761
  35   2.0000      -0.514795       -14.0083
  36   2.0000      -0.502278       -13.6677
  37   2.0000      -0.496629       -13.5140
  38   2.0000      -0.490801       -13.3554
  39   2.0000      -0.472914       -12.8686
  40   0.0000       0.073200         1.9919
  41   0.0000       0.104868         2.8536
  42   0.0000       0.129442         3.5223
  43   0.0000       0.147360         4.0099
  44   0.0000       0.155377         4.2280

MULLIKEN ATOMIC CHARGES
-----------------------
   0 O :   -0.744433
   1 H :    0.344748
   2 H :    0.379585
   3 O :   -0.696458
   4 H :    0.391779
   5 H :    0.340640
   6 O :   -0.708548
   7 H :    0.371104
   8 H :    0.366834
   9 O :   -0.730242
  10 H :    0.345961
  11 H :    0.358234
  12 O :   -0.711210
  13 H :    0.319562
  14 H :    0.367128
  15 O :   -0.732317
  16 H :    0.361398
  17 H :    0.352559
  18 O :   -0.744095
  19 H :    0.339154
  20 H :    0.384619
  21 O :   -0.685017
  22 H :    0.366789
  23 H :    0.362224
Sum of atomic charges:    0.0000000

LOEWDIN ATOMIC CHARGES
----------------------
   0 O :   -0.342862
   1 H :    0.157508
   2 H :    0.144980
   3 O :   -0.274299
   4 H :    0.161085
   5 H :    0.165709
   6 O :   -0.272278
   7 H :    0.183503
   8 H :    0.174869
   9 O :   -0.338952
  10 H :    0.165479
  11 H :    0.143234
  12 O :   -0.348778
  13 H :    0.153400
  14 H :    0.149434
  15 O :   -0.354994
  16 H :    0.145900
  17 H :    0.143023
  18 O :   -0.341908
  19 H :    0.154697
  20 H :    0.146026
  21 O :   -0.268248
  22 H :    0.177730
  23 H :    0.175740

  Mayer bond orders larger than 0.100000
B(  0-O ,  1-H ) :   0.8466 B(  0-O ,  2-H ) :   0.7635 B(  3-O ,  4-H ) :   0.7942
B(  3-O ,  5-H ) :   0.8443 B(  6-O ,  7-H ) :   0.8166 B(  6-O ,  8-H ) :   0.8277
B(  9-O , 10-H ) :   0.8443 B(  9-O , 11-H ) :   0.7824 B( 12-O , 13-H ) :   0.8618
B( 12-O , 14-H ) :   0.7965 B( 15-O , 16-H ) :   0.8344 B( 15-O , 17-H ) :   0.8129
B( 18-O , 19-H ) :   0.8494 B( 18-O , 20-H ) :   0.7553 B( 21-O , 22-H ) :   0.8307
B( 21-O , 23-H ) :   0.8299

MP2 TOTAL ENERGY:     -610.572737924 Eh
FINAL SINGLE POINT ENERGY      -610.572737923946

DIPOLE MOMENT
-------------
                                X             Y             Z
Electronic contribution:     -0.29716      -0.07491       0.07873
Nuclear contribution   :     -0.07979       0.37062       0.00000
                        -----------------------------------------
Total Dipole Moment    :     -0.37695       0.29570       0.07873
                        -----------------------------------------
Magnitude (a.u.)       :      0.48552
Magnitude (Debye)      :      1.23409

Rotational constants in cm-1:     0.032683     0.014658     0.014248
Rotational constants in MHz :   979.799506   439.424323   427.147466

                             ****ORCA TERMINATED NORMALLY****
TOTAL RUN TIME: 0 days 0 hours 2 minutes 43 seconds 824 msec
