                         Program Version 3.0.3 - RELEASE   -
|  1> ! B3LYP Def2-TZVP def2-TZVP/J RIJCOSX TightSCF Grid4 D3BJ COSMO
|  2>
|  3> %pal nprocs 12 end
|  4>
|  5> %scf
|  6>         maxiter 400
|  7> end
|  8>
|  9> %cosmo
| 10>         SMD true
| 11>         solvent "WATER"
| 12> end
| 13>
| 14> * xyz  0  1
| 15> O  3.089375	0.190112	-3.115998
| 16> H  2.421271	-0.433526	-3.587822
| 17> H  3.636319	0.582632	-3.824640
| 18> O  -2.239161	0.426745	-0.422520
| 19> H  -1.946710	-0.263967	0.260634
| 20> H  -3.038504	0.846923	0.020204
| 21> O  -0.439052	-0.392303	-2.221248
| 22> H  -1.288454	-0.069046	-1.811210
| 23> H  0.246296	0.293558	-1.918641
| 24> O  1.305570	-1.480010	-4.030252
| 25> H  1.586084	-2.244434	-3.443659
| 26> H  0.503328	-1.129010	-3.560092
| 27> O  2.127428	-3.208975	-2.115682
| 28> H  2.469414	-4.110284	-2.278007
| 29> H  2.929699	-2.663085	-1.777415
| 30> O  -3.908144	1.522568	1.307116
| 31> H  -4.810412	1.889359	1.222526
| 32> H  -3.314735	2.306523	1.604969
| 33> O  0.471948	0.588097	2.202690
| 34> H  -0.015282	0.903228	3.025323
| 35> H  0.190147	1.269572	1.506545
| 36> O  -3.129820	-0.252048	3.198112
| 37> H  -2.571460	-0.839446	2.622515
| 38> H  -3.571525	0.350850	2.527587
| 39> O  -1.320437	1.489731	3.920199
| 40> H  -2.047041	0.781314	3.754641
| 41> H  -1.305101	1.639330	4.886224
| 42> O  1.463000	1.237827	-1.318749
| 43> H  2.116818	1.086894	-2.069642
| 44> H  1.797001	0.599164	-0.604957
| 45> O  -2.172388	3.309981	2.107340
| 46> H  -1.468223	3.155770	1.422509
| 47> H  -1.844131	2.764256	2.883267
| 48> O  -1.296377	-1.243819	1.427528
| 49> H  -0.578460	-0.610078	1.765287
| 50> H  -0.789159	-1.892423	0.865937
| 51> O  -0.426409	2.228647	0.301272
| 52> H  0.300260	2.167446	-0.377673
| 53> H  -1.135393	1.588695	-0.045387
| 54> O  3.994630	-1.577653	-1.280347
| 55> H  3.537438	-1.200030	-0.482248
| 56> H  3.816703	-0.881287	-1.981303
| 57> O  2.167505	-0.581836	0.493005
| 58> H  1.790348	-0.202187	1.332858
| 59> H  1.471095	-1.264048	0.206874
| 60> O  0.318311	-2.240878	-0.454276
| 61> H  0.931377	-2.838923	-0.982723
| 62> H  -0.024988	-1.599921	-1.160671
| 63> **                         ****END OF INPUT****

CARTESIAN COORDINATES (ANGSTROEM)
---------------------------------
  O      3.089375    0.190112   -3.115998
  H      2.421271   -0.433526   -3.587822
  H      3.636319    0.582632   -3.824640
  O     -2.239161    0.426745   -0.422520
  H     -1.946710   -0.263967    0.260634
  H     -3.038504    0.846923    0.020204
  O     -0.439052   -0.392303   -2.221248
  H     -1.288454   -0.069046   -1.811210
  H      0.246296    0.293558   -1.918641
  O      1.305570   -1.480010   -4.030252
  H      1.586084   -2.244434   -3.443659
  H      0.503328   -1.129010   -3.560092
  O      2.127428   -3.208975   -2.115682
  H      2.469414   -4.110284   -2.278007
  H      2.929699   -2.663085   -1.777415
  O     -3.908144    1.522568    1.307116
  H     -4.810412    1.889359    1.222526
  H     -3.314735    2.306523    1.604969
  O      0.471948    0.588097    2.202690
  H     -0.015282    0.903228    3.025323
  H      0.190147    1.269572    1.506545
  O     -3.129820   -0.252048    3.198112
  H     -2.571460   -0.839446    2.622515
  H     -3.571525    0.350850    2.527587
  O     -1.320437    1.489731    3.920199
  H     -2.047041    0.781314    3.754641
  H     -1.305101    1.639330    4.886224
  O      1.463000    1.237827   -1.318749
  H      2.116818    1.086894   -2.069642
  H      1.797001    0.599164   -0.604957
  O     -2.172388    3.309981    2.107340
  H     -1.468223    3.155770    1.422509
  H     -1.844131    2.764256    2.883267
  O     -1.296377   -1.243819    1.427528
  H     -0.578460   -0.610078    1.765287
  H     -0.789159   -1.892423    0.865937
  O     -0.426409    2.228647    0.301272
  H      0.300260    2.167446   -0.377673
  H     -1.135393    1.588695   -0.045387
  O      3.994630   -1.577653   -1.280347
  H      3.537438   -1.200030   -0.482248
  H      3.816703   -0.881287   -1.981303
  O      2.167505   -0.581836    0.493005
  H      1.790348   -0.202187    1.332858
  H      1.471095   -1.264048    0.206874
  O      0.318311   -2.240878   -0.454276
  H      0.931377   -2.838923   -0.982723
  H     -0.024988   -1.599921   -1.160671

 Total Charge           Charge          ....    0
 Multiplicity           Mult            ....    1
 Number of Electrons    NEL             ....  160
 Basis Dimension        Dim             ....  688

ORBITAL ENERGIES
----------------

  NO   OCC          E(Eh)            E(eV)
   0   2.0000     -19.132936      -520.6336
   1   2.0000     -19.132916      -520.6331
   2   2.0000     -19.132891      -520.6324
   3   2.0000     -19.132793      -520.6298
   4   2.0000     -19.127731      -520.4920
   5   2.0000     -19.127680      -520.4906
   6   2.0000     -19.127620      -520.4890
   7   2.0000     -19.127555      -520.4872
   8   2.0000     -19.124810      -520.4125
   9   2.0000     -19.124635      -520.4078
  10   2.0000     -19.124091      -520.3930
  11   2.0000     -19.124059      -520.3921
  12   2.0000     -19.123833      -520.3860
  13   2.0000     -19.123619      -520.3801
  14   2.0000     -19.123233      -520.3696
  15   2.0000     -19.123204      -520.3688
  16   2.0000      -1.037010       -28.2185
  17   2.0000      -1.029038       -28.0015
  18   2.0000      -1.019057       -27.7300
  19   2.0000      -1.018055       -27.7027
  20   2.0000      -1.015965       -27.6458
  21   2.0000      -1.011479       -27.5237
  22   2.0000      -1.010390       -27.4941
  23   2.0000      -1.007923       -27.4270
  24   2.0000      -1.001056       -27.2401
  25   2.0000      -0.996810       -27.1246
  26   2.0000      -0.995931       -27.1007
  27   2.0000      -0.991496       -26.9800
  28   2.0000      -0.989996       -26.9392
  29   2.0000      -0.989420       -26.9235
  30   2.0000      -0.980508       -26.6810
  31   2.0000      -0.971473       -26.4351
  32   2.0000      -0.546652       -14.8752
  33   2.0000      -0.544270       -14.8104
  34   2.0000      -0.544025       -14.8037
  35   2.0000      -0.541807       -14.7433
  36   2.0000      -0.537392       -14.6232
  37   2.0000      -0.533955       -14.5296
  38   2.0000      -0.533373       -14.5138
  39   2.0000      -0.527039       -14.3415
  40   2.0000      -0.522703       -14.2235
  41   2.0000      -0.522029       -14.2051
  42   2.0000      -0.519049       -14.1240
  43   2.0000      -0.514992       -14.0136
  44   2.0000      -0.513477       -13.9724
  45   2.0000      -0.510511       -13.8917
  46   2.0000      -0.510102       -13.8806
  47   2.0000      -0.509251       -13.8574
  48   2.0000      -0.482403       -13.1269
  49   2.0000      -0.460578       -12.5330
  50   2.0000      -0.442120       -12.0307
  51   2.0000      -0.440410       -11.9842
  52   2.0000      -0.430799       -11.7226
  53   2.0000      -0.426353       -11.6017
  54   2.0000      -0.418270       -11.3817
  55   2.0000      -0.415682       -11.3113
  56   2.0000      -0.399087       -10.8597
  57   2.0000      -0.398071       -10.8321
  58   2.0000      -0.396159       -10.7800
  59   2.0000      -0.393137       -10.6978
  60   2.0000      -0.377516       -10.2727
  61   2.0000      -0.371298       -10.1035
  62   2.0000      -0.368849       -10.0369
  63   2.0000      -0.350339        -9.5332
  64   2.0000      -0.331164        -9.0114
  65   2.0000      -0.327778        -8.9193
  66   2.0000      -0.327094        -8.9007
  67   2.0000      -0.326830        -8.8935
  68   2.0000      -0.326408        -8.8820
  69   2.0000      -0.325178        -8.8485
  70   2.0000      -0.323139        -8.7931
  71   2.0000      -0.321971        -8.7613
  72   2.0000      -0.321125        -8.7383
  73   2.0000      -0.319830        -8.7030
  74   2.0000      -0.319544        -8.6952
  75   2.0000      -0.319270        -8.6878
  76   2.0000      -0.318199        -8.6586
  77   2.0000      -0.317975        -8.6525
  78   2.0000      -0.316315        -8.6074
  79   2.0000      -0.315605        -8.5880
  80   0.0000       0.013036         0.3547
  81   0.0000       0.031631         0.8607
  82   0.0000       0.057982         1.5778
  83   0.0000       0.058354         1.5879
  84   0.0000       0.066662         1.8140

MULLIKEN ATOMIC CHARGES
-----------------------
   0 O :   -0.753536
   1 H :    0.378649
   2 H :    0.387727
   3 O :   -0.775794
   4 H :    0.371051
   5 H :    0.386938
   6 O :   -0.773050
   7 H :    0.397261
   8 H :    0.365183
   9 O :   -0.744501
  10 H :    0.375969
  11 H :    0.387495
  12 O :   -0.752095
  13 H :    0.387398
  14 H :    0.376741
  15 O :   -0.752407
  16 H :    0.387565
  17 H :    0.377335
  18 O :   -0.777865
  19 H :    0.386365
  20 H :    0.370743
  21 O :   -0.745788
  22 H :    0.387900
  23 H :    0.374815
  24 O :   -0.752676
  25 H :    0.378328
  26 H :    0.387813
  27 O :   -0.778585
  28 H :    0.386295
  29 H :    0.371649
  30 O :   -0.746686
  31 H :    0.387823
  32 H :    0.374510
  33 O :   -0.771626
  34 H :    0.364887
  35 H :    0.397315
  36 O :   -0.772641
  37 H :    0.397146
  38 H :    0.364883
  39 O :   -0.745971
  40 H :    0.387441
  41 H :    0.374523
  42 O :   -0.770876
  43 H :    0.396523
  44 H :    0.365724
  45 O :   -0.776546
  46 H :    0.386672
  47 H :    0.369976
Sum of atomic charges:   -0.0000000

LOEWDIN ATOMIC CHARGES
----------------------
   0 O :   -0.286863
   1 H :    0.150753
   2 H :    0.188014
   3 O :   -0.314423
   4 H :    0.141211
   5 H :    0.150654
   6 O :   -0.309782
   7 H :    0.155941
   8 H :    0.141302
   9 O :   -0.316332
  10 H :    0.149652
  11 H :    0.154245
  12 O :   -0.287417
  13 H :    0.188157
  14 H :    0.150973
  15 O :   -0.287469
  16 H :    0.188248
  17 H :    0.151208
  18 O :   -0.318090
  19 H :    0.149980
  20 H :    0.140871
  21 O :   -0.318307
  22 H :    0.154260
  23 H :    0.149106
  24 O :   -0.287105
  25 H :    0.151153
  26 H :    0.188149
  27 O :   -0.318527
  28 H :    0.149897
  29 H :    0.140506
  30 O :   -0.319821
  31 H :    0.153692
  32 H :    0.148612
  33 O :   -0.308087
  34 H :    0.141071
  35 H :    0.156307
  36 O :   -0.308319
  37 H :    0.156134
  38 H :    0.140667
  39 O :   -0.319454
  40 H :    0.154010
  41 H :    0.148374
  42 O :   -0.306916
  43 H :    0.156650
  44 H :    0.141400
  45 O :   -0.315089
  46 H :    0.150082
  47 H :    0.140721

  Mayer bond orders larger than 0.1
B(  0-O ,  1-H ) :   0.7274 B(  0-O ,  2-H ) :   0.8487 B(  0-O , 28-H ) :   0.1275
B(  0-O , 41-H ) :   0.1213 B(  1-H ,  9-O ) :   0.1738 B(  3-O ,  4-H ) :   0.7543
B(  3-O ,  5-H ) :   0.7737 B(  3-O , 38-H ) :   0.1595 B(  4-H , 33-O ) :   0.1504
B(  5-H , 15-O ) :   0.1251 B(  6-O ,  7-H ) :   0.7954 B(  6-O ,  8-H ) :   0.7503
B(  6-O , 47-H ) :   0.1499 B(  8-H , 27-O ) :   0.1580 B(  9-O , 10-H ) :   0.7902
B(  9-O , 11-H ) :   0.8134 B( 10-H , 12-O ) :   0.1188 B( 12-O , 13-H ) :   0.8490
B( 12-O , 14-H ) :   0.7299 B( 12-O , 46-H ) :   0.1271 B( 14-H , 39-O ) :   0.1731
B( 15-O , 16-H ) :   0.8489 B( 15-O , 17-H ) :   0.7300 B( 15-O , 23-H ) :   0.1201
B( 17-H , 30-O ) :   0.1724 B( 18-O , 19-H ) :   0.7729 B( 18-O , 20-H ) :   0.7551
B( 18-O , 34-H ) :   0.1580 B( 19-H , 24-O ) :   0.1272 B( 20-H , 36-O ) :   0.1498
B( 21-O , 22-H ) :   0.8125 B( 21-O , 23-H ) :   0.7902 B( 21-O , 25-H ) :   0.1727
B( 24-O , 25-H ) :   0.7287 B( 24-O , 26-H ) :   0.8486 B( 24-O , 32-H ) :   0.1213
B( 27-O , 28-H ) :   0.7726 B( 27-O , 29-H ) :   0.7542 B( 29-H , 42-O ) :   0.1499
B( 30-O , 31-H ) :   0.8125 B( 30-O , 32-H ) :   0.7898 B( 33-O , 34-H ) :   0.7507
B( 33-O , 35-H ) :   0.7958 B( 36-O , 37-H ) :   0.7965 B( 36-O , 38-H ) :   0.7488
B( 39-O , 40-H ) :   0.8125 B( 39-O , 41-H ) :   0.7897 B( 42-O , 43-H ) :   0.7975
B( 42-O , 44-H ) :   0.7501 B( 44-H , 45-O ) :   0.1575 B( 45-O , 46-H ) :   0.7727
B( 45-O , 47-H ) :   0.7556

Dispersion correction           -0.063205888
FINAL SINGLE POINT ENERGY     -1223.160439304557

DIPOLE MOMENT
-------------
                                X             Y             Z
Electronic contribution:     -0.00980      -0.01930      -0.00776
Nuclear contribution   :     -0.01493      -0.04041       0.00452
                        -----------------------------------------
Total Dipole Moment    :     -0.02473      -0.05971      -0.00324
                        -----------------------------------------
Magnitude (a.u.)       :      0.06471
Magnitude (Debye)      :      0.16449

                             ****ORCA TERMINATED NORMALLY****
TOTAL RUN TIME: 0 days 0 hours 2 minutes 8 seconds 737 msec
