                         Program Version 3.0.3 - RELEASE   -
|  1> ! wB97X-D3 MA-Def2-TZVP def2-TZVP/J RIJCOSX TightSCF Grid4
|  2>
|  3> %pal nprocs 1 end
|  4>
|  5> %scf
|  6>         maxiter 400
|  7> end
|  8>
|  9> %cosmo
| 10>         SMD true
| 11>         solvent "WATER"
| 12> end
| 13>
| 14> * xyz  0  1
| 15> O  3.229003	0.481938	-3.152808
| 16> H  2.593395	-0.108454	-3.651839
| 17> H  3.527783	1.161029	-3.776192
| 18> O  -2.503247	0.207741	-0.478289
| 19> H  -2.193107	-0.433781	0.211554
| 20> H  -3.124820	0.789038	0.024376
| 21> O  -0.584471	-0.677586	-2.262921
| 22> H  -1.422468	-0.291444	-1.933055
| 23> H  0.120542	-0.071906	-1.911654
| 24> O  1.460721	-1.277189	-4.088175
| 25> H  1.736983	-1.992534	-3.464363
| 26> H  0.589958	-1.011798	-3.729021
| 27> O  2.236209	-2.964864	-2.090207
| 28> H  2.625544	-3.815145	-2.347949
| 29> H  3.005922	-2.413677	-1.769293
| 30> O  -3.727954	1.770975	1.351913
| 31> H  -4.591789	2.210829	1.316915
| 32> H  -3.075277	2.485488	1.604242
| 33> O  0.344456	0.554540	2.046916
| 34> H  -0.050143	0.897802	2.887512
| 35> H  0.043552	1.191800	1.351435
| 36> O  -3.281262	-0.103727	3.313299
| 37> H  -2.788674	-0.765886	2.786204
| 38> H  -3.596277	0.535658	2.630107
| 39> O  -1.252404	1.539499	3.966176
| 40> H  -2.019873	0.908715	3.869297
| 41> H  -1.104488	1.649467	4.917767
| 42> O  1.402796	0.800186	-1.238952
| 43> H  2.100502	0.869157	-1.940230
| 44> H  1.772412	0.209244	-0.534840
| 45> O  -1.770414	3.444891	2.045447
| 46> H  -1.184032	3.156823	1.313862
| 47> H  -1.498668	2.896875	2.817501
| 48> O  -1.496899	-1.348510	1.508030
| 49> H  -0.782712	-0.708448	1.766991
| 50> H  -1.012088	-2.059337	1.041417
| 51> O  -0.570476	2.101434	-0.020124
| 52> H  0.221087	1.869880	-0.561410
| 53> H  -1.261129	1.446925	-0.294564
| 54> O  4.133585	-1.270012	-1.251281
| 55> H  3.628906	-0.988846	-0.460433
| 56> H  3.994429	-0.558697	-1.915438
| 57> O  2.138987	-0.955994	0.694365
| 58> H  1.691326	-0.416619	1.385234
| 59> H  1.428226	-1.577215	0.389713
| 60> O  0.183535	-2.511017	-0.387330
| 61> H  0.888186	-2.956368	-0.914698
| 62> H  -0.205374	-1.900876	-1.065207
| 63> **                         ****END OF INPUT****

CARTESIAN COORDINATES (ANGSTROEM)
---------------------------------
  O      3.229003    0.481938   -3.152808
  H      2.593395   -0.108454   -3.651839
  H      3.527783    1.161029   -3.776192
  O     -2.503247    0.207741   -0.478289
  H     -2.193107   -0.433781    0.211554
  H     -3.124820    0.789038    0.024376
  O     -0.584471   -0.677586   -2.262921
  H     -1.422468   -0.291444   -1.933055
  H      0.120542   -0.071906   -1.911654
  O      1.460721   -1.277189   -4.088175
  H      1.736983   -1.992534   -3.464363
  H      0.589958   -1.011798   -3.729021
  O      2.236209   -2.964864   -2.090207
  H      2.625544   -3.815145   -2.347949
  H      3.005922   -2.413677   -1.769293
  O     -3.727954    1.770975    1.351913
  H     -4.591789    2.210829    1.316915
  H     -3.075277    2.485488    1.604242
  O      0.344456    0.554540    2.046916
  H     -0.050143    0.897802    2.887512
  H      0.043552    1.191800    1.351435
  O     -3.281262   -0.103727    3.313299
  H     -2.788674   -0.765886    2.786204
  H     -3.596277    0.535658    2.630107
  O     -1.252404    1.539499    3.966176
  H     -2.019873    0.908715    3.869297
  H     -1.104488    1.649467    4.917767
  O      1.402796    0.800186   -1.238952
  H      2.100502    0.869157   -1.940230
  H      1.772412    0.209244   -0.534840
  O     -1.770414    3.444891    2.045447
  H     -1.184032    3.156823    1.313862
  H     -1.498668    2.896875    2.817501
  O     -1.496899   -1.348510    1.508030
  H     -0.782712   -0.708448    1.766991
  H     -1.012088   -2.059337    1.041417
  O     -0.570476    2.101434   -0.020124
  H      0.221087    1.869880   -0.561410
  H     -1.261129    1.446925   -0.294564
  O      4.133585   -1.270012   -1.251281
  H      3.628906   -0.988846   -0.460433
  H      3.994429   -0.558697   -1.915438
  O      2.138987   -0.955994    0.694365
  H      1.691326   -0.416619    1.385234
  H      1.428226   -1.577215    0.389713
  O      0.183535   -2.511017   -0.387330
  H      0.888186   -2.956368   -0.914698
  H     -0.205374   -1.900876   -1.065207

 Total Charge           Charge          ....    0
 Multiplicity           Mult            ....    1
 Number of Electrons    NEL             ....  160
 Basis Dimension        Dim             ....  752
Dispersion correction           -0.032303711
FINAL SINGLE POINT ENERGY     -1223.365898594060
                             ****ORCA TERMINATED NORMALLY****
TOTAL RUN TIME: 0 days 0 hours 33 minutes 37 seconds 380 msec

ORBITAL ENERGIES
----------------

  NO   OCC          E(Eh)            E(eV)
   0   2.0000     -19.244532      -523.6703
   1   2.0000     -19.243989      -523.6556
   2   2.0000     -19.243281      -523.6363
   3   2.0000     -19.243040      -523.6297
   4   2.0000     -19.241102      -523.5770
   5   2.0000     -19.240790      -523.5685
   6   2.0000     -19.240319      -523.5557
   7   2.0000     -19.238934      -523.5180
   8   2.0000     -19.238932      -523.5179
   9   2.0000     -19.237868      -523.4890
  10   2.0000     -19.236593      -523.4543
  11   2.0000     -19.235028      -523.4117
  12   2.0000     -19.234309      -523.3922
  13   2.0000     -19.234199      -523.3892
  14   2.0000     -19.233415      -523.3678
  15   2.0000     -19.232567      -523.3448
  16   2.0000      -1.158733       -31.5307
  17   2.0000      -1.150608       -31.3096
  18   2.0000      -1.141106       -31.0511
  19   2.0000      -1.140887       -31.0451
  20   2.0000      -1.139165       -30.9982
  21   2.0000      -1.134321       -30.8665
  22   2.0000      -1.133498       -30.8441
  23   2.0000      -1.131734       -30.7961
  24   2.0000      -1.125100       -30.6155
  25   2.0000      -1.121289       -30.5118
  26   2.0000      -1.120962       -30.5029
  27   2.0000      -1.117719       -30.4147
  28   2.0000      -1.115869       -30.3643
  29   2.0000      -1.114964       -30.3397
  30   2.0000      -1.107473       -30.1359
  31   2.0000      -1.100946       -29.9583
  32   2.0000      -0.660776       -17.9806
  33   2.0000      -0.656167       -17.8552
  34   2.0000      -0.651360       -17.7244
  35   2.0000      -0.649710       -17.6795
  36   2.0000      -0.648252       -17.6398
  37   2.0000      -0.645635       -17.5686
  38   2.0000      -0.643072       -17.4989
  39   2.0000      -0.636219       -17.3124
  40   2.0000      -0.635246       -17.2859
  41   2.0000      -0.633794       -17.2464
  42   2.0000      -0.632739       -17.2177
  43   2.0000      -0.631442       -17.1824
  44   2.0000      -0.628173       -17.0935
  45   2.0000      -0.624244       -16.9866
  46   2.0000      -0.621339       -16.9075
  47   2.0000      -0.616933       -16.7876
  48   2.0000      -0.584277       -15.8990
  49   2.0000      -0.561603       -15.2820
  50   2.0000      -0.548434       -14.9237
  51   2.0000      -0.546647       -14.8750
  52   2.0000      -0.536321       -14.5940
  53   2.0000      -0.528159       -14.3719
  54   2.0000      -0.522070       -14.2062
  55   2.0000      -0.517052       -14.0697
  56   2.0000      -0.503339       -13.6965
  57   2.0000      -0.500305       -13.6140
  58   2.0000      -0.496283       -13.5045
  59   2.0000      -0.495838       -13.4925
  60   2.0000      -0.481008       -13.0889
  61   2.0000      -0.478462       -13.0196
  62   2.0000      -0.472704       -12.8629
  63   2.0000      -0.460382       -12.5276
  64   2.0000      -0.434828       -11.8323
  65   2.0000      -0.433684       -11.8011
  66   2.0000      -0.432333       -11.7644
  67   2.0000      -0.431490       -11.7414
  68   2.0000      -0.431036       -11.7291
  69   2.0000      -0.429536       -11.6883
  70   2.0000      -0.427702       -11.6384
  71   2.0000      -0.427081       -11.6215
  72   2.0000      -0.425311       -11.5733
  73   2.0000      -0.424646       -11.5552
  74   2.0000      -0.423111       -11.5134
  75   2.0000      -0.422685       -11.5019
  76   2.0000      -0.421270       -11.4633
  77   2.0000      -0.420369       -11.4388
  78   2.0000      -0.419659       -11.4195
  79   2.0000      -0.418212       -11.3801
  80   0.0000       0.059984         1.6323
  81   0.0000       0.074038         2.0147
  82   0.0000       0.091340         2.4855
  83   0.0000       0.093099         2.5333
  84   0.0000       0.101701         2.7674

MULLIKEN ATOMIC CHARGES
-----------------------
   0 O :   -0.835857
   1 H :    0.434772
   2 H :    0.422636
   3 O :   -0.867896
   4 H :    0.440497
   5 H :    0.431139
   6 O :   -0.796445
   7 H :    0.432507
   8 H :    0.396126
   9 O :   -0.828189
  10 H :    0.413186
  11 H :    0.423739
  12 O :   -0.840325
  13 H :    0.416067
  14 H :    0.416381
  15 O :   -0.863794
  16 H :    0.417262
  17 H :    0.423575
  18 O :   -0.871809
  19 H :    0.442870
  20 H :    0.393819
  21 O :   -0.799561
  22 H :    0.429341
  23 H :    0.413128
  24 O :   -0.856863
  25 H :    0.427708
  26 H :    0.421066
  27 O :   -0.927645
  28 H :    0.442376
  29 H :    0.389843
  30 O :   -0.805517
  31 H :    0.420552
  32 H :    0.420515
  33 O :   -0.885690
  34 H :    0.416753
  35 H :    0.444516
  36 O :   -0.856807
  37 H :    0.444958
  38 H :    0.408574
  39 O :   -0.802461
  40 H :    0.407446
  41 H :    0.429946
  42 O :   -0.808609
  43 H :    0.442460
  44 H :    0.419706
  45 O :   -0.898313
  46 H :    0.428924
  47 H :    0.433398
Sum of atomic charges:    0.0000000

LOEWDIN ATOMIC CHARGES
----------------------
   0 O :   -0.374364
   1 H :    0.198171
   2 H :    0.216357
   3 O :   -0.422963
   4 H :    0.191507
   5 H :    0.196671
   6 O :   -0.408665
   7 H :    0.204302
   8 H :    0.186928
   9 O :   -0.401251
  10 H :    0.193435
  11 H :    0.201522
  12 O :   -0.371846
  13 H :    0.216807
  14 H :    0.195098
  15 O :   -0.375065
  16 H :    0.216980
  17 H :    0.194374
  18 O :   -0.400002
  19 H :    0.198686
  20 H :    0.190946
  21 O :   -0.403101
  22 H :    0.201597
  23 H :    0.194257
  24 O :   -0.373480
  25 H :    0.198010
  26 H :    0.216921
  27 O :   -0.394697
  28 H :    0.195220
  29 H :    0.189123
  30 O :   -0.399847
  31 H :    0.195125
  32 H :    0.194587
  33 O :   -0.403243
  34 H :    0.191149
  35 H :    0.208062
  36 O :   -0.407055
  37 H :    0.197032
  38 H :    0.192062
  39 O :   -0.393304
  40 H :    0.198698
  41 H :    0.196158
  42 O :   -0.407301
  43 H :    0.200710
  44 H :    0.192867
  45 O :   -0.421161
  46 H :    0.199252
  47 H :    0.194730

  Mayer bond orders larger than 0.1
B(  0-O ,  1-H ) :   0.7799 B(  0-O ,  2-H ) :   0.8298 B(  3-O ,  4-H ) :   0.8090
B(  3-O ,  5-H ) :   0.8025 B(  6-O ,  7-H ) :   0.8220 B(  6-O ,  8-H ) :   0.8127
B(  9-O , 10-H ) :   0.8112 B(  9-O , 11-H ) :   0.8325 B( 12-O , 13-H ) :   0.8367
B( 12-O , 14-H ) :   0.7859 B( 15-O , 16-H ) :   0.8343 B( 15-O , 17-H ) :   0.7742
B( 18-O , 19-H ) :   0.7918 B( 18-O , 20-H ) :   0.8120 B( 21-O , 22-H ) :   0.8303
B( 21-O , 23-H ) :   0.8216 B( 24-O , 25-H ) :   0.7813 B( 24-O , 26-H ) :   0.8293
B( 27-O , 28-H ) :   0.7771 B( 27-O , 29-H ) :   0.7964 B( 30-O , 31-H ) :   0.8338
B( 30-O , 32-H ) :   0.8251 B( 33-O , 34-H ) :   0.8053 B( 33-O , 35-H ) :   0.8191
B( 36-O , 37-H ) :   0.7993 B( 36-O , 38-H ) :   0.8111 B( 39-O , 40-H ) :   0.8446
B( 39-O , 41-H ) :   0.8195 B( 42-O , 43-H ) :   0.8084 B( 42-O , 44-H ) :   0.8079
B( 45-O , 46-H ) :   0.8127 B( 45-O , 47-H ) :   0.8099

Dispersion correction           -0.032303711
FINAL SINGLE POINT ENERGY     -1223.365898594060

DIPOLE MOMENT
-------------
                                X             Y             Z
Electronic contribution:      0.17858       0.08529       0.02270
Nuclear contribution   :      0.14442       0.51863       0.10972
                        -----------------------------------------
Total Dipole Moment    :      0.32300       0.60393       0.13242
                        -----------------------------------------
Magnitude (a.u.)       :      0.69756
Magnitude (Debye)      :      1.77306

                             ****ORCA TERMINATED NORMALLY****
TOTAL RUN TIME: 0 days 0 hours 29 minutes 37 seconds 166 msec
