                         Program Version 3.0.3 - RELEASE   -
|  1> ! wB97X-D3 Def2-TZVP def2-TZVP/J RIJCOSX TightSCF Grid4
|  2>
|  3> %pal nprocs 12 end
|  4>
|  5> %scf
|  6>         maxiter 400
|  7> end
|  8>
|  9> * xyz  0  1
| 10> O  3.074174	0.224032	-3.143939
| 11> H  2.385441	-0.437264	-3.574818
| 12> H  3.597188	0.590515	-3.880001
| 13> O  -2.211738	0.458902	-0.445911
| 14> H  -1.942671	-0.245188	0.235801
| 15> H  -3.036057	0.855982	-0.040719
| 16> O  -0.445410	-0.449688	-2.210867
| 17> H  -1.309619	-0.112647	-1.845262
| 18> H  0.223147	0.257841	-1.919890
| 19> O  1.335959	-1.449557	-3.989090
| 20> H  1.581789	-2.242684	-3.433272
| 21> H  0.498174	-1.126541	-3.558847
| 22> O  2.143171	-3.236612	-2.086105
| 23> H  2.529200	-4.117172	-2.246177
| 24> H  2.929081	-2.633198	-1.748469
| 25> O  -3.919254	1.553518	1.272845
| 26> H  -4.803609	1.958047	1.206631
| 27> H  -3.274530	2.314122	1.592573
| 28> O  0.476579	0.542405	2.202061
| 29> H  0.037782	0.866744	3.041554
| 30> H  0.205100	1.245444	1.520873
| 31> O  -3.088049	-0.209619	3.185250
| 32> H  -2.572536	-0.840080	2.612865
| 33> H  -3.567175	0.358509	2.516430
| 34> O  -1.304610	1.460044	3.951608
| 35> H  -2.041674	0.751588	3.724067
| 36> H  -1.334326	1.583515	4.918028
| 37> O  1.409784	1.239222	-1.335557
| 38> H  2.080385	1.141676	-2.072867
| 39> H  1.770927	0.615133	-0.620042
| 40> O  -2.190702	3.256518	2.090722
| 41> H  -1.460944	3.157982	1.420260
| 42> H  -1.834927	2.758655	2.880713
| 43> O  -1.331553	-1.232049	1.397038
| 44> H  -0.598945	-0.621986	1.748435
| 45> H  -0.832288	-1.917170	0.873104
| 46> O  -0.397588	2.226036	0.347686
| 47> H  0.314488	2.214263	-0.349384
| 48> H  -1.106962	1.601356	-0.025945
| 49> O  3.940929	-1.591722	-1.296120
| 50> H  3.532700	-1.194753	-0.479284
| 51> H  3.811875	-0.875253	-1.980545
| 52> O  2.179151	-0.544027	0.472136
| 53> H  1.834600	-0.184528	1.334980
| 54> H  1.486247	-1.240034	0.211573
| 55> O  0.335580	-2.238835	-0.411586
| 56> H  0.913229	-2.871630	-0.928989
| 57> H  -0.021512	-1.619810	-1.133549
| 58> **                         ****END OF INPUT****

CARTESIAN COORDINATES (ANGSTROEM)
---------------------------------
  O      3.074174    0.224032   -3.143939
  H      2.385441   -0.437264   -3.574818
  H      3.597188    0.590515   -3.880001
  O     -2.211738    0.458902   -0.445911
  H     -1.942671   -0.245188    0.235801
  H     -3.036057    0.855982   -0.040719
  O     -0.445410   -0.449688   -2.210867
  H     -1.309619   -0.112647   -1.845262
  H      0.223147    0.257841   -1.919890
  O      1.335959   -1.449557   -3.989090
  H      1.581789   -2.242684   -3.433272
  H      0.498174   -1.126541   -3.558847
  O      2.143171   -3.236612   -2.086105
  H      2.529200   -4.117172   -2.246177
  H      2.929081   -2.633198   -1.748469
  O     -3.919254    1.553518    1.272845
  H     -4.803609    1.958047    1.206631
  H     -3.274530    2.314122    1.592573
  O      0.476579    0.542405    2.202061
  H      0.037782    0.866744    3.041554
  H      0.205100    1.245444    1.520873
  O     -3.088049   -0.209619    3.185250
  H     -2.572536   -0.840080    2.612865
  H     -3.567175    0.358509    2.516430
  O     -1.304610    1.460044    3.951608
  H     -2.041674    0.751588    3.724067
  H     -1.334326    1.583515    4.918028
  O      1.409784    1.239222   -1.335557
  H      2.080385    1.141676   -2.072867
  H      1.770927    0.615133   -0.620042
  O     -2.190702    3.256518    2.090722
  H     -1.460944    3.157982    1.420260
  H     -1.834927    2.758655    2.880713
  O     -1.331553   -1.232049    1.397038
  H     -0.598945   -0.621986    1.748435
  H     -0.832288   -1.917170    0.873104
  O     -0.397588    2.226036    0.347686
  H      0.314488    2.214263   -0.349384
  H     -1.106962    1.601356   -0.025945
  O      3.940929   -1.591722   -1.296120
  H      3.532700   -1.194753   -0.479284
  H      3.811875   -0.875253   -1.980545
  O      2.179151   -0.544027    0.472136
  H      1.834600   -0.184528    1.334980
  H      1.486247   -1.240034    0.211573
  O      0.335580   -2.238835   -0.411586
  H      0.913229   -2.871630   -0.928989
  H     -0.021512   -1.619810   -1.133549

 Total Charge           Charge          ....    0
 Multiplicity           Mult            ....    1
 Number of Electrons    NEL             ....  160
 Basis Dimension        Dim             ....  688

ORBITAL ENERGIES
----------------

  NO   OCC          E(Eh)            E(eV)
   0   2.0000     -19.251015      -523.8468
   1   2.0000     -19.250890      -523.8433
   2   2.0000     -19.250821      -523.8415
   3   2.0000     -19.250579      -523.8349
   4   2.0000     -19.240298      -523.5551
   5   2.0000     -19.240049      -523.5484
   6   2.0000     -19.240005      -523.5471
   7   2.0000     -19.239482      -523.5329
   8   2.0000     -19.238709      -523.5119
   9   2.0000     -19.238630      -523.5097
  10   2.0000     -19.237921      -523.4905
  11   2.0000     -19.237841      -523.4883
  12   2.0000     -19.235507      -523.4248
  13   2.0000     -19.235399      -523.4218
  14   2.0000     -19.235012      -523.4113
  15   2.0000     -19.234967      -523.4101
  16   2.0000      -1.160262       -31.5723
  17   2.0000      -1.153232       -31.3810
  18   2.0000      -1.142986       -31.1022
  19   2.0000      -1.141610       -31.0648
  20   2.0000      -1.139385       -31.0042
  21   2.0000      -1.134786       -30.8791
  22   2.0000      -1.132462       -30.8159
  23   2.0000      -1.129691       -30.7404
  24   2.0000      -1.123268       -30.5657
  25   2.0000      -1.117386       -30.4056
  26   2.0000      -1.117112       -30.3982
  27   2.0000      -1.112594       -30.2752
  28   2.0000      -1.111082       -30.2341
  29   2.0000      -1.110032       -30.2055
  30   2.0000      -1.101618       -29.9765
  31   2.0000      -1.091742       -29.7078
  32   2.0000      -0.659025       -17.9330
  33   2.0000      -0.658384       -17.9155
  34   2.0000      -0.657895       -17.9022
  35   2.0000      -0.654034       -17.7972
  36   2.0000      -0.652458       -17.7543
  37   2.0000      -0.648643       -17.6505
  38   2.0000      -0.647194       -17.6110
  39   2.0000      -0.642076       -17.4718
  40   2.0000      -0.634709       -17.2713
  41   2.0000      -0.633404       -17.2358
  42   2.0000      -0.629864       -17.1395
  43   2.0000      -0.624546       -16.9948
  44   2.0000      -0.623257       -16.9597
  45   2.0000      -0.617928       -16.8147
  46   2.0000      -0.617872       -16.8132
  47   2.0000      -0.617660       -16.8074
  48   2.0000      -0.596592       -16.2341
  49   2.0000      -0.574118       -15.6225
  50   2.0000      -0.550164       -14.9707
  51   2.0000      -0.548945       -14.9376
  52   2.0000      -0.537078       -14.6146
  53   2.0000      -0.535429       -14.5698
  54   2.0000      -0.525633       -14.3032
  55   2.0000      -0.523817       -14.2538
  56   2.0000      -0.505143       -13.7456
  57   2.0000      -0.502434       -13.6719
  58   2.0000      -0.502057       -13.6617
  59   2.0000      -0.500627       -13.6227
  60   2.0000      -0.480796       -13.0831
  61   2.0000      -0.475319       -12.9341
  62   2.0000      -0.469965       -12.7884
  63   2.0000      -0.448101       -12.1934
  64   2.0000      -0.437838       -11.9142
  65   2.0000      -0.434868       -11.8334
  66   2.0000      -0.434356       -11.8194
  67   2.0000      -0.432367       -11.7653
  68   2.0000      -0.428926       -11.6717
  69   2.0000      -0.426584       -11.6080
  70   2.0000      -0.425718       -11.5844
  71   2.0000      -0.424513       -11.5516
  72   2.0000      -0.423103       -11.5132
  73   2.0000      -0.422487       -11.4965
  74   2.0000      -0.420635       -11.4461
  75   2.0000      -0.418454       -11.3867
  76   2.0000      -0.417886       -11.3713
  77   2.0000      -0.417810       -11.3692
  78   2.0000      -0.417635       -11.3644
  79   2.0000      -0.415397       -11.3035
  80   0.0000       0.079745         2.1700
  81   0.0000       0.095239         2.5916
  82   0.0000       0.117425         3.1953
  83   0.0000       0.117632         3.2009
  84   0.0000       0.132275         3.5994

MULLIKEN ATOMIC CHARGES
-----------------------
   0 O :   -0.772129
   1 H :    0.372539
   2 H :    0.355706
   3 O :   -0.759893
   4 H :    0.360293
   5 H :    0.386260
   6 O :   -0.760795
   7 H :    0.402769
   8 H :    0.348828
   9 O :   -0.690090
  10 H :    0.365960
  11 H :    0.391293
  12 O :   -0.771226
  13 H :    0.355572
  14 H :    0.371301
  15 O :   -0.771695
  16 H :    0.355759
  17 H :    0.371941
  18 O :   -0.760988
  19 H :    0.386445
  20 H :    0.360915
  21 O :   -0.690898
  22 H :    0.391133
  23 H :    0.365921
  24 O :   -0.771763
  25 H :    0.372062
  26 H :    0.356110
  27 O :   -0.760960
  28 H :    0.386325
  29 H :    0.361172
  30 O :   -0.690377
  31 H :    0.391081
  32 H :    0.365191
  33 O :   -0.760703
  34 H :    0.349544
  35 H :    0.403016
  36 O :   -0.761534
  37 H :    0.403278
  38 H :    0.349395
  39 O :   -0.690421
  40 H :    0.390961
  41 H :    0.365239
  42 O :   -0.760574
  43 H :    0.402774
  44 H :    0.349156
  45 O :   -0.761078
  46 H :    0.386540
  47 H :    0.360643
Sum of atomic charges:   -0.0000000

LOEWDIN ATOMIC CHARGES
----------------------
   0 O :   -0.320349
   1 H :    0.144423
   2 H :    0.163675
   3 O :   -0.306825
   4 H :    0.139951
   5 H :    0.150229
   6 O :   -0.302673
   7 H :    0.158156
   8 H :    0.139004
   9 O :   -0.269810
  10 H :    0.148804
  11 H :    0.156777
  12 O :   -0.320674
  13 H :    0.163888
  14 H :    0.144864
  15 O :   -0.320554
  16 H :    0.163919
  17 H :    0.145031
  18 O :   -0.309024
  19 H :    0.150278
  20 H :    0.139772
  21 O :   -0.271370
  22 H :    0.156500
  23 H :    0.148528
  24 O :   -0.320739
  25 H :    0.145014
  26 H :    0.163908
  27 O :   -0.308760
  28 H :    0.149974
  29 H :    0.139818
  30 O :   -0.271508
  31 H :    0.156166
  32 H :    0.148365
  33 O :   -0.301323
  34 H :    0.139489
  35 H :    0.158481
  36 O :   -0.301199
  37 H :    0.158747
  38 H :    0.139034
  39 O :   -0.271541
  40 H :    0.156345
  41 H :    0.148117
  42 O :   -0.301156
  43 H :    0.158582
  44 H :    0.139118
  45 O :   -0.307784
  46 H :    0.150109
  47 H :    0.140222

  Mayer bond orders larger than 0.1
B(  0-O ,  1-H ) :   0.6969 B(  0-O ,  2-H ) :   0.8774 B(  0-O , 28-H ) :   0.1037
B(  1-H ,  9-O ) :   0.2163 B(  3-O ,  4-H ) :   0.7591 B(  3-O ,  5-H ) :   0.7942
B(  3-O , 38-H ) :   0.1629 B(  4-H , 33-O ) :   0.1563 B(  5-H , 15-O ) :   0.1025
B(  6-O ,  7-H ) :   0.7993 B(  6-O ,  8-H ) :   0.7603 B(  6-O , 47-H ) :   0.1558
B(  8-H , 27-O ) :   0.1627 B(  9-O , 10-H ) :   0.8144 B(  9-O , 11-H ) :   0.8144
B( 12-O , 13-H ) :   0.8776 B( 12-O , 14-H ) :   0.6980 B( 12-O , 46-H ) :   0.1031
B( 14-H , 39-O ) :   0.2166 B( 15-O , 16-H ) :   0.8773 B( 15-O , 17-H ) :   0.6975
B( 17-H , 30-O ) :   0.2166 B( 18-O , 19-H ) :   0.7939 B( 18-O , 20-H ) :   0.7597
B( 18-O , 34-H ) :   0.1624 B( 19-H , 24-O ) :   0.1031 B( 20-H , 36-O ) :   0.1550
B( 21-O , 22-H ) :   0.8149 B( 21-O , 23-H ) :   0.8135 B( 21-O , 25-H ) :   0.2155
B( 24-O , 25-H ) :   0.6981 B( 24-O , 26-H ) :   0.8771 B( 27-O , 28-H ) :   0.7935
B( 27-O , 29-H ) :   0.7599 B( 29-H , 42-O ) :   0.1544 B( 30-O , 31-H ) :   0.8142
B( 30-O , 32-H ) :   0.8144 B( 33-O , 34-H ) :   0.7602 B( 33-O , 35-H ) :   0.7995
B( 36-O , 37-H ) :   0.7997 B( 36-O , 38-H ) :   0.7592 B( 39-O , 40-H ) :   0.8145
B( 39-O , 41-H ) :   0.8142 B( 42-O , 43-H ) :   0.8001 B( 42-O , 44-H ) :   0.7608
B( 44-H , 45-O ) :   0.1616 B( 45-O , 46-H ) :   0.7936 B( 45-O , 47-H ) :   0.7594

Dispersion correction           -0.033059056
FINAL SINGLE POINT ENERGY     -1223.302070343588

DIPOLE MOMENT
-------------
                                X             Y             Z
Electronic contribution:     -0.00411       0.00246      -0.00271
Nuclear contribution   :     -0.01604      -0.02139      -0.00043
                        -----------------------------------------
Total Dipole Moment    :     -0.02015      -0.01894      -0.00314
                        -----------------------------------------
Magnitude (a.u.)       :      0.02783
Magnitude (Debye)      :      0.07074

                             ****ORCA TERMINATED NORMALLY****
TOTAL RUN TIME: 0 days 0 hours 2 minutes 6 seconds 911 msec
