                         Program Version 4.2.0 -  RELEASE  -
|  1> # 12h2o.su.etal.mol0,5,10
|  2> ! MP2 def2-TZVP EnGrad TightSCF
|  3>
|  4> %pal
|  5>     nprocs 6
|  6> end
|  7>
|  8> %maxcore 8000
|  9>
| 10> %scf
| 11>     ConvForced true
| 12> end
| 13>
| 14> *xyz 0 1
| 15> O   1.794470000   0.923410000   2.768350000
| 16> H   2.338250000   1.359750000   3.430940000
| 17> H   0.879480000   1.303000000   2.865760000
| 18> O   0.885520000  -1.737840000   0.052730000
| 19> H   1.284090000  -0.839590000   0.017130000
| 20> H   1.032320000  -2.090180000  -0.841890000
| 21> O  -0.923410000   1.794470000  -2.768350000
| 22> H  -1.359750000   2.338250000  -3.430940000
| 23> H  -1.303000000   0.879480000  -2.865760000
| 24> *
| 25>
| 26>                          ****END OF INPUT****

CARTESIAN COORDINATES (ANGSTROEM)
---------------------------------
  O      1.794470    0.923410    2.768350
  H      2.338250    1.359750    3.430940
  H      0.879480    1.303000    2.865760
  O      0.885520   -1.737840    0.052730
  H      1.284090   -0.839590    0.017130
  H      1.032320   -2.090180   -0.841890
  O     -0.923410    1.794470   -2.768350
  H     -1.359750    2.338250   -3.430940
  H     -1.303000    0.879480   -2.865760

 Total Charge           Charge          ....    0
 Multiplicity           Mult            ....    1
 Number of Electrons    NEL             ....   30
 Basis Dimension        Dim             ....  129

ORBITAL ENERGIES
----------------

  NO   OCC          E(Eh)            E(eV)
   0   2.0000     -20.564963      -559.6011
   1   2.0000     -20.559702      -559.4579
   2   2.0000     -20.548410      -559.1507
   3   2.0000      -1.340302       -36.4715
   4   2.0000      -1.334965       -36.3262
   5   2.0000      -1.324431       -36.0396
   6   2.0000      -0.708716       -19.2851
   7   2.0000      -0.703393       -19.1403
   8   2.0000      -0.686198       -18.6724
   9   2.0000      -0.576303       -15.6820
  10   2.0000      -0.571136       -15.5414
  11   2.0000      -0.563810       -15.3421
  12   2.0000      -0.508168       -13.8279
  13   2.0000      -0.502778       -13.6813
  14   2.0000      -0.491409       -13.3719
  15   0.0000       0.113615         3.0916
  16   0.0000       0.127579         3.4716
  17   0.0000       0.151130         4.1125
  18   0.0000       0.197594         5.3768
  19   0.0000       0.200123         5.4456

MULLIKEN ATOMIC CHARGES
-----------------------
   0 O :   -0.681691
   1 H :    0.338298
   2 H :    0.345294
   3 O :   -0.679312
   4 H :    0.349502
   5 H :    0.328192
   6 O :   -0.682971
   7 H :    0.339324
   8 H :    0.343364
Sum of atomic charges:   -0.0000000

LOEWDIN ATOMIC CHARGES
----------------------
   0 O :   -0.338081
   1 H :    0.157880
   2 H :    0.182089
   3 O :   -0.338944
   4 H :    0.176127
   5 H :    0.161159
   6 O :   -0.339338
   7 H :    0.158077
   8 H :    0.181030

  Mayer bond orders larger than 0.100000
B(  0-O ,  1-H ) :   0.8531 B(  0-O ,  2-H ) :   0.8438 B(  3-O ,  4-H ) :   0.8420
B(  3-O ,  5-H ) :   0.8577 B(  6-O ,  7-H ) :   0.8529 B(  6-O ,  8-H ) :   0.8450

MP2 TOTAL ENERGY:     -228.938412694 Eh
FINAL SINGLE POINT ENERGY      -228.938412694363

DIPOLE MOMENT
-------------
                                X             Y             Z
Electronic contribution:      0.09339      -0.10176       0.15777
Nuclear contribution   :     -0.53418       0.82456      -0.77428
                        -----------------------------------------
Total Dipole Moment    :     -0.44079       0.72280      -0.61651
                        -----------------------------------------
Magnitude (a.u.)       :      1.04729
Magnitude (Debye)      :      2.66201

Rotational constants in cm-1:     0.147699     0.045810     0.035156
Rotational constants in MHz :  4427.902096  1373.339355  1053.935441

                             ****ORCA TERMINATED NORMALLY****
TOTAL RUN TIME: 0 days 0 hours 0 minutes 7 seconds 835 msec
