                         Program Version 4.2.0 -  RELEASE  -
|  1> # 12h2o.su.etal.mol3,8,9
|  2> ! MP2 def2-TZVP EnGrad TightSCF
|  3>
|  4> %pal
|  5>     nprocs 6
|  6> end
|  7>
|  8> %maxcore 8000
|  9>
| 10> %scf
| 11>     ConvForced true
| 12> end
| 13>
| 14> *xyz 0 1
| 15> O  -1.752130000  -0.741530000  -2.896280000
| 16> H  -2.036450000  -0.920500000  -1.984040000
| 17> H  -0.921210000  -1.242140000  -2.984230000
| 18> O   1.752130000   0.741530000  -2.896280000
| 19> H   2.036450000   0.920500000  -1.984040000
| 20> H   0.921210000   1.242140000  -2.984230000
| 21> O   0.741530000  -1.752130000   2.896280000
| 22> H   0.920500000  -2.036450000   1.984040000
| 23> H   1.242140000  -0.921210000   2.984230000
| 24> *
| 25>
| 26>                          ****END OF INPUT****

CARTESIAN COORDINATES (ANGSTROEM)
---------------------------------
  O     -1.752130   -0.741530   -2.896280
  H     -2.036450   -0.920500   -1.984040
  H     -0.921210   -1.242140   -2.984230
  O      1.752130    0.741530   -2.896280
  H      2.036450    0.920500   -1.984040
  H      0.921210    1.242140   -2.984230
  O      0.741530   -1.752130    2.896280
  H      0.920500   -2.036450    1.984040
  H      1.242140   -0.921210    2.984230

 Total Charge           Charge          ....    0
 Multiplicity           Mult            ....    1
 Number of Electrons    NEL             ....   30
 Basis Dimension        Dim             ....  129

ORBITAL ENERGIES
----------------

  NO   OCC          E(Eh)            E(eV)
   0   2.0000     -20.570929      -559.7634
   1   2.0000     -20.569317      -559.7196
   2   2.0000     -20.566869      -559.6530
   3   2.0000      -1.350178       -36.7402
   4   2.0000      -1.348535       -36.6955
   5   2.0000      -1.345986       -36.6261
   6   2.0000      -0.712947       -19.4003
   7   2.0000      -0.711563       -19.3626
   8   2.0000      -0.708063       -19.2674
   9   2.0000      -0.587366       -15.9830
  10   2.0000      -0.586189       -15.9510
  11   2.0000      -0.583695       -15.8831
  12   2.0000      -0.515547       -14.0288
  13   2.0000      -0.514931       -14.0120
  14   2.0000      -0.508986       -13.8502
  15   0.0000       0.101140         2.7521
  16   0.0000       0.122682         3.3383
  17   0.0000       0.143795         3.9128
  18   0.0000       0.187306         5.0969
  19   0.0000       0.201938         5.4950

MULLIKEN ATOMIC CHARGES
-----------------------
   0 O :   -0.680272
   1 H :    0.336093
   2 H :    0.344239
   3 O :   -0.679992
   4 H :    0.332826
   5 H :    0.347106
   6 O :   -0.671055
   7 H :    0.334486
   8 H :    0.336568
Sum of atomic charges:   -0.0000000

LOEWDIN ATOMIC CHARGES
----------------------
   0 O :   -0.332230
   1 H :    0.164800
   2 H :    0.167475
   3 O :   -0.332228
   4 H :    0.163406
   5 H :    0.168777
   6 O :   -0.330748
   7 H :    0.164284
   8 H :    0.166464

  Mayer bond orders larger than 0.100000
B(  0-O ,  1-H ) :   0.8535 B(  0-O ,  2-H ) :   0.8455 B(  3-O ,  4-H ) :   0.8554
B(  3-O ,  5-H ) :   0.8438 B(  6-O ,  7-H ) :   0.8548 B(  6-O ,  8-H ) :   0.8534

MP2 TOTAL ENERGY:     -228.941198375 Eh
FINAL SINGLE POINT ENERGY      -228.941198375045

DIPOLE MOMENT
-------------
                                X             Y             Z
Electronic contribution:     -0.09619      -0.07339      -0.11921
Nuclear contribution   :      0.56566       0.45497       0.68611
                        -----------------------------------------
Total Dipole Moment    :      0.46947       0.38158       0.56690
                        -----------------------------------------
Magnitude (a.u.)       :      0.82908
Magnitude (Debye)      :      2.10736

Rotational constants in cm-1:     0.127677     0.038559     0.029816
Rotational constants in MHz :  3827.666519  1155.973489   893.871423

                             ****ORCA TERMINATED NORMALLY****
TOTAL RUN TIME: 0 days 0 hours 0 minutes 7 seconds 648 msec
