                         Program Version 4.2.0 -  RELEASE  -
|  1> # 12h2o.su.etal.mol4,9,10,11
|  2> ! MP2 def2-TZVP EnGrad TightSCF
|  3>
|  4> %pal
|  5>     nprocs 6
|  6> end
|  7>
|  8> %maxcore 8000
|  9>
| 10> %scf
| 11>     ConvForced true
| 12> end
| 13>
| 14> *xyz 0 1
| 15> O  -0.885520000   1.737840000   0.052730000
| 16> H  -1.032320000   2.090180000  -0.841890000
| 17> H  -1.284090000   0.839590000   0.017130000
| 18> O   0.741530000  -1.752130000   2.896280000
| 19> H   0.920500000  -2.036450000   1.984040000
| 20> H   1.242140000  -0.921210000   2.984230000
| 21> O  -0.923410000   1.794470000  -2.768350000
| 22> H  -1.359750000   2.338250000  -3.430940000
| 23> H  -1.303000000   0.879480000  -2.865760000
| 24> O  -0.741530000   1.752130000   2.896280000
| 25> H  -0.920500000   2.036450000   1.984040000
| 26> H  -1.242140000   0.921210000   2.984230000
| 27> *
| 28>
| 29>                          ****END OF INPUT****

CARTESIAN COORDINATES (ANGSTROEM)
---------------------------------
  O     -0.885520    1.737840    0.052730
  H     -1.032320    2.090180   -0.841890
  H     -1.284090    0.839590    0.017130
  O      0.741530   -1.752130    2.896280
  H      0.920500   -2.036450    1.984040
  H      1.242140   -0.921210    2.984230
  O     -0.923410    1.794470   -2.768350
  H     -1.359750    2.338250   -3.430940
  H     -1.303000    0.879480   -2.865760
  O     -0.741530    1.752130    2.896280
  H     -0.920500    2.036450    1.984040
  H     -1.242140    0.921210    2.984230

 Total Charge           Charge          ....    0
 Multiplicity           Mult            ....    1
 Number of Electrons    NEL             ....   40
 Basis Dimension        Dim             ....  172

ORBITAL ENERGIES
----------------

  NO   OCC          E(Eh)            E(eV)
   0   2.0000     -20.604195      -560.6686
   1   2.0000     -20.562826      -559.5430
   2   2.0000     -20.556608      -559.3737
   3   2.0000     -20.523447      -558.4714
   4   2.0000      -1.382169       -37.6107
   5   2.0000      -1.344000       -36.5721
   6   2.0000      -1.335781       -36.3485
   7   2.0000      -1.305060       -35.5125
   8   2.0000      -0.749059       -20.3829
   9   2.0000      -0.713247       -19.4084
  10   2.0000      -0.698451       -19.0058
  11   2.0000      -0.673035       -18.3142
  12   2.0000      -0.621809       -16.9203
  13   2.0000      -0.588615       -16.0170
  14   2.0000      -0.573786       -15.6135
  15   2.0000      -0.549612       -14.9557
  16   2.0000      -0.534974       -14.5574
  17   2.0000      -0.507801       -13.8180
  18   2.0000      -0.501162       -13.6373
  19   2.0000      -0.469652       -12.7799
  20   0.0000       0.088602         2.4110
  21   0.0000       0.120652         3.2831
  22   0.0000       0.156499         4.2585
  23   0.0000       0.173859         4.7309
  24   0.0000       0.199669         5.4333

MULLIKEN ATOMIC CHARGES
-----------------------
   0 O :   -0.703613
   1 H :    0.376306
   2 H :    0.321583
   3 O :   -0.683715
   4 H :    0.331703
   5 H :    0.350925
   6 O :   -0.691415
   7 H :    0.355392
   8 H :    0.350777
   9 O :   -0.702554
  10 H :    0.371645
  11 H :    0.322965
Sum of atomic charges:    0.0000000

LOEWDIN ATOMIC CHARGES
----------------------
   0 O :   -0.324657
   1 H :    0.153997
   2 H :    0.163759
   3 O :   -0.333867
   4 H :    0.162724
   5 H :    0.170533
   6 O :   -0.308881
   7 H :    0.165088
   8 H :    0.184123
   9 O :   -0.342222
  10 H :    0.152400
  11 H :    0.157003

  Mayer bond orders larger than 0.100000
B(  0-O ,  1-H ) :   0.8071 B(  0-O ,  2-H ) :   0.8545 B(  3-O ,  4-H ) :   0.8561
B(  3-O ,  5-H ) :   0.8409 B(  6-O ,  7-H ) :   0.8400 B(  6-O ,  8-H ) :   0.8371
B(  9-O , 10-H ) :   0.8169 B(  9-O , 11-H ) :   0.8581

MP2 TOTAL ENERGY:     -305.266110984 Eh
FINAL SINGLE POINT ENERGY      -305.266110983774

DIPOLE MOMENT
-------------
                                X             Y             Z
Electronic contribution:      0.22423       0.22565       0.04877
Nuclear contribution   :     -1.13309      -0.76337      -2.77909
                        -----------------------------------------
Total Dipole Moment    :     -0.90886      -0.53773      -2.73031
                        -----------------------------------------
Magnitude (a.u.)       :      2.92742
Magnitude (Debye)      :      7.44091

Rotational constants in cm-1:     0.140946     0.034634     0.028011
Rotational constants in MHz :  4225.454449  1038.305233   839.749326

                             ****ORCA TERMINATED NORMALLY****
TOTAL RUN TIME: 0 days 0 hours 0 minutes 16 seconds 117 msec
