                         Program Version 3.0.3 - RELEASE   -
|  1> ! BP86 Def2-SVP TightSCF Opt D3BJ COSMO
|  2>
|  3> %pal nprocs 12 end
|  4>
|  5> %scf
|  6>         maxiter 800
|  7> end
|  8>
|  9> %cosmo
| 10> 	SMD true
| 11>         solvent "WATER"
| 12> end
| 13>
| 14> * xyz  0  1
| 15>   O      1.166275   -0.476042    1.026492
| 16>   H      0.473738   -0.199145    0.426532
| 17>   H      1.970635   -0.408638    0.512007
| 18>   O     -0.891056    0.264661   -0.667138
| 19>   H     -1.164833    1.016691   -1.192237
| 20>   H     -1.705046   -0.082099   -0.301885
| 21> **                         ****END OF INPUT****
 Total Charge           Charge          ....    0
 Multiplicity           Mult            ....    1
 Number of Electrons    NEL             ....   20
Dispersion correction           -0.001888694
FINAL SINGLE POINT ENERGY      -152.752841873941
Dispersion correction            ...
Dispersion correction           -0.001873308
FINAL SINGLE POINT ENERGY      -152.754817568076
Dispersion correction            ...
Dispersion correction           -0.001887131
FINAL SINGLE POINT ENERGY      -152.754958208855
Dispersion correction            ...
FINAL SINGLE POINT ENERGY      -152.755075735897
FINAL SINGLE POINT ENERGY      -152.755129738354
FINAL SINGLE POINT ENERGY      -152.755404418975
FINAL SINGLE POINT ENERGY      -152.755613706321
FINAL SINGLE POINT ENERGY      -152.755889338341
FINAL SINGLE POINT ENERGY      -152.756051538078
FINAL SINGLE POINT ENERGY      -152.756192444763
FINAL SINGLE POINT ENERGY      -152.756774463260
FINAL SINGLE POINT ENERGY      -152.756901700477
FINAL SINGLE POINT ENERGY      -152.757033051891
FINAL SINGLE POINT ENERGY      -152.757159708270
FINAL SINGLE POINT ENERGY      -152.757208411672
FINAL SINGLE POINT ENERGY      -152.757224373653
FINAL SINGLE POINT ENERGY      -152.757223488395
Dispersion correction            ...
Dispersion correction           -0.001973250
FINAL SINGLE POINT ENERGY      -152.757222056427
Dispersion correction            ...
Dispersion correction           -0.001972996
FINAL SINGLE POINT ENERGY      -152.757230376254
Dispersion correction            ...
                    ***********************HURRAY********************

CARTESIAN COORDINATES (ANGSTROEM)
---------------------------------
  O      1.137516   -0.247546    1.017017
  H      0.393060   -0.141760    0.363809
  H      1.875978   -0.514251    0.436152
  O     -0.908444    0.078874   -0.820433
  H     -0.938282    1.053868   -0.899676
  H     -1.710116   -0.113757   -0.293098

 Multiplicity           Mult            ....    1
 Number of Electrons    NEL             ....   20
 Basis Dimension        Dim             ....   48

ORBITAL ENERGIES
----------------

  NO   OCC          E(Eh)            E(eV)
   0   2.0000     -18.785450      -511.1781
   1   2.0000     -18.742284      -510.0035
   2   2.0000      -0.909732       -24.7551
   3   2.0000      -0.866677       -23.5835
   4   2.0000      -0.466488       -12.6938
   5   2.0000      -0.435451       -11.8492
   6   2.0000      -0.346845        -9.4381
   7   2.0000      -0.308694        -8.4000
   8   2.0000      -0.259223        -7.0538
   9   2.0000      -0.226557        -6.1649
  10   0.0000       0.038618         1.0508
  11   0.0000       0.086987         2.3670
  12   0.0000       0.123330         3.3560
  13   0.0000       0.212165         5.7733
  14   0.0000       0.493334        13.4243

MULLIKEN ATOMIC CHARGES
-----------------------
   0 O :   -0.430437
   1 H :    0.128520
   2 H :    0.187628
   3 O :   -0.316405
   4 H :    0.214399
   5 H :    0.216296
Sum of atomic charges:    0.0000000

LOEWDIN ATOMIC CHARGES
----------------------
   0 O :   -0.244428
   1 H :    0.033215
   2 H :    0.091821
   3 O :   -0.113294
   4 H :    0.115727
   5 H :    0.116959

  Mayer bond orders larger than 0.1
B(  0-O ,  1-H ) :   0.9159 B(  0-O ,  2-H ) :   0.9903 B(  1-H ,  3-O ) :   0.2016
B(  3-O ,  4-H ) :   0.9709 B(  3-O ,  5-H ) :   0.9705

Dispersion correction           -0.001972543
FINAL SINGLE POINT ENERGY      -152.757230270796

DIPOLE MOMENT
-------------
                                X             Y             Z
Electronic contribution:     -0.22865       0.01577      -0.15978
Nuclear contribution   :     -0.69710       0.51727      -0.65422
                        -----------------------------------------
Total Dipole Moment    :     -0.92576       0.53304      -0.81400
                        -----------------------------------------
Magnitude (a.u.)       :      1.34304
Magnitude (Debye)      :      3.41373

                             ****ORCA TERMINATED NORMALLY****
TOTAL RUN TIME: 0 days 0 hours 24 minutes 19 seconds 919 msec
