                         Program Version 3.0.3 - RELEASE   -
|  1> ! B3LYP Def2-SVP def2-SVP/J RIJCOSX TightSCF Grid4 D3BJ COSMO OPT
|  2>
|  3> %pal nprocs 12 end
|  4>
|  5> %scf
|  6>         maxiter 800
|  7> end
|  8>
|  9> %cosmo
| 10>         SMD true
| 11>         solvent "WATER"
| 12> end
| 13>
| 14> * xyz  0  1
| 15> O  1.16627538	-0.47604216	1.02649171
| 16> H  0.47373765	-0.19914488	0.42653235
| 17> H  1.97063501	-0.40863840	0.51200733
| 18> O  -0.89105588	0.26466071	-0.66713829
| 19> H  -1.16483300	1.01669070	-1.19223716
| 20> H  -1.70504590	-0.08209872	-0.30188496
| 21> **                         ****END OF INPUT****
 Total Charge           Charge          ....    0
 Multiplicity           Mult            ....    1
 Number of Electrons    NEL             ....   20
Dispersion correction           -0.002209574
FINAL SINGLE POINT ENERGY      -152.676302326757
Dispersion correction            ...
Dispersion correction           -0.002191150
FINAL SINGLE POINT ENERGY      -152.677160848915
Dispersion correction            ...
Dispersion correction           -0.002202030
FINAL SINGLE POINT ENERGY      -152.677229417445
Dispersion correction            ...
FINAL SINGLE POINT ENERGY      -152.677295254851
FINAL SINGLE POINT ENERGY      -152.677343495542
FINAL SINGLE POINT ENERGY      -152.677513705324
FINAL SINGLE POINT ENERGY      -152.677737218102
FINAL SINGLE POINT ENERGY      -152.678287668691
FINAL SINGLE POINT ENERGY      -152.678748671443
FINAL SINGLE POINT ENERGY      -152.678784471841
FINAL SINGLE POINT ENERGY      -152.678842610965
FINAL SINGLE POINT ENERGY      -152.678833956431
FINAL SINGLE POINT ENERGY      -152.678852664138
FINAL SINGLE POINT ENERGY      -152.682677116764
FINAL SINGLE POINT ENERGY      -152.678889122253
FINAL SINGLE POINT ENERGY      -152.678922313281
FINAL SINGLE POINT ENERGY      -152.678915651624
Dispersion correction            ...
Dispersion correction           -0.002314415
FINAL SINGLE POINT ENERGY      -152.678906055147
Dispersion correction            ...
Dispersion correction           -0.002314689
FINAL SINGLE POINT ENERGY      -152.678905481413
Dispersion correction            ...
                    ***********************HURRAY********************

CARTESIAN COORDINATES (ANGSTROEM)
---------------------------------
  O      1.150924   -0.282354    1.020049
  H      0.382119   -0.162131    0.418934
  H      1.871184   -0.458816    0.396419
  O     -0.902426    0.076142   -0.786964
  H     -0.910459    1.037966   -0.913996
  H     -1.741629   -0.095380   -0.330670

 Multiplicity           Mult            ....    1
 Number of Electrons    NEL             ....   20
 Basis Dimension        Dim             ....   48

ORBITAL ENERGIES
----------------

  NO   OCC          E(Eh)            E(eV)
   0   2.0000     -19.137458      -520.7567
   1   2.0000     -19.097209      -519.6615
   2   2.0000      -0.993614       -27.0376
   3   2.0000      -0.953977       -25.9590
   4   2.0000      -0.518437       -14.1074
   5   2.0000      -0.489580       -13.3221
   6   2.0000      -0.397823       -10.8253
   7   2.0000      -0.360130        -9.7996
   8   2.0000      -0.309678        -8.4268
   9   2.0000      -0.281456        -7.6588
  10   0.0000       0.057267         1.5583
  11   0.0000       0.107315         2.9202
  12   0.0000       0.145492         3.9590
  13   0.0000       0.243055         6.6139
  14   0.0000       0.536615        14.6020

MULLIKEN ATOMIC CHARGES
-----------------------
   0 O :   -0.423279
   1 H :    0.135774
   2 H :    0.184453
   3 O :   -0.319176
   4 H :    0.209674
   5 H :    0.212554
Sum of atomic charges:   -0.0000000

LOEWDIN ATOMIC CHARGES
----------------------
   0 O :   -0.234967
   1 H :    0.034514
   2 H :    0.089862
   3 O :   -0.113737
   4 H :    0.111288
   5 H :    0.113040

  Mayer bond orders larger than 0.1
B(  0-O ,  1-H ) :   0.9288 B(  0-O ,  2-H ) :   0.9914 B(  1-H ,  3-O ) :   0.1845
B(  3-O ,  4-H ) :   0.9729 B(  3-O ,  5-H ) :   0.9724

Dispersion correction           -0.002315048
FINAL SINGLE POINT ENERGY      -152.678908939538

DIPOLE MOMENT
-------------
                                X             Y             Z
Electronic contribution:     -0.21258       0.01581      -0.14381
Nuclear contribution   :     -0.74561       0.61100      -0.74537
                        -----------------------------------------
Total Dipole Moment    :     -0.95819       0.62682      -0.88917
                        -----------------------------------------
Magnitude (a.u.)       :      1.44971
Magnitude (Debye)      :      3.68487

                             ****ORCA TERMINATED NORMALLY****
TOTAL RUN TIME: 0 days 0 hours 18 minutes 13 seconds 50 msec
