                         Program Version 4.2.0 -  RELEASE  -
|  1> # 12h2o.su.etal.mol3,5,7,10
|  2> ! MP2 def2-TZVP EnGrad TightSCF
|  3>
|  4> %pal
|  5>     nprocs 6
|  6> end
|  7>
|  8> %maxcore 8000
|  9>
| 10> %scf
| 11>     ConvForced true
| 12> end
| 13>
| 14> *xyz 0 1
| 15> O  -1.752130000  -0.741530000  -2.896280000
| 16> H  -2.036450000  -0.920500000  -1.984040000
| 17> H  -0.921210000  -1.242140000  -2.984230000
| 18> O   0.885520000  -1.737840000   0.052730000
| 19> H   1.284090000  -0.839590000   0.017130000
| 20> H   1.032320000  -2.090180000  -0.841890000
| 21> O  -1.737840000  -0.885520000  -0.052730000
| 22> H  -2.090180000  -1.032320000   0.841890000
| 23> H  -0.839590000  -1.284090000  -0.017130000
| 24> O  -0.923410000   1.794470000  -2.768350000
| 25> H  -1.359750000   2.338250000  -3.430940000
| 26> H  -1.303000000   0.879480000  -2.865760000
| 27> *
| 28>
| 29>                          ****END OF INPUT****

CARTESIAN COORDINATES (ANGSTROEM)
---------------------------------
  O     -1.752130   -0.741530   -2.896280
  H     -2.036450   -0.920500   -1.984040
  H     -0.921210   -1.242140   -2.984230
  O      0.885520   -1.737840    0.052730
  H      1.284090   -0.839590    0.017130
  H      1.032320   -2.090180   -0.841890
  O     -1.737840   -0.885520   -0.052730
  H     -2.090180   -1.032320    0.841890
  H     -0.839590   -1.284090   -0.017130
  O     -0.923410    1.794470   -2.768350
  H     -1.359750    2.338250   -3.430940
  H     -1.303000    0.879480   -2.865760

 Total Charge           Charge          ....    0
 Multiplicity           Mult            ....    1
 Number of Electrons    NEL             ....   40
 Basis Dimension        Dim             ....  172

ORBITAL ENERGIES
----------------

  NO   OCC          E(Eh)            E(eV)
   0   2.0000     -20.611118      -560.8570
   1   2.0000     -20.568576      -559.6994
   2   2.0000     -20.558729      -559.4315
   3   2.0000     -20.506228      -558.0028
   4   2.0000      -1.391895       -37.8754
   5   2.0000      -1.358683       -36.9716
   6   2.0000      -1.339717       -36.4556
   7   2.0000      -1.288428       -35.0599
   8   2.0000      -0.749235       -20.3877
   9   2.0000      -0.722961       -19.6728
  10   2.0000      -0.711685       -19.3659
  11   2.0000      -0.677149       -18.4262
  12   2.0000      -0.633915       -17.2497
  13   2.0000      -0.605690       -16.4817
  14   2.0000      -0.580757       -15.8032
  15   2.0000      -0.543732       -14.7957
  16   2.0000      -0.536781       -14.6066
  17   2.0000      -0.508604       -13.8398
  18   2.0000      -0.495101       -13.4724
  19   2.0000      -0.456759       -12.4290
  20   0.0000       0.084075         2.2878
  21   0.0000       0.149247         4.0612
  22   0.0000       0.156229         4.2512
  23   0.0000       0.175164         4.7665
  24   0.0000       0.208434         5.6718

MULLIKEN ATOMIC CHARGES
-----------------------
   0 O :   -0.687920
   1 H :    0.389831
   2 H :    0.327480
   3 O :   -0.679717
   4 H :    0.371570
   5 H :    0.351675
   6 O :   -0.722172
   7 H :    0.344667
   8 H :    0.351635
   9 O :   -0.737079
  10 H :    0.321503
  11 H :    0.368528
Sum of atomic charges:   -0.0000000

LOEWDIN ATOMIC CHARGES
----------------------
   0 O :   -0.275718
   1 H :    0.160809
   2 H :    0.161350
   3 O :   -0.287002
   4 H :    0.186829
   5 H :    0.169987
   6 O :   -0.339173
   7 H :    0.167331
   8 H :    0.142227
   9 O :   -0.375396
  10 H :    0.146569
  11 H :    0.142187

  Mayer bond orders larger than 0.100000
B(  0-O ,  1-H ) :   0.7935 B(  0-O ,  2-H ) :   0.8544 B(  3-O ,  4-H ) :   0.8265
B(  3-O ,  5-H ) :   0.8408 B(  6-O ,  7-H ) :   0.8467 B(  6-O ,  8-H ) :   0.7867
B(  9-O , 10-H ) :   0.8628 B(  9-O , 11-H ) :   0.7816

MP2 TOTAL ENERGY:     -305.275914148 Eh
FINAL SINGLE POINT ENERGY      -305.275914148028

DIPOLE MOMENT
-------------
                                X             Y             Z
Electronic contribution:      0.03034      -0.22140       0.24941
Nuclear contribution   :      0.68416      -0.87419       0.05351
                        -----------------------------------------
Total Dipole Moment    :      0.71450      -1.09559       0.30292
                        -----------------------------------------
Magnitude (a.u.)       :      1.34260
Magnitude (Debye)      :      3.41262

Rotational constants in cm-1:     0.154110     0.057942     0.053283
Rotational constants in MHz :  4620.087324  1737.070417  1597.378086

                             ****ORCA TERMINATED NORMALLY****
TOTAL RUN TIME: 0 days 0 hours 0 minutes 19 seconds 426 msec
