                         Program Version 4.2.0 -  RELEASE  -
|  1> # 12meoh.boyd.etal.mol11
|  2> ! MP2 def2-TZVP EnGrad TightSCF
|  3>
|  4> %pal
|  5>     nprocs 6
|  6> end
|  7>
|  8> %maxcore 8000
|  9>
| 10> %scf
| 11>     ConvForced true
| 12> end
| 13>
| 14> *xyz 0 1
| 15> O   3.252955559   0.588596242   1.858934315
| 16> H   3.621209177  -0.251605199   1.476063364
| 17> C   4.040824528   0.944288422   2.989639460
| 18> H   3.670521436   1.902573549   3.363847391
| 19> H   5.103749934   1.055868619   2.734277559
| 20> H   3.948540682   0.200279590   3.792908518
| 21> *
| 22>
| 23>                          ****END OF INPUT****

CARTESIAN COORDINATES (ANGSTROEM)
---------------------------------
  O      3.252956    0.588596    1.858934
  H      3.621209   -0.251605    1.476063
  C      4.040825    0.944288    2.989639
  H      3.670521    1.902574    3.363847
  H      5.103750    1.055869    2.734278
  H      3.948541    0.200280    3.792909

 Total Charge           Charge          ....    0
 Multiplicity           Mult            ....    1
 Number of Electrons    NEL             ....   18
 Basis Dimension        Dim             ....   86

ORBITAL ENERGIES
----------------

  NO   OCC          E(Eh)            E(eV)
   0   2.0000     -20.557411      -559.3956
   1   2.0000     -11.271682      -306.7181
   2   2.0000      -1.346703       -36.6456
   3   2.0000      -0.919761       -25.0280
   4   2.0000      -0.681684       -18.5496
   5   2.0000      -0.617056       -16.7909
   6   2.0000      -0.590973       -16.0812
   7   2.0000      -0.500174       -13.6104
   8   2.0000      -0.449231       -12.2242
   9   0.0000       0.134988         3.6732
  10   0.0000       0.175753         4.7825
  11   0.0000       0.229157         6.2357
  12   0.0000       0.230723         6.2783
  13   0.0000       0.254573         6.9273

MULLIKEN ATOMIC CHARGES
-----------------------
   0 O :   -0.496933
   1 H :    0.321432
   2 C :   -0.172649
   3 H :    0.129569
   4 H :    0.109434
   5 H :    0.109147
Sum of atomic charges:    0.0000000

LOEWDIN ATOMIC CHARGES
----------------------
   0 O :   -0.109146
   1 H :    0.189945
   2 C :   -0.381819
   3 H :    0.110387
   4 H :    0.095374
   5 H :    0.095259

  Mayer bond orders larger than 0.100000
B(  0-O ,  1-H ) :   0.8424 B(  0-O ,  2-C ) :   0.9264 B(  2-C ,  3-H ) :   0.9376
B(  2-C ,  4-H ) :   0.9389 B(  2-C ,  5-H ) :   0.9388

MP2 TOTAL ENERGY:     -115.506646835 Eh
FINAL SINGLE POINT ENERGY      -115.506646834878

DIPOLE MOMENT
-------------
                                X             Y             Z
Electronic contribution:     -1.07033      -0.32030      -1.40254
Nuclear contribution   :      1.61859      -0.04928       1.62552
                        -----------------------------------------
Total Dipole Moment    :      0.54826      -0.36957       0.22298
                        -----------------------------------------
Magnitude (a.u.)       :      0.69778
Magnitude (Debye)      :      1.77360

Rotational constants in cm-1:     4.199607     0.821962     0.791022
Rotational constants in MHz : 125901.054390 24641.815234 23714.239657

                             ****ORCA TERMINATED NORMALLY****
TOTAL RUN TIME: 0 days 0 hours 0 minutes 7 seconds 367 msec
