                         Program Version 4.2.0 -  RELEASE  -
|  1> # 12mecn.remya.etal.2.mol0,5,8
|  2> ! MP2 def2-TZVP EnGrad TightSCF
|  3>
|  4> %pal
|  5>     nprocs 6
|  6> end
|  7>
|  8> %maxcore 8000
|  9>
| 10> %scf
| 11>     ConvForced true
| 12> end
| 13>
| 14> *xyz 0 1
| 15> C  -0.869520000  -3.929380000   1.700199000
| 16> H  -0.057420000  -3.268850000   2.015352000
| 17> H  -0.697530000  -4.930670000   2.101524000
| 18> H  -1.821490000  -3.546590000   2.077146000
| 19> C  -0.916080000  -3.969960000   0.256749000
| 20> N  -0.955390000  -3.995980000  -0.909290000
| 21> C  -1.955700000   2.515080000   1.698463000
| 22> H  -2.923830000   2.883163000   2.049269000
| 23> H  -1.154850000   3.171830000   2.050990000
| 24> H  -1.790380000   1.506115000   2.087896000
| 25> C  -1.948230000   2.482156000   0.253672000
| 26> N  -1.937550000   2.462523000  -0.913150000
| 27> C   1.912641000  -2.468050000  -1.750510000
| 28> H   2.876947000  -2.793500000  -2.151200000
| 29> H   1.688016000  -1.463720000  -2.122170000
| 30> H   1.123460000  -3.154780000  -2.069590000
| 31> C   1.977850000  -2.444240000  -0.306900000
| 32> N   2.036566000  -2.426130000   0.858249000
| 33> *
| 34>
| 35>                          ****END OF INPUT****

CARTESIAN COORDINATES (ANGSTROEM)
---------------------------------
  C     -0.869520   -3.929380    1.700199
  H     -0.057420   -3.268850    2.015352
  H     -0.697530   -4.930670    2.101524
  H     -1.821490   -3.546590    2.077146
  C     -0.916080   -3.969960    0.256749
  N     -0.955390   -3.995980   -0.909290
  C     -1.955700    2.515080    1.698463
  H     -2.923830    2.883163    2.049269
  H     -1.154850    3.171830    2.050990
  H     -1.790380    1.506115    2.087896
  C     -1.948230    2.482156    0.253672
  N     -1.937550    2.462523   -0.913150
  C      1.912641   -2.468050   -1.750510
  H      2.876947   -2.793500   -2.151200
  H      1.688016   -1.463720   -2.122170
  H      1.123460   -3.154780   -2.069590
  C      1.977850   -2.444240   -0.306900
  N      2.036566   -2.426130    0.858249

 Total Charge           Charge          ....    0
 Multiplicity           Mult            ....    1
 Number of Electrons    NEL             ....   66
 Basis Dimension        Dim             ....  333

ORBITAL ENERGIES
----------------

  NO   OCC          E(Eh)            E(eV)
   0   2.0000     -15.573357      -423.7726
   1   2.0000     -15.571494      -423.7219
   2   2.0000     -15.570353      -423.6908
   3   2.0000     -11.285471      -307.0933
   4   2.0000     -11.282866      -307.0224
   5   2.0000     -11.282649      -307.0165
   6   2.0000     -11.280412      -306.9556
   7   2.0000     -11.273792      -306.7755
   8   2.0000     -11.269801      -306.6669
   9   2.0000      -1.217651       -33.1340
  10   2.0000      -1.214556       -33.0497
  11   2.0000      -1.213645       -33.0250
  12   2.0000      -1.044117       -28.4119
  13   2.0000      -1.037363       -28.2281
  14   2.0000      -1.032744       -28.1024
  15   2.0000      -0.699909       -19.0455
  16   2.0000      -0.695174       -18.9167
  17   2.0000      -0.689591       -18.7647
  18   2.0000      -0.633097       -17.2275
  19   2.0000      -0.631225       -17.1765
  20   2.0000      -0.630842       -17.1661
  21   2.0000      -0.624434       -16.9917
  22   2.0000      -0.619299       -16.8520
  23   2.0000      -0.614791       -16.7293
  24   2.0000      -0.558928       -15.2092
  25   2.0000      -0.556059       -15.1311
  26   2.0000      -0.555818       -15.1246
  27   2.0000      -0.459556       -12.5052
  28   2.0000      -0.459427       -12.5017
  29   2.0000      -0.457817       -12.4578
  30   2.0000      -0.457541       -12.4503
  31   2.0000      -0.456400       -12.4193
  32   2.0000      -0.455280       -12.3888
  33   0.0000       0.111593         3.0366
  34   0.0000       0.131670         3.5829
  35   0.0000       0.142060         3.8657
  36   0.0000       0.170039         4.6270
  37   0.0000       0.171040         4.6542

MULLIKEN ATOMIC CHARGES
-----------------------
   0 C :   -0.286141
   1 H :    0.202361
   2 H :    0.167949
   3 H :    0.164586
   4 C :   -0.103112
   5 N :   -0.146157
   6 C :   -0.277765
   7 H :    0.171741
   8 H :    0.173009
   9 H :    0.171174
  10 C :   -0.145090
  11 N :   -0.093057
  12 C :   -0.284227
  13 H :    0.166113
  14 H :    0.172972
  15 H :    0.203969
  16 C :   -0.104742
  17 N :   -0.153584
Sum of atomic charges:    0.0000000

LOEWDIN ATOMIC CHARGES
----------------------
   0 C :   -0.282938
   1 H :    0.156324
   2 H :    0.152162
   3 H :    0.150406
   4 C :   -0.208698
   5 N :    0.032921
   6 C :   -0.283733
   7 H :    0.152321
   8 H :    0.153176
   9 H :    0.152476
  10 C :   -0.219653
  11 N :    0.045419
  12 C :   -0.281365
  13 H :    0.151039
  14 H :    0.155129
  15 H :    0.157122
  16 C :   -0.207889
  17 N :    0.025782

  Mayer bond orders larger than 0.100000
B(  0-C ,  1-H ) :   0.9028 B(  0-C ,  2-H ) :   0.9146 B(  0-C ,  3-H ) :   0.9176
B(  0-C ,  4-C ) :   0.9009 B(  4-C ,  5-N ) :   2.7713 B(  6-C ,  7-H ) :   0.9165
B(  6-C ,  8-H ) :   0.9161 B(  6-C ,  9-H ) :   0.9165 B(  6-C , 10-C ) :   0.9019
B( 10-C , 11-N ) :   2.8365 B( 12-C , 13-H ) :   0.9161 B( 12-C , 14-H ) :   0.9128
B( 12-C , 15-H ) :   0.9015 B( 12-C , 16-C ) :   0.9019 B( 16-C , 17-N ) :   2.7777

MP2 TOTAL ENERGY:     -397.459628922 Eh
FINAL SINGLE POINT ENERGY      -397.459628922148

DIPOLE MOMENT
-------------
                                X             Y             Z
Electronic contribution:      0.05824      -0.11107      -3.15823
Nuclear contribution   :     -0.09212       0.15838       4.64234
                        -----------------------------------------
Total Dipole Moment    :     -0.03388       0.04731       1.48411
                        -----------------------------------------
Magnitude (a.u.)       :      1.48526
Magnitude (Debye)      :      3.77522

Rotational constants in cm-1:     0.042581     0.013990     0.012725
Rotational constants in MHz :  1276.543010   419.423484   381.476285

                             ****ORCA TERMINATED NORMALLY****
TOTAL RUN TIME: 0 days 0 hours 3 minutes 1 seconds 307 msec
