                         Program Version 4.2.0 -  RELEASE  -
|  1> # 12meoh.boyd.etal.mol0,2,5
|  2> ! MP2 def2-TZVP EnGrad TightSCF
|  3>
|  4> %pal
|  5>     nprocs 6
|  6> end
|  7>
|  8> %maxcore 8000
|  9>
| 10> %scf
| 11>     ConvForced true
| 12> end
| 13>
| 14> *xyz 0 1
| 15> O  -1.776108874  -2.741384797  -1.019308298
| 16> H  -2.520094035  -2.452295987  -0.420778302
| 17> C  -2.174025166  -3.952700964  -1.647004581
| 18> H  -1.359803895  -4.272673416  -2.304149236
| 19> H  -3.075973971  -3.808692420  -2.256751112
| 20> H  -2.370225393  -4.752784761  -0.918966137
| 21> O  -3.839777402   2.233595098   0.660436763
| 22> H  -2.958345897   1.907036203   0.973588449
| 23> C  -3.600368059   3.168790682  -0.390480452
| 24> H  -4.551709193   3.344148967  -0.901254863
| 25> H  -2.868237594   2.789240199  -1.113617525
| 26> H  -3.243594915   4.128998607   0.009549480
| 27> O  -0.662721750   1.449094618  -1.383082065
| 28> H   0.064188300   2.119867608  -1.465650660
| 29> C  -0.353319239   0.341218776  -2.229326771
| 30> H  -1.072358530  -0.454743281  -2.019906495
| 31> H   0.657636746  -0.044472139  -2.042736771
| 32> H  -0.434616607   0.624733901  -3.287793021
| 33> *
| 34>
| 35>                          ****END OF INPUT****

CARTESIAN COORDINATES (ANGSTROEM)
---------------------------------
  O     -1.776109   -2.741385   -1.019308
  H     -2.520094   -2.452296   -0.420778
  C     -2.174025   -3.952701   -1.647005
  H     -1.359804   -4.272673   -2.304149
  H     -3.075974   -3.808692   -2.256751
  H     -2.370225   -4.752785   -0.918966
  O     -3.839777    2.233595    0.660437
  H     -2.958346    1.907036    0.973588
  C     -3.600368    3.168791   -0.390480
  H     -4.551709    3.344149   -0.901255
  H     -2.868238    2.789240   -1.113618
  H     -3.243595    4.128999    0.009549
  O     -0.662722    1.449095   -1.383082
  H      0.064188    2.119868   -1.465651
  C     -0.353319    0.341219   -2.229327
  H     -1.072359   -0.454743   -2.019906
  H      0.657637   -0.044472   -2.042737
  H     -0.434617    0.624734   -3.287793

 Total Charge           Charge          ....    0
 Multiplicity           Mult            ....    1
 Number of Electrons    NEL             ....   54
 Basis Dimension        Dim             ....  258

ORBITAL ENERGIES
----------------

  NO   OCC          E(Eh)            E(eV)
   0   2.0000     -20.562388      -559.5310
   1   2.0000     -20.557910      -559.4092
   2   2.0000     -20.540691      -558.9406
   3   2.0000     -11.274570      -306.7966
   4   2.0000     -11.263695      -306.5007
   5   2.0000     -11.252786      -306.2039
   6   2.0000      -1.351681       -36.7811
   7   2.0000      -1.345833       -36.6220
   8   2.0000      -1.329885       -36.1880
   9   2.0000      -0.922661       -25.1069
  10   2.0000      -0.914311       -24.8797
  11   2.0000      -0.902132       -24.5483
  12   2.0000      -0.685631       -18.6570
  13   2.0000      -0.679862       -18.5000
  14   2.0000      -0.664580       -18.0841
  15   2.0000      -0.621274       -16.9057
  16   2.0000      -0.613346       -16.6900
  17   2.0000      -0.600983       -16.3536
  18   2.0000      -0.596974       -16.2445
  19   2.0000      -0.583993       -15.8913
  20   2.0000      -0.573408       -15.6032
  21   2.0000      -0.506552       -13.7840
  22   2.0000      -0.495933       -13.4950
  23   2.0000      -0.483595       -13.1593
  24   2.0000      -0.452611       -12.3162
  25   2.0000      -0.448109       -12.1937
  26   2.0000      -0.431779       -11.7493
  27   0.0000       0.122235         3.3262
  28   0.0000       0.137082         3.7302
  29   0.0000       0.162118         4.4115
  30   0.0000       0.175814         4.7841
  31   0.0000       0.189176         5.1477

MULLIKEN ATOMIC CHARGES
-----------------------
   0 O :   -0.496080
   1 H :    0.329399
   2 C :   -0.173493
   3 H :    0.128459
   4 H :    0.113169
   5 H :    0.111882
   6 O :   -0.510960
   7 H :    0.325424
   8 C :   -0.178023
   9 H :    0.119528
  10 H :    0.131020
  11 H :    0.098750
  12 O :   -0.509331
  13 H :    0.321994
  14 C :   -0.172656
  15 H :    0.149724
  16 H :    0.108048
  17 H :    0.103144
Sum of atomic charges:    0.0000000

LOEWDIN ATOMIC CHARGES
----------------------
   0 O :   -0.103424
   1 H :    0.195667
   2 C :   -0.383525
   3 H :    0.110146
   4 H :    0.096409
   5 H :    0.097380
   6 O :   -0.115873
   7 H :    0.188674
   8 C :   -0.383465
   9 H :    0.105646
  10 H :    0.097953
  11 H :    0.092512
  12 O :   -0.112382
  13 H :    0.187440
  14 C :   -0.377270
  15 H :    0.112120
  16 H :    0.098095
  17 H :    0.093899

  Mayer bond orders larger than 0.100000
B(  0-O ,  1-H ) :   0.8358 B(  0-O ,  2-C ) :   0.9164 B(  2-C ,  3-H ) :   0.9393
B(  2-C ,  4-H ) :   0.9400 B(  2-C ,  5-H ) :   0.9341 B(  6-O ,  7-H ) :   0.8410
B(  6-O ,  8-C ) :   0.9215 B(  8-C ,  9-H ) :   0.9386 B(  8-C , 10-H ) :   0.9323
B(  8-C , 11-H ) :   0.9400 B( 12-O , 13-H ) :   0.8410 B( 12-O , 14-C ) :   0.9025
B( 14-C , 15-H ) :   0.9308 B( 14-C , 16-H ) :   0.9379 B( 14-C , 17-H ) :   0.9392

MP2 TOTAL ENERGY:     -346.525880335 Eh
FINAL SINGLE POINT ENERGY      -346.525880335030

DIPOLE MOMENT
-------------
                                X             Y             Z
Electronic contribution:     -0.24681       1.46188       3.06957
Nuclear contribution   :      0.91909      -1.84607      -3.63138
                        -----------------------------------------
Total Dipole Moment    :      0.67228      -0.38420      -0.56181
                        -----------------------------------------
Magnitude (a.u.)       :      0.95666
Magnitude (Debye)      :      2.43163

Rotational constants in cm-1:     0.078534     0.023534     0.018823
Rotational constants in MHz :  2354.391874   705.528174   564.297848

                             ****ORCA TERMINATED NORMALLY****
TOTAL RUN TIME: 0 days 0 hours 1 minutes 8 seconds 547 msec
