                         Program Version 4.2.0 -  RELEASE  -
|  1> # 12h2o.su.etal.mol0,2,3,4,6,7,10,11
|  2> ! MP2 def2-TZVP EnGrad TightSCF
|  3>
|  4> %pal
|  5>     nprocs 6
|  6> end
|  7>
|  8> %maxcore 8000
|  9>
| 10> %scf
| 11>     ConvForced true
| 12> end
| 13>
| 14> *xyz 0 1
| 15> O   1.794470000   0.923410000   2.768350000
| 16> H   2.338250000   1.359750000   3.430940000
| 17> H   0.879480000   1.303000000   2.865760000
| 18> O   0.923410000  -1.794470000  -2.768350000
| 19> H   1.359750000  -2.338250000  -3.430940000
| 20> H   1.303000000  -0.879480000  -2.865760000
| 21> O  -1.752130000  -0.741530000  -2.896280000
| 22> H  -2.036450000  -0.920500000  -1.984040000
| 23> H  -0.921210000  -1.242140000  -2.984230000
| 24> O  -0.885520000   1.737840000   0.052730000
| 25> H  -1.032320000   2.090180000  -0.841890000
| 26> H  -1.284090000   0.839590000   0.017130000
| 27> O   1.737840000   0.885520000  -0.052730000
| 28> H   2.090180000   1.032320000   0.841890000
| 29> H   0.839590000   1.284090000  -0.017130000
| 30> O  -1.737840000  -0.885520000  -0.052730000
| 31> H  -2.090180000  -1.032320000   0.841890000
| 32> H  -0.839590000  -1.284090000  -0.017130000
| 33> O  -0.923410000   1.794470000  -2.768350000
| 34> H  -1.359750000   2.338250000  -3.430940000
| 35> H  -1.303000000   0.879480000  -2.865760000
| 36> O  -0.741530000   1.752130000   2.896280000
| 37> H  -0.920500000   2.036450000   1.984040000
| 38> H  -1.242140000   0.921210000   2.984230000
| 39> *
| 40>
| 41>                          ****END OF INPUT****

CARTESIAN COORDINATES (ANGSTROEM)
---------------------------------
  O      1.794470    0.923410    2.768350
  H      2.338250    1.359750    3.430940
  H      0.879480    1.303000    2.865760
  O      0.923410   -1.794470   -2.768350
  H      1.359750   -2.338250   -3.430940
  H      1.303000   -0.879480   -2.865760
  O     -1.752130   -0.741530   -2.896280
  H     -2.036450   -0.920500   -1.984040
  H     -0.921210   -1.242140   -2.984230
  O     -0.885520    1.737840    0.052730
  H     -1.032320    2.090180   -0.841890
  H     -1.284090    0.839590    0.017130
  O      1.737840    0.885520   -0.052730
  H      2.090180    1.032320    0.841890
  H      0.839590    1.284090   -0.017130
  O     -1.737840   -0.885520   -0.052730
  H     -2.090180   -1.032320    0.841890
  H     -0.839590   -1.284090   -0.017130
  O     -0.923410    1.794470   -2.768350
  H     -1.359750    2.338250   -3.430940
  H     -1.303000    0.879480   -2.865760
  O     -0.741530    1.752130    2.896280
  H     -0.920500    2.036450    1.984040
  H     -1.242140    0.921210    2.984230

 Total Charge           Charge          ....    0
 Multiplicity           Mult            ....    1
 Number of Electrons    NEL             ....   80
 Basis Dimension        Dim             ....  344

ORBITAL ENERGIES
----------------

  NO   OCC          E(Eh)            E(eV)
   0   2.0000     -20.625777      -561.2559
   1   2.0000     -20.586501      -560.1872
   2   2.0000     -20.576816      -559.9236
   3   2.0000     -20.559497      -559.4524
   4   2.0000     -20.552728      -559.2682
   5   2.0000     -20.540394      -558.9325
   6   2.0000     -20.528765      -558.6161
   7   2.0000     -20.486495      -557.4659
   8   2.0000      -1.409130       -38.3444
   9   2.0000      -1.367229       -37.2042
  10   2.0000      -1.365736       -37.1636
  11   2.0000      -1.351382       -36.7730
  12   2.0000      -1.343660       -36.5629
  13   2.0000      -1.320721       -35.9386
  14   2.0000      -1.313312       -35.7370
  15   2.0000      -1.270444       -34.5705
  16   2.0000      -0.766938       -20.8694
  17   2.0000      -0.733378       -19.9562
  18   2.0000      -0.730083       -19.8666
  19   2.0000      -0.718440       -19.5497
  20   2.0000      -0.714560       -19.4442
  21   2.0000      -0.706297       -19.2193
  22   2.0000      -0.698065       -18.9953
  23   2.0000      -0.656633       -17.8679
  24   2.0000      -0.650609       -17.7040
  25   2.0000      -0.620232       -16.8774
  26   2.0000      -0.609004       -16.5718
  27   2.0000      -0.596433       -16.2298
  28   2.0000      -0.587050       -15.9744
  29   2.0000      -0.564526       -15.3615
  30   2.0000      -0.556287       -15.1373
  31   2.0000      -0.553825       -15.0703
  32   2.0000      -0.529962       -14.4210
  33   2.0000      -0.526544       -14.3280
  34   2.0000      -0.507805       -13.8181
  35   2.0000      -0.501724       -13.6526
  36   2.0000      -0.490848       -13.3567
  37   2.0000      -0.488138       -13.2829
  38   2.0000      -0.472552       -12.8588
  39   2.0000      -0.437708       -11.9106
  40   0.0000       0.079370         2.1598
  41   0.0000       0.118482         3.2241
  42   0.0000       0.153550         4.1783
  43   0.0000       0.156034         4.2459
  44   0.0000       0.169980         4.6254

MULLIKEN ATOMIC CHARGES
-----------------------
   0 O :   -0.736845
   1 H :    0.331267
   2 H :    0.368605
   3 O :   -0.711246
   4 H :    0.353693
   5 H :    0.383111
   6 O :   -0.714884
   7 H :    0.378763
   8 H :    0.368416
   9 O :   -0.751384
  10 H :    0.389003
  11 H :    0.345823
  12 O :   -0.750058
  13 H :    0.360773
  14 H :    0.348353
  15 O :   -0.719061
  16 H :    0.362085
  17 H :    0.390840
  18 O :   -0.739126
  19 H :    0.335403
  20 H :    0.370977
  21 O :   -0.688788
  22 H :    0.393329
  23 H :    0.330951
Sum of atomic charges:   -0.0000000

LOEWDIN ATOMIC CHARGES
----------------------
   0 O :   -0.342955
   1 H :    0.150675
   2 H :    0.143257
   3 O :   -0.313617
   4 H :    0.164636
   5 H :    0.196563
   6 O :   -0.284915
   7 H :    0.153964
   8 H :    0.150863
   9 O :   -0.304007
  10 H :    0.155990
  11 H :    0.137204
  12 O :   -0.377629
  13 H :    0.144145
  14 H :    0.133693
  15 O :   -0.276344
  16 H :    0.174028
  17 H :    0.191931
  18 O :   -0.341257
  19 H :    0.153290
  20 H :    0.143287
  21 O :   -0.274948
  22 H :    0.159312
  23 H :    0.162833

  Mayer bond orders larger than 0.100000
B(  0-O ,  1-H ) :   0.8535 B(  0-O ,  2-H ) :   0.7660 B(  3-O ,  4-H ) :   0.8409
B(  3-O ,  5-H ) :   0.8120 B(  6-O ,  7-H ) :   0.8166 B(  6-O ,  8-H ) :   0.7984
B(  6-O , 20-H ) :   0.1102 B(  9-O , 10-H ) :   0.7845 B(  9-O , 11-H ) :   0.7907
B( 12-O , 13-H ) :   0.8195 B( 12-O , 14-H ) :   0.8068 B( 15-O , 16-H ) :   0.8326
B( 15-O , 17-H ) :   0.8045 B( 18-O , 19-H ) :   0.8514 B( 18-O , 20-H ) :   0.7515
B( 21-O , 22-H ) :   0.7894 B( 21-O , 23-H ) :   0.8524

MP2 TOTAL ENERGY:     -610.583459086 Eh
FINAL SINGLE POINT ENERGY      -610.583459085695

DIPOLE MOMENT
-------------
                                X             Y             Z
Electronic contribution:     -0.25407      -0.29969      -0.20751
Nuclear contribution   :     -0.87361      -0.79587       0.14168
                        -----------------------------------------
Total Dipole Moment    :     -1.12769      -1.09556      -0.06583
                        -----------------------------------------
Magnitude (a.u.)       :      1.57361
Magnitude (Debye)      :      3.99980

Rotational constants in cm-1:     0.039900     0.017314     0.015744
Rotational constants in MHz :  1196.179735   519.057238   472.005089

                             ****ORCA TERMINATED NORMALLY****
TOTAL RUN TIME: 0 days 0 hours 3 minutes 11 seconds 44 msec
