                         Program Version 4.2.0 -  RELEASE  -
|  1> # 12h2o.su.etal.mol2,5,6,9
|  2> ! MP2 def2-TZVP EnGrad TightSCF
|  3>
|  4> %pal
|  5>     nprocs 6
|  6> end
|  7>
|  8> %maxcore 8000
|  9>
| 10> %scf
| 11>     ConvForced true
| 12> end
| 13>
| 14> *xyz 0 1
| 15> O   0.923410000  -1.794470000  -2.768350000
| 16> H   1.359750000  -2.338250000  -3.430940000
| 17> H   1.303000000  -0.879480000  -2.865760000
| 18> O   0.885520000  -1.737840000   0.052730000
| 19> H   1.284090000  -0.839590000   0.017130000
| 20> H   1.032320000  -2.090180000  -0.841890000
| 21> O   1.737840000   0.885520000  -0.052730000
| 22> H   2.090180000   1.032320000   0.841890000
| 23> H   0.839590000   1.284090000  -0.017130000
| 24> O   0.741530000  -1.752130000   2.896280000
| 25> H   0.920500000  -2.036450000   1.984040000
| 26> H   1.242140000  -0.921210000   2.984230000
| 27> *
| 28>
| 29>                          ****END OF INPUT****

CARTESIAN COORDINATES (ANGSTROEM)
---------------------------------
  O      0.923410   -1.794470   -2.768350
  H      1.359750   -2.338250   -3.430940
  H      1.303000   -0.879480   -2.865760
  O      0.885520   -1.737840    0.052730
  H      1.284090   -0.839590    0.017130
  H      1.032320   -2.090180   -0.841890
  O      1.737840    0.885520   -0.052730
  H      2.090180    1.032320    0.841890
  H      0.839590    1.284090   -0.017130
  O      0.741530   -1.752130    2.896280
  H      0.920500   -2.036450    1.984040
  H      1.242140   -0.921210    2.984230

 Total Charge           Charge          ....    0
 Multiplicity           Mult            ....    1
 Number of Electrons    NEL             ....   40
 Basis Dimension        Dim             ....  172

ORBITAL ENERGIES
----------------

  NO   OCC          E(Eh)            E(eV)
   0   2.0000     -20.608511      -560.7861
   1   2.0000     -20.587537      -560.2154
   2   2.0000     -20.523629      -558.4763
   3   2.0000     -20.522300      -558.4402
   4   2.0000      -1.389085       -37.7989
   5   2.0000      -1.365376       -37.1538
   6   2.0000      -1.313222       -35.7346
   7   2.0000      -1.301269       -35.4093
   8   2.0000      -0.747225       -20.3330
   9   2.0000      -0.732268       -19.9260
  10   2.0000      -0.694083       -18.8870
  11   2.0000      -0.671488       -18.2721
  12   2.0000      -0.629858       -17.1393
  13   2.0000      -0.605081       -16.4651
  14   2.0000      -0.573612       -15.6088
  15   2.0000      -0.545059       -14.8318
  16   2.0000      -0.534375       -14.5411
  17   2.0000      -0.515344       -14.0232
  18   2.0000      -0.475905       -12.9500
  19   2.0000      -0.467827       -12.7302
  20   0.0000       0.088232         2.4009
  21   0.0000       0.118776         3.2321
  22   0.0000       0.157482         4.2853
  23   0.0000       0.191798         5.2191
  24   0.0000       0.207769         5.6537

MULLIKEN ATOMIC CHARGES
-----------------------
   0 O :   -0.692297
   1 H :    0.349401
   2 H :    0.355426
   3 O :   -0.737011
   4 H :    0.332267
   5 H :    0.368193
   6 O :   -0.682257
   7 H :    0.355398
   8 H :    0.365106
   9 O :   -0.690997
  10 H :    0.377357
  11 H :    0.299414
Sum of atomic charges:   -0.0000000

LOEWDIN ATOMIC CHARGES
----------------------
   0 O :   -0.309879
   1 H :    0.162254
   2 H :    0.185266
   3 O :   -0.346985
   4 H :    0.134916
   5 H :    0.149080
   6 O :   -0.290877
   7 H :    0.171601
   8 H :    0.183477
   9 O :   -0.341275
  10 H :    0.154198
  11 H :    0.148225

  Mayer bond orders larger than 0.100000
B(  0-O ,  1-H ) :   0.8434 B(  0-O ,  2-H ) :   0.8341 B(  3-O ,  4-H ) :   0.8017
B(  3-O ,  5-H ) :   0.8170 B(  6-O ,  7-H ) :   0.8387 B(  6-O ,  8-H ) :   0.8307
B(  9-O , 10-H ) :   0.8080 B(  9-O , 11-H ) :   0.8733

MP2 TOTAL ENERGY:     -305.271119297 Eh
FINAL SINGLE POINT ENERGY      -305.271119297262

DIPOLE MOMENT
-------------
                                X             Y             Z
Electronic contribution:     -0.18460      -0.10083      -0.19883
Nuclear contribution   :      1.24435       1.67229      -1.31870
                        -----------------------------------------
Total Dipole Moment    :      1.05975       1.57145      -1.51753
                        -----------------------------------------
Magnitude (a.u.)       :      2.42805
Magnitude (Debye)      :      6.17162

Rotational constants in cm-1:     0.155233     0.057478     0.042259
Rotational constants in MHz :  4653.763556  1723.143369  1266.904557

                             ****ORCA TERMINATED NORMALLY****
TOTAL RUN TIME: 0 days 0 hours 0 minutes 22 seconds 715 msec
