                         Program Version 4.2.0 -  RELEASE  -
|  1> # 12h2o.su.etal.mol1,3,5,7,10
|  2> ! MP2 def2-TZVP EnGrad TightSCF
|  3>
|  4> %pal
|  5>     nprocs 6
|  6> end
|  7>
|  8> %maxcore 8000
|  9>
| 10> %scf
| 11>     ConvForced true
| 12> end
| 13>
| 14> *xyz 0 1
| 15> O  -1.794470000  -0.923410000   2.768350000
| 16> H  -2.338250000  -1.359750000   3.430940000
| 17> H  -0.879480000  -1.303000000   2.865760000
| 18> O  -1.752130000  -0.741530000  -2.896280000
| 19> H  -2.036450000  -0.920500000  -1.984040000
| 20> H  -0.921210000  -1.242140000  -2.984230000
| 21> O   0.885520000  -1.737840000   0.052730000
| 22> H   1.284090000  -0.839590000   0.017130000
| 23> H   1.032320000  -2.090180000  -0.841890000
| 24> O  -1.737840000  -0.885520000  -0.052730000
| 25> H  -2.090180000  -1.032320000   0.841890000
| 26> H  -0.839590000  -1.284090000  -0.017130000
| 27> O  -0.923410000   1.794470000  -2.768350000
| 28> H  -1.359750000   2.338250000  -3.430940000
| 29> H  -1.303000000   0.879480000  -2.865760000
| 30> *
| 31>
| 32>                          ****END OF INPUT****

CARTESIAN COORDINATES (ANGSTROEM)
---------------------------------
  O     -1.794470   -0.923410    2.768350
  H     -2.338250   -1.359750    3.430940
  H     -0.879480   -1.303000    2.865760
  O     -1.752130   -0.741530   -2.896280
  H     -2.036450   -0.920500   -1.984040
  H     -0.921210   -1.242140   -2.984230
  O      0.885520   -1.737840    0.052730
  H      1.284090   -0.839590    0.017130
  H      1.032320   -2.090180   -0.841890
  O     -1.737840   -0.885520   -0.052730
  H     -2.090180   -1.032320    0.841890
  H     -0.839590   -1.284090   -0.017130
  O     -0.923410    1.794470   -2.768350
  H     -1.359750    2.338250   -3.430940
  H     -1.303000    0.879480   -2.865760

 Total Charge           Charge          ....    0
 Multiplicity           Mult            ....    1
 Number of Electrons    NEL             ....   50
 Basis Dimension        Dim             ....  215

ORBITAL ENERGIES
----------------

  NO   OCC          E(Eh)            E(eV)
   0   2.0000     -20.608085      -560.7745
   1   2.0000     -20.587439      -560.2127
   2   2.0000     -20.559328      -559.4478
   3   2.0000     -20.528225      -558.6014
   4   2.0000     -20.499745      -557.8264
   5   2.0000      -1.388718       -37.7889
   6   2.0000      -1.365284       -37.1513
   7   2.0000      -1.348835       -36.7037
   8   2.0000      -1.313222       -35.7346
   9   2.0000      -1.281873       -34.8815
  10   2.0000      -0.746743       -20.3199
  11   2.0000      -0.732206       -19.9243
  12   2.0000      -0.710973       -19.3466
  13   2.0000      -0.694239       -18.8912
  14   2.0000      -0.670145       -18.2356
  15   2.0000      -0.631135       -17.1741
  16   2.0000      -0.605929       -16.4882
  17   2.0000      -0.592177       -16.1139
  18   2.0000      -0.567311       -15.4373
  19   2.0000      -0.536139       -14.5891
  20   2.0000      -0.532870       -14.5001
  21   2.0000      -0.518567       -14.1109
  22   2.0000      -0.489082       -13.3086
  23   2.0000      -0.478818       -13.0293
  24   2.0000      -0.450230       -12.2514
  25   0.0000       0.086231         2.3465
  26   0.0000       0.117520         3.1979
  27   0.0000       0.155168         4.2223
  28   0.0000       0.177979         4.8430
  29   0.0000       0.192674         5.2429

MULLIKEN ATOMIC CHARGES
-----------------------
   0 O :   -0.691619
   1 H :    0.349140
   2 H :    0.356087
   3 O :   -0.690326
   4 H :    0.391407
   5 H :    0.324503
   6 O :   -0.684787
   7 H :    0.371740
   8 H :    0.353226
   9 O :   -0.736701
  10 H :    0.370774
  11 H :    0.334365
  12 O :   -0.736709
  13 H :    0.319448
  14 H :    0.369452
Sum of atomic charges:   -0.0000000

LOEWDIN ATOMIC CHARGES
----------------------
   0 O :   -0.309226
   1 H :    0.162222
   2 H :    0.185669
   3 O :   -0.278191
   4 H :    0.160195
   5 H :    0.159802
   6 O :   -0.291230
   7 H :    0.186470
   8 H :    0.170698
   9 O :   -0.345293
  10 H :    0.150730
  11 H :    0.135547
  12 O :   -0.375478
  13 H :    0.145587
  14 H :    0.142496

  Mayer bond orders larger than 0.100000
B(  0-O ,  1-H ) :   0.8435 B(  0-O ,  2-H ) :   0.8336 B(  3-O ,  4-H ) :   0.7874
B(  3-O ,  5-H ) :   0.8560 B(  6-O ,  7-H ) :   0.8264 B(  6-O ,  8-H ) :   0.8403
B(  9-O , 10-H ) :   0.8148 B(  9-O , 11-H ) :   0.7995 B( 12-O , 13-H ) :   0.8638
B( 12-O , 14-H ) :   0.7801

MP2 TOTAL ENERGY:     -381.594613991 Eh
FINAL SINGLE POINT ENERGY      -381.594613991082

DIPOLE MOMENT
-------------
                                X             Y             Z
Electronic contribution:     -0.07106      -0.09192       0.35855
Nuclear contribution   :      0.99314      -1.55333       0.68611
                        -----------------------------------------
Total Dipole Moment    :      0.92208      -1.64525       1.04466
                        -----------------------------------------
Magnitude (a.u.)       :      2.15601
Magnitude (Debye)      :      5.48014

Rotational constants in cm-1:     0.093723     0.032641     0.029497
Rotational constants in MHz :  2809.730353   978.560693   884.292364

                             ****ORCA TERMINATED NORMALLY****
TOTAL RUN TIME: 0 days 0 hours 0 minutes 52 seconds 284 msec
