                         Program Version 4.2.0 -  RELEASE  -
|  1> # 12h2o.su.etal.mol1,2,3,4,5,7,8,9,10,11
|  2> ! MP2 def2-TZVP EnGrad TightSCF
|  3>
|  4> %pal
|  5>     nprocs 6
|  6> end
|  7>
|  8> %maxcore 8000
|  9>
| 10> %scf
| 11>     ConvForced true
| 12> end
| 13>
| 14> *xyz 0 1
| 15> O  -1.794470000  -0.923410000   2.768350000
| 16> H  -2.338250000  -1.359750000   3.430940000
| 17> H  -0.879480000  -1.303000000   2.865760000
| 18> O   0.923410000  -1.794470000  -2.768350000
| 19> H   1.359750000  -2.338250000  -3.430940000
| 20> H   1.303000000  -0.879480000  -2.865760000
| 21> O  -1.752130000  -0.741530000  -2.896280000
| 22> H  -2.036450000  -0.920500000  -1.984040000
| 23> H  -0.921210000  -1.242140000  -2.984230000
| 24> O  -0.885520000   1.737840000   0.052730000
| 25> H  -1.032320000   2.090180000  -0.841890000
| 26> H  -1.284090000   0.839590000   0.017130000
| 27> O   0.885520000  -1.737840000   0.052730000
| 28> H   1.284090000  -0.839590000   0.017130000
| 29> H   1.032320000  -2.090180000  -0.841890000
| 30> O  -1.737840000  -0.885520000  -0.052730000
| 31> H  -2.090180000  -1.032320000   0.841890000
| 32> H  -0.839590000  -1.284090000  -0.017130000
| 33> O   1.752130000   0.741530000  -2.896280000
| 34> H   2.036450000   0.920500000  -1.984040000
| 35> H   0.921210000   1.242140000  -2.984230000
| 36> O   0.741530000  -1.752130000   2.896280000
| 37> H   0.920500000  -2.036450000   1.984040000
| 38> H   1.242140000  -0.921210000   2.984230000
| 39> O  -0.923410000   1.794470000  -2.768350000
| 40> H  -1.359750000   2.338250000  -3.430940000
| 41> H  -1.303000000   0.879480000  -2.865760000
| 42> O  -0.741530000   1.752130000   2.896280000
| 43> H  -0.920500000   2.036450000   1.984040000
| 44> H  -1.242140000   0.921210000   2.984230000
| 45> *
| 46>
| 47>                          ****END OF INPUT****

CARTESIAN COORDINATES (ANGSTROEM)
---------------------------------
  O     -1.794470   -0.923410    2.768350
  H     -2.338250   -1.359750    3.430940
  H     -0.879480   -1.303000    2.865760
  O      0.923410   -1.794470   -2.768350
  H      1.359750   -2.338250   -3.430940
  H      1.303000   -0.879480   -2.865760
  O     -1.752130   -0.741530   -2.896280
  H     -2.036450   -0.920500   -1.984040
  H     -0.921210   -1.242140   -2.984230
  O     -0.885520    1.737840    0.052730
  H     -1.032320    2.090180   -0.841890
  H     -1.284090    0.839590    0.017130
  O      0.885520   -1.737840    0.052730
  H      1.284090   -0.839590    0.017130
  H      1.032320   -2.090180   -0.841890
  O     -1.737840   -0.885520   -0.052730
  H     -2.090180   -1.032320    0.841890
  H     -0.839590   -1.284090   -0.017130
  O      1.752130    0.741530   -2.896280
  H      2.036450    0.920500   -1.984040
  H      0.921210    1.242140   -2.984230
  O      0.741530   -1.752130    2.896280
  H      0.920500   -2.036450    1.984040
  H      1.242140   -0.921210    2.984230
  O     -0.923410    1.794470   -2.768350
  H     -1.359750    2.338250   -3.430940
  H     -1.303000    0.879480   -2.865760
  O     -0.741530    1.752130    2.896280
  H     -0.920500    2.036450    1.984040
  H     -1.242140    0.921210    2.984230

 Total Charge           Charge          ....    0
 Multiplicity           Mult            ....    1
 Number of Electrons    NEL             ....  100
 Basis Dimension        Dim             ....  430

ORBITAL ENERGIES
----------------

  NO   OCC          E(Eh)            E(eV)
   0   2.0000     -20.610861      -560.8500
   1   2.0000     -20.594190      -560.3964
   2   2.0000     -20.592227      -560.3430
   3   2.0000     -20.584442      -560.1311
   4   2.0000     -20.569712      -559.7303
   5   2.0000     -20.562330      -559.5294
   6   2.0000     -20.560462      -559.4786
   7   2.0000     -20.559911      -559.4636
   8   2.0000     -20.521011      -558.4051
   9   2.0000     -20.493872      -557.6666
  10   2.0000      -1.401042       -38.1243
  11   2.0000      -1.389941       -37.8222
  12   2.0000      -1.374467       -37.4011
  13   2.0000      -1.370595       -37.2958
  14   2.0000      -1.364888       -37.1405
  15   2.0000      -1.354470       -36.8570
  16   2.0000      -1.344397       -36.5829
  17   2.0000      -1.340281       -36.4709
  18   2.0000      -1.307420       -35.5767
  19   2.0000      -1.278593       -34.7923
  20   2.0000      -0.763003       -20.7624
  21   2.0000      -0.755881       -20.5686
  22   2.0000      -0.746638       -20.3171
  23   2.0000      -0.733177       -19.9508
  24   2.0000      -0.731031       -19.8924
  25   2.0000      -0.730575       -19.8800
  26   2.0000      -0.726265       -19.7627
  27   2.0000      -0.715542       -19.4709
  28   2.0000      -0.688087       -18.7238
  29   2.0000      -0.661306       -17.9950
  30   2.0000      -0.656617       -17.8675
  31   2.0000      -0.638950       -17.3867
  32   2.0000      -0.626301       -17.0425
  33   2.0000      -0.613884       -16.7046
  34   2.0000      -0.608871       -16.5682
  35   2.0000      -0.600482       -16.3399
  36   2.0000      -0.586095       -15.9484
  37   2.0000      -0.571897       -15.5621
  38   2.0000      -0.562823       -15.3152
  39   2.0000      -0.546408       -14.8685
  40   2.0000      -0.538996       -14.6668
  41   2.0000      -0.537068       -14.6144
  42   2.0000      -0.529308       -14.4032
  43   2.0000      -0.522210       -14.2101
  44   2.0000      -0.513041       -13.9605
  45   2.0000      -0.507319       -13.8048
  46   2.0000      -0.501380       -13.6433
  47   2.0000      -0.498704       -13.5704
  48   2.0000      -0.472294       -12.8518
  49   2.0000      -0.444078       -12.0840
  50   0.0000       0.083593         2.2747
  51   0.0000       0.126479         3.4417
  52   0.0000       0.135155         3.6778
  53   0.0000       0.139723         3.8021
  54   0.0000       0.162665         4.4263

MULLIKEN ATOMIC CHARGES
-----------------------
   0 O :   -0.751052
   1 H :    0.348949
   2 H :    0.385274
   3 O :   -0.763019
   4 H :    0.359800
   5 H :    0.383835
   6 O :   -0.723897
   7 H :    0.391716
   8 H :    0.366848
   9 O :   -0.754376
  10 H :    0.364367
  11 H :    0.348951
  12 O :   -0.731542
  13 H :    0.350925
  14 H :    0.396089
  15 O :   -0.753946
  16 H :    0.386717
  17 H :    0.360619
  18 O :   -0.705371
  19 H :    0.350811
  20 H :    0.387593
  21 O :   -0.701039
  22 H :    0.386930
  23 H :    0.360985
  24 O :   -0.759685
  25 H :    0.351847
  26 H :    0.385868
  27 O :   -0.738699
  28 H :    0.370782
  29 H :    0.343719
Sum of atomic charges:    0.0000000

LOEWDIN ATOMIC CHARGES
----------------------
   0 O :   -0.313153
   1 H :    0.158680
   2 H :    0.146962
   3 O :   -0.315919
   4 H :    0.163645
   5 H :    0.145766
   6 O :   -0.286082
   7 H :    0.157369
   8 H :    0.148171
   9 O :   -0.352263
  10 H :    0.145041
  11 H :    0.136953
  12 O :   -0.283390
  13 H :    0.173672
  14 H :    0.159019
  15 O :   -0.302153
  16 H :    0.154051
  17 H :    0.140678
  18 O :   -0.277823
  19 H :    0.167920
  20 H :    0.157527
  21 O :   -0.273831
  22 H :    0.157195
  23 H :    0.175603
  24 O :   -0.316128
  25 H :    0.159744
  26 H :    0.146349
  27 O :   -0.361951
  28 H :    0.149945
  29 H :    0.138403

  Mayer bond orders larger than 0.100000
B(  0-O ,  1-H ) :   0.8414 B(  0-O ,  2-H ) :   0.7424 B(  3-O ,  4-H ) :   0.8356
B(  3-O ,  5-H ) :   0.7302 B(  5-H , 18-O ) :   0.1175 B(  6-O ,  7-H ) :   0.7956
B(  6-O ,  8-H ) :   0.8045 B(  6-O , 26-H ) :   0.1227 B(  9-O , 10-H ) :   0.8162
B(  9-O , 11-H ) :   0.7816 B( 12-O , 13-H ) :   0.8290 B( 12-O , 14-H ) :   0.7809
B( 15-O , 16-H ) :   0.7903 B( 15-O , 17-H ) :   0.7786 B( 18-O , 19-H ) :   0.8404
B( 18-O , 20-H ) :   0.7765 B( 21-O , 22-H ) :   0.8037 B( 21-O , 23-H ) :   0.8308
B( 24-O , 25-H ) :   0.8394 B( 24-O , 26-H ) :   0.7256 B( 27-O , 28-H ) :   0.8163
B( 27-O , 29-H ) :   0.8295

MP2 TOTAL ENERGY:     -763.263532340 Eh
FINAL SINGLE POINT ENERGY      -763.263532340335

DIPOLE MOMENT
-------------
                                X             Y             Z
Electronic contribution:      0.20586      -0.35138      -0.14842
Nuclear contribution   :      0.76337      -1.13309      -1.40687
                        -----------------------------------------
Total Dipole Moment    :      0.96923      -1.48447      -1.55529
                        -----------------------------------------
Magnitude (a.u.)       :      2.35839
Magnitude (Debye)      :      5.99454

Rotational constants in cm-1:     0.026139     0.013461     0.011695
Rotational constants in MHz :   783.620916   403.560720   350.598427

                             ****ORCA TERMINATED NORMALLY****
TOTAL RUN TIME: 0 days 0 hours 7 minutes 41 seconds 26 msec
