                         Program Version 4.2.0 -  RELEASE  -
|  1> ! MP2 def2-TZVP EnGrad TightSCF FrozenCore
|  2>
|  3> %pal
|  4>     nprocs 8
|  5> end
|  6>
|  7> %maxcore 8000
|  8>
|  9> %scf
| 10>     ConvForced true
| 11> end
| 12>
| 13> *xyz 0 1
| 14> O          0.00000        0.00000        0.00000
| 15> H          0.96510        0.00000        0.00000
| 16> H         -0.26440        0.00000       -0.94127
| 17> O         -1.76592        0.00942       -2.13012
| 18> H         -2.20894       -0.65791       -1.54661
| 19> H         -1.92400       -0.28198       -3.03585
| 20> O         -2.55283       -1.61381       -0.11870
| 21> H         -1.69497       -1.48219        0.31493
| 22> H         -3.16733       -1.07907        0.42973
| 23> O         -4.02756        0.30944        1.26310
| 24> H         -3.46287        1.02618        0.89637
| 25> H         -4.01379        0.44153        2.21871
| 26> O         -2.16724        1.97734        0.03468
| 27> H         -1.34425        1.53101        0.30038
| 28> H         -2.24225        1.70381       -0.89522
| 29> *
| 30>
| 31>
| 32>                          ****END OF INPUT****

CARTESIAN COORDINATES (ANGSTROEM)
---------------------------------
  O      0.000000    0.000000    0.000000
  H      0.965100    0.000000    0.000000
  H     -0.264400    0.000000   -0.941270
  O     -1.765920    0.009420   -2.130120
  H     -2.208940   -0.657910   -1.546610
  H     -1.924000   -0.281980   -3.035850
  O     -2.552830   -1.613810   -0.118700
  H     -1.694970   -1.482190    0.314930
  H     -3.167330   -1.079070    0.429730
  O     -4.027560    0.309440    1.263100
  H     -3.462870    1.026180    0.896370
  H     -4.013790    0.441530    2.218710
  O     -2.167240    1.977340    0.034680
  H     -1.344250    1.531010    0.300380
  H     -2.242250    1.703810   -0.895220

 Total Charge           Charge          ....    0
 Multiplicity           Mult            ....    1
 Number of Electrons    NEL             ....   50
 Basis Dimension        Dim             ....  215

ORBITAL ENERGIES
----------------

  NO   OCC          E(Eh)            E(eV)
   0   2.0000     -20.577295      -559.9367
   1   2.0000     -20.568058      -559.6853
   2   2.0000     -20.554669      -559.3210
   3   2.0000     -20.552254      -559.2553
   4   2.0000     -20.549338      -559.1759
   5   2.0000      -1.369760       -37.2731
   6   2.0000      -1.353341       -36.8263
   7   2.0000      -1.346701       -36.6456
   8   2.0000      -1.338016       -36.4093
   9   2.0000      -1.326898       -36.1067
  10   2.0000      -0.748322       -20.3629
  11   2.0000      -0.718770       -19.5587
  12   2.0000      -0.713395       -19.4125
  13   2.0000      -0.698856       -19.0168
  14   2.0000      -0.697064       -18.9681
  15   2.0000      -0.617305       -16.7977
  16   2.0000      -0.608892       -16.5688
  17   2.0000      -0.586304       -15.9541
  18   2.0000      -0.583985       -15.8910
  19   2.0000      -0.558295       -15.1920
  20   2.0000      -0.524499       -14.2723
  21   2.0000      -0.518189       -14.1006
  22   2.0000      -0.503978       -13.7139
  23   2.0000      -0.495450       -13.4819
  24   2.0000      -0.494797       -13.4641
  25   0.0000       0.115410         3.1405
  26   0.0000       0.149127         4.0580
  27   0.0000       0.150693         4.1006
  28   0.0000       0.213575         5.8117
  29   0.0000       0.215680         5.8689

MULLIKEN ATOMIC CHARGES
-----------------------
   0 O :   -0.722492
   1 H :    0.344582
   2 H :    0.369292
   3 O :   -0.751781
   4 H :    0.388933
   5 H :    0.347045
   6 O :   -0.733611
   7 H :    0.353621
   8 H :    0.395270
   9 O :   -0.729501
  10 H :    0.383164
  11 H :    0.341124
  12 O :   -0.720272
  13 H :    0.365844
  14 H :    0.368781
Sum of atomic charges:    0.0000000

LOEWDIN ATOMIC CHARGES
----------------------
   0 O :   -0.319866
   1 H :    0.163772
   2 H :    0.155910
   3 O :   -0.330354
   4 H :    0.153057
   5 H :    0.161780
   6 O :   -0.301964
   7 H :    0.154411
   8 H :    0.155048
   9 O :   -0.317411
  10 H :    0.151833
  11 H :    0.159790
  12 O :   -0.299642
  13 H :    0.154358
  14 H :    0.159278

  Mayer bond orders larger than 0.100000
B(  0-O ,  1-H ) :   0.8445 B(  0-O ,  2-H ) :   0.7885 B(  3-O ,  4-H ) :   0.7432
B(  3-O ,  5-H ) :   0.8437 B(  4-H ,  6-O ) :   0.1025 B(  6-O ,  7-H ) :   0.8286
B(  6-O ,  8-H ) :   0.7736 B(  9-O , 10-H ) :   0.7729 B(  9-O , 11-H ) :   0.8476
B( 12-O , 13-H ) :   0.8152 B( 12-O , 14-H ) :   0.8184

MP2 TOTAL ENERGY:     -381.627292630 Eh
FINAL SINGLE POINT ENERGY      -381.627292629721

DIPOLE MOMENT
-------------
                                X             Y             Z
Electronic contribution:     -0.22594       0.03661       0.05178
Nuclear contribution   :      1.38954      -0.13601      -0.29694
                        -----------------------------------------
Total Dipole Moment    :      1.16361      -0.09940      -0.24517
                        -----------------------------------------
Magnitude (a.u.)       :      1.19330
Magnitude (Debye)      :      3.03313

Rotational constants in cm-1:     0.089580     0.062887     0.053869
Rotational constants in MHz :  2685.555644  1885.317290  1614.963839

                             ****ORCA TERMINATED NORMALLY****
TOTAL RUN TIME: 0 days 0 hours 1 minutes 24 seconds 991 msec
