                         Program Version 4.2.0 -  RELEASE  -
|  1> # 12meoh.boyd.etal.mol2
|  2> ! MP2 def2-TZVP EnGrad TightSCF
|  3>
|  4> %pal
|  5>     nprocs 6
|  6> end
|  7>
|  8> %maxcore 8000
|  9>
| 10> %scf
| 11>     ConvForced true
| 12> end
| 13>
| 14> *xyz 0 1
| 15> O  -3.839777402   2.233595098   0.660436763
| 16> H  -2.958345897   1.907036203   0.973588449
| 17> C  -3.600368059   3.168790682  -0.390480452
| 18> H  -4.551709193   3.344148967  -0.901254863
| 19> H  -2.868237594   2.789240199  -1.113617525
| 20> H  -3.243594915   4.128998607   0.009549480
| 21> *
| 22>
| 23>                          ****END OF INPUT****

CARTESIAN COORDINATES (ANGSTROEM)
---------------------------------
  O     -3.839777    2.233595    0.660437
  H     -2.958346    1.907036    0.973588
  C     -3.600368    3.168791   -0.390480
  H     -4.551709    3.344149   -0.901255
  H     -2.868238    2.789240   -1.113618
  H     -3.243595    4.128999    0.009549

 Total Charge           Charge          ....    0
 Multiplicity           Mult            ....    1
 Number of Electrons    NEL             ....   18
 Basis Dimension        Dim             ....   86

ORBITAL ENERGIES
----------------

  NO   OCC          E(Eh)            E(eV)
   0   2.0000     -20.556930      -559.3825
   1   2.0000     -11.271981      -306.7262
   2   2.0000      -1.346400       -36.6374
   3   2.0000      -0.919785       -25.0286
   4   2.0000      -0.681691       -18.5497
   5   2.0000      -0.616832       -16.7849
   6   2.0000      -0.589970       -16.0539
   7   2.0000      -0.501705       -13.6521
   8   2.0000      -0.449257       -12.2249
   9   0.0000       0.134846         3.6694
  10   0.0000       0.176198         4.7946
  11   0.0000       0.227194         6.1823
  12   0.0000       0.231957         6.3119
  13   0.0000       0.255111         6.9419

MULLIKEN ATOMIC CHARGES
-----------------------
   0 O :   -0.495861
   1 H :    0.321111
   2 C :   -0.175376
   3 H :    0.129338
   4 H :    0.110949
   5 H :    0.109839
Sum of atomic charges:    0.0000000

LOEWDIN ATOMIC CHARGES
----------------------
   0 O :   -0.110717
   1 H :    0.188085
   2 C :   -0.378728
   3 H :    0.109835
   4 H :    0.095789
   5 H :    0.095736

  Mayer bond orders larger than 0.100000
B(  0-O ,  1-H ) :   0.8440 B(  0-O ,  2-C ) :   0.9268 B(  2-C ,  3-H ) :   0.9381
B(  2-C ,  4-H ) :   0.9411 B(  2-C ,  5-H ) :   0.9376

MP2 TOTAL ENERGY:     -115.506568247 Eh
FINAL SINGLE POINT ENERGY      -115.506568247218

DIPOLE MOMENT
-------------
                                X             Y             Z
Electronic contribution:     -0.44393      -1.15886       1.28362
Nuclear contribution   :      1.08582       1.33089      -1.52683
                        -----------------------------------------
Total Dipole Moment    :      0.64189       0.17203      -0.24321
                        -----------------------------------------
Magnitude (a.u.)       :      0.70764
Magnitude (Debye)      :      1.79869

Rotational constants in cm-1:     4.187136     0.820711     0.789426
Rotational constants in MHz : 125527.178256 24604.289636 23666.383373

                             ****ORCA TERMINATED NORMALLY****
TOTAL RUN TIME: 0 days 0 hours 0 minutes 10 seconds 685 msec
