                         Program Version 4.2.0 -  RELEASE  -
|  1> # 12h2o.su.etal.mol3,4,5,6,7,9,10,11
|  2> ! MP2 def2-TZVP EnGrad TightSCF
|  3>
|  4> %pal
|  5>     nprocs 6
|  6> end
|  7>
|  8> %maxcore 8000
|  9>
| 10> %scf
| 11>     ConvForced true
| 12> end
| 13>
| 14> *xyz 0 1
| 15> O  -1.752130000  -0.741530000  -2.896280000
| 16> H  -2.036450000  -0.920500000  -1.984040000
| 17> H  -0.921210000  -1.242140000  -2.984230000
| 18> O  -0.885520000   1.737840000   0.052730000
| 19> H  -1.032320000   2.090180000  -0.841890000
| 20> H  -1.284090000   0.839590000   0.017130000
| 21> O   0.885520000  -1.737840000   0.052730000
| 22> H   1.284090000  -0.839590000   0.017130000
| 23> H   1.032320000  -2.090180000  -0.841890000
| 24> O   1.737840000   0.885520000  -0.052730000
| 25> H   2.090180000   1.032320000   0.841890000
| 26> H   0.839590000   1.284090000  -0.017130000
| 27> O  -1.737840000  -0.885520000  -0.052730000
| 28> H  -2.090180000  -1.032320000   0.841890000
| 29> H  -0.839590000  -1.284090000  -0.017130000
| 30> O   0.741530000  -1.752130000   2.896280000
| 31> H   0.920500000  -2.036450000   1.984040000
| 32> H   1.242140000  -0.921210000   2.984230000
| 33> O  -0.923410000   1.794470000  -2.768350000
| 34> H  -1.359750000   2.338250000  -3.430940000
| 35> H  -1.303000000   0.879480000  -2.865760000
| 36> O  -0.741530000   1.752130000   2.896280000
| 37> H  -0.920500000   2.036450000   1.984040000
| 38> H  -1.242140000   0.921210000   2.984230000
| 39> *
| 40>
| 41>                          ****END OF INPUT****

CARTESIAN COORDINATES (ANGSTROEM)
---------------------------------
  O     -1.752130   -0.741530   -2.896280
  H     -2.036450   -0.920500   -1.984040
  H     -0.921210   -1.242140   -2.984230
  O     -0.885520    1.737840    0.052730
  H     -1.032320    2.090180   -0.841890
  H     -1.284090    0.839590    0.017130
  O      0.885520   -1.737840    0.052730
  H      1.284090   -0.839590    0.017130
  H      1.032320   -2.090180   -0.841890
  O      1.737840    0.885520   -0.052730
  H      2.090180    1.032320    0.841890
  H      0.839590    1.284090   -0.017130
  O     -1.737840   -0.885520   -0.052730
  H     -2.090180   -1.032320    0.841890
  H     -0.839590   -1.284090   -0.017130
  O      0.741530   -1.752130    2.896280
  H      0.920500   -2.036450    1.984040
  H      1.242140   -0.921210    2.984230
  O     -0.923410    1.794470   -2.768350
  H     -1.359750    2.338250   -3.430940
  H     -1.303000    0.879480   -2.865760
  O     -0.741530    1.752130    2.896280
  H     -0.920500    2.036450    1.984040
  H     -1.242140    0.921210    2.984230

 Total Charge           Charge          ....    0
 Multiplicity           Mult            ....    1
 Number of Electrons    NEL             ....   80
 Basis Dimension        Dim             ....  344

ORBITAL ENERGIES
----------------

  NO   OCC          E(Eh)            E(eV)
   0   2.0000     -20.604239      -560.6698
   1   2.0000     -20.602791      -560.6304
   2   2.0000     -20.595705      -560.4376
   3   2.0000     -20.571102      -559.7681
   4   2.0000     -20.562515      -559.5345
   5   2.0000     -20.552691      -559.2672
   6   2.0000     -20.549816      -559.1889
   7   2.0000     -20.540741      -558.9420
   8   2.0000      -1.402301       -38.1586
   9   2.0000      -1.387950       -37.7680
  10   2.0000      -1.380826       -37.5742
  11   2.0000      -1.362215       -37.0678
  12   2.0000      -1.346946       -36.6523
  13   2.0000      -1.333998       -36.2999
  14   2.0000      -1.331470       -36.2311
  15   2.0000      -1.321923       -35.9714
  16   2.0000      -0.761489       -20.7212
  17   2.0000      -0.755850       -20.5677
  18   2.0000      -0.744050       -20.2466
  19   2.0000      -0.727680       -19.8012
  20   2.0000      -0.722125       -19.6500
  21   2.0000      -0.720569       -19.6077
  22   2.0000      -0.703313       -19.1381
  23   2.0000      -0.691203       -18.8086
  24   2.0000      -0.658624       -17.9221
  25   2.0000      -0.634190       -17.2572
  26   2.0000      -0.617124       -16.7928
  27   2.0000      -0.614931       -16.7331
  28   2.0000      -0.595899       -16.2152
  29   2.0000      -0.575818       -15.6688
  30   2.0000      -0.568673       -15.4744
  31   2.0000      -0.559076       -15.2132
  32   2.0000      -0.546215       -14.8633
  33   2.0000      -0.541837       -14.7441
  34   2.0000      -0.529729       -14.4147
  35   2.0000      -0.518633       -14.1127
  36   2.0000      -0.509521       -13.8648
  37   2.0000      -0.502285       -13.6679
  38   2.0000      -0.496990       -13.5238
  39   2.0000      -0.486051       -13.2261
  40   0.0000       0.076769         2.0890
  41   0.0000       0.112604         3.0641
  42   0.0000       0.130958         3.5635
  43   0.0000       0.144477         3.9314
  44   0.0000       0.183614         4.9964

MULLIKEN ATOMIC CHARGES
-----------------------
   0 O :   -0.688758
   1 H :    0.391410
   2 H :    0.342021
   3 O :   -0.757737
   4 H :    0.390036
   5 H :    0.351349
   6 O :   -0.737627
   7 H :    0.371592
   8 H :    0.353864
   9 O :   -0.717158
  10 H :    0.348449
  11 H :    0.386539
  12 O :   -0.743970
  13 H :    0.369149
  14 H :    0.370728
  15 O :   -0.698573
  16 H :    0.369643
  17 H :    0.329498
  18 O :   -0.739813
  19 H :    0.340434
  20 H :    0.373514
  21 O :   -0.699902
  22 H :    0.374674
  23 H :    0.320638
Sum of atomic charges:    0.0000000

LOEWDIN ATOMIC CHARGES
----------------------
   0 O :   -0.271539
   1 H :    0.159428
   2 H :    0.168205
   3 O :   -0.301493
   4 H :    0.155405
   5 H :    0.138075
   6 O :   -0.294553
   7 H :    0.146707
   8 H :    0.167568
   9 O :   -0.304977
  10 H :    0.165431
  11 H :    0.148106
  12 O :   -0.295721
  13 H :    0.174748
  14 H :    0.145181
  15 O :   -0.337297
  16 H :    0.150161
  17 H :    0.160067
  18 O :   -0.340513
  19 H :    0.155839
  20 H :    0.144316
  21 O :   -0.339803
  22 H :    0.150942
  23 H :    0.155719

  Mayer bond orders larger than 0.100000
B(  0-O ,  1-H ) :   0.7991 B(  0-O ,  2-H ) :   0.8456 B(  3-O ,  4-H ) :   0.7843
B(  3-O ,  5-H ) :   0.7772 B(  6-O ,  7-H ) :   0.7369 B(  6-O ,  8-H ) :   0.8374
B(  6-O , 14-H ) :   0.1026 B(  7-H ,  9-O ) :   0.1311 B(  9-O , 10-H ) :   0.8410
B(  9-O , 11-H ) :   0.7576 B( 12-O , 13-H ) :   0.8280 B( 12-O , 14-H ) :   0.7550
B( 15-O , 16-H ) :   0.8231 B( 15-O , 17-H ) :   0.8529 B( 18-O , 19-H ) :   0.8489
B( 18-O , 20-H ) :   0.7618 B( 21-O , 22-H ) :   0.8137 B( 21-O , 23-H ) :   0.8585

MP2 TOTAL ENERGY:     -610.591725425 Eh
FINAL SINGLE POINT ENERGY      -610.591725425467

DIPOLE MOMENT
-------------
                                X             Y             Z
Electronic contribution:     -0.04556      -0.03510      -0.16347
Nuclear contribution   :     -0.22418      -0.87464      -1.31870
                        -----------------------------------------
Total Dipole Moment    :     -0.26974      -0.90974      -1.48217
                        -----------------------------------------
Magnitude (a.u.)       :      1.75989
Magnitude (Debye)      :      4.47329

Rotational constants in cm-1:     0.035862     0.020875     0.017713
Rotational constants in MHz :  1075.115264   625.803106   531.019702

                             ****ORCA TERMINATED NORMALLY****
TOTAL RUN TIME: 0 days 0 hours 3 minutes 55 seconds 941 msec
