                         Program Version 4.2.0 -  RELEASE  -
|  1> # 12mecn.remya.etal.2.mol0,4,6
|  2> ! MP2 def2-TZVP EnGrad TightSCF
|  3>
|  4> %pal
|  5>     nprocs 6
|  6> end
|  7>
|  8> %maxcore 8000
|  9>
| 10> %scf
| 11>     ConvForced true
| 12> end
| 13>
| 14> *xyz 0 1
| 15> C  -0.869520000  -3.929380000   1.700199000
| 16> H  -0.057420000  -3.268850000   2.015352000
| 17> H  -0.697530000  -4.930670000   2.101524000
| 18> H  -1.821490000  -3.546590000   2.077146000
| 19> C  -0.916080000  -3.969960000   0.256749000
| 20> N  -0.955390000  -3.995980000  -0.909290000
| 21> C  -1.509690000  -0.693960000  -1.610140000
| 22> H  -1.327010000  -1.692700000  -2.017370000
| 23> H  -0.742170000  -0.000650000  -1.964400000
| 24> H  -2.491920000  -0.334310000  -1.929350000
| 25> C  -1.473570000  -0.748120000  -0.167200000
| 26> N  -1.447490000  -0.793720000   0.998938000
| 27> C   5.300864000  -2.920090000   1.401103000
| 28> H   5.986071000  -2.139770000   1.737487000
| 29> H   5.636642000  -3.888750000   1.778233000
| 30> H   4.307359000  -2.697240000   1.799307000
| 31> C   5.234791000  -2.933140000  -0.043290000
| 32> N   5.170868000  -2.941760000  -1.207750000
| 33> *
| 34>
| 35>                          ****END OF INPUT****

CARTESIAN COORDINATES (ANGSTROEM)
---------------------------------
  C     -0.869520   -3.929380    1.700199
  H     -0.057420   -3.268850    2.015352
  H     -0.697530   -4.930670    2.101524
  H     -1.821490   -3.546590    2.077146
  C     -0.916080   -3.969960    0.256749
  N     -0.955390   -3.995980   -0.909290
  C     -1.509690   -0.693960   -1.610140
  H     -1.327010   -1.692700   -2.017370
  H     -0.742170   -0.000650   -1.964400
  H     -2.491920   -0.334310   -1.929350
  C     -1.473570   -0.748120   -0.167200
  N     -1.447490   -0.793720    0.998938
  C      5.300864   -2.920090    1.401103
  H      5.986071   -2.139770    1.737487
  H      5.636642   -3.888750    1.778233
  H      4.307359   -2.697240    1.799307
  C      5.234791   -2.933140   -0.043290
  N      5.170868   -2.941760   -1.207750

 Total Charge           Charge          ....    0
 Multiplicity           Mult            ....    1
 Number of Electrons    NEL             ....   66
 Basis Dimension        Dim             ....  333

ORBITAL ENERGIES
----------------

  NO   OCC          E(Eh)            E(eV)
   0   2.0000     -15.573275      -423.7704
   1   2.0000     -15.570600      -423.6976
   2   2.0000     -15.570078      -423.6834
   3   2.0000     -11.285579      -307.0962
   4   2.0000     -11.282437      -307.0107
   5   2.0000     -11.281596      -306.9878
   6   2.0000     -11.280070      -306.9463
   7   2.0000     -11.274535      -306.7957
   8   2.0000     -11.271542      -306.7143
   9   2.0000      -1.216887       -33.1132
  10   2.0000      -1.214775       -33.0557
  11   2.0000      -1.212587       -32.9962
  12   2.0000      -1.044446       -28.4208
  13   2.0000      -1.037074       -28.2202
  14   2.0000      -1.034168       -28.1411
  15   2.0000      -0.701760       -19.0959
  16   2.0000      -0.694409       -18.8958
  17   2.0000      -0.690264       -18.7830
  18   2.0000      -0.633514       -17.2388
  19   2.0000      -0.630831       -17.1658
  20   2.0000      -0.630040       -17.1443
  21   2.0000      -0.623899       -16.9771
  22   2.0000      -0.620886       -16.8952
  23   2.0000      -0.616446       -16.7744
  24   2.0000      -0.558272       -15.1913
  25   2.0000      -0.555944       -15.1280
  26   2.0000      -0.555270       -15.1097
  27   2.0000      -0.462682       -12.5902
  28   2.0000      -0.458194       -12.4681
  29   2.0000      -0.457936       -12.4611
  30   2.0000      -0.457562       -12.4509
  31   2.0000      -0.456187       -12.4135
  32   2.0000      -0.451563       -12.2877
  33   0.0000       0.106306         2.8927
  34   0.0000       0.129995         3.5373
  35   0.0000       0.143477         3.9042
  36   0.0000       0.164575         4.4783
  37   0.0000       0.170716         4.6454

MULLIKEN ATOMIC CHARGES
-----------------------
   0 C :   -0.258333
   1 H :    0.170318
   2 H :    0.171244
   3 H :    0.179031
   4 C :   -0.119894
   5 N :   -0.142187
   6 C :   -0.284217
   7 H :    0.206304
   8 H :    0.168028
   9 H :    0.165910
  10 C :   -0.114604
  11 N :   -0.141593
  12 C :   -0.280565
  13 H :    0.172656
  14 H :    0.172364
  15 H :    0.169904
  16 C :   -0.145322
  17 N :   -0.089045
Sum of atomic charges:   -0.0000000

LOEWDIN ATOMIC CHARGES
----------------------
   0 C :   -0.285030
   1 H :    0.154748
   2 H :    0.148504
   3 H :    0.157175
   4 C :   -0.211147
   5 N :    0.032467
   6 C :   -0.280749
   7 H :    0.157786
   8 H :    0.152593
   9 H :    0.152341
  10 C :   -0.210141
  11 N :    0.031455
  12 C :   -0.284157
  13 H :    0.151704
  14 H :    0.151224
  15 H :    0.152345
  16 C :   -0.219080
  17 N :    0.047963

  Mayer bond orders larger than 0.100000
B(  0-C ,  1-H ) :   0.9144 B(  0-C ,  2-H ) :   0.9113 B(  0-C ,  3-H ) :   0.9120
B(  0-C ,  4-C ) :   0.9119 B(  4-C ,  5-N ) :   2.7767 B(  6-C ,  7-H ) :   0.9024
B(  6-C ,  8-H ) :   0.9152 B(  6-C ,  9-H ) :   0.9156 B(  6-C , 10-C ) :   0.8984
B( 10-C , 11-N ) :   2.7978 B( 12-C , 13-H ) :   0.9168 B( 12-C , 14-H ) :   0.9164
B( 12-C , 15-H ) :   0.9174 B( 12-C , 16-C ) :   0.9026 B( 16-C , 17-N ) :   2.8358

MP2 TOTAL ENERGY:     -397.458861005 Eh
FINAL SINGLE POINT ENERGY      -397.458861004748

DIPOLE MOMENT
-------------
                                X             Y             Z
Electronic contribution:     -0.15044      -0.27211      -3.17881
Nuclear contribution   :      0.23409       0.38244       4.66541
                        -----------------------------------------
Total Dipole Moment    :      0.08365       0.11033       1.48661
                        -----------------------------------------
Magnitude (a.u.)       :      1.49304
Magnitude (Debye)      :      3.79500

Rotational constants in cm-1:     0.044917     0.012925     0.012015
Rotational constants in MHz :  1346.586379   387.467930   360.208825

                             ****ORCA TERMINATED NORMALLY****
TOTAL RUN TIME: 0 days 0 hours 2 minutes 57 seconds 190 msec
