                         Program Version 3.0.3 - RELEASE   -
|  1> ! B3LYP Def2-SVP def2-SVP/J RIJCOSX TightSCF Grid4 D3BJ COSMO OPT
|  2>
|  3> %pal nprocs 12 end
|  4>
|  5> %scf
|  6>         maxiter 800
|  7> end
|  8>
|  9> %cosmo
| 10>         SMD true
| 11>         solvent "WATER"
| 12> end
| 13>
| 14> * xyz  0  1
| 15>   O     -0.180384    0.762615   -1.642601
| 16>   H      0.247167   -0.078166   -1.479749
| 17>   H     -0.796274    0.584951   -2.353479
| 18>   O     -0.605612    1.714052    0.854336
| 19>   H     -0.547640    1.306417   -0.009785
| 20>   H     -0.515656    2.651653    0.683910
| 21>   O      0.929260   -1.634735   -0.959238
| 22>   H      1.871177   -1.804965   -0.952443
| 23>   H      0.665463   -1.708324   -0.042053
| 24>   O     -0.112940   -0.857326    1.807599
| 25>   H     -0.314458    0.015397    1.469996
| 26>   H     -0.656660   -0.943162    2.590691
| 27> **                         ****END OF INPUT****
 Total Charge           Charge          ....    0
 Multiplicity           Mult            ....    1
 Number of Electrons    NEL             ....   40
 Basis Dimension        Dim             ....   96

ORBITAL ENERGIES
----------------

  NO   OCC          E(Eh)            E(eV)
   0   2.0000     -19.129942      -520.5522
   1   2.0000     -19.116733      -520.1927
   2   2.0000     -19.112287      -520.0718
   3   2.0000     -19.110373      -520.0197
   4   2.0000      -0.997228       -27.1360
   5   2.0000      -0.985423       -26.8147
   6   2.0000      -0.978311       -26.6212
   7   2.0000      -0.967837       -26.3362
   8   2.0000      -0.534225       -14.5370
   9   2.0000      -0.522243       -14.2110
  10   2.0000      -0.515889       -14.0381
  11   2.0000      -0.496787       -13.5183
  12   2.0000      -0.413728       -11.2581
  13   2.0000      -0.384822       -10.4715
  14   2.0000      -0.374453       -10.1894
  15   2.0000      -0.348183        -9.4745
  16   2.0000      -0.310345        -8.4449
  17   2.0000      -0.303121        -8.2483
  18   2.0000      -0.299749        -8.1566
  19   2.0000      -0.292855        -7.9690
  20   0.0000       0.050985         1.3874
  21   0.0000       0.092562         2.5187
  22   0.0000       0.096774         2.6334
  23   0.0000       0.119874         3.2619
  24   0.0000       0.188519         5.1299

MULLIKEN ATOMIC CHARGES
-----------------------
   0 O :   -0.326531
   1 H :    0.136308
   2 H :    0.196546
   3 O :   -0.343999
   4 H :    0.128607
   5 H :    0.189164
   6 O :   -0.314941
   7 H :    0.204311
   8 H :    0.161527
   9 O :   -0.347075
  10 H :    0.124503
  11 H :    0.191580
Sum of atomic charges:   -0.0000000

LOEWDIN ATOMIC CHARGES
----------------------
   0 O :   -0.118700
   1 H :    0.026130
   2 H :    0.097394
   3 O :   -0.156226
   4 H :    0.021796
   5 H :    0.095889
   6 O :   -0.104996
   7 H :    0.104279
   8 H :    0.063422
   9 O :   -0.163345
  10 H :    0.038704
  11 H :    0.095654

  Mayer bond orders larger than 0.1
B(  0-O ,  1-H ) :   0.9201 B(  0-O ,  2-H ) :   0.9789 B(  0-O ,  4-H ) :   0.1912
B(  1-H ,  6-O ) :   0.1824 B(  3-O ,  4-H ) :   0.9142 B(  3-O ,  5-H ) :   0.9743
B(  3-O , 10-H ) :   0.1433 B(  6-O ,  7-H ) :   0.9770 B(  6-O ,  8-H ) :   0.9547
B(  8-H ,  9-O ) :   0.1016 B(  9-O , 10-H ) :   0.9490 B(  9-O , 11-H ) :   0.9796

Dispersion correction           -0.007288698
FINAL SINGLE POINT ENERGY      -305.370063513615
Dispersion correction            ...
Dispersion correction           -0.007294971
FINAL SINGLE POINT ENERGY      -305.373326350310
Dispersion correction            ...
Dispersion correction           -0.007469361
FINAL SINGLE POINT ENERGY      -305.374651307096
Dispersion correction            ...
FINAL SINGLE POINT ENERGY      -305.375894203545
FINAL SINGLE POINT ENERGY      -305.377009926466
FINAL SINGLE POINT ENERGY      -305.377965728909
FINAL SINGLE POINT ENERGY      -305.378715535065
FINAL SINGLE POINT ENERGY      -305.379143701847
FINAL SINGLE POINT ENERGY      -305.379545904836
FINAL SINGLE POINT ENERGY      -305.379944993499
FINAL SINGLE POINT ENERGY      -305.386795758704
FINAL SINGLE POINT ENERGY      -305.386798919340
FINAL SINGLE POINT ENERGY      -305.386832723218
FINAL SINGLE POINT ENERGY      -305.386923787550
FINAL SINGLE POINT ENERGY      -305.386948319883
FINAL SINGLE POINT ENERGY      -305.386970082785
FINAL SINGLE POINT ENERGY      -305.386965963605
Dispersion correction           -0.008152158
FINAL SINGLE POINT ENERGY      -305.386949479123
Dispersion correction            ...
Dispersion correction           -0.008156200
FINAL SINGLE POINT ENERGY      -305.386942251306
Dispersion correction            ...

CARTESIAN COORDINATES (ANGSTROEM)
---------------------------------
  O     -0.200624    0.720472   -1.854273
  H      0.202306   -0.120329   -1.506646
  H     -1.060849    0.438528   -2.202413
  O     -0.670845    1.564622    0.662702
  H     -0.520505    1.315662   -0.287928
  H      0.052882    2.180740    0.855333
  O      0.822279   -1.463859   -0.668085
  H      1.784654   -1.349461   -0.632069
  H      0.529747   -1.290836    0.265471
  O      0.061523   -0.797146    1.827471
  H     -0.253743    0.089015    1.507777
  H     -0.763382   -1.279001    1.999844

Dispersion correction           -0.008162793
FINAL SINGLE POINT ENERGY      -305.386953560851
Dispersion correction            ...

DIPOLE MOMENT
-------------
                                X             Y             Z
Electronic contribution:      0.01457      -0.03331       0.01179
Nuclear contribution   :     -0.05278      -0.04884       0.05335
                        -----------------------------------------
Total Dipole Moment    :     -0.03822      -0.08215       0.06514
                        -----------------------------------------
Magnitude (a.u.)       :      0.11159
Magnitude (Debye)      :      0.28363

                             ****ORCA TERMINATED NORMALLY****
TOTAL RUN TIME: 0 days 0 hours 42 minutes 59 seconds 406 msec
