                         Program Version 3.0.3 - RELEASE   -
|  1> ! B3LYP Def2-SVP def2-SVP/J RIJCOSX TightSCF Grid4 D3BJ OPT
|  2>
|  3> %pal nprocs 12 end
|  4>
|  5> %scf
|  6>         maxiter 400
|  7> end
|  8>
|  9> * xyz  0  1
| 10>   O     -0.180384    0.762615   -1.642601
| 11>   H      0.247167   -0.078166   -1.479749
| 12>   H     -0.796274    0.584951   -2.353479
| 13>   O     -0.605612    1.714052    0.854336
| 14>   H     -0.547640    1.306417   -0.009785
| 15>   H     -0.515656    2.651653    0.683910
| 16>   O      0.929260   -1.634735   -0.959238
| 17>   H      1.871177   -1.804965   -0.952443
| 18>   H      0.665463   -1.708324   -0.042053
| 19>   O     -0.112940   -0.857326    1.807599
| 20>   H     -0.314458    0.015397    1.469996
| 21>   H     -0.656660   -0.943162    2.590691
| 22> **                         ****END OF INPUT****
 Total Charge           Charge          ....    0
 Multiplicity           Mult            ....    1
 Number of Electrons    NEL             ....   40
 Basis Dimension        Dim             ....   96

ORBITAL ENERGIES
----------------

  NO   OCC          E(Eh)            E(eV)
   0   2.0000     -19.136682      -520.7356
   1   2.0000     -19.116231      -520.1791
   2   2.0000     -19.101479      -519.7777
   3   2.0000     -19.098193      -519.6882
   4   2.0000      -1.003094       -27.2956
   5   2.0000      -0.984077       -26.7781
   6   2.0000      -0.970706       -26.4143
   7   2.0000      -0.958773       -26.0896
   8   2.0000      -0.536216       -14.5912
   9   2.0000      -0.523540       -14.2463
  10   2.0000      -0.515582       -14.0297
  11   2.0000      -0.488990       -13.3061
  12   2.0000      -0.410478       -11.1697
  13   2.0000      -0.379763       -10.3339
  14   2.0000      -0.365207        -9.9378
  15   2.0000      -0.336508        -9.1568
  16   2.0000      -0.312928        -8.5152
  17   2.0000      -0.297442        -8.0938
  18   2.0000      -0.283905        -7.7255
  19   2.0000      -0.276847        -7.5334
  20   0.0000       0.039823         1.0836
  21   0.0000       0.074955         2.0396
  22   0.0000       0.081918         2.2291
  23   0.0000       0.102328         2.7845
  24   0.0000       0.179559         4.8860

MULLIKEN ATOMIC CHARGES
-----------------------
   0 O :   -0.283608
   1 H :    0.132028
   2 H :    0.156707
   3 O :   -0.296587
   4 H :    0.122532
   5 H :    0.149715
   6 O :   -0.275588
   7 H :    0.165034
   8 H :    0.156279
   9 O :   -0.303974
  10 H :    0.125023
  11 H :    0.152440
Sum of atomic charges:   -0.0000000

LOEWDIN ATOMIC CHARGES
----------------------
   0 O :   -0.098395
   1 H :    0.026234
   2 H :    0.075757
   3 O :   -0.132988
   4 H :    0.021050
   5 H :    0.075454
   6 O :   -0.086196
   7 H :    0.082411
   8 H :    0.062064
   9 O :   -0.141450
  10 H :    0.040743
  11 H :    0.075315

  Mayer bond orders larger than 0.1
B(  0-O ,  1-H ) :   0.9247 B(  0-O ,  2-H ) :   0.9962 B(  0-O ,  4-H ) :   0.1838
B(  1-H ,  6-O ) :   0.1770 B(  3-O ,  4-H ) :   0.9209 B(  3-O ,  5-H ) :   0.9921
B(  3-O , 10-H ) :   0.1388 B(  6-O ,  7-H ) :   0.9949 B(  6-O ,  8-H ) :   0.9555
B(  8-H ,  9-O ) :   0.1047 B(  9-O , 10-H ) :   0.9503 B(  9-O , 11-H ) :   0.9971

Dispersion correction           -0.007288698
FINAL SINGLE POINT ENERGY      -305.347617370740
Dispersion correction            ...
Dispersion correction           -0.007354541
FINAL SINGLE POINT ENERGY      -305.351516686551
Dispersion correction            ...
Dispersion correction           -0.007514118
FINAL SINGLE POINT ENERGY      -305.353517212437
Dispersion correction            ...
FINAL SINGLE POINT ENERGY      -305.355317422088
FINAL SINGLE POINT ENERGY      -305.356835495416
FINAL SINGLE POINT ENERGY      -305.357950609811
FINAL SINGLE POINT ENERGY      -305.358520548623
FINAL SINGLE POINT ENERGY      -305.358850076568
FINAL SINGLE POINT ENERGY      -305.359230954482
FINAL SINGLE POINT ENERGY      -305.359577877681
FINAL SINGLE POINT ENERGY      -305.364049613345
FINAL SINGLE POINT ENERGY      -305.364060720592
FINAL SINGLE POINT ENERGY      -305.364054591607
FINAL SINGLE POINT ENERGY      -305.364038769168
FINAL SINGLE POINT ENERGY      -305.363985277301
FINAL SINGLE POINT ENERGY      -305.363908117828
FINAL SINGLE POINT ENERGY      -305.363896866775
Dispersion correction           -0.008084939
FINAL SINGLE POINT ENERGY      -305.363937109884
Dispersion correction            ...
Dispersion correction           -0.008093693
FINAL SINGLE POINT ENERGY      -305.363884056964
Dispersion correction            ...

CARTESIAN COORDINATES (ANGSTROEM)
---------------------------------
  O     -0.133689    0.831864   -1.893552
  H      0.264842   -0.019058   -1.566702
  H     -0.946023    0.548471   -2.336965
  O     -0.717821    1.453147    0.663310
  H     -0.580457    1.222275   -0.292777
  H     -0.102222    2.185295    0.804432
  O      0.741049   -1.385663   -0.674927
  H      1.688465   -1.576551   -0.676316
  H      0.516689   -1.283656    0.288658
  O      0.126502   -0.797403    1.865600
  H     -0.227891    0.079559    1.554330
  H     -0.645999   -1.249873    2.232092

Dispersion correction           -0.008099309
FINAL SINGLE POINT ENERGY      -305.363887563546
Dispersion correction            ...

DIPOLE MOMENT
-------------
                                X             Y             Z
Electronic contribution:      0.02445       0.05119      -0.00778
Nuclear contribution   :     -0.06063      -0.24006       0.05977
                        -----------------------------------------
Total Dipole Moment    :     -0.03618      -0.18888       0.05198
                        -----------------------------------------
Magnitude (a.u.)       :      0.19921
Magnitude (Debye)      :      0.50636

                             ****ORCA TERMINATED NORMALLY****
TOTAL RUN TIME: 0 days 0 hours 41 minutes 46 seconds 747 msec
