                         Program Version 3.0.3 - RELEASE   -
|  1> ! BP86 Def2-SVP TightSCF Opt D3BJ
|  2>
|  3> %pal nprocs 12 end
|  4>
|  5> %scf
|  6>         maxiter 800
|  7> end
|  8>
|  9> * xyz  0  1
| 10>   O     -0.105094    0.771243   -1.716675
| 11>   H      0.271843   -0.129446   -1.428502
| 12>   H     -0.876509    0.530074   -2.262764
| 13>   O     -0.805703    1.531524    0.720326
| 14>   H     -0.635911    1.233520   -0.235864
| 15>   H     -0.128772    2.223515    0.844783
| 16>   O      0.731172   -1.534391   -0.728491
| 17>   H      1.706130   -1.572719   -0.739898
| 18>   H      0.519151   -1.321643    0.243663
| 19>   O      0.151876   -0.721111    1.722074
| 20>   H     -0.226615    0.182960    1.448668
| 21>   H     -0.618125   -1.185120    2.099864
| 22> **                         ****END OF INPUT****
 Total Charge           Charge          ....    0
 Multiplicity           Mult            ....    1
 Number of Electrons    NEL             ....   40
Dispersion correction           -0.007332420
FINAL SINGLE POINT ENERGY      -305.524754543631
Dispersion correction            ...
Dispersion correction           -0.007334726
FINAL SINGLE POINT ENERGY      -305.524762538688
Dispersion correction            ...
Dispersion correction           -0.007333603
FINAL SINGLE POINT ENERGY      -305.524778693518
Dispersion correction            ...
FINAL SINGLE POINT ENERGY      -305.524790062988
FINAL SINGLE POINT ENERGY      -305.524805446694
FINAL SINGLE POINT ENERGY      -305.524818570541
FINAL SINGLE POINT ENERGY      -305.524828786418
FINAL SINGLE POINT ENERGY      -305.524836365040
FINAL SINGLE POINT ENERGY      -305.524844809919
FINAL SINGLE POINT ENERGY      -305.524856866064
FINAL SINGLE POINT ENERGY      -305.525148040104
FINAL SINGLE POINT ENERGY      -305.525150809773
FINAL SINGLE POINT ENERGY      -305.525152374723
FINAL SINGLE POINT ENERGY      -305.525152919445
FINAL SINGLE POINT ENERGY      -305.525153058402
FINAL SINGLE POINT ENERGY      -305.525152926584
FINAL SINGLE POINT ENERGY      -305.525152539359
Dispersion correction            ...
Dispersion correction           -0.007313726
FINAL SINGLE POINT ENERGY      -305.525152155062
Dispersion correction            ...
Dispersion correction           -0.007314865
FINAL SINGLE POINT ENERGY      -305.525152226424
Dispersion correction            ...
                    ***********************HURRAY********************

CARTESIAN COORDINATES (ANGSTROEM)
---------------------------------
  O     -0.120773    0.748703   -1.716064
  H      0.271924   -0.144357   -1.428471
  H     -0.916510    0.488866   -2.217033
  O     -0.782403    1.533492    0.719098
  H     -0.593444    1.307127   -0.254226
  H     -0.171956    2.273031    0.897693
  O      0.749904   -1.539640   -0.728407
  H      1.723706   -1.596020   -0.730125
  H      0.528902   -1.328921    0.241607
  O      0.149095   -0.728141    1.714061
  H     -0.207066    0.181709    1.430402
  H     -0.647936   -1.187444    2.038651

 Multiplicity           Mult            ....    1
 Number of Electrons    NEL             ....   40
 Basis Dimension        Dim             ....   96

ORBITAL ENERGIES
----------------

  NO   OCC          E(Eh)            E(eV)
   0   2.0000     -18.767007      -510.6762
   1   2.0000     -18.766665      -510.6669
   2   2.0000     -18.766494      -510.6623
   3   2.0000     -18.766296      -510.6569
   4   2.0000      -0.910952       -24.7883
   5   2.0000      -0.891447       -24.2575
   6   2.0000      -0.891402       -24.2563
   7   2.0000      -0.872299       -23.7365
   8   2.0000      -0.469956       -12.7881
   9   2.0000      -0.458107       -12.4657
  10   2.0000      -0.457758       -12.4562
  11   2.0000      -0.451626       -12.2894
  12   2.0000      -0.369422       -10.0525
  13   2.0000      -0.331426        -9.0185
  14   2.0000      -0.330333        -8.9888
  15   2.0000      -0.295865        -8.0509
  16   2.0000      -0.253155        -6.8887
  17   2.0000      -0.249009        -6.7759
  18   2.0000      -0.248751        -6.7688
  19   2.0000      -0.242438        -6.5971
  20   0.0000       0.020392         0.5549
  21   0.0000       0.057506         1.5648
  22   0.0000       0.057793         1.5726
  23   0.0000       0.076871         2.0918
  24   0.0000       0.186250         5.0681

MULLIKEN ATOMIC CHARGES
-----------------------
   0 O :   -0.312890
   1 H :    0.144012
   2 H :    0.170249
   3 O :   -0.311542
   4 H :    0.141459
   5 H :    0.169266
   6 O :   -0.312725
   7 H :    0.170078
   8 H :    0.140812
   9 O :   -0.314299
  10 H :    0.144980
  11 H :    0.170601
Sum of atomic charges:   -0.0000000

LOEWDIN ATOMIC CHARGES
----------------------
   0 O :   -0.112734
   1 H :    0.030990
   2 H :    0.081819
   3 O :   -0.111692
   4 H :    0.030518
   5 H :    0.081547
   6 O :   -0.112171
   7 H :    0.081660
   8 H :    0.030380
   9 O :   -0.113498
  10 H :    0.031301
  11 H :    0.081879

  Mayer bond orders larger than 0.1
B(  0-O ,  1-H ) :   0.8478 B(  0-O ,  2-H ) :   0.9917 B(  0-O ,  4-H ) :   0.2571
B(  1-H ,  6-O ) :   0.2549 B(  3-O ,  4-H ) :   0.8480 B(  3-O ,  5-H ) :   0.9914
B(  3-O , 10-H ) :   0.2554 B(  6-O ,  7-H ) :   0.9915 B(  6-O ,  8-H ) :   0.8468
B(  8-H ,  9-O ) :   0.2576 B(  9-O , 10-H ) :   0.8464 B(  9-O , 11-H ) :   0.9912

Dispersion correction           -0.007315716
FINAL SINGLE POINT ENERGY      -305.525152593602

DIPOLE MOMENT
-------------
                                X             Y             Z
Electronic contribution:     -0.00190       0.00457      -0.00171
Nuclear contribution   :     -0.00335      -0.02900       0.00093
                        -----------------------------------------
Total Dipole Moment    :     -0.00525      -0.02443      -0.00077
                        -----------------------------------------
Magnitude (a.u.)       :      0.02500
Magnitude (Debye)      :      0.06355

                             ****ORCA TERMINATED NORMALLY****
TOTAL RUN TIME: 0 days 0 hours 35 minutes 7 seconds 645 msec
