                         Program Version 3.0.3 - RELEASE   -
|  1> ! wB97X-D3 Def2-TZVP def2-TZVP/J RIJCOSX TightSCF Grid4 COSMO
|  2>
|  3> %pal nprocs 12 end
|  4>
|  5> %scf
|  6>         maxiter 400
|  7> end
|  8>
|  9> %cosmo
| 10>         SMD true
| 11>         solvent "WATER"
| 12> end
| 13>
| 14> * xyz  0  1
| 15> O  3.088185	0.697903	-3.329725
| 16> H  3.625399	0.186353	-2.655801
| 17> H  3.715405	1.234928	-3.837189
| 18> O  -2.502075	-0.204269	-0.438944
| 19> H  -2.130489	-0.745252	0.305512
| 20> H  -3.191723	0.336874	0.016202
| 21> O  -0.450720	-0.568609	-2.309016
| 22> H  -1.325412	-0.353368	-1.922814
| 23> H  0.141670	0.180864	-2.036937
| 24> O  1.563550	-1.436864	-4.081843
| 25> H  0.704778	-1.166566	-3.697210
| 26> H  2.130202	-0.636119	-3.975145
| 27> O  2.469734	-2.896817	-2.020627
| 28> H  2.122972	-2.451133	-2.845745
| 29> H  2.772882	-3.772577	-2.305729
| 30> O  -3.875309	1.302774	1.321869
| 31> H  -4.784812	1.636072	1.272011
| 32> H  -3.317426	2.084967	1.601038
| 33> O  0.392708	0.539488	2.243482
| 34> H  -0.039578	0.881956	3.063522
| 35> H  -0.007442	1.082334	1.515240
| 36> O  -3.277970	-0.388785	3.381895
| 37> H  -2.706902	-1.014023	2.891258
| 38> H  -3.638713	0.185683	2.663533
| 39> O  -1.374369	1.387312	4.069644
| 40> H  -2.100469	0.712273	3.955578
| 41> H  -1.351946	1.608752	5.012893
| 42> O  1.272137	1.313088	-1.460966
| 43> H  1.922482	1.321478	-2.206528
| 44> H  1.710384	0.784236	-0.743068
| 45> O  -2.133501	3.169115	2.090459
| 46> H  -1.524779	2.894749	1.369826
| 47> H  -1.811921	2.673798	2.879255
| 48> O  -1.310990	-1.477618	1.653982
| 49> H  -0.648043	-0.791189	1.931613
| 50> H  -0.768309	-2.087697	1.112015
| 51> O  -0.778060	1.801249	0.176233
| 52> H  -0.087430	1.880152	-0.519064
| 53> H  -1.417622	1.120074	-0.153778
| 54> O  4.157133	-0.805754	-1.446327
| 55> H  3.680658	-0.532903	-0.633034
| 56> H  3.712517	-1.659031	-1.665395
| 57> O  2.229556	-0.333472	0.463623
| 58> H  1.851886	0.033889	1.292667
| 59> H  1.603660	-1.072325	0.235899
| 60> O  0.473556	-2.225684	-0.338022
| 61> H  1.160140	-2.734822	-0.832961
| 62> H  0.057782	-1.697027	-1.066656
| 63> **                         ****END OF INPUT****

CARTESIAN COORDINATES (ANGSTROEM)
---------------------------------
  O      3.088185    0.697903   -3.329725
  H      3.625399    0.186353   -2.655801
  H      3.715405    1.234928   -3.837189
  O     -2.502075   -0.204269   -0.438944
  H     -2.130489   -0.745252    0.305512
  H     -3.191723    0.336874    0.016202
  O     -0.450720   -0.568609   -2.309016
  H     -1.325412   -0.353368   -1.922814
  H      0.141670    0.180864   -2.036937
  O      1.563550   -1.436864   -4.081843
  H      0.704778   -1.166566   -3.697210
  H      2.130202   -0.636119   -3.975145
  O      2.469734   -2.896817   -2.020627
  H      2.122972   -2.451133   -2.845745
  H      2.772882   -3.772577   -2.305729
  O     -3.875309    1.302774    1.321869
  H     -4.784812    1.636072    1.272011
  H     -3.317426    2.084967    1.601038
  O      0.392708    0.539488    2.243482
  H     -0.039578    0.881956    3.063522
  H     -0.007442    1.082334    1.515240
  O     -3.277970   -0.388785    3.381895
  H     -2.706902   -1.014023    2.891258
  H     -3.638713    0.185683    2.663533
  O     -1.374369    1.387312    4.069644
  H     -2.100469    0.712273    3.955578
  H     -1.351946    1.608752    5.012893
  O      1.272137    1.313088   -1.460966
  H      1.922482    1.321478   -2.206528
  H      1.710384    0.784236   -0.743068
  O     -2.133501    3.169115    2.090459
  H     -1.524779    2.894749    1.369826
  H     -1.811921    2.673798    2.879255
  O     -1.310990   -1.477618    1.653982
  H     -0.648043   -0.791189    1.931613
  H     -0.768309   -2.087697    1.112015
  O     -0.778060    1.801249    0.176233
  H     -0.087430    1.880152   -0.519064
  H     -1.417622    1.120074   -0.153778
  O      4.157133   -0.805754   -1.446327
  H      3.680658   -0.532903   -0.633034
  H      3.712517   -1.659031   -1.665395
  O      2.229556   -0.333472    0.463623
  H      1.851886    0.033889    1.292667
  H      1.603660   -1.072325    0.235899
  O      0.473556   -2.225684   -0.338022
  H      1.160140   -2.734822   -0.832961
  H      0.057782   -1.697027   -1.066656

 Total Charge           Charge          ....    0
 Multiplicity           Mult            ....    1
 Number of Electrons    NEL             ....  160
 Basis Dimension        Dim             ....  688

ORBITAL ENERGIES
----------------

  NO   OCC          E(Eh)            E(eV)
   0   2.0000     -19.241387      -523.5847
   1   2.0000     -19.241268      -523.5815
   2   2.0000     -19.240315      -523.5556
   3   2.0000     -19.240146      -523.5510
   4   2.0000     -19.239587      -523.5358
   5   2.0000     -19.237513      -523.4794
   6   2.0000     -19.236890      -523.4624
   7   2.0000     -19.236382      -523.4486
   8   2.0000     -19.236172      -523.4428
   9   2.0000     -19.234057      -523.3853
  10   2.0000     -19.233937      -523.3820
  11   2.0000     -19.233727      -523.3763
  12   2.0000     -19.231665      -523.3202
  13   2.0000     -19.231266      -523.3093
  14   2.0000     -19.230474      -523.2878
  15   2.0000     -19.229523      -523.2619
  16   2.0000      -1.156956       -31.4824
  17   2.0000      -1.148385       -31.2491
  18   2.0000      -1.139528       -31.0081
  19   2.0000      -1.138677       -30.9850
  20   2.0000      -1.137444       -30.9514
  21   2.0000      -1.132290       -30.8112
  22   2.0000      -1.131041       -30.7772
  23   2.0000      -1.130989       -30.7758
  24   2.0000      -1.121284       -30.5117
  25   2.0000      -1.120339       -30.4860
  26   2.0000      -1.118797       -30.4440
  27   2.0000      -1.115219       -30.3466
  28   2.0000      -1.114507       -30.3273
  29   2.0000      -1.112764       -30.2798
  30   2.0000      -1.104906       -30.0660
  31   2.0000      -1.098616       -29.8949
  32   2.0000      -0.661448       -17.9989
  33   2.0000      -0.653259       -17.7761
  34   2.0000      -0.649667       -17.6783
  35   2.0000      -0.645649       -17.5690
  36   2.0000      -0.642875       -17.4935
  37   2.0000      -0.641791       -17.4640
  38   2.0000      -0.639298       -17.3962
  39   2.0000      -0.638074       -17.3629
  40   2.0000      -0.632764       -17.2184
  41   2.0000      -0.630569       -17.1587
  42   2.0000      -0.629512       -17.1299
  43   2.0000      -0.628901       -17.1133
  44   2.0000      -0.626223       -17.0404
  45   2.0000      -0.621489       -16.9116
  46   2.0000      -0.620199       -16.8765
  47   2.0000      -0.617980       -16.8161
  48   2.0000      -0.579976       -15.7820
  49   2.0000      -0.557944       -15.1824
  50   2.0000      -0.548299       -14.9200
  51   2.0000      -0.542231       -14.7549
  52   2.0000      -0.531320       -14.4580
  53   2.0000      -0.526760       -14.3339
  54   2.0000      -0.520429       -14.1616
  55   2.0000      -0.517471       -14.0811
  56   2.0000      -0.502307       -13.6685
  57   2.0000      -0.501601       -13.6493
  58   2.0000      -0.498206       -13.5569
  59   2.0000      -0.495683       -13.4882
  60   2.0000      -0.481306       -13.0970
  61   2.0000      -0.475581       -12.9412
  62   2.0000      -0.470890       -12.8136
  63   2.0000      -0.455438       -12.3931
  64   2.0000      -0.433341       -11.7918
  65   2.0000      -0.431554       -11.7432
  66   2.0000      -0.430997       -11.7280
  67   2.0000      -0.429307       -11.6820
  68   2.0000      -0.428260       -11.6535
  69   2.0000      -0.426663       -11.6101
  70   2.0000      -0.426272       -11.5995
  71   2.0000      -0.424097       -11.5403
  72   2.0000      -0.423178       -11.5152
  73   2.0000      -0.422121       -11.4865
  74   2.0000      -0.420974       -11.4553
  75   2.0000      -0.419578       -11.4173
  76   2.0000      -0.418819       -11.3966
  77   2.0000      -0.418187       -11.3794
  78   2.0000      -0.417767       -11.3680
  79   2.0000      -0.416763       -11.3407
  80   0.0000       0.089296         2.4299
  81   0.0000       0.113108         3.0778
  82   0.0000       0.143715         3.9107
  83   0.0000       0.143865         3.9148
  84   0.0000       0.150226         4.0879

MULLIKEN ATOMIC CHARGES
-----------------------
   0 O :   -0.776481
   1 H :    0.388074
   2 H :    0.406016
   3 O :   -0.770081
   4 H :    0.368927
   5 H :    0.392768
   6 O :   -0.770562
   7 H :    0.400080
   8 H :    0.361810
   9 O :   -0.753899
  10 H :    0.389562
  11 H :    0.378316
  12 O :   -0.768660
  13 H :    0.373785
  14 H :    0.406090
  15 O :   -0.771183
  16 H :    0.409027
  17 H :    0.372747
  18 O :   -0.772580
  19 H :    0.397409
  20 H :    0.356217
  21 O :   -0.753142
  22 H :    0.388200
  23 H :    0.372875
  24 O :   -0.773729
  25 H :    0.376057
  26 H :    0.408459
  27 O :   -0.783297
  28 H :    0.398933
  29 H :    0.365093
  30 O :   -0.754280
  31 H :    0.394095
  32 H :    0.374676
  33 O :   -0.770217
  34 H :    0.360515
  35 H :    0.399913
  36 O :   -0.773769
  37 H :    0.416027
  38 H :    0.347550
  39 O :   -0.754798
  40 H :    0.393377
  41 H :    0.371376
  42 O :   -0.774213
  43 H :    0.406414
  44 H :    0.361287
  45 O :   -0.767808
  46 H :    0.395232
  47 H :    0.357789
Sum of atomic charges:   -0.0000000

LOEWDIN ATOMIC CHARGES
----------------------
   0 O :   -0.283646
   1 H :    0.144993
   2 H :    0.186783
   3 O :   -0.316321
   4 H :    0.137597
   5 H :    0.146606
   6 O :   -0.304942
   7 H :    0.154981
   8 H :    0.133569
   9 O :   -0.314126
  10 H :    0.153354
  11 H :    0.143724
  12 O :   -0.283908
  13 H :    0.146105
  14 H :    0.187026
  15 O :   -0.278379
  16 H :    0.188479
  17 H :    0.144826
  18 O :   -0.303830
  19 H :    0.146943
  20 H :    0.132586
  21 O :   -0.319722
  22 H :    0.153438
  23 H :    0.142148
  24 O :   -0.283365
  25 H :    0.148107
  26 H :    0.188026
  27 O :   -0.298557
  28 H :    0.146900
  29 H :    0.137742
  30 O :   -0.318377
  31 H :    0.144295
  32 H :    0.143080
  33 O :   -0.306234
  34 H :    0.137072
  35 H :    0.158666
  36 O :   -0.279786
  37 H :    0.150834
  38 H :    0.136115
  39 O :   -0.310914
  40 H :    0.150249
  41 H :    0.144994
  42 O :   -0.298484
  43 H :    0.154746
  44 H :    0.137437
  45 O :   -0.308069
  46 H :    0.149494
  47 H :    0.137747

  Mayer bond orders larger than 0.1
B(  0-O ,  1-H ) :   0.7603 B(  0-O ,  2-H ) :   0.8392 B(  0-O , 11-H ) :   0.1005
B(  0-O , 28-H ) :   0.1087 B(  1-H , 39-O ) :   0.1280 B(  3-O ,  4-H ) :   0.7895
B(  3-O ,  5-H ) :   0.7988 B(  3-O , 38-H ) :   0.1421 B(  4-H , 33-O ) :   0.1210
B(  6-O ,  7-H ) :   0.8203 B(  6-O ,  8-H ) :   0.7774 B(  6-O , 47-H ) :   0.1228
B(  8-H , 27-O ) :   0.1312 B(  9-O , 10-H ) :   0.8295 B(  9-O , 11-H ) :   0.8025
B(  9-O , 13-H ) :   0.1341 B( 12-O , 13-H ) :   0.7694 B( 12-O , 14-H ) :   0.8408
B( 12-O , 41-H ) :   0.1025 B( 15-O , 16-H ) :   0.8384 B( 15-O , 17-H ) :   0.7618
B( 15-O , 23-H ) :   0.1068 B( 17-H , 30-O ) :   0.1451 B( 18-O , 19-H ) :   0.7908
B( 18-O , 20-H ) :   0.7850 B( 18-O , 34-H ) :   0.1362 B( 20-H , 36-O ) :   0.1252
B( 21-O , 22-H ) :   0.8325 B( 21-O , 23-H ) :   0.8035 B( 21-O , 25-H ) :   0.1307
B( 24-O , 25-H ) :   0.7713 B( 24-O , 26-H ) :   0.8385 B( 27-O , 28-H ) :   0.7803
B( 27-O , 29-H ) :   0.7798 B( 29-H , 42-O ) :   0.1261 B( 30-O , 31-H ) :   0.8177
B( 30-O , 32-H ) :   0.8124 B( 33-O , 34-H ) :   0.7784 B( 33-O , 35-H ) :   0.8199
B( 36-O , 37-H ) :   0.7906 B( 36-O , 38-H ) :   0.7807 B( 39-O , 40-H ) :   0.8212
B( 39-O , 41-H ) :   0.8079 B( 42-O , 43-H ) :   0.8048 B( 42-O , 44-H ) :   0.7770
B( 44-H , 45-O ) :   0.1402 B( 45-O , 46-H ) :   0.7984 B( 45-O , 47-H ) :   0.7911

Dispersion correction           -0.032104553
FINAL SINGLE POINT ENERGY     -1223.359107274920

DIPOLE MOMENT
-------------
                                X             Y             Z
Electronic contribution:      0.11655       0.06940      -0.00901
Nuclear contribution   :      0.14372       0.31570       0.05791
                        -----------------------------------------
Total Dipole Moment    :      0.26027       0.38510       0.04890
                        -----------------------------------------
Magnitude (a.u.)       :      0.46737
Magnitude (Debye)      :      1.18796

                             ****ORCA TERMINATED NORMALLY****
TOTAL RUN TIME: 0 days 0 hours 2 minutes 20 seconds 162 msec
