                         Program Version 3.0.3 - RELEASE   -
|  1> ! wB97X-D3 Def2-TZVP def2-TZVP/J RIJCOSX TightSCF Grid4 COSMO
|  2>
|  3> %pal nprocs 12 end
|  4>
|  5> %scf
|  6>         maxiter 400
|  7> end
|  8>
|  9> %cosmo
| 10>         SMD true
| 11>         solvent "WATER"
| 12> end
| 13>
| 14> * xyz  0  1
| 15> O  2.977341	0.489693	-3.205878
| 16> H  3.528710	-0.055441	-2.529114
| 17> H  3.629450	0.954601	-3.766431
| 18> O  -2.273188	0.162113	-0.364300
| 19> H  -1.888217	-0.478696	0.321953
| 20> H  -3.107813	0.495344	0.091239
| 21> O  -0.445418	-0.522865	-2.178003
| 22> H  -1.313523	-0.280216	-1.749617
| 23> H  0.164157	0.251138	-1.929342
| 24> O  1.355796	-1.528856	-3.976995
| 25> H  0.533506	-1.225025	-3.507289
| 26> H  1.966421	-0.740173	-3.864601
| 27> O  2.454356	-2.984926	-2.104644
| 28> H  2.025701	-2.503557	-2.906112
| 29> H  2.687614	-3.878778	-2.423986
| 30> O  -4.032152	1.105904	1.353734
| 31> H  -4.963187	1.382413	1.242553
| 32> H  -3.517873	1.952186	1.629813
| 33> O  0.436064	0.684206	2.183569
| 34> H  -0.071243	0.955736	3.009811
| 35> H  0.064816	1.318632	1.485165
| 36> O  -3.041351	-0.562957	3.242450
| 37> H  -2.418265	-1.083965	2.668705
| 38> H  -3.555075	-0.016559	2.575793
| 39> O  -1.431523	1.378627	3.922645
| 40> H  -2.074529	0.588891	3.778455
| 41> H  -1.400133	1.530848	4.887836
| 42> O  1.262323	1.356098	-1.391725
| 43> H  1.919291	1.282775	-2.151295
| 44> H  1.698194	0.792697	-0.668204
| 45> O  -2.485083	3.074032	2.103536
| 46> H  -1.784023	3.001856	1.402701
| 47> H  -2.080531	2.571646	2.872961
| 48> O  -1.107105	-1.363190	1.484579
| 49> H  -0.471806	-0.635935	1.799773
| 50> H  -0.528391	-1.948480	0.920894
| 51> O  -0.666249	2.181643	0.267507
| 52> H  0.048303	2.177409	-0.428142
| 53> H  -1.306953	1.455405	-0.039522
| 54> O  4.135384	-0.992415	-1.396222
| 55> H  3.656733	-0.690059	-0.579304
| 56> H  3.653220	-1.840691	-1.629643
| 57> O  2.247959	-0.281400	0.458334
| 58> H  1.837374	0.063949	1.297571
| 59> H  1.644271	-1.058916	0.205554
| 60> O  0.610160	-2.189593	-0.389214
| 61> H  1.267647	-2.727147	-0.930797
| 62> H  0.162207	-1.619543	-1.100028
| 63> **                         ****END OF INPUT****

CARTESIAN COORDINATES (ANGSTROEM)
---------------------------------
  O      2.977341    0.489693   -3.205878
  H      3.528710   -0.055441   -2.529114
  H      3.629450    0.954601   -3.766431
  O     -2.273188    0.162113   -0.364300
  H     -1.888217   -0.478696    0.321953
  H     -3.107813    0.495344    0.091239
  O     -0.445418   -0.522865   -2.178003
  H     -1.313523   -0.280216   -1.749617
  H      0.164157    0.251138   -1.929342
  O      1.355796   -1.528856   -3.976995
  H      0.533506   -1.225025   -3.507289
  H      1.966421   -0.740173   -3.864601
  O      2.454356   -2.984926   -2.104644
  H      2.025701   -2.503557   -2.906112
  H      2.687614   -3.878778   -2.423986
  O     -4.032152    1.105904    1.353734
  H     -4.963187    1.382413    1.242553
  H     -3.517873    1.952186    1.629813
  O      0.436064    0.684206    2.183569
  H     -0.071243    0.955736    3.009811
  H      0.064816    1.318632    1.485165
  O     -3.041351   -0.562957    3.242450
  H     -2.418265   -1.083965    2.668705
  H     -3.555075   -0.016559    2.575793
  O     -1.431523    1.378627    3.922645
  H     -2.074529    0.588891    3.778455
  H     -1.400133    1.530848    4.887836
  O      1.262323    1.356098   -1.391725
  H      1.919291    1.282775   -2.151295
  H      1.698194    0.792697   -0.668204
  O     -2.485083    3.074032    2.103536
  H     -1.784023    3.001856    1.402701
  H     -2.080531    2.571646    2.872961
  O     -1.107105   -1.363190    1.484579
  H     -0.471806   -0.635935    1.799773
  H     -0.528391   -1.948480    0.920894
  O     -0.666249    2.181643    0.267507
  H      0.048303    2.177409   -0.428142
  H     -1.306953    1.455405   -0.039522
  O      4.135384   -0.992415   -1.396222
  H      3.656733   -0.690059   -0.579304
  H      3.653220   -1.840691   -1.629643
  O      2.247959   -0.281400    0.458334
  H      1.837374    0.063949    1.297571
  H      1.644271   -1.058916    0.205554
  O      0.610160   -2.189593   -0.389214
  H      1.267647   -2.727147   -0.930797
  H      0.162207   -1.619543   -1.100028

 Total Charge           Charge          ....    0
 Multiplicity           Mult            ....    1
 Number of Electrons    NEL             ....  160
 Basis Dimension        Dim             ....  688

ORBITAL ENERGIES
----------------

  NO   OCC          E(Eh)            E(eV)
   0   2.0000     -19.241385      -523.5847
   1   2.0000     -19.241362      -523.5841
   2   2.0000     -19.240969      -523.5734
   3   2.0000     -19.240801      -523.5688
   4   2.0000     -19.237257      -523.4724
   5   2.0000     -19.237249      -523.4721
   6   2.0000     -19.236961      -523.4643
   7   2.0000     -19.236707      -523.4574
   8   2.0000     -19.234355      -523.3934
   9   2.0000     -19.234293      -523.3917
  10   2.0000     -19.234253      -523.3906
  11   2.0000     -19.234080      -523.3859
  12   2.0000     -19.233163      -523.3610
  13   2.0000     -19.233108      -523.3595
  14   2.0000     -19.232815      -523.3515
  15   2.0000     -19.232556      -523.3445
  16   2.0000      -1.155466       -31.4418
  17   2.0000      -1.146871       -31.2079
  18   2.0000      -1.136308       -30.9205
  19   2.0000      -1.134990       -30.8847
  20   2.0000      -1.134435       -30.8695
  21   2.0000      -1.127459       -30.6797
  22   2.0000      -1.126924       -30.6652
  23   2.0000      -1.126668       -30.6582
  24   2.0000      -1.116050       -30.3693
  25   2.0000      -1.115462       -30.3533
  26   2.0000      -1.113018       -30.2868
  27   2.0000      -1.107140       -30.1268
  28   2.0000      -1.106624       -30.1128
  29   2.0000      -1.106534       -30.1103
  30   2.0000      -1.096794       -29.8453
  31   2.0000      -1.087502       -29.5924
  32   2.0000      -0.653346       -17.7785
  33   2.0000      -0.650484       -17.7006
  34   2.0000      -0.649930       -17.6855
  35   2.0000      -0.648516       -17.6470
  36   2.0000      -0.643033       -17.4978
  37   2.0000      -0.638133       -17.3645
  38   2.0000      -0.635727       -17.2990
  39   2.0000      -0.633394       -17.2355
  40   2.0000      -0.629436       -17.1278
  41   2.0000      -0.626326       -17.0432
  42   2.0000      -0.624890       -17.0041
  43   2.0000      -0.622614       -16.9422
  44   2.0000      -0.619754       -16.8644
  45   2.0000      -0.616235       -16.7686
  46   2.0000      -0.615662       -16.7530
  47   2.0000      -0.613634       -16.6978
  48   2.0000      -0.587639       -15.9905
  49   2.0000      -0.564370       -15.3573
  50   2.0000      -0.545859       -14.8536
  51   2.0000      -0.544934       -14.8284
  52   2.0000      -0.532252       -14.4833
  53   2.0000      -0.529206       -14.4004
  54   2.0000      -0.523078       -14.2337
  55   2.0000      -0.522583       -14.2202
  56   2.0000      -0.502063       -13.6618
  57   2.0000      -0.501524       -13.6472
  58   2.0000      -0.498103       -13.5541
  59   2.0000      -0.495425       -13.4812
  60   2.0000      -0.478688       -13.0258
  61   2.0000      -0.473820       -12.8933
  62   2.0000      -0.469329       -12.7711
  63   2.0000      -0.450367       -12.2551
  64   2.0000      -0.430335       -11.7100
  65   2.0000      -0.427417       -11.6306
  66   2.0000      -0.427300       -11.6274
  67   2.0000      -0.427095       -11.6218
  68   2.0000      -0.426402       -11.6030
  69   2.0000      -0.423035       -11.5114
  70   2.0000      -0.422330       -11.4922
  71   2.0000      -0.421642       -11.4735
  72   2.0000      -0.420206       -11.4344
  73   2.0000      -0.420100       -11.4315
  74   2.0000      -0.418723       -11.3940
  75   2.0000      -0.418268       -11.3817
  76   2.0000      -0.417250       -11.3540
  77   2.0000      -0.416288       -11.3278
  78   2.0000      -0.414776       -11.2866
  79   2.0000      -0.414339       -11.2747
  80   0.0000       0.091051         2.4776
  81   0.0000       0.114277         3.1096
  82   0.0000       0.144976         3.9450
  83   0.0000       0.145273         3.9531
  84   0.0000       0.151214         4.1147

MULLIKEN ATOMIC CHARGES
-----------------------
   0 O :   -0.784126
   1 H :    0.381060
   2 H :    0.408846
   3 O :   -0.792652
   4 H :    0.368406
   5 H :    0.402665
   6 O :   -0.789693
   7 H :    0.415254
   8 H :    0.367530
   9 O :   -0.756884
  10 H :    0.399534
  11 H :    0.381608
  12 O :   -0.783512
  13 H :    0.381223
  14 H :    0.408848
  15 O :   -0.783776
  16 H :    0.409773
  17 H :    0.381994
  18 O :   -0.790876
  19 H :    0.401380
  20 H :    0.368299
  21 O :   -0.758208
  22 H :    0.399741
  23 H :    0.382667
  24 O :   -0.784962
  25 H :    0.383369
  26 H :    0.410123
  27 O :   -0.794329
  28 H :    0.403516
  29 H :    0.366340
  30 O :   -0.758382
  31 H :    0.399155
  32 H :    0.381963
  33 O :   -0.788860
  34 H :    0.363539
  35 H :    0.415494
  36 O :   -0.789448
  37 H :    0.415184
  38 H :    0.362940
  39 O :   -0.756289
  40 H :    0.399783
  41 H :    0.383101
  42 O :   -0.787262
  43 H :    0.413726
  44 H :    0.367787
  45 O :   -0.792517
  46 H :    0.403595
  47 H :    0.363329
Sum of atomic charges:   -0.0000000

LOEWDIN ATOMIC CHARGES
----------------------
   0 O :   -0.294713
   1 H :    0.151184
   2 H :    0.191162
   3 O :   -0.318735
   4 H :    0.141803
   5 H :    0.152220
   6 O :   -0.313749
   7 H :    0.158073
   8 H :    0.142230
   9 O :   -0.319434
  10 H :    0.156197
  11 H :    0.150362
  12 O :   -0.293522
  13 H :    0.151751
  14 H :    0.191284
  15 O :   -0.291808
  16 H :    0.191838
  17 H :    0.151991
  18 O :   -0.320667
  19 H :    0.152971
  20 H :    0.141916
  21 O :   -0.318970
  22 H :    0.155613
  23 H :    0.150304
  24 O :   -0.292361
  25 H :    0.152527
  26 H :    0.191753
  27 O :   -0.320134
  28 H :    0.153143
  29 H :    0.141399
  30 O :   -0.319785
  31 H :    0.155377
  32 H :    0.149269
  33 O :   -0.312857
  34 H :    0.141518
  35 H :    0.158956
  36 O :   -0.314125
  37 H :    0.158586
  38 H :    0.141255
  39 O :   -0.316699
  40 H :    0.156295
  41 H :    0.150748
  42 O :   -0.311590
  43 H :    0.159900
  44 H :    0.142104
  45 O :   -0.319117
  46 H :    0.153142
  47 H :    0.141396

  Mayer bond orders larger than 0.1
B(  0-O ,  1-H ) :   0.7325 B(  0-O ,  2-H ) :   0.8361 B(  0-O , 11-H ) :   0.1103
B(  0-O , 28-H ) :   0.1155 B(  1-H , 39-O ) :   0.1670 B(  3-O ,  4-H ) :   0.7582
B(  3-O ,  5-H ) :   0.7652 B(  3-O , 38-H ) :   0.1553 B(  4-H , 33-O ) :   0.1480
B(  5-H , 15-O ) :   0.1205 B(  6-O ,  7-H ) :   0.7874 B(  6-O ,  8-H ) :   0.7541
B(  6-O , 47-H ) :   0.1502 B(  8-H , 27-O ) :   0.1527 B(  9-O , 10-H ) :   0.8106
B(  9-O , 11-H ) :   0.7906 B(  9-O , 13-H ) :   0.1657 B( 12-O , 13-H ) :   0.7338
B( 12-O , 14-H ) :   0.8361 B( 12-O , 41-H ) :   0.1086 B( 12-O , 46-H ) :   0.1166
B( 15-O , 16-H ) :   0.8353 B( 15-O , 17-H ) :   0.7331 B( 15-O , 23-H ) :   0.1092
B( 17-H , 30-O ) :   0.1662 B( 18-O , 19-H ) :   0.7695 B( 18-O , 20-H ) :   0.7598
B( 18-O , 34-H ) :   0.1556 B( 19-H , 24-O ) :   0.1169 B( 20-H , 36-O ) :   0.1464
B( 21-O , 22-H ) :   0.8098 B( 21-O , 23-H ) :   0.7909 B( 21-O , 25-H ) :   0.1651
B( 24-O , 25-H ) :   0.7328 B( 24-O , 26-H ) :   0.8351 B( 24-O , 32-H ) :   0.1123
B( 27-O , 28-H ) :   0.7683 B( 27-O , 29-H ) :   0.7570 B( 29-H , 42-O ) :   0.1485
B( 30-O , 31-H ) :   0.8104 B( 30-O , 32-H ) :   0.7891 B( 33-O , 34-H ) :   0.7539
B( 33-O , 35-H ) :   0.7887 B( 36-O , 37-H ) :   0.7891 B( 36-O , 38-H ) :   0.7539
B( 39-O , 40-H ) :   0.8104 B( 39-O , 41-H ) :   0.7906 B( 42-O , 43-H ) :   0.7925
B( 42-O , 44-H ) :   0.7534 B( 44-H , 45-O ) :   0.1534 B( 45-O , 46-H ) :   0.7674
B( 45-O , 47-H ) :   0.7579

Dispersion correction           -0.033046988
FINAL SINGLE POINT ENERGY     -1223.340702395219

DIPOLE MOMENT
-------------
                                X             Y             Z
Electronic contribution:      0.00203      -0.01702       0.01072
Nuclear contribution   :      0.00951      -0.01655      -0.02613
                        -----------------------------------------
Total Dipole Moment    :      0.01154      -0.03357      -0.01541
                        -----------------------------------------
Magnitude (a.u.)       :      0.03870
Magnitude (Debye)      :      0.09836

                             ****ORCA TERMINATED NORMALLY****
TOTAL RUN TIME: 0 days 0 hours 2 minutes 12 seconds 656 msec
