                         Program Version 3.0.3 - RELEASE   -
|  1> ! wB97X-D3 Def2-TZVP def2-TZVP/J RIJCOSX TightSCF Grid4
|  2>
|  3> %pal nprocs 12 end
|  4>
|  5> %scf
|  6>         maxiter 400
|  7> end
|  8>
|  9> * xyz  0  1
| 10> O  3.108883	0.699081	-3.260634
| 11> H  3.625333	0.155265	-2.577598
| 12> H  3.753523	1.219737	-3.756929
| 13> O  -2.440673	-0.101930	-0.439589
| 14> H  -2.084205	-0.681150	0.284166
| 15> H  -3.186978	0.366854	-0.003321
| 16> O  -0.488260	-0.676745	-2.300455
| 17> H  -1.376037	-0.453470	-1.950902
| 18> H  0.091847	0.076993	-2.016196
| 19> O  1.533809	-1.436277	-4.037914
| 20> H  0.650151	-1.183865	-3.696878
| 21> H  2.073977	-0.619415	-3.959887
| 22> O  2.486096	-2.908251	-2.101959
| 23> H  2.102955	-2.398789	-2.889896
| 24> H  2.778197	-3.757159	-2.461252
| 25> O  -3.919023	1.310298	1.340665
| 26> H  -4.824414	1.649301	1.313651
| 27> H  -3.343026	2.096960	1.619577
| 28> O  0.385328	0.566417	2.200360
| 29> H  -0.007439	0.907541	3.036306
| 30> H  -0.009876	1.145548	1.495535
| 31> O  -3.133806	-0.393408	3.367855
| 32> H  -2.608956	-1.050352	2.865920
| 33> H  -3.581440	0.126139	2.662823
| 34> O  -1.377063	1.428523	4.059110
| 35> H  -2.062850	0.704105	3.893071
| 36> H  -1.379634	1.596100	5.010680
| 37> O  1.199549	1.212750	-1.429869
| 38> H  1.871037	1.290524	-2.147011
| 39> H  1.655512	0.702360	-0.706138
| 40> O  -2.272820	3.198645	2.080499
| 41> H  -1.623436	3.025336	1.365307
| 42> H  -1.887614	2.756058	2.867742
| 43> O  -1.275380	-1.474135	1.590992
| 44> H  -0.617597	-0.786868	1.877606
| 45> H  -0.726700	-2.111786	1.088806
| 46> O  -0.777373	1.933678	0.197297
| 47> H  -0.075747	1.978733	-0.491101
| 48> H  -1.406429	1.235867	-0.124677
| 49> O  4.161275	-0.811064	-1.439981
| 50> H  3.725573	-0.567165	-0.595222
| 51> H  3.745591	-1.676664	-1.652836
| 52> O  2.240463	-0.352772	0.477742
| 53> H  1.865735	0.007678	1.311586
| 54> H  1.636227	-1.111582	0.257904
| 55> O  0.527459	-2.273482	-0.333623
| 56> H  1.196568	-2.793591	-0.832971
| 57> H  0.075057	-1.772114	-1.061635
| 58> **                         ****END OF INPUT****

CARTESIAN COORDINATES (ANGSTROEM)
---------------------------------
  O      3.108883    0.699081   -3.260634
  H      3.625333    0.155265   -2.577598
  H      3.753523    1.219737   -3.756929
  O     -2.440673   -0.101930   -0.439589
  H     -2.084205   -0.681150    0.284166
  H     -3.186978    0.366854   -0.003321
  O     -0.488260   -0.676745   -2.300455
  H     -1.376037   -0.453470   -1.950902
  H      0.091847    0.076993   -2.016196
  O      1.533809   -1.436277   -4.037914
  H      0.650151   -1.183865   -3.696878
  H      2.073977   -0.619415   -3.959887
  O      2.486096   -2.908251   -2.101959
  H      2.102955   -2.398789   -2.889896
  H      2.778197   -3.757159   -2.461252
  O     -3.919023    1.310298    1.340665
  H     -4.824414    1.649301    1.313651
  H     -3.343026    2.096960    1.619577
  O      0.385328    0.566417    2.200360
  H     -0.007439    0.907541    3.036306
  H     -0.009876    1.145548    1.495535
  O     -3.133806   -0.393408    3.367855
  H     -2.608956   -1.050352    2.865920
  H     -3.581440    0.126139    2.662823
  O     -1.377063    1.428523    4.059110
  H     -2.062850    0.704105    3.893071
  H     -1.379634    1.596100    5.010680
  O      1.199549    1.212750   -1.429869
  H      1.871037    1.290524   -2.147011
  H      1.655512    0.702360   -0.706138
  O     -2.272820    3.198645    2.080499
  H     -1.623436    3.025336    1.365307
  H     -1.887614    2.756058    2.867742
  O     -1.275380   -1.474135    1.590992
  H     -0.617597   -0.786868    1.877606
  H     -0.726700   -2.111786    1.088806
  O     -0.777373    1.933678    0.197297
  H     -0.075747    1.978733   -0.491101
  H     -1.406429    1.235867   -0.124677
  O      4.161275   -0.811064   -1.439981
  H      3.725573   -0.567165   -0.595222
  H      3.745591   -1.676664   -1.652836
  O      2.240463   -0.352772    0.477742
  H      1.865735    0.007678    1.311586
  H      1.636227   -1.111582    0.257904
  O      0.527459   -2.273482   -0.333623
  H      1.196568   -2.793591   -0.832971
  H      0.075057   -1.772114   -1.061635

 Total Charge           Charge          ....    0
 Multiplicity           Mult            ....    1
 Number of Electrons    NEL             ....  160
 Basis Dimension        Dim             ....  688

ORBITAL ENERGIES
----------------

  NO   OCC          E(Eh)            E(eV)
   0   2.0000     -19.252857      -523.8969
   1   2.0000     -19.252225      -523.8797
   2   2.0000     -19.251409      -523.8575
   3   2.0000     -19.250883      -523.8432
   4   2.0000     -19.240817      -523.5693
   5   2.0000     -19.240750      -523.5674
   6   2.0000     -19.239037      -523.5208
   7   2.0000     -19.238579      -523.5083
   8   2.0000     -19.238454      -523.5050
   9   2.0000     -19.237564      -523.4807
  10   2.0000     -19.237145      -523.4693
  11   2.0000     -19.236088      -523.4406
  12   2.0000     -19.232624      -523.3463
  13   2.0000     -19.232099      -523.3320
  14   2.0000     -19.232086      -523.3317
  15   2.0000     -19.230858      -523.2983
  16   2.0000      -1.161178       -31.5973
  17   2.0000      -1.155349       -31.4386
  18   2.0000      -1.146627       -31.2013
  19   2.0000      -1.145617       -31.1738
  20   2.0000      -1.144877       -31.1537
  21   2.0000      -1.137096       -30.9420
  22   2.0000      -1.136372       -30.9223
  23   2.0000      -1.135451       -30.8972
  24   2.0000      -1.125320       -30.6215
  25   2.0000      -1.124977       -30.6122
  26   2.0000      -1.122083       -30.5334
  27   2.0000      -1.117685       -30.4137
  28   2.0000      -1.117250       -30.4019
  29   2.0000      -1.116785       -30.3893
  30   2.0000      -1.109267       -30.1847
  31   2.0000      -1.101830       -29.9823
  32   2.0000      -0.666094       -18.1253
  33   2.0000      -0.660853       -17.9827
  34   2.0000      -0.657358       -17.8876
  35   2.0000      -0.654703       -17.8154
  36   2.0000      -0.652597       -17.7581
  37   2.0000      -0.650310       -17.6958
  38   2.0000      -0.647688       -17.6245
  39   2.0000      -0.646478       -17.5916
  40   2.0000      -0.639469       -17.4008
  41   2.0000      -0.635956       -17.3052
  42   2.0000      -0.634116       -17.2552
  43   2.0000      -0.631084       -17.1727
  44   2.0000      -0.630571       -17.1587
  45   2.0000      -0.627199       -17.0670
  46   2.0000      -0.623611       -16.9693
  47   2.0000      -0.621816       -16.9205
  48   2.0000      -0.584789       -15.9129
  49   2.0000      -0.564121       -15.3505
  50   2.0000      -0.549247       -14.9458
  51   2.0000      -0.546420       -14.8688
  52   2.0000      -0.536315       -14.5939
  53   2.0000      -0.531235       -14.4556
  54   2.0000      -0.523988       -14.2584
  55   2.0000      -0.519603       -14.1391
  56   2.0000      -0.507253       -13.8031
  57   2.0000      -0.504139       -13.7183
  58   2.0000      -0.501708       -13.6522
  59   2.0000      -0.498844       -13.5742
  60   2.0000      -0.482871       -13.1396
  61   2.0000      -0.478845       -13.0300
  62   2.0000      -0.471283       -12.8243
  63   2.0000      -0.453606       -12.3432
  64   2.0000      -0.439937       -11.9713
  65   2.0000      -0.438691       -11.9374
  66   2.0000      -0.437276       -11.8989
  67   2.0000      -0.435575       -11.8526
  68   2.0000      -0.431461       -11.7407
  69   2.0000      -0.431188       -11.7332
  70   2.0000      -0.429385       -11.6842
  71   2.0000      -0.426566       -11.6075
  72   2.0000      -0.425831       -11.5875
  73   2.0000      -0.424701       -11.5567
  74   2.0000      -0.420904       -11.4534
  75   2.0000      -0.419744       -11.4218
  76   2.0000      -0.417950       -11.3730
  77   2.0000      -0.417392       -11.3578
  78   2.0000      -0.417183       -11.3521
  79   2.0000      -0.415754       -11.3132
  80   0.0000       0.078569         2.1380
  81   0.0000       0.094639         2.5753
  82   0.0000       0.117356         3.1934
  83   0.0000       0.117490         3.1971
  84   0.0000       0.130693         3.5564

MULLIKEN ATOMIC CHARGES
-----------------------
   0 O :   -0.756547
   1 H :    0.377752
   2 H :    0.353287
   3 O :   -0.736536
   4 H :    0.359411
   5 H :    0.375569
   6 O :   -0.741859
   7 H :    0.390375
   8 H :    0.344390
   9 O :   -0.691063
  10 H :    0.380935
  11 H :    0.362896
  12 O :   -0.753133
  13 H :    0.366779
  14 H :    0.354168
  15 O :   -0.756035
  16 H :    0.356441
  17 H :    0.365040
  18 O :   -0.745112
  19 H :    0.380994
  20 H :    0.345278
  21 O :   -0.688496
  22 H :    0.379779
  23 H :    0.353888
  24 O :   -0.755126
  25 H :    0.369896
  26 H :    0.354958
  27 O :   -0.756354
  28 H :    0.385362
  29 H :    0.349012
  30 O :   -0.682172
  31 H :    0.381000
  32 H :    0.357109
  33 O :   -0.743594
  34 H :    0.348655
  35 H :    0.386820
  36 O :   -0.753724
  37 H :    0.401714
  38 H :    0.339810
  39 O :   -0.693774
  40 H :    0.383696
  41 H :    0.357007
  42 O :   -0.745678
  43 H :    0.394630
  44 H :    0.354230
  45 O :   -0.740774
  46 H :    0.377362
  47 H :    0.351733
Sum of atomic charges:   -0.0000000

LOEWDIN ATOMIC CHARGES
----------------------
   0 O :   -0.302068
   1 H :    0.139020
   2 H :    0.160675
   3 O :   -0.298311
   4 H :    0.135982
   5 H :    0.143292
   6 O :   -0.295095
   7 H :    0.153838
   8 H :    0.128780
   9 O :   -0.269706
  10 H :    0.152361
  11 H :    0.142383
  12 O :   -0.302091
  13 H :    0.139760
  14 H :    0.161069
  15 O :   -0.299831
  16 H :    0.161999
  17 H :    0.140408
  18 O :   -0.293314
  19 H :    0.145073
  20 H :    0.131828
  21 O :   -0.275083
  22 H :    0.152508
  23 H :    0.139507
  24 O :   -0.303505
  25 H :    0.142203
  26 H :    0.161531
  27 O :   -0.288681
  28 H :    0.144236
  29 H :    0.133283
  30 O :   -0.271236
  31 H :    0.146112
  32 H :    0.141651
  33 O :   -0.294455
  34 H :    0.134290
  35 H :    0.155439
  36 O :   -0.285081
  37 H :    0.148671
  38 H :    0.133339
  39 O :   -0.271206
  40 H :    0.151466
  41 H :    0.142638
  42 O :   -0.288184
  43 H :    0.152466
  44 H :    0.135547
  45 O :   -0.297443
  46 H :    0.146142
  47 H :    0.137794

  Mayer bond orders larger than 0.1
B(  0-O ,  1-H ) :   0.7343 B(  0-O ,  2-H ) :   0.8801 B(  1-H , 39-O ) :   0.1701
B(  3-O ,  4-H ) :   0.7906 B(  3-O ,  5-H ) :   0.8216 B(  3-O , 38-H ) :   0.1549
B(  4-H , 33-O ) :   0.1282 B(  6-O ,  7-H ) :   0.8276 B(  6-O ,  8-H ) :   0.7861
B(  6-O , 47-H ) :   0.1314 B(  8-H , 27-O ) :   0.1351 B(  9-O , 10-H ) :   0.8324
B(  9-O , 11-H ) :   0.8284 B(  9-O , 13-H ) :   0.1815 B( 12-O , 13-H ) :   0.7350
B( 12-O , 14-H ) :   0.8811 B( 15-O , 16-H ) :   0.8793 B( 15-O , 17-H ) :   0.7297
B( 17-H , 30-O ) :   0.1923 B( 18-O , 19-H ) :   0.8121 B( 18-O , 20-H ) :   0.7843
B( 18-O , 34-H ) :   0.1375 B( 20-H , 36-O ) :   0.1383 B( 21-O , 22-H ) :   0.8366
B( 21-O , 23-H ) :   0.8307 B( 21-O , 25-H ) :   0.1735 B( 24-O , 25-H ) :   0.7406
B( 24-O , 26-H ) :   0.8800 B( 27-O , 28-H ) :   0.8020 B( 27-O , 29-H ) :   0.7736
B( 29-H , 42-O ) :   0.1483 B( 30-O , 31-H ) :   0.8305 B( 30-O , 32-H ) :   0.8378
B( 33-O , 34-H ) :   0.7854 B( 33-O , 35-H ) :   0.8293 B( 36-O , 37-H ) :   0.8019
B( 36-O , 38-H ) :   0.7803 B( 39-O , 40-H ) :   0.8308 B( 39-O , 41-H ) :   0.8297
B( 42-O , 43-H ) :   0.8145 B( 42-O , 44-H ) :   0.7834 B( 44-H , 45-O ) :   0.1413
B( 45-O , 46-H ) :   0.8212 B( 45-O , 47-H ) :   0.7905

Dispersion correction           -0.032061200
FINAL SINGLE POINT ENERGY     -1223.320793911281

DIPOLE MOMENT
-------------
                                X             Y             Z
Electronic contribution:      0.05184      -0.01636      -0.02121
Nuclear contribution   :      0.10652       0.19517       0.07095
                        -----------------------------------------
Total Dipole Moment    :      0.15836       0.17881       0.04974
                        -----------------------------------------
Magnitude (a.u.)       :      0.24398
Magnitude (Debye)      :      0.62014

                             ****ORCA TERMINATED NORMALLY****
TOTAL RUN TIME: 0 days 0 hours 2 minutes 6 seconds 495 msec
