                         Program Version 4.2.0 -  RELEASE  -
|  1> # 12h2o.su.etal.mol2,6,8,10,11
|  2> ! MP2 def2-TZVP EnGrad TightSCF
|  3>
|  4> %pal
|  5>     nprocs 6
|  6> end
|  7>
|  8> %maxcore 8000
|  9>
| 10> %scf
| 11>     ConvForced true
| 12> end
| 13>
| 14> *xyz 0 1
| 15> O   0.923410000  -1.794470000  -2.768350000
| 16> H   1.359750000  -2.338250000  -3.430940000
| 17> H   1.303000000  -0.879480000  -2.865760000
| 18> O   1.737840000   0.885520000  -0.052730000
| 19> H   2.090180000   1.032320000   0.841890000
| 20> H   0.839590000   1.284090000  -0.017130000
| 21> O   1.752130000   0.741530000  -2.896280000
| 22> H   2.036450000   0.920500000  -1.984040000
| 23> H   0.921210000   1.242140000  -2.984230000
| 24> O  -0.923410000   1.794470000  -2.768350000
| 25> H  -1.359750000   2.338250000  -3.430940000
| 26> H  -1.303000000   0.879480000  -2.865760000
| 27> O  -0.741530000   1.752130000   2.896280000
| 28> H  -0.920500000   2.036450000   1.984040000
| 29> H  -1.242140000   0.921210000   2.984230000
| 30> *
| 31>
| 32>                          ****END OF INPUT****

CARTESIAN COORDINATES (ANGSTROEM)
---------------------------------
  O      0.923410   -1.794470   -2.768350
  H      1.359750   -2.338250   -3.430940
  H      1.303000   -0.879480   -2.865760
  O      1.737840    0.885520   -0.052730
  H      2.090180    1.032320    0.841890
  H      0.839590    1.284090   -0.017130
  O      1.752130    0.741530   -2.896280
  H      2.036450    0.920500   -1.984040
  H      0.921210    1.242140   -2.984230
  O     -0.923410    1.794470   -2.768350
  H     -1.359750    2.338250   -3.430940
  H     -1.303000    0.879480   -2.865760
  O     -0.741530    1.752130    2.896280
  H     -0.920500    2.036450    1.984040
  H     -1.242140    0.921210    2.984230

 Total Charge           Charge          ....    0
 Multiplicity           Mult            ....    1
 Number of Electrons    NEL             ....   50
 Basis Dimension        Dim             ....  215

ORBITAL ENERGIES
----------------

  NO   OCC          E(Eh)            E(eV)
   0   2.0000     -20.599294      -560.5353
   1   2.0000     -20.582616      -560.0814
   2   2.0000     -20.577875      -559.9524
   3   2.0000     -20.540541      -558.9365
   4   2.0000     -20.503448      -557.9272
   5   2.0000      -1.377191       -37.4753
   6   2.0000      -1.361284       -37.0424
   7   2.0000      -1.356845       -36.9216
   8   2.0000      -1.331893       -36.2426
   9   2.0000      -1.284995       -34.9665
  10   2.0000      -0.744129       -20.2488
  11   2.0000      -0.724591       -19.7171
  12   2.0000      -0.719584       -19.5809
  13   2.0000      -0.698627       -19.0106
  14   2.0000      -0.671557       -18.2740
  15   2.0000      -0.621914       -16.9231
  16   2.0000      -0.603134       -16.4121
  17   2.0000      -0.594035       -16.1645
  18   2.0000      -0.570067       -15.5123
  19   2.0000      -0.542143       -14.7525
  20   2.0000      -0.528135       -14.3713
  21   2.0000      -0.523293       -14.2395
  22   2.0000      -0.520902       -14.1745
  23   2.0000      -0.478576       -13.0227
  24   2.0000      -0.454304       -12.3623
  25   0.0000       0.086678         2.3586
  26   0.0000       0.113594         3.0910
  27   0.0000       0.153502         4.1770
  28   0.0000       0.172837         4.7031
  29   0.0000       0.175062         4.7637

MULLIKEN ATOMIC CHARGES
-----------------------
   0 O :   -0.741936
   1 H :    0.320101
   2 H :    0.368942
   3 O :   -0.689594
   4 H :    0.356007
   5 H :    0.339044
   6 O :   -0.716068
   7 H :    0.382406
   8 H :    0.357321
   9 O :   -0.709120
  10 H :    0.357629
  11 H :    0.371889
  12 O :   -0.670934
  13 H :    0.329613
  14 H :    0.344700
Sum of atomic charges:   -0.0000000

LOEWDIN ATOMIC CHARGES
----------------------
   0 O :   -0.378422
   1 H :    0.145775
   2 H :    0.141440
   3 O :   -0.314041
   4 H :    0.173091
   5 H :    0.170496
   6 O :   -0.288123
   7 H :    0.156944
   8 H :    0.146455
   9 O :   -0.314574
  10 H :    0.165949
  11 H :    0.192464
  12 O :   -0.328154
  13 H :    0.160337
  14 H :    0.170362

  Mayer bond orders larger than 0.100000
B(  0-O ,  1-H ) :   0.8632 B(  0-O ,  2-H ) :   0.7704 B(  2-H ,  6-O ) :   0.1021
B(  3-O ,  4-H ) :   0.8386 B(  3-O ,  5-H ) :   0.8426 B(  6-O ,  7-H ) :   0.8078
B(  6-O ,  8-H ) :   0.8140 B(  9-O , 10-H ) :   0.8389 B(  9-O , 11-H ) :   0.8212
B( 12-O , 13-H ) :   0.8560 B( 12-O , 14-H ) :   0.8483

MP2 TOTAL ENERGY:     -381.592125722 Eh
FINAL SINGLE POINT ENERGY      -381.592125722176

DIPOLE MOMENT
-------------
                                X             Y             Z
Electronic contribution:      0.16089       0.29497       0.29027
Nuclear contribution   :     -1.47502       0.56463      -0.49091
                        -----------------------------------------
Total Dipole Moment    :     -1.31413       0.85960      -0.20064
                        -----------------------------------------
Magnitude (a.u.)       :      1.58307
Magnitude (Debye)      :      4.02385

Rotational constants in cm-1:     0.075987     0.028139     0.024912
Rotational constants in MHz :  2278.034978   843.598550   746.849706

                             ****ORCA TERMINATED NORMALLY****
TOTAL RUN TIME: 0 days 0 hours 0 minutes 32 seconds 569 msec
