                         Program Version 4.2.0 -  RELEASE  -
|  1> # 12mecn.remya.etal.2.mol3,9
|  2> ! MP2 def2-TZVP EnGrad TightSCF
|  3>
|  4> %pal
|  5>     nprocs 6
|  6> end
|  7>
|  8> %maxcore 8000
|  9>
| 10> %scf
| 11>     ConvForced true
| 12> end
| 13>
| 14> *xyz 0 1
| 15> C  -5.181310000   2.853865000  -1.626100000
| 16> H  -5.488260000   3.811434000  -2.053310000
| 17> H  -5.857590000   2.068112000  -1.968630000
| 18> H  -4.170750000   2.611402000  -1.966640000
| 19> C  -5.187260000   2.919160000  -0.181450000
| 20> N  -5.181700000   2.970641000   0.983640000
| 21> C   0.923766000   4.000693000  -1.575910000
| 22> H   0.011949000   4.478423000  -1.939550000
| 23> H   0.947903000   2.966558000  -1.929960000
| 24> H   1.805950000   4.519548000  -1.956520000
| 25> C   0.942834000   3.994846000  -0.131200000
| 26> N   0.960035000   3.982544000   1.035639000
| 27> *
| 28>
| 29>                          ****END OF INPUT****

CARTESIAN COORDINATES (ANGSTROEM)
---------------------------------
  C     -5.181310    2.853865   -1.626100
  H     -5.488260    3.811434   -2.053310
  H     -5.857590    2.068112   -1.968630
  H     -4.170750    2.611402   -1.966640
  C     -5.187260    2.919160   -0.181450
  N     -5.181700    2.970641    0.983640
  C      0.923766    4.000693   -1.575910
  H      0.011949    4.478423   -1.939550
  H      0.947903    2.966558   -1.929960
  H      1.805950    4.519548   -1.956520
  C      0.942834    3.994846   -0.131200
  N      0.960035    3.982544    1.035639

 Total Charge           Charge          ....    0
 Multiplicity           Mult            ....    1
 Number of Electrons    NEL             ....   44
 Basis Dimension        Dim             ....  222

ORBITAL ENERGIES
----------------

  NO   OCC          E(Eh)            E(eV)
   0   2.0000     -15.573858      -423.7862
   1   2.0000     -15.573539      -423.7776
   2   2.0000     -11.287489      -307.1482
   3   2.0000     -11.287044      -307.1361
   4   2.0000     -11.280244      -306.9510
   5   2.0000     -11.279919      -306.9422
   6   2.0000      -1.215112       -33.0649
   7   2.0000      -1.214339       -33.0438
   8   2.0000      -1.046106       -28.4660
   9   2.0000      -1.045795       -28.4575
  10   2.0000      -0.703059       -19.1312
  11   2.0000      -0.702120       -19.1057
  12   2.0000      -0.636327       -17.3153
  13   2.0000      -0.634837       -17.2748
  14   2.0000      -0.632721       -17.2172
  15   2.0000      -0.632281       -17.2052
  16   2.0000      -0.556037       -15.1305
  17   2.0000      -0.555533       -15.1168
  18   2.0000      -0.458530       -12.4772
  19   2.0000      -0.458069       -12.4647
  20   2.0000      -0.457831       -12.4582
  21   2.0000      -0.457172       -12.4403
  22   0.0000       0.102374         2.7857
  23   0.0000       0.125655         3.4192
  24   0.0000       0.164959         4.4888
  25   0.0000       0.169476         4.6117
  26   0.0000       0.169947         4.6245

MULLIKEN ATOMIC CHARGES
-----------------------
   0 C :   -0.281334
   1 H :    0.172463
   2 H :    0.173193
   3 H :    0.166493
   4 C :   -0.145497
   5 N :   -0.085311
   6 C :   -0.281177
   7 H :    0.168417
   8 H :    0.171151
   9 H :    0.173216
  10 C :   -0.144818
  11 N :   -0.086797
Sum of atomic charges:   -0.0000000

LOEWDIN ATOMIC CHARGES
----------------------
   0 C :   -0.285010
   1 H :    0.151081
   2 H :    0.151695
   3 H :    0.151152
   4 C :   -0.219734
   5 N :    0.050819
   6 C :   -0.284810
   7 H :    0.150027
   8 H :    0.152670
   9 H :    0.152077
  10 C :   -0.220223
  11 N :    0.050258

  Mayer bond orders larger than 0.100000
B(  0-C ,  1-H ) :   0.9167 B(  0-C ,  2-H ) :   0.9168 B(  0-C ,  3-H ) :   0.9184
B(  0-C ,  4-C ) :   0.9024 B(  4-C ,  5-N ) :   2.8333 B(  6-C ,  7-H ) :   0.9178
B(  6-C ,  8-H ) :   0.9179 B(  6-C ,  9-H ) :   0.9163 B(  6-C , 10-C ) :   0.9012
B( 10-C , 11-N ) :   2.8332

MP2 TOTAL ENERGY:     -264.965123968 Eh
FINAL SINGLE POINT ENERGY      -264.965123968110

DIPOLE MOMENT
-------------
                                X             Y             Z
Electronic contribution:      0.00769       0.17115       6.29269
Nuclear contribution   :     -0.02618      -0.23742      -9.29808
                        -----------------------------------------
Total Dipole Moment    :     -0.01848      -0.06627      -3.00539
                        -----------------------------------------
Magnitude (a.u.)       :      3.00617
Magnitude (Debye)      :      7.64109

Rotational constants in cm-1:     0.154217     0.021062     0.018665
Rotational constants in MHz :  4623.322686   631.427313   559.568983

                             ****ORCA TERMINATED NORMALLY****
TOTAL RUN TIME: 0 days 0 hours 0 minutes 41 seconds 229 msec
