                         Program Version 4.2.0 -  RELEASE  -
|  1> # 12h2o.su.etal.mol0,2,3,5,8,10,11
|  2> ! MP2 def2-TZVP EnGrad TightSCF
|  3>
|  4> %pal
|  5>     nprocs 6
|  6> end
|  7>
|  8> %maxcore 8000
|  9>
| 10> %scf
| 11>     ConvForced true
| 12> end
| 13>
| 14> *xyz 0 1
| 15> O   1.794470000   0.923410000   2.768350000
| 16> H   2.338250000   1.359750000   3.430940000
| 17> H   0.879480000   1.303000000   2.865760000
| 18> O   0.923410000  -1.794470000  -2.768350000
| 19> H   1.359750000  -2.338250000  -3.430940000
| 20> H   1.303000000  -0.879480000  -2.865760000
| 21> O  -1.752130000  -0.741530000  -2.896280000
| 22> H  -2.036450000  -0.920500000  -1.984040000
| 23> H  -0.921210000  -1.242140000  -2.984230000
| 24> O   0.885520000  -1.737840000   0.052730000
| 25> H   1.284090000  -0.839590000   0.017130000
| 26> H   1.032320000  -2.090180000  -0.841890000
| 27> O   1.752130000   0.741530000  -2.896280000
| 28> H   2.036450000   0.920500000  -1.984040000
| 29> H   0.921210000   1.242140000  -2.984230000
| 30> O  -0.923410000   1.794470000  -2.768350000
| 31> H  -1.359750000   2.338250000  -3.430940000
| 32> H  -1.303000000   0.879480000  -2.865760000
| 33> O  -0.741530000   1.752130000   2.896280000
| 34> H  -0.920500000   2.036450000   1.984040000
| 35> H  -1.242140000   0.921210000   2.984230000
| 36> *
| 37>
| 38>                          ****END OF INPUT****

CARTESIAN COORDINATES (ANGSTROEM)
---------------------------------
  O      1.794470    0.923410    2.768350
  H      2.338250    1.359750    3.430940
  H      0.879480    1.303000    2.865760
  O      0.923410   -1.794470   -2.768350
  H      1.359750   -2.338250   -3.430940
  H      1.303000   -0.879480   -2.865760
  O     -1.752130   -0.741530   -2.896280
  H     -2.036450   -0.920500   -1.984040
  H     -0.921210   -1.242140   -2.984230
  O      0.885520   -1.737840    0.052730
  H      1.284090   -0.839590    0.017130
  H      1.032320   -2.090180   -0.841890
  O      1.752130    0.741530   -2.896280
  H      2.036450    0.920500   -1.984040
  H      0.921210    1.242140   -2.984230
  O     -0.923410    1.794470   -2.768350
  H     -1.359750    2.338250   -3.430940
  H     -1.303000    0.879480   -2.865760
  O     -0.741530    1.752130    2.896280
  H     -0.920500    2.036450    1.984040
  H     -1.242140    0.921210    2.984230

 Total Charge           Charge          ....    0
 Multiplicity           Mult            ....    1
 Number of Electrons    NEL             ....   70
 Basis Dimension        Dim             ....  301

ORBITAL ENERGIES
----------------

  NO   OCC          E(Eh)            E(eV)
   0   2.0000     -20.596547      -560.4605
   1   2.0000     -20.581927      -560.0627
   2   2.0000     -20.576649      -559.9191
   3   2.0000     -20.572395      -559.8033
   4   2.0000     -20.557247      -559.3911
   5   2.0000     -20.531864      -558.7004
   6   2.0000     -20.518828      -558.3457
   7   2.0000      -1.381858       -37.6023
   8   2.0000      -1.378129       -37.5008
   9   2.0000      -1.366711       -37.1901
  10   2.0000      -1.354373       -36.8544
  11   2.0000      -1.337020       -36.3822
  12   2.0000      -1.310639       -35.6643
  13   2.0000      -1.301065       -35.4038
  14   2.0000      -0.740170       -20.1410
  15   2.0000      -0.739313       -20.1177
  16   2.0000      -0.734686       -19.9918
  17   2.0000      -0.725171       -19.7329
  18   2.0000      -0.718914       -19.5627
  19   2.0000      -0.691789       -18.8245
  20   2.0000      -0.680721       -18.5234
  21   2.0000      -0.635095       -17.2818
  22   2.0000      -0.617024       -16.7901
  23   2.0000      -0.606926       -16.5153
  24   2.0000      -0.598098       -16.2751
  25   2.0000      -0.572485       -15.5781
  26   2.0000      -0.558106       -15.1868
  27   2.0000      -0.554946       -15.1009
  28   2.0000      -0.524363       -14.2686
  29   2.0000      -0.517617       -14.0851
  30   2.0000      -0.515026       -14.0146
  31   2.0000      -0.514552       -14.0017
  32   2.0000      -0.507691       -13.8150
  33   2.0000      -0.477470       -12.9926
  34   2.0000      -0.469091       -12.7646
  35   0.0000       0.094141         2.5617
  36   0.0000       0.120239         3.2719
  37   0.0000       0.144159         3.9228
  38   0.0000       0.147979         4.0267
  39   0.0000       0.166483         4.5302

MULLIKEN ATOMIC CHARGES
-----------------------
   0 O :   -0.729651
   1 H :    0.324952
   2 H :    0.364135
   3 O :   -0.755987
   4 H :    0.352477
   5 H :    0.380476
   6 O :   -0.708742
   7 H :    0.357297
   8 H :    0.379965
   9 O :   -0.696242
  10 H :    0.320560
  11 H :    0.362288
  12 O :   -0.706324
  13 H :    0.353073
  14 H :    0.381824
  15 O :   -0.747074
  16 H :    0.344189
  17 H :    0.379281
  18 O :   -0.679687
  19 H :    0.359413
  20 H :    0.363777
Sum of atomic charges:    0.0000000

LOEWDIN ATOMIC CHARGES
----------------------
   0 O :   -0.371219
   1 H :    0.148953
   2 H :    0.141661
   3 O :   -0.314977
   4 H :    0.159960
   5 H :    0.145289
   6 O :   -0.282660
   7 H :    0.172573
   8 H :    0.154321
   9 O :   -0.347062
  10 H :    0.160881
  11 H :    0.145785
  12 O :   -0.280295
  13 H :    0.169358
  14 H :    0.155774
  15 O :   -0.343060
  16 H :    0.156924
  17 H :    0.144806
  18 O :   -0.271150
  19 H :    0.175299
  20 H :    0.178837

  Mayer bond orders larger than 0.100000
B(  0-O ,  1-H ) :   0.8604 B(  0-O ,  2-H ) :   0.7878 B(  3-O ,  4-H ) :   0.8392
B(  3-O ,  5-H ) :   0.7350 B(  5-H , 12-O ) :   0.1116 B(  6-O ,  7-H ) :   0.8365
B(  6-O ,  8-H ) :   0.7881 B(  6-O , 17-H ) :   0.1106 B(  9-O , 10-H ) :   0.8561
B(  9-O , 11-H ) :   0.8198 B( 12-O , 13-H ) :   0.8395 B( 12-O , 14-H ) :   0.7781
B( 15-O , 16-H ) :   0.8467 B( 15-O , 17-H ) :   0.7482 B( 18-O , 19-H ) :   0.8363
B( 18-O , 20-H ) :   0.8333

MP2 TOTAL ENERGY:     -534.252835990 Eh
FINAL SINGLE POINT ENERGY      -534.252835990278

DIPOLE MOMENT
-------------
                                X             Y             Z
Electronic contribution:     -0.25794      -0.04693      -0.03955
Nuclear contribution   :     -0.42069       0.67857      -0.72077
                        -----------------------------------------
Total Dipole Moment    :     -0.67864       0.63164      -0.76031
                        -----------------------------------------
Magnitude (a.u.)       :      1.19900
Magnitude (Debye)      :      3.04761

Rotational constants in cm-1:     0.039164     0.016986     0.015198
Rotational constants in MHz :  1174.102048   509.237659   455.635869

                             ****ORCA TERMINATED NORMALLY****
TOTAL RUN TIME: 0 days 0 hours 2 minutes 8 seconds 112 msec
