                         Program Version 4.2.0 -  RELEASE  -
|  1> # 12h2o.su.etal.mol0,1,2,5,7,8,9,10
|  2> ! MP2 def2-TZVP EnGrad TightSCF
|  3>
|  4> %pal
|  5>     nprocs 6
|  6> end
|  7>
|  8> %maxcore 8000
|  9>
| 10> %scf
| 11>     ConvForced true
| 12> end
| 13>
| 14> *xyz 0 1
| 15> O   1.794470000   0.923410000   2.768350000
| 16> H   2.338250000   1.359750000   3.430940000
| 17> H   0.879480000   1.303000000   2.865760000
| 18> O  -1.794470000  -0.923410000   2.768350000
| 19> H  -2.338250000  -1.359750000   3.430940000
| 20> H  -0.879480000  -1.303000000   2.865760000
| 21> O   0.923410000  -1.794470000  -2.768350000
| 22> H   1.359750000  -2.338250000  -3.430940000
| 23> H   1.303000000  -0.879480000  -2.865760000
| 24> O   0.885520000  -1.737840000   0.052730000
| 25> H   1.284090000  -0.839590000   0.017130000
| 26> H   1.032320000  -2.090180000  -0.841890000
| 27> O  -1.737840000  -0.885520000  -0.052730000
| 28> H  -2.090180000  -1.032320000   0.841890000
| 29> H  -0.839590000  -1.284090000  -0.017130000
| 30> O   1.752130000   0.741530000  -2.896280000
| 31> H   2.036450000   0.920500000  -1.984040000
| 32> H   0.921210000   1.242140000  -2.984230000
| 33> O   0.741530000  -1.752130000   2.896280000
| 34> H   0.920500000  -2.036450000   1.984040000
| 35> H   1.242140000  -0.921210000   2.984230000
| 36> O  -0.923410000   1.794470000  -2.768350000
| 37> H  -1.359750000   2.338250000  -3.430940000
| 38> H  -1.303000000   0.879480000  -2.865760000
| 39> *
| 40>
| 41>                          ****END OF INPUT****

CARTESIAN COORDINATES (ANGSTROEM)
---------------------------------
  O      1.794470    0.923410    2.768350
  H      2.338250    1.359750    3.430940
  H      0.879480    1.303000    2.865760
  O     -1.794470   -0.923410    2.768350
  H     -2.338250   -1.359750    3.430940
  H     -0.879480   -1.303000    2.865760
  O      0.923410   -1.794470   -2.768350
  H      1.359750   -2.338250   -3.430940
  H      1.303000   -0.879480   -2.865760
  O      0.885520   -1.737840    0.052730
  H      1.284090   -0.839590    0.017130
  H      1.032320   -2.090180   -0.841890
  O     -1.737840   -0.885520   -0.052730
  H     -2.090180   -1.032320    0.841890
  H     -0.839590   -1.284090   -0.017130
  O      1.752130    0.741530   -2.896280
  H      2.036450    0.920500   -1.984040
  H      0.921210    1.242140   -2.984230
  O      0.741530   -1.752130    2.896280
  H      0.920500   -2.036450    1.984040
  H      1.242140   -0.921210    2.984230
  O     -0.923410    1.794470   -2.768350
  H     -1.359750    2.338250   -3.430940
  H     -1.303000    0.879480   -2.865760

 Total Charge           Charge          ....    0
 Multiplicity           Mult            ....    1
 Number of Electrons    NEL             ....   80
 Basis Dimension        Dim             ....  344

ORBITAL ENERGIES
----------------

  NO   OCC          E(Eh)            E(eV)
   0   2.0000     -20.597295      -560.4809
   1   2.0000     -20.584333      -560.1282
   2   2.0000     -20.582094      -560.0672
   3   2.0000     -20.572884      -559.8166
   4   2.0000     -20.549311      -559.1752
   5   2.0000     -20.545118      -559.0611
   6   2.0000     -20.522598      -558.4483
   7   2.0000     -20.481433      -557.3281
   8   2.0000      -1.375308       -37.4240
   9   2.0000      -1.374457       -37.4009
  10   2.0000      -1.361262       -37.0418
  11   2.0000      -1.358797       -36.9748
  12   2.0000      -1.337498       -36.3952
  13   2.0000      -1.330561       -36.2064
  14   2.0000      -1.305853       -35.5341
  15   2.0000      -1.265626       -34.4394
  16   2.0000      -0.742232       -20.1972
  17   2.0000      -0.737495       -20.0683
  18   2.0000      -0.724817       -19.7233
  19   2.0000      -0.722799       -19.6684
  20   2.0000      -0.715408       -19.4672
  21   2.0000      -0.701740       -19.0953
  22   2.0000      -0.689416       -18.7600
  23   2.0000      -0.650766       -17.7083
  24   2.0000      -0.627831       -17.0842
  25   2.0000      -0.620728       -16.8909
  26   2.0000      -0.605908       -16.4876
  27   2.0000      -0.593510       -16.1502
  28   2.0000      -0.578164       -15.7326
  29   2.0000      -0.565919       -15.3994
  30   2.0000      -0.558212       -15.1897
  31   2.0000      -0.537527       -14.6268
  32   2.0000      -0.527201       -14.3459
  33   2.0000      -0.524872       -14.2825
  34   2.0000      -0.518697       -14.1145
  35   2.0000      -0.499590       -13.5945
  36   2.0000      -0.493413       -13.4264
  37   2.0000      -0.486597       -13.2410
  38   2.0000      -0.467238       -12.7142
  39   2.0000      -0.432668       -11.7735
  40   0.0000       0.093595         2.5469
  41   0.0000       0.114639         3.1195
  42   0.0000       0.136114         3.7038
  43   0.0000       0.157082         4.2744
  44   0.0000       0.163461         4.4480

MULLIKEN ATOMIC CHARGES
-----------------------
   0 O :   -0.708913
   1 H :    0.356868
   2 H :    0.373894
   3 O :   -0.740374
   4 H :    0.328706
   5 H :    0.367809
   6 O :   -0.736933
   7 H :    0.338946
   8 H :    0.369080
   9 O :   -0.722140
  10 H :    0.338421
  11 H :    0.390045
  12 O :   -0.746543
  13 H :    0.360179
  14 H :    0.344859
  15 O :   -0.698595
  16 H :    0.346562
  17 H :    0.381315
  18 O :   -0.718000
  19 H :    0.385144
  20 H :    0.361879
  21 O :   -0.704442
  22 H :    0.351101
  23 H :    0.381132
Sum of atomic charges:   -0.0000000

LOEWDIN ATOMIC CHARGES
----------------------
   0 O :   -0.314015
   1 H :    0.165689
   2 H :    0.193440
   3 O :   -0.345632
   4 H :    0.149347
   5 H :    0.142439
   6 O :   -0.339258
   7 H :    0.155018
   8 H :    0.142715
   9 O :   -0.285161
  10 H :    0.168163
  11 H :    0.157812
  12 O :   -0.377280
  13 H :    0.144067
  14 H :    0.134383
  15 O :   -0.279879
  16 H :    0.166690
  17 H :    0.156679
  18 O :   -0.287813
  19 H :    0.155513
  20 H :    0.147800
  21 O :   -0.310340
  22 H :    0.163639
  23 H :    0.195984

  Mayer bond orders larger than 0.100000
B(  0-O ,  1-H ) :   0.8393 B(  0-O ,  2-H ) :   0.8201 B(  3-O ,  4-H ) :   0.8546
B(  3-O ,  5-H ) :   0.7542 B(  5-H , 18-O ) :   0.1081 B(  6-O ,  7-H ) :   0.8496
B(  6-O ,  8-H ) :   0.7574 B(  8-H , 15-O ) :   0.1014 B(  9-O , 10-H ) :   0.8391
B(  9-O , 11-H ) :   0.7814 B( 12-O , 13-H ) :   0.8201 B( 12-O , 14-H ) :   0.8149
B( 15-O , 16-H ) :   0.8445 B( 15-O , 17-H ) :   0.7854 B( 18-O , 19-H ) :   0.8042
B( 18-O , 20-H ) :   0.8100 B( 21-O , 22-H ) :   0.8420 B( 21-O , 23-H ) :   0.8135

MP2 TOTAL ENERGY:     -610.577297392 Eh
FINAL SINGLE POINT ENERGY      -610.577297392054

DIPOLE MOMENT
-------------
                                X             Y             Z
Electronic contribution:      0.25675       0.24249      -0.24544
Nuclear contribution   :      1.01903       1.02107       0.00000
                        -----------------------------------------
Total Dipole Moment    :      1.27578       1.26356      -0.24544
                        -----------------------------------------
Magnitude (a.u.)       :      1.81230
Magnitude (Debye)      :      4.60650

Rotational constants in cm-1:     0.033492     0.014970     0.014404
Rotational constants in MHz :  1004.069040   448.795391   431.810730

                             ****ORCA TERMINATED NORMALLY****
TOTAL RUN TIME: 0 days 0 hours 2 minutes 47 seconds 813 msec
