                         Program Version 4.2.0 -  RELEASE  -
|  1> ! MP2 def2-TZVP EnGrad TightSCF FrozenCore
|  2>
|  3> %pal
|  4>     nprocs 12
|  5> end
|  6>
|  7> %maxcore 8000
|  8>
|  9> %scf
| 10>     ConvForced true
| 11> end
| 12>
| 13> *xyz 0 1
| 14> C     4.299755    -0.774920     0.364344
| 15> H     5.384356    -0.647607     0.406886
| 16> H     4.040486    -1.503163    -0.407551
| 17> H     3.932879    -1.156834     1.319922
| 18> C     3.654529     0.501429     0.067947
| 19> N     3.146023     1.519228    -0.167514
| 20> C    -3.789450     0.720963     0.000267
| 21> H    -4.678653     1.106849     0.505427
| 22> H    -4.076795    -0.003144    -0.765674
| 23> H    -3.251144     1.543850    -0.479999
| 24> C    -2.902986     0.080914     0.967931
| 25> N    -2.196179    -0.420205     1.743111
| 26> C     0.440231     1.584048     1.761198
| 27> H     0.750420     0.569713     1.491697
| 28> H    -0.180740     1.532829     2.659045
| 29> H     1.329149     2.193160     1.941515
| 30> C    -0.333908     2.157295     0.664218
| 31> N    -0.960020     2.610408    -0.204279
| 32> C     0.449952     0.560648    -2.363733
| 33> H     1.128608     0.436725    -1.514239
| 34> H     0.209208     1.622206    -2.457675
| 35> H     0.941321     0.207203    -3.274013
| 36> C    -0.770926    -0.204490    -2.129088
| 37> N    -1.736593    -0.826553    -1.949982
| 38> C    -0.961613    -3.104492     0.466962
| 39> H    -1.403568    -2.991309     1.459531
| 40> H    -0.716459    -4.153281     0.280299
| 41> H    -1.680092    -2.751761    -0.278843
| 42> C     0.245475    -2.289126     0.378029
| 43> N     1.216008    -1.654171     0.299409
| 44> *
| 45>
| 46>                          ****END OF INPUT****

CARTESIAN COORDINATES (ANGSTROEM)
---------------------------------
  C      4.299755   -0.774920    0.364344
  H      5.384356   -0.647607    0.406886
  H      4.040486   -1.503163   -0.407551
  H      3.932879   -1.156834    1.319922
  C      3.654529    0.501429    0.067947
  N      3.146023    1.519228   -0.167514
  C     -3.789450    0.720963    0.000267
  H     -4.678653    1.106849    0.505427
  H     -4.076795   -0.003144   -0.765674
  H     -3.251144    1.543850   -0.479999
  C     -2.902986    0.080914    0.967931
  N     -2.196179   -0.420205    1.743111
  C      0.440231    1.584048    1.761198
  H      0.750420    0.569713    1.491697
  H     -0.180740    1.532829    2.659045
  H      1.329149    2.193160    1.941515
  C     -0.333908    2.157295    0.664218
  N     -0.960020    2.610408   -0.204279
  C      0.449952    0.560648   -2.363733
  H      1.128608    0.436725   -1.514239
  H      0.209208    1.622206   -2.457675
  H      0.941321    0.207203   -3.274013
  C     -0.770926   -0.204490   -2.129088
  N     -1.736593   -0.826553   -1.949982
  C     -0.961613   -3.104492    0.466962
  H     -1.403568   -2.991309    1.459531
  H     -0.716459   -4.153281    0.280299
  H     -1.680092   -2.751761   -0.278843
  C      0.245475   -2.289126    0.378029
  N      1.216008   -1.654171    0.299409

 Total Charge           Charge          ....    0
 Multiplicity           Mult            ....    1
 Number of Electrons    NEL             ....  110
 Basis Dimension        Dim             ....  555

ORBITAL ENERGIES
----------------

  NO   OCC          E(Eh)            E(eV)
   0   2.0000     -15.569073      -423.6560
   1   2.0000     -15.568882      -423.6508
   2   2.0000     -15.560729      -423.4290
   3   2.0000     -15.560370      -423.4192
   4   2.0000     -15.555935      -423.2985
   5   2.0000     -11.286038      -307.1087
   6   2.0000     -11.281208      -306.9773
   7   2.0000     -11.275827      -306.8308
   8   2.0000     -11.275815      -306.8305
   9   2.0000     -11.275777      -306.8295
  10   2.0000     -11.270716      -306.6918
  11   2.0000     -11.265402      -306.5472
  12   2.0000     -11.259228      -306.3792
  13   2.0000     -11.256242      -306.2979
  14   2.0000     -11.253327      -306.2186
  15   2.0000      -1.219986       -33.1975
  16   2.0000      -1.216971       -33.1155
  17   2.0000      -1.211712       -32.9723
  18   2.0000      -1.209157       -32.9028
  19   2.0000      -1.204894       -32.7868
  20   2.0000      -1.032313       -28.0907
  21   2.0000      -1.026305       -27.9272
  22   2.0000      -1.019430       -27.7401
  23   2.0000      -1.016589       -27.6628
  24   2.0000      -1.013148       -27.5692
  25   2.0000      -0.691708       -18.8223
  26   2.0000      -0.686882       -18.6910
  27   2.0000      -0.679281       -18.4842
  28   2.0000      -0.677671       -18.4404
  29   2.0000      -0.672786       -18.3074
  30   2.0000      -0.627517       -17.0756
  31   2.0000      -0.622126       -16.9289
  32   2.0000      -0.619390       -16.8545
  33   2.0000      -0.615557       -16.7502
  34   2.0000      -0.613989       -16.7075
  35   2.0000      -0.611484       -16.6393
  36   2.0000      -0.608618       -16.5614
  37   2.0000      -0.600506       -16.3406
  38   2.0000      -0.598466       -16.2851
  39   2.0000      -0.595307       -16.1991
  40   2.0000      -0.559257       -15.2182
  41   2.0000      -0.555704       -15.1215
  42   2.0000      -0.550246       -14.9730
  43   2.0000      -0.549476       -14.9520
  44   2.0000      -0.544711       -14.8223
  45   2.0000      -0.465576       -12.6690
  46   2.0000      -0.464299       -12.6342
  47   2.0000      -0.461832       -12.5671
  48   2.0000      -0.459214       -12.4958
  49   2.0000      -0.456469       -12.4211
  50   2.0000      -0.453755       -12.3473
  51   2.0000      -0.451050       -12.2737
  52   2.0000      -0.445625       -12.1261
  53   2.0000      -0.444601       -12.0982
  54   2.0000      -0.442426       -12.0390
  55   0.0000       0.123160         3.3513
  56   0.0000       0.142967         3.8903
  57   0.0000       0.155857         4.2411
  58   0.0000       0.160163         4.3583
  59   0.0000       0.163628         4.4525

MULLIKEN ATOMIC CHARGES
-----------------------
   0 C :   -0.257159
   1 H :    0.172578
   2 H :    0.171312
   3 H :    0.170978
   4 C :   -0.112322
   5 N :   -0.140303
   6 C :   -0.284576
   7 H :    0.165439
   8 H :    0.180714
   9 H :    0.199996
  10 C :   -0.082096
  11 N :   -0.179395
  12 C :   -0.249476
  13 H :    0.171036
  14 H :    0.175409
  15 H :    0.179106
  16 C :   -0.108078
  17 N :   -0.171297
  18 C :   -0.283916
  19 H :    0.179791
  20 H :    0.191186
  21 H :    0.166782
  22 C :   -0.070086
  23 N :   -0.187786
  24 C :   -0.289592
  25 H :    0.186386
  26 H :    0.167567
  27 H :    0.197490
  28 C :   -0.054098
  29 N :   -0.205588
Sum of atomic charges:   -0.0000000

LOEWDIN ATOMIC CHARGES
----------------------
   0 C :   -0.287720
   1 H :    0.146591
   2 H :    0.152534
   3 H :    0.152512
   4 C :   -0.212320
   5 N :    0.036110
   6 C :   -0.285133
   7 H :    0.146305
   8 H :    0.152652
   9 H :    0.156696
  10 C :   -0.201431
  11 N :    0.030431
  12 C :   -0.286084
  13 H :    0.153982
  14 H :    0.150845
  15 H :    0.150502
  16 C :   -0.200192
  17 N :    0.026123
  18 C :   -0.280831
  19 H :    0.153956
  20 H :    0.156474
  21 H :    0.147773
  22 C :   -0.196764
  23 N :    0.025760
  24 C :   -0.281610
  25 H :    0.154705
  26 H :    0.146622
  27 H :    0.156246
  28 C :   -0.191718
  29 N :    0.026986

  Mayer bond orders larger than 0.100000
B(  0-C ,  1-H ) :   0.9097 B(  0-C ,  2-H ) :   0.9174 B(  0-C ,  3-H ) :   0.9195
B(  0-C ,  4-C ) :   0.9006 B(  4-C ,  5-N ) :   2.7601 B(  6-C ,  7-H ) :   0.9102
B(  6-C ,  8-H ) :   0.9146 B(  6-C ,  9-H ) :   0.9076 B(  6-C , 10-C ) :   0.8925
B( 10-C , 11-N ) :   2.7367 B( 12-C , 13-H ) :   0.9125 B( 12-C , 14-H ) :   0.9070
B( 12-C , 15-H ) :   0.9076 B( 12-C , 16-C ) :   0.9149 B( 16-C , 17-N ) :   2.7337
B( 18-C , 19-H ) :   0.9099 B( 18-C , 20-H ) :   0.9150 B( 18-C , 21-H ) :   0.9106
B( 18-C , 22-C ) :   0.8935 B( 22-C , 23-N ) :   2.7295 B( 24-C , 25-H ) :   0.9143
B( 24-C , 26-H ) :   0.9099 B( 24-C , 27-H ) :   0.9069 B( 24-C , 28-C ) :   0.8932
B( 28-C , 29-N ) :   2.7120

MP2 TOTAL ENERGY:     -662.459962929 Eh
FINAL SINGLE POINT ENERGY      -662.459962929262

DIPOLE MOMENT
-------------
                                X             Y             Z
Electronic contribution:     -1.15708       2.70597      -0.61051
Nuclear contribution   :      1.73698      -4.01305       0.89039
                        -----------------------------------------
Total Dipole Moment    :      0.57991      -1.30708       0.27988
                        -----------------------------------------
Magnitude (a.u.)       :      1.45708
Magnitude (Debye)      :      3.70361

Rotational constants in cm-1:     0.020240     0.012030     0.010537
Rotational constants in MHz :   606.772704   360.646388   315.898198

                             ****ORCA TERMINATED NORMALLY****
TOTAL RUN TIME: 0 days 0 hours 31 minutes 19 seconds 939 msec
