                         Program Version 4.2.0 -  RELEASE  -
|  1> # 12h2o.su.etal.mol0,1,2,4,5,6,7,8,9,10,11
|  2> ! MP2 def2-TZVP EnGrad TightSCF
|  3>
|  4> %pal
|  5>     nprocs 6
|  6> end
|  7>
|  8> %maxcore 8000
|  9>
| 10> %scf
| 11>     ConvForced true
| 12> end
| 13>
| 14> *xyz 0 1
| 15> O   1.794470000   0.923410000   2.768350000
| 16> H   2.338250000   1.359750000   3.430940000
| 17> H   0.879480000   1.303000000   2.865760000
| 18> O  -1.794470000  -0.923410000   2.768350000
| 19> H  -2.338250000  -1.359750000   3.430940000
| 20> H  -0.879480000  -1.303000000   2.865760000
| 21> O   0.923410000  -1.794470000  -2.768350000
| 22> H   1.359750000  -2.338250000  -3.430940000
| 23> H   1.303000000  -0.879480000  -2.865760000
| 24> O  -0.885520000   1.737840000   0.052730000
| 25> H  -1.032320000   2.090180000  -0.841890000
| 26> H  -1.284090000   0.839590000   0.017130000
| 27> O   0.885520000  -1.737840000   0.052730000
| 28> H   1.284090000  -0.839590000   0.017130000
| 29> H   1.032320000  -2.090180000  -0.841890000
| 30> O   1.737840000   0.885520000  -0.052730000
| 31> H   2.090180000   1.032320000   0.841890000
| 32> H   0.839590000   1.284090000  -0.017130000
| 33> O  -1.737840000  -0.885520000  -0.052730000
| 34> H  -2.090180000  -1.032320000   0.841890000
| 35> H  -0.839590000  -1.284090000  -0.017130000
| 36> O   1.752130000   0.741530000  -2.896280000
| 37> H   2.036450000   0.920500000  -1.984040000
| 38> H   0.921210000   1.242140000  -2.984230000
| 39> O   0.741530000  -1.752130000   2.896280000
| 40> H   0.920500000  -2.036450000   1.984040000
| 41> H   1.242140000  -0.921210000   2.984230000
| 42> O  -0.923410000   1.794470000  -2.768350000
| 43> H  -1.359750000   2.338250000  -3.430940000
| 44> H  -1.303000000   0.879480000  -2.865760000
| 45> O  -0.741530000   1.752130000   2.896280000
| 46> H  -0.920500000   2.036450000   1.984040000
| 47> H  -1.242140000   0.921210000   2.984230000
| 48> *
| 49>
| 50>                          ****END OF INPUT****

CARTESIAN COORDINATES (ANGSTROEM)
---------------------------------
  O      1.794470    0.923410    2.768350
  H      2.338250    1.359750    3.430940
  H      0.879480    1.303000    2.865760
  O     -1.794470   -0.923410    2.768350
  H     -2.338250   -1.359750    3.430940
  H     -0.879480   -1.303000    2.865760
  O      0.923410   -1.794470   -2.768350
  H      1.359750   -2.338250   -3.430940
  H      1.303000   -0.879480   -2.865760
  O     -0.885520    1.737840    0.052730
  H     -1.032320    2.090180   -0.841890
  H     -1.284090    0.839590    0.017130
  O      0.885520   -1.737840    0.052730
  H      1.284090   -0.839590    0.017130
  H      1.032320   -2.090180   -0.841890
  O      1.737840    0.885520   -0.052730
  H      2.090180    1.032320    0.841890
  H      0.839590    1.284090   -0.017130
  O     -1.737840   -0.885520   -0.052730
  H     -2.090180   -1.032320    0.841890
  H     -0.839590   -1.284090   -0.017130
  O      1.752130    0.741530   -2.896280
  H      2.036450    0.920500   -1.984040
  H      0.921210    1.242140   -2.984230
  O      0.741530   -1.752130    2.896280
  H      0.920500   -2.036450    1.984040
  H      1.242140   -0.921210    2.984230
  O     -0.923410    1.794470   -2.768350
  H     -1.359750    2.338250   -3.430940
  H     -1.303000    0.879480   -2.865760
  O     -0.741530    1.752130    2.896280
  H     -0.920500    2.036450    1.984040
  H     -1.242140    0.921210    2.984230

 Total Charge           Charge          ....    0
 Multiplicity           Mult            ....    1
 Number of Electrons    NEL             ....  110
 Basis Dimension        Dim             ....  473

ORBITAL ENERGIES
----------------

  NO   OCC          E(Eh)            E(eV)
   0   2.0000     -20.618137      -561.0480
   1   2.0000     -20.565550      -559.6171
   2   2.0000     -20.560706      -559.4853
   3   2.0000     -20.559950      -559.4647
   4   2.0000     -20.555686      -559.3486
   5   2.0000     -20.554353      -559.3124
   6   2.0000     -20.551062      -559.2228
   7   2.0000     -20.546932      -559.1105
   8   2.0000     -20.544344      -559.0400
   9   2.0000     -20.540672      -558.9401
  10   2.0000     -20.533365      -558.7413
  11   2.0000      -1.398831       -38.0641
  12   2.0000      -1.366984       -37.1975
  13   2.0000      -1.356638       -36.9160
  14   2.0000      -1.353140       -36.8208
  15   2.0000      -1.351468       -36.7753
  16   2.0000      -1.344055       -36.5736
  17   2.0000      -1.336386       -36.3649
  18   2.0000      -1.334851       -36.3231
  19   2.0000      -1.328895       -36.1611
  20   2.0000      -1.320882       -35.9430
  21   2.0000      -1.313199       -35.7340
  22   2.0000      -0.764087       -20.7919
  23   2.0000      -0.731089       -19.8940
  24   2.0000      -0.727234       -19.7890
  25   2.0000      -0.723956       -19.6998
  26   2.0000      -0.721932       -19.6448
  27   2.0000      -0.712607       -19.3910
  28   2.0000      -0.710802       -19.3419
  29   2.0000      -0.706611       -19.2279
  30   2.0000      -0.705045       -19.1852
  31   2.0000      -0.698211       -18.9993
  32   2.0000      -0.694096       -18.8873
  33   2.0000      -0.647985       -17.6326
  34   2.0000      -0.632358       -17.2073
  35   2.0000      -0.615822       -16.7574
  36   2.0000      -0.608004       -16.5446
  37   2.0000      -0.600992       -16.3538
  38   2.0000      -0.592928       -16.1344
  39   2.0000      -0.585695       -15.9376
  40   2.0000      -0.572785       -15.5863
  41   2.0000      -0.568774       -15.4771
  42   2.0000      -0.563707       -15.3392
  43   2.0000      -0.546312       -14.8659
  44   2.0000      -0.538443       -14.6518
  45   2.0000      -0.513360       -13.9692
  46   2.0000      -0.509978       -13.8772
  47   2.0000      -0.507580       -13.8120
  48   2.0000      -0.503643       -13.7048
  49   2.0000      -0.497800       -13.5458
  50   2.0000      -0.497271       -13.5314
  51   2.0000      -0.495581       -13.4854
  52   2.0000      -0.490595       -13.3498
  53   2.0000      -0.489702       -13.3255
  54   2.0000      -0.482215       -13.1217
  55   0.0000       0.098359         2.6765
  56   0.0000       0.128896         3.5074
  57   0.0000       0.148894         4.0516
  58   0.0000       0.150736         4.1017
  59   0.0000       0.185898         5.0585

MULLIKEN ATOMIC CHARGES
-----------------------
   0 O :   -0.761249
   1 H :    0.351246
   2 H :    0.386363
   3 O :   -0.760812
   4 H :    0.349677
   5 H :    0.385228
   6 O :   -0.745165
   7 H :    0.336378
   8 H :    0.373289
   9 O :   -0.758784
  10 H :    0.378393
  11 H :    0.364933
  12 O :   -0.764874
  13 H :    0.362220
  14 H :    0.385455
  15 O :   -0.760210
  16 H :    0.384130
  17 H :    0.362934
  18 O :   -0.740715
  19 H :    0.374014
  20 H :    0.371160
  21 O :   -0.718150
  22 H :    0.389036
  23 H :    0.363381
  24 O :   -0.726802
  25 H :    0.389695
  26 H :    0.369093
  27 O :   -0.728447
  28 H :    0.367296
  29 H :    0.388837
  30 O :   -0.726101
  31 H :    0.387415
  32 H :    0.371139
Sum of atomic charges:   -0.0000000

LOEWDIN ATOMIC CHARGES
----------------------
   0 O :   -0.316904
   1 H :    0.159458
   2 H :    0.146732
   3 O :   -0.317373
   4 H :    0.158544
   5 H :    0.146653
   6 O :   -0.344601
   7 H :    0.153521
   8 H :    0.143511
   9 O :   -0.303901
  10 H :    0.150512
  11 H :    0.142338
  12 O :   -0.305392
  13 H :    0.140759
  14 H :    0.153955
  15 O :   -0.303788
  16 H :    0.152545
  17 H :    0.141153
  18 O :   -0.319991
  19 H :    0.147852
  20 H :    0.141536
  21 O :   -0.286631
  22 H :    0.156478
  23 H :    0.147812
  24 O :   -0.288146
  25 H :    0.156421
  26 H :    0.149189
  27 O :   -0.289027
  28 H :    0.169658
  29 H :    0.198792
  30 O :   -0.287609
  31 H :    0.155723
  32 H :    0.150223

  Mayer bond orders larger than 0.100000
B(  0-O ,  1-H ) :   0.8403 B(  0-O ,  2-H ) :   0.7226 B(  2-H , 30-O ) :   0.1271
B(  3-O ,  4-H ) :   0.8408 B(  3-O ,  5-H ) :   0.7229 B(  5-H , 24-O ) :   0.1264
B(  6-O ,  7-H ) :   0.8510 B(  6-O ,  8-H ) :   0.7481 B(  8-H , 21-O ) :   0.1134
B(  9-O , 10-H ) :   0.8076 B(  9-O , 11-H ) :   0.7407 B(  9-O , 17-H ) :   0.1055
B( 11-H , 18-O ) :   0.1337 B( 12-O , 13-H ) :   0.7621 B( 12-O , 14-H ) :   0.7883
B( 15-O , 16-H ) :   0.7939 B( 15-O , 17-H ) :   0.7587 B( 18-O , 19-H ) :   0.8055
B( 18-O , 20-H ) :   0.7698 B( 21-O , 22-H ) :   0.7981 B( 21-O , 23-H ) :   0.8135
B( 24-O , 25-H ) :   0.7962 B( 24-O , 26-H ) :   0.7992 B( 27-O , 28-H ) :   0.8306
B( 27-O , 29-H ) :   0.8062 B( 30-O , 31-H ) :   0.8009 B( 30-O , 32-H ) :   0.7950

MP2 TOTAL ENERGY:     -839.614717901 Eh
FINAL SINGLE POINT ENERGY      -839.614717900916

DIPOLE MOMENT
-------------
                                X             Y             Z
Electronic contribution:     -0.02459       0.23155      -0.08775
Nuclear contribution   :     -0.45497       0.56566      -0.68611
                        -----------------------------------------
Total Dipole Moment    :     -0.47956       0.79720      -0.77386
                        -----------------------------------------
Magnitude (a.u.)       :      1.21011
Magnitude (Debye)      :      3.07586

Rotational constants in cm-1:     0.022519     0.012489     0.011736
Rotational constants in MHz :   675.087998   374.408393   351.840236

                             ****ORCA TERMINATED NORMALLY****
TOTAL RUN TIME: 0 days 0 hours 11 minutes 29 seconds 749 msec
