                         Program Version 4.2.0 -  RELEASE  -
|  1> # 12h2o.su.etal.mol2,3,4,7,8,10,11
|  2> ! MP2 def2-TZVP EnGrad TightSCF
|  3>
|  4> %pal
|  5>     nprocs 6
|  6> end
|  7>
|  8> %maxcore 8000
|  9>
| 10> %scf
| 11>     ConvForced true
| 12> end
| 13>
| 14> *xyz 0 1
| 15> O   0.923410000  -1.794470000  -2.768350000
| 16> H   1.359750000  -2.338250000  -3.430940000
| 17> H   1.303000000  -0.879480000  -2.865760000
| 18> O  -1.752130000  -0.741530000  -2.896280000
| 19> H  -2.036450000  -0.920500000  -1.984040000
| 20> H  -0.921210000  -1.242140000  -2.984230000
| 21> O  -0.885520000   1.737840000   0.052730000
| 22> H  -1.032320000   2.090180000  -0.841890000
| 23> H  -1.284090000   0.839590000   0.017130000
| 24> O  -1.737840000  -0.885520000  -0.052730000
| 25> H  -2.090180000  -1.032320000   0.841890000
| 26> H  -0.839590000  -1.284090000  -0.017130000
| 27> O   1.752130000   0.741530000  -2.896280000
| 28> H   2.036450000   0.920500000  -1.984040000
| 29> H   0.921210000   1.242140000  -2.984230000
| 30> O  -0.923410000   1.794470000  -2.768350000
| 31> H  -1.359750000   2.338250000  -3.430940000
| 32> H  -1.303000000   0.879480000  -2.865760000
| 33> O  -0.741530000   1.752130000   2.896280000
| 34> H  -0.920500000   2.036450000   1.984040000
| 35> H  -1.242140000   0.921210000   2.984230000
| 36> *
| 37>
| 38>                          ****END OF INPUT****

CARTESIAN COORDINATES (ANGSTROEM)
---------------------------------
  O      0.923410   -1.794470   -2.768350
  H      1.359750   -2.338250   -3.430940
  H      1.303000   -0.879480   -2.865760
  O     -1.752130   -0.741530   -2.896280
  H     -2.036450   -0.920500   -1.984040
  H     -0.921210   -1.242140   -2.984230
  O     -0.885520    1.737840    0.052730
  H     -1.032320    2.090180   -0.841890
  H     -1.284090    0.839590    0.017130
  O     -1.737840   -0.885520   -0.052730
  H     -2.090180   -1.032320    0.841890
  H     -0.839590   -1.284090   -0.017130
  O      1.752130    0.741530   -2.896280
  H      2.036450    0.920500   -1.984040
  H      0.921210    1.242140   -2.984230
  O     -0.923410    1.794470   -2.768350
  H     -1.359750    2.338250   -3.430940
  H     -1.303000    0.879480   -2.865760
  O     -0.741530    1.752130    2.896280
  H     -0.920500    2.036450    1.984040
  H     -1.242140    0.921210    2.984230

 Total Charge           Charge          ....    0
 Multiplicity           Mult            ....    1
 Number of Electrons    NEL             ....   70
 Basis Dimension        Dim             ....  301

ORBITAL ENERGIES
----------------

  NO   OCC          E(Eh)            E(eV)
   0   2.0000     -20.626579      -561.2777
   1   2.0000     -20.574840      -559.8699
   2   2.0000     -20.569642      -559.7284
   3   2.0000     -20.563916      -559.5726
   4   2.0000     -20.557379      -559.3947
   5   2.0000     -20.534709      -558.7778
   6   2.0000     -20.529060      -558.6241
   7   2.0000      -1.409714       -38.3603
   8   2.0000      -1.371519       -37.3209
   9   2.0000      -1.360945       -37.0332
  10   2.0000      -1.348599       -36.6973
  11   2.0000      -1.335725       -36.3469
  12   2.0000      -1.322903       -35.9980
  13   2.0000      -1.308956       -35.6185
  14   2.0000      -0.768103       -20.9012
  15   2.0000      -0.736870       -20.0513
  16   2.0000      -0.728503       -19.8236
  17   2.0000      -0.723124       -19.6772
  18   2.0000      -0.716844       -19.5063
  19   2.0000      -0.705070       -19.1859
  20   2.0000      -0.679049       -18.4779
  21   2.0000      -0.654261       -17.8033
  22   2.0000      -0.624970       -17.0063
  23   2.0000      -0.607548       -16.5322
  24   2.0000      -0.595691       -16.2096
  25   2.0000      -0.585136       -15.9224
  26   2.0000      -0.562656       -15.3106
  27   2.0000      -0.555530       -15.1168
  28   2.0000      -0.537820       -14.6348
  29   2.0000      -0.516492       -14.0545
  30   2.0000      -0.513928       -13.9847
  31   2.0000      -0.510773       -13.8988
  32   2.0000      -0.506492       -13.7823
  33   2.0000      -0.486366       -13.2347
  34   2.0000      -0.474890       -12.9224
  35   0.0000       0.082968         2.2577
  36   0.0000       0.121564         3.3079
  37   0.0000       0.144427         3.9301
  38   0.0000       0.164702         4.4818
  39   0.0000       0.169510         4.6126

MULLIKEN ATOMIC CHARGES
-----------------------
   0 O :   -0.750521
   1 H :    0.345712
   2 H :    0.380473
   3 O :   -0.721732
   4 H :    0.381942
   5 H :    0.371445
   6 O :   -0.741486
   7 H :    0.370999
   8 H :    0.335522
   9 O :   -0.712535
  10 H :    0.365723
  11 H :    0.380573
  12 O :   -0.709957
  13 H :    0.359235
  14 H :    0.380061
  15 O :   -0.758186
  16 H :    0.351385
  17 H :    0.383811
  18 O :   -0.689643
  19 H :    0.377180
  20 H :    0.299998
Sum of atomic charges:   -0.0000000

LOEWDIN ATOMIC CHARGES
----------------------
   0 O :   -0.344837
   1 H :    0.157844
   2 H :    0.145004
   3 O :   -0.284825
   4 H :    0.154918
   5 H :    0.150990
   6 O :   -0.347038
   7 H :    0.148402
   8 H :    0.134976
   9 O :   -0.276521
  10 H :    0.175728
  11 H :    0.188540
  12 O :   -0.282548
  13 H :    0.173269
  14 H :    0.154289
  15 O :   -0.315793
  16 H :    0.159534
  17 H :    0.146007
  18 O :   -0.340463
  19 H :    0.153943
  20 H :    0.148582

  Mayer bond orders larger than 0.100000
B(  0-O ,  1-H ) :   0.8461 B(  0-O ,  2-H ) :   0.7465 B(  2-H , 12-O ) :   0.1114
B(  3-O ,  4-H ) :   0.8134 B(  3-O ,  5-H ) :   0.7878 B(  3-O , 17-H ) :   0.1217
B(  6-O ,  7-H ) :   0.8104 B(  6-O ,  8-H ) :   0.8038 B(  9-O , 10-H ) :   0.8300
B(  9-O , 11-H ) :   0.8152 B( 12-O , 13-H ) :   0.8354 B( 12-O , 14-H ) :   0.7877
B( 15-O , 16-H ) :   0.8399 B( 15-O , 17-H ) :   0.7280 B( 18-O , 19-H ) :   0.8091
B( 18-O , 20-H ) :   0.8731

MP2 TOTAL ENERGY:     -534.265680803 Eh
FINAL SINGLE POINT ENERGY      -534.265680803215

DIPOLE MOMENT
-------------
                                X             Y             Z
Electronic contribution:      0.07989       0.02903      -0.19762
Nuclear contribution   :     -0.56521      -1.36331      -0.57908
                        -----------------------------------------
Total Dipole Moment    :     -0.48532      -1.33428      -0.77670
                        -----------------------------------------
Magnitude (a.u.)       :      1.61836
Magnitude (Debye)      :      4.11355

Rotational constants in cm-1:     0.047934     0.021719     0.020196
Rotational constants in MHz :  1437.030481   651.120527   605.457289

                             ****ORCA TERMINATED NORMALLY****
TOTAL RUN TIME: 0 days 0 hours 2 minutes 11 seconds 347 msec
