                         Program Version 4.2.0 -  RELEASE  -
|  1> # 12h2o.su.etal.mol0,1,2,3,6,8,9
|  2> ! MP2 def2-TZVP EnGrad TightSCF
|  3>
|  4> %pal
|  5>     nprocs 6
|  6> end
|  7>
|  8> %maxcore 8000
|  9>
| 10> %scf
| 11>     ConvForced true
| 12> end
| 13>
| 14> *xyz 0 1
| 15> O   1.794470000   0.923410000   2.768350000
| 16> H   2.338250000   1.359750000   3.430940000
| 17> H   0.879480000   1.303000000   2.865760000
| 18> O  -1.794470000  -0.923410000   2.768350000
| 19> H  -2.338250000  -1.359750000   3.430940000
| 20> H  -0.879480000  -1.303000000   2.865760000
| 21> O   0.923410000  -1.794470000  -2.768350000
| 22> H   1.359750000  -2.338250000  -3.430940000
| 23> H   1.303000000  -0.879480000  -2.865760000
| 24> O  -1.752130000  -0.741530000  -2.896280000
| 25> H  -2.036450000  -0.920500000  -1.984040000
| 26> H  -0.921210000  -1.242140000  -2.984230000
| 27> O   1.737840000   0.885520000  -0.052730000
| 28> H   2.090180000   1.032320000   0.841890000
| 29> H   0.839590000   1.284090000  -0.017130000
| 30> O   1.752130000   0.741530000  -2.896280000
| 31> H   2.036450000   0.920500000  -1.984040000
| 32> H   0.921210000   1.242140000  -2.984230000
| 33> O   0.741530000  -1.752130000   2.896280000
| 34> H   0.920500000  -2.036450000   1.984040000
| 35> H   1.242140000  -0.921210000   2.984230000
| 36> *
| 37>
| 38>                          ****END OF INPUT****

CARTESIAN COORDINATES (ANGSTROEM)
---------------------------------
  O      1.794470    0.923410    2.768350
  H      2.338250    1.359750    3.430940
  H      0.879480    1.303000    2.865760
  O     -1.794470   -0.923410    2.768350
  H     -2.338250   -1.359750    3.430940
  H     -0.879480   -1.303000    2.865760
  O      0.923410   -1.794470   -2.768350
  H      1.359750   -2.338250   -3.430940
  H      1.303000   -0.879480   -2.865760
  O     -1.752130   -0.741530   -2.896280
  H     -2.036450   -0.920500   -1.984040
  H     -0.921210   -1.242140   -2.984230
  O      1.737840    0.885520   -0.052730
  H      2.090180    1.032320    0.841890
  H      0.839590    1.284090   -0.017130
  O      1.752130    0.741530   -2.896280
  H      2.036450    0.920500   -1.984040
  H      0.921210    1.242140   -2.984230
  O      0.741530   -1.752130    2.896280
  H      0.920500   -2.036450    1.984040
  H      1.242140   -0.921210    2.984230

 Total Charge           Charge          ....    0
 Multiplicity           Mult            ....    1
 Number of Electrons    NEL             ....   70
 Basis Dimension        Dim             ....  301

ORBITAL ENERGIES
----------------

  NO   OCC          E(Eh)            E(eV)
   0   2.0000     -20.633901      -561.4770
   1   2.0000     -20.580478      -560.0233
   2   2.0000     -20.577013      -559.9290
   3   2.0000     -20.567243      -559.6631
   4   2.0000     -20.531081      -558.6791
   5   2.0000     -20.523744      -558.4795
   6   2.0000     -20.518927      -558.3484
   7   2.0000      -1.414300       -38.4851
   8   2.0000      -1.365879       -37.1675
   9   2.0000      -1.364479       -37.1294
  10   2.0000      -1.353320       -36.8257
  11   2.0000      -1.315799       -35.8047
  12   2.0000      -1.305691       -35.5296
  13   2.0000      -1.299836       -35.3703
  14   2.0000      -0.779777       -21.2188
  15   2.0000      -0.734234       -19.9795
  16   2.0000      -0.729124       -19.8405
  17   2.0000      -0.713560       -19.4169
  18   2.0000      -0.698849       -19.0167
  19   2.0000      -0.693667       -18.8756
  20   2.0000      -0.668992       -18.2042
  21   2.0000      -0.654199       -17.8017
  22   2.0000      -0.620384       -16.8815
  23   2.0000      -0.606152       -16.4942
  24   2.0000      -0.590594       -16.0709
  25   2.0000      -0.570675       -15.5289
  26   2.0000      -0.559799       -15.2329
  27   2.0000      -0.552045       -15.0219
  28   2.0000      -0.537293       -14.6205
  29   2.0000      -0.526875       -14.3370
  30   2.0000      -0.508255       -13.8303
  31   2.0000      -0.502808       -13.6821
  32   2.0000      -0.480073       -13.0634
  33   2.0000      -0.474505       -12.9119
  34   2.0000      -0.466696       -12.6994
  35   0.0000       0.076816         2.0903
  36   0.0000       0.119122         3.2415
  37   0.0000       0.147703         4.0192
  38   0.0000       0.154512         4.2045
  39   0.0000       0.171523         4.6674

MULLIKEN ATOMIC CHARGES
-----------------------
   0 O :   -0.723840
   1 H :    0.371176
   2 H :    0.378841
   3 O :   -0.741759
   4 H :    0.328408
   5 H :    0.364700
   6 O :   -0.739586
   7 H :    0.334377
   8 H :    0.383255
   9 O :   -0.719589
  10 H :    0.330747
  11 H :    0.361358
  12 O :   -0.710427
  13 H :    0.375506
  14 H :    0.338243
  15 O :   -0.702111
  16 H :    0.386864
  17 H :    0.350910
  18 O :   -0.700429
  19 H :    0.363662
  20 H :    0.369692
Sum of atomic charges:   -0.0000000

LOEWDIN ATOMIC CHARGES
----------------------
   0 O :   -0.287770
   1 H :    0.171423
   2 H :    0.195256
   3 O :   -0.377612
   4 H :    0.149844
   5 H :    0.140489
   6 O :   -0.340943
   7 H :    0.152410
   8 H :    0.145948
   9 O :   -0.354750
  10 H :    0.160108
  11 H :    0.146856
  12 O :   -0.323688
  13 H :    0.153139
  14 H :    0.171254
  15 O :   -0.277296
  16 H :    0.158934
  17 H :    0.170761
  18 O :   -0.280980
  19 H :    0.175562
  20 H :    0.151056

  Mayer bond orders larger than 0.100000
B(  0-O ,  1-H ) :   0.8281 B(  0-O ,  2-H ) :   0.8133 B(  3-O ,  4-H ) :   0.8590
B(  3-O ,  5-H ) :   0.7775 B(  6-O ,  7-H ) :   0.8520 B(  6-O ,  8-H ) :   0.7574
B(  9-O , 10-H ) :   0.8569 B(  9-O , 11-H ) :   0.8041 B( 12-O , 13-H ) :   0.8105
B( 12-O , 14-H ) :   0.8450 B( 15-O , 16-H ) :   0.7991 B( 15-O , 17-H ) :   0.8381
B( 18-O , 19-H ) :   0.8331 B( 18-O , 20-H ) :   0.8102

MP2 TOTAL ENERGY:     -534.245782244 Eh
FINAL SINGLE POINT ENERGY      -534.245782243869

DIPOLE MOMENT
-------------
                                X             Y             Z
Electronic contribution:      0.59947       0.11169       0.05566
Nuclear contribution   :      0.79041       1.21789       2.09298
                        -----------------------------------------
Total Dipole Moment    :      1.38988       1.32958       2.14864
                        -----------------------------------------
Magnitude (a.u.)       :      2.88379
Magnitude (Debye)      :      7.33000

Rotational constants in cm-1:     0.038149     0.017325     0.013931
Rotational constants in MHz :  1143.692268   519.397482   417.638330

                             ****ORCA TERMINATED NORMALLY****
TOTAL RUN TIME: 0 days 0 hours 1 minutes 56 seconds 478 msec
