                         Program Version 3.0.3 - RELEASE   -
|  1> ! BP86 Def2-SVP TightSCF Opt D3BJ COSMO
|  2>
|  3> %pal nprocs 12 end
|  4>
|  5> %scf
|  6>         maxiter 800
|  7> end
|  8>
|  9> %cosmo
| 10> 	SMD true
| 11>         solvent "WATER"
| 12> end
| 13>
| 14> * xyz  0  1
| 15> O  -0.04468784	-0.56701308	1.47508273
| 16> H  -0.02574341	-0.21196918	0.58636636
| 17> H  -0.55308813	0.06990437	1.97717550
| 18> O  0.04080847	0.40707791	-1.09273819
| 19> H  -0.34278402	-0.18280846	-1.74167788
| 20> H  0.92761331	0.57214287	-1.41299212
| 21> **                         ****END OF INPUT****
 Total Charge           Charge          ....    0
 Multiplicity           Mult            ....    1
 Number of Electrons    NEL             ....   20
Dispersion correction           -0.001926470
FINAL SINGLE POINT ENERGY      -152.754306536454
Dispersion correction            ...
Dispersion correction           -0.001908545
FINAL SINGLE POINT ENERGY      -152.756524269843
Dispersion correction            ...
Dispersion correction           -0.001927262
FINAL SINGLE POINT ENERGY      -152.756740690203
Dispersion correction            ...
FINAL SINGLE POINT ENERGY      -152.756886930382
FINAL SINGLE POINT ENERGY      -152.756955009129
FINAL SINGLE POINT ENERGY      -152.757086644590
FINAL SINGLE POINT ENERGY      -152.757166707614
FINAL SINGLE POINT ENERGY      -152.757202171684
FINAL SINGLE POINT ENERGY      -152.757209231231
FINAL SINGLE POINT ENERGY      -152.757209384483
FINAL SINGLE POINT ENERGY      -152.760993625278
FINAL SINGLE POINT ENERGY      -152.760991862903
FINAL SINGLE POINT ENERGY      -152.757179316919
FINAL SINGLE POINT ENERGY      -152.757176526913
FINAL SINGLE POINT ENERGY      -152.757183408374
FINAL SINGLE POINT ENERGY      -152.757184454068
FINAL SINGLE POINT ENERGY      -152.757189612926
Dispersion correction            ...
Dispersion correction           -0.001983312
FINAL SINGLE POINT ENERGY      -152.757189397430
Dispersion correction            ...
Dispersion correction           -0.001984020
FINAL SINGLE POINT ENERGY      -152.757193075514
Dispersion correction            ...
                    ***********************HURRAY********************

CARTESIAN COORDINATES (ANGSTROEM)
---------------------------------
  O      0.098158   -0.448630    1.481896
  H      0.120838   -0.063310    0.563944
  H     -0.776425   -0.152173    1.799804
  O      0.066384    0.551895   -1.100803
  H     -0.469999   -0.155511   -1.513179
  H      0.963163    0.355064   -1.440446

 Multiplicity           Mult            ....    1
 Number of Electrons    NEL             ....   20
 Basis Dimension        Dim             ....   48

ORBITAL ENERGIES
----------------

  NO   OCC          E(Eh)            E(eV)
   0   2.0000     -18.785180      -511.1707
   1   2.0000     -18.743426      -510.0345
   2   2.0000      -0.910020       -24.7629
   3   2.0000      -0.867268       -23.5996
   4   2.0000      -0.466183       -12.6855
   5   2.0000      -0.435793       -11.8585
   6   2.0000      -0.346442        -9.4272
   7   2.0000      -0.310050        -8.4369
   8   2.0000      -0.259205        -7.0533
   9   2.0000      -0.227321        -6.1857
  10   0.0000       0.038295         1.0421
  11   0.0000       0.087587         2.3834
  12   0.0000       0.123658         3.3649
  13   0.0000       0.210755         5.7349
  14   0.0000       0.483235        13.1495

MULLIKEN ATOMIC CHARGES
-----------------------
   0 O :   -0.432511
   1 H :    0.131448
   2 H :    0.188048
   3 O :   -0.316203
   4 H :    0.212764
   5 H :    0.216454
Sum of atomic charges:   -0.0000000

LOEWDIN ATOMIC CHARGES
----------------------
   0 O :   -0.244453
   1 H :    0.033968
   2 H :    0.092097
   3 O :   -0.113989
   4 H :    0.115037
   5 H :    0.117339

  Mayer bond orders larger than 0.1
B(  0-O ,  1-H ) :   0.9158 B(  0-O ,  2-H ) :   0.9901 B(  1-H ,  3-O ) :   0.2008
B(  3-O ,  4-H ) :   0.9711 B(  3-O ,  5-H ) :   0.9709

Dispersion correction           -0.001984131
FINAL SINGLE POINT ENERGY      -152.757193792568

DIPOLE MOMENT
-------------
                                X             Y             Z
Electronic contribution:      0.05237       0.12309      -0.25004
Nuclear contribution   :     -0.40911      -0.18517      -1.12540
                        -----------------------------------------
Total Dipole Moment    :     -0.35674      -0.06207      -1.37544
                        -----------------------------------------
Magnitude (a.u.)       :      1.42231
Magnitude (Debye)      :      3.61521

                             ****ORCA TERMINATED NORMALLY****
TOTAL RUN TIME: 0 days 0 hours 19 minutes 28 seconds 769 msec
