                         Program Version 4.2.0 -  RELEASE  -
|  1> # 12h2o.su.etal.mol1,2,3,4,6,7,11
|  2> ! MP2 def2-TZVP EnGrad TightSCF
|  3>
|  4> %pal
|  5>     nprocs 6
|  6> end
|  7>
|  8> %maxcore 8000
|  9>
| 10> %scf
| 11>     ConvForced true
| 12> end
| 13>
| 14> *xyz 0 1
| 15> O  -1.794470000  -0.923410000   2.768350000
| 16> H  -2.338250000  -1.359750000   3.430940000
| 17> H  -0.879480000  -1.303000000   2.865760000
| 18> O   0.923410000  -1.794470000  -2.768350000
| 19> H   1.359750000  -2.338250000  -3.430940000
| 20> H   1.303000000  -0.879480000  -2.865760000
| 21> O  -1.752130000  -0.741530000  -2.896280000
| 22> H  -2.036450000  -0.920500000  -1.984040000
| 23> H  -0.921210000  -1.242140000  -2.984230000
| 24> O  -0.885520000   1.737840000   0.052730000
| 25> H  -1.032320000   2.090180000  -0.841890000
| 26> H  -1.284090000   0.839590000   0.017130000
| 27> O   1.737840000   0.885520000  -0.052730000
| 28> H   2.090180000   1.032320000   0.841890000
| 29> H   0.839590000   1.284090000  -0.017130000
| 30> O  -1.737840000  -0.885520000  -0.052730000
| 31> H  -2.090180000  -1.032320000   0.841890000
| 32> H  -0.839590000  -1.284090000  -0.017130000
| 33> O  -0.741530000   1.752130000   2.896280000
| 34> H  -0.920500000   2.036450000   1.984040000
| 35> H  -1.242140000   0.921210000   2.984230000
| 36> *
| 37>
| 38>                          ****END OF INPUT****

CARTESIAN COORDINATES (ANGSTROEM)
---------------------------------
  O     -1.794470   -0.923410    2.768350
  H     -2.338250   -1.359750    3.430940
  H     -0.879480   -1.303000    2.865760
  O      0.923410   -1.794470   -2.768350
  H      1.359750   -2.338250   -3.430940
  H      1.303000   -0.879480   -2.865760
  O     -1.752130   -0.741530   -2.896280
  H     -2.036450   -0.920500   -1.984040
  H     -0.921210   -1.242140   -2.984230
  O     -0.885520    1.737840    0.052730
  H     -1.032320    2.090180   -0.841890
  H     -1.284090    0.839590    0.017130
  O      1.737840    0.885520   -0.052730
  H      2.090180    1.032320    0.841890
  H      0.839590    1.284090   -0.017130
  O     -1.737840   -0.885520   -0.052730
  H     -2.090180   -1.032320    0.841890
  H     -0.839590   -1.284090   -0.017130
  O     -0.741530    1.752130    2.896280
  H     -0.920500    2.036450    1.984040
  H     -1.242140    0.921210    2.984230

 Total Charge           Charge          ....    0
 Multiplicity           Mult            ....    1
 Number of Electrons    NEL             ....   70
 Basis Dimension        Dim             ....  301

ORBITAL ENERGIES
----------------

  NO   OCC          E(Eh)            E(eV)
   0   2.0000     -20.628688      -561.3351
   1   2.0000     -20.596458      -560.4581
   2   2.0000     -20.582967      -560.0910
   3   2.0000     -20.570923      -559.7633
   4   2.0000     -20.529004      -558.6226
   5   2.0000     -20.520057      -558.3791
   6   2.0000     -20.513740      -558.2073
   7   2.0000      -1.409528       -38.3552
   8   2.0000      -1.383342       -37.6427
   9   2.0000      -1.360676       -37.0259
  10   2.0000      -1.357774       -36.9469
  11   2.0000      -1.309758       -35.6403
  12   2.0000      -1.305133       -35.5145
  13   2.0000      -1.299024       -35.3482
  14   2.0000      -0.774733       -21.0816
  15   2.0000      -0.745581       -20.2883
  16   2.0000      -0.727743       -19.8029
  17   2.0000      -0.727090       -19.7851
  18   2.0000      -0.688208       -18.7271
  19   2.0000      -0.683391       -18.5960
  20   2.0000      -0.678416       -18.4606
  21   2.0000      -0.651215       -17.7205
  22   2.0000      -0.619634       -16.8611
  23   2.0000      -0.611234       -16.6325
  24   2.0000      -0.597790       -16.2667
  25   2.0000      -0.572333       -15.5740
  26   2.0000      -0.562233       -15.2991
  27   2.0000      -0.544871       -14.8267
  28   2.0000      -0.537139       -14.6163
  29   2.0000      -0.529745       -14.4151
  30   2.0000      -0.515577       -14.0296
  31   2.0000      -0.508344       -13.8327
  32   2.0000      -0.477685       -12.9985
  33   2.0000      -0.469449       -12.7744
  34   2.0000      -0.463616       -12.6156
  35   0.0000       0.080518         2.1910
  36   0.0000       0.114764         3.1229
  37   0.0000       0.143186         3.8963
  38   0.0000       0.155051         4.2192
  39   0.0000       0.175542         4.7767

MULLIKEN ATOMIC CHARGES
-----------------------
   0 O :   -0.717932
   1 H :    0.371025
   2 H :    0.372023
   3 O :   -0.702834
   4 H :    0.351190
   5 H :    0.371485
   6 O :   -0.726797
   7 H :    0.362525
   8 H :    0.346207
   9 O :   -0.736705
  10 H :    0.363222
  11 H :    0.371984
  12 O :   -0.728872
  13 H :    0.333970
  14 H :    0.357195
  15 O :   -0.726539
  16 H :    0.386382
  17 H :    0.364243
  18 O :   -0.721100
  19 H :    0.370059
  20 H :    0.339270
Sum of atomic charges:    0.0000000

LOEWDIN ATOMIC CHARGES
----------------------
   0 O :   -0.287547
   1 H :    0.171066
   2 H :    0.192790
   3 O :   -0.313734
   4 H :    0.162959
   5 H :    0.192062
   6 O :   -0.355065
   7 H :    0.145821
   8 H :    0.142304
   9 O :   -0.294847
  10 H :    0.172768
  11 H :    0.146207
  12 O :   -0.366951
  13 H :    0.160240
  14 H :    0.139841
  15 O :   -0.279962
  16 H :    0.155439
  17 H :    0.179286
  18 O :   -0.351366
  19 H :    0.149892
  20 H :    0.138796

  Mayer bond orders larger than 0.100000
B(  0-O ,  1-H ) :   0.8282 B(  0-O ,  2-H ) :   0.8195 B(  3-O ,  4-H ) :   0.8424
B(  3-O ,  5-H ) :   0.8213 B(  6-O ,  7-H ) :   0.8314 B(  6-O ,  8-H ) :   0.8248
B(  9-O , 10-H ) :   0.8307 B(  9-O , 11-H ) :   0.7668 B( 12-O , 13-H ) :   0.8539
B( 12-O , 14-H ) :   0.7928 B( 15-O , 16-H ) :   0.7965 B( 15-O , 17-H ) :   0.8225
B( 18-O , 19-H ) :   0.8218 B( 18-O , 20-H ) :   0.8396

MP2 TOTAL ENERGY:     -534.247226793 Eh
FINAL SINGLE POINT ENERGY      -534.247226792890

DIPOLE MOMENT
-------------
                                X             Y             Z
Electronic contribution:     -0.28996      -0.06943       0.04841
Nuclear contribution   :      0.42350      -1.84519       0.77428
                        -----------------------------------------
Total Dipole Moment    :      0.13354      -1.91462       0.82269
                        -----------------------------------------
Magnitude (a.u.)       :      2.08816
Magnitude (Debye)      :      5.30768

Rotational constants in cm-1:     0.046646     0.021610     0.018632
Rotational constants in MHz :  1398.407501   647.857831   558.580300

                             ****ORCA TERMINATED NORMALLY****
TOTAL RUN TIME: 0 days 0 hours 1 minutes 50 seconds 873 msec
