                         Program Version 4.2.0 -  RELEASE  -
|  1> # 12meoh.boyd.etal.mol6,8,10
|  2> ! MP2 def2-TZVP EnGrad TightSCF
|  3>
|  4> %pal
|  5>     nprocs 6
|  6> end
|  7>
|  8> %maxcore 8000
|  9>
| 10> %scf
| 11>     ConvForced true
| 12> end
| 13>
| 14> *xyz 0 1
| 15> O   2.622209273  -1.703002590  -1.445859723
| 16> H   1.828551432  -1.986513781  -0.909754968
| 17> C   2.781117675  -2.615822239  -2.525472890
| 18> H   3.691063626  -2.339003544  -3.065143454
| 19> H   1.934727323  -2.559520367  -3.223226661
| 20> H   2.879948338  -3.653846211  -2.177750170
| 21> O   3.570084754   2.361662577  -0.202416728
| 22> H   3.393280933   1.755669977   0.560634073
| 23> C   4.368082883   1.644741793  -1.143112807
| 24> H   4.552851717   2.311801738  -1.989632421
| 25> H   3.862427494   0.740851663  -1.508095690
| 26> H   5.333949674   1.357289092  -0.706288100
| 27> O  -5.201143618   0.064582726  -0.172223772
| 28> H  -4.686891530   0.869258890   0.107806143
| 29> C  -6.513192168   0.171391798   0.359883449
| 30> H  -7.049381312  -0.749234190   0.111361174
| 31> H  -7.057741163   1.017801101  -0.081819420
| 32> H  -6.514770575   0.292264928   1.453058834
| 33> *
| 34>
| 35>                          ****END OF INPUT****

CARTESIAN COORDINATES (ANGSTROEM)
---------------------------------
  O      2.622209   -1.703003   -1.445860
  H      1.828551   -1.986514   -0.909755
  C      2.781118   -2.615822   -2.525473
  H      3.691064   -2.339004   -3.065143
  H      1.934727   -2.559520   -3.223227
  H      2.879948   -3.653846   -2.177750
  O      3.570085    2.361663   -0.202417
  H      3.393281    1.755670    0.560634
  C      4.368083    1.644742   -1.143113
  H      4.552852    2.311802   -1.989632
  H      3.862427    0.740852   -1.508096
  H      5.333950    1.357289   -0.706288
  O     -5.201144    0.064583   -0.172224
  H     -4.686892    0.869259    0.107806
  C     -6.513192    0.171392    0.359883
  H     -7.049381   -0.749234    0.111361
  H     -7.057741    1.017801   -0.081819
  H     -6.514771    0.292265    1.453059

 Total Charge           Charge          ....    0
 Multiplicity           Mult            ....    1
 Number of Electrons    NEL             ....   54
 Basis Dimension        Dim             ....  258

ORBITAL ENERGIES
----------------

  NO   OCC          E(Eh)            E(eV)
   0   2.0000     -20.564170      -559.5795
   1   2.0000     -20.558713      -559.4310
   2   2.0000     -20.544308      -559.0390
   3   2.0000     -11.275968      -306.8347
   4   2.0000     -11.272351      -306.7363
   5   2.0000     -11.255153      -306.2683
   6   2.0000      -1.352270       -36.7971
   7   2.0000      -1.348797       -36.7026
   8   2.0000      -1.333589       -36.2888
   9   2.0000      -0.924109       -25.1463
  10   2.0000      -0.920198       -25.0399
  11   2.0000      -0.904718       -24.6186
  12   2.0000      -0.687030       -18.6950
  13   2.0000      -0.683360       -18.5952
  14   2.0000      -0.667814       -18.1721
  15   2.0000      -0.621957       -16.9243
  16   2.0000      -0.617826       -16.8119
  17   2.0000      -0.603669       -16.4267
  18   2.0000      -0.595196       -16.1961
  19   2.0000      -0.592615       -16.1259
  20   2.0000      -0.576150       -15.6778
  21   2.0000      -0.506252       -13.7758
  22   2.0000      -0.500952       -13.6316
  23   2.0000      -0.486783       -13.2461
  24   2.0000      -0.454713       -12.3734
  25   2.0000      -0.449666       -12.2360
  26   2.0000      -0.435210       -11.8427
  27   0.0000       0.125606         3.4179
  28   0.0000       0.134440         3.6583
  29   0.0000       0.152483         4.1493
  30   0.0000       0.172514         4.6944
  31   0.0000       0.175090         4.7645

MULLIKEN ATOMIC CHARGES
-----------------------
   0 O :   -0.496942
   1 H :    0.322609
   2 C :   -0.172507
   3 H :    0.129578
   4 H :    0.113980
   5 H :    0.111949
   6 O :   -0.504742
   7 H :    0.318961
   8 C :   -0.180678
   9 H :    0.120233
  10 H :    0.135246
  11 H :    0.102311
  12 O :   -0.497601
  13 H :    0.322643
  14 C :   -0.172382
  15 H :    0.128753
  16 H :    0.109555
  17 H :    0.109033
Sum of atomic charges:    0.0000000

LOEWDIN ATOMIC CHARGES
----------------------
   0 O :   -0.109791
   1 H :    0.193857
   2 C :   -0.381230
   3 H :    0.110281
   4 H :    0.096968
   5 H :    0.096872
   6 O :   -0.113697
   7 H :    0.186668
   8 C :   -0.381521
   9 H :    0.107107
  10 H :    0.100668
  11 H :    0.093817
  12 O :   -0.107491
  13 H :    0.191386
  14 C :   -0.384926
  15 H :    0.110273
  16 H :    0.095414
  17 H :    0.095344

  Mayer bond orders larger than 0.100000
B(  0-O ,  1-H ) :   0.8384 B(  0-O ,  2-C ) :   0.9181 B(  2-C ,  3-H ) :   0.9386
B(  2-C ,  4-H ) :   0.9384 B(  2-C ,  5-H ) :   0.9360 B(  6-O ,  7-H ) :   0.8453
B(  6-O ,  8-C ) :   0.9156 B(  8-C ,  9-H ) :   0.9366 B(  8-C , 10-H ) :   0.9335
B(  8-C , 11-H ) :   0.9414 B( 12-O , 13-H ) :   0.8415 B( 12-O , 14-C ) :   0.9270
B( 14-C , 15-H ) :   0.9376 B( 14-C , 16-H ) :   0.9391 B( 14-C , 17-H ) :   0.9385

MP2 TOTAL ENERGY:     -346.522230025 Eh
FINAL SINGLE POINT ENERGY      -346.522230024533

DIPOLE MOMENT
-------------
                                X             Y             Z
Electronic contribution:      0.50205       1.85691       1.62981
Nuclear contribution   :     -0.97103      -2.63287      -1.29727
                        -----------------------------------------
Total Dipole Moment    :     -0.46898      -0.77597       0.33253
                        -----------------------------------------
Magnitude (a.u.)       :      0.96573
Magnitude (Debye)      :      2.45470

Rotational constants in cm-1:     0.048020     0.008903     0.007597
Rotational constants in MHz :  1439.602005   266.890595   227.753280

                             ****ORCA TERMINATED NORMALLY****
TOTAL RUN TIME: 0 days 0 hours 0 minutes 56 seconds 418 msec
