                         Program Version 3.0.3 - RELEASE   -
|  1> ! wB97X-D3 Def2-TZVP def2-TZVP/J RIJCOSX TightSCF Grid4
|  2>
|  3> %pal nprocs 12 end
|  4>
|  5> %scf
|  6>         maxiter 400
|  7> end
|  8>
|  9> * xyz  0  1
| 10> O  1.947631	-2.231361	2.381999
| 11> H  1.388019	-2.622649	1.654987
| 12> H  1.303873	-1.756352	2.978585
| 13> O  2.320459	0.484100	-0.720342
| 14> H  2.244026	1.503086	-0.693792
| 15> H  2.872240	0.203207	0.076254
| 16> O  0.670263	-2.968967	-2.295467
| 17> H  1.152354	-2.061792	-2.581531
| 18> H  1.098226	-3.666273	-2.825786
| 19> O  0.918402	3.349678	1.684387
| 20> H  1.338784	2.644696	2.289210
| 21> H  -0.063647	3.166236	1.674604
| 22> O  2.025679	1.481285	3.164127
| 23> H  2.626867	0.915953	2.609920
| 24> H  1.396693	0.815836	3.546348
| 25> O  -1.933141	-0.115006	-1.694218
| 26> H  -2.033825	-1.091476	-2.046397
| 27> H  -1.159997	-0.196114	-1.035121
| 28> O  1.772323	-0.817555	-2.990342
| 29> H  2.119351	-0.335515	-2.180999
| 30> H  1.045825	-0.218088	-3.324335
| 31> O  -1.422996	0.204606	2.121245
| 32> H  -0.778674	0.043993	1.345263
| 33> H  -1.608404	1.202125	2.035280
| 34> O  -3.294975	-1.013981	0.645290
| 35> H  -2.692078	-0.557738	1.312481
| 36> H  -3.062884	-0.563386	-0.206347
| 37> O  -1.717846	2.716111	1.503256
| 38> H  -2.379298	3.314760	1.896434
| 39> H  -1.980933	2.644639	0.462034
| 40> O  1.817829	3.024409	-0.599716
| 41> H  1.420993	3.184029	0.404960
| 42> H  2.501655	3.708263	-0.725976
| 43> O  0.007314	-0.383870	0.042580
| 44> H  0.168545	-1.381437	0.173333
| 45> H  0.915109	0.008410	-0.236174
| 46> O  0.333353	-2.973768	0.321522
| 47> H  -0.637825	-3.229757	0.381757
| 48> H  0.573068	-3.119652	-0.648174
| 49> O  -2.009392	-2.578358	-2.427389
| 50> H  -2.237756	-3.013625	-1.560270
| 51> H  -1.032487	-2.777699	-2.513846
| 52> O  -0.340482	0.799219	-3.571091
| 53> H  -0.790366	0.786386	-4.436674
| 54> H  -1.033453	0.454926	-2.901123
| 55> O  3.381487	-0.306751	1.556016
| 56> H  4.313031	-0.522062	1.744999
| 57> H  2.825975	-1.141770	1.873191
| 58> O  -0.259151	3.284300	-2.328393
| 59> H  -0.176387	2.477827	-2.899056
| 60> H  0.535446	3.226364	-1.722176
| 61> O  0.329211	-0.588456	3.831346
| 62> H  -0.037245	-0.779008	4.713659
| 63> H  -0.458795	-0.278223	3.249541
| 64> O  -2.322304	2.561852	-0.917575
| 65> H  -1.534179	2.923322	-1.474834
| 66> H  -2.413167	1.628185	-1.226772
| 67> O  -2.299513	-3.307434	0.180263
| 68> H  -2.748578	-2.393546	0.435732
| 69> H  -2.868755	-4.006208	0.550424
| 70> **                         ****END OF INPUT****

CARTESIAN COORDINATES (ANGSTROEM)
---------------------------------
  O      1.947631   -2.231361    2.381999
  H      1.388019   -2.622649    1.654987
  H      1.303873   -1.756352    2.978585
  O      2.320459    0.484100   -0.720342
  H      2.244026    1.503086   -0.693792
  H      2.872240    0.203207    0.076254
  O      0.670263   -2.968967   -2.295467
  H      1.152354   -2.061792   -2.581531
  H      1.098226   -3.666273   -2.825786
  O      0.918402    3.349678    1.684387
  H      1.338784    2.644696    2.289210
  H     -0.063647    3.166236    1.674604
  O      2.025679    1.481285    3.164127
  H      2.626867    0.915953    2.609920
  H      1.396693    0.815836    3.546348
  O     -1.933141   -0.115006   -1.694218
  H     -2.033825   -1.091476   -2.046397
  H     -1.159997   -0.196114   -1.035121
  O      1.772323   -0.817555   -2.990342
  H      2.119351   -0.335515   -2.180999
  H      1.045825   -0.218088   -3.324335
  O     -1.422996    0.204606    2.121245
  H     -0.778674    0.043993    1.345263
  H     -1.608404    1.202125    2.035280
  O     -3.294975   -1.013981    0.645290
  H     -2.692078   -0.557738    1.312481
  H     -3.062884   -0.563386   -0.206347
  O     -1.717846    2.716111    1.503256
  H     -2.379298    3.314760    1.896434
  H     -1.980933    2.644639    0.462034
  O      1.817829    3.024409   -0.599716
  H      1.420993    3.184029    0.404960
  H      2.501655    3.708263   -0.725976
  O      0.007314   -0.383870    0.042580
  H      0.168545   -1.381437    0.173333
  H      0.915109    0.008410   -0.236174
  O      0.333353   -2.973768    0.321522
  H     -0.637825   -3.229757    0.381757
  H      0.573068   -3.119652   -0.648174
  O     -2.009392   -2.578358   -2.427389
  H     -2.237756   -3.013625   -1.560270
  H     -1.032487   -2.777699   -2.513846
  O     -0.340482    0.799219   -3.571091
  H     -0.790366    0.786386   -4.436674
  H     -1.033453    0.454926   -2.901123
  O      3.381487   -0.306751    1.556016
  H      4.313031   -0.522062    1.744999
  H      2.825975   -1.141770    1.873191
  O     -0.259151    3.284300   -2.328393
  H     -0.176387    2.477827   -2.899056
  H      0.535446    3.226364   -1.722176
  O      0.329211   -0.588456    3.831346
  H     -0.037245   -0.779008    4.713659
  H     -0.458795   -0.278223    3.249541
  O     -2.322304    2.561852   -0.917575
  H     -1.534179    2.923322   -1.474834
  H     -2.413167    1.628185   -1.226772
  O     -2.299513   -3.307434    0.180263
  H     -2.748578   -2.393546    0.435732
  H     -2.868755   -4.006208    0.550424

 Total Charge           Charge          ....    0
 Multiplicity           Mult            ....    1
 Number of Electrons    NEL             ....  200
 Basis Dimension        Dim             ....  860

ORBITAL ENERGIES
----------------

  NO   OCC          E(Eh)            E(eV)
   0   2.0000     -19.256973      -524.0089
   1   2.0000     -19.253451      -523.9130
   2   2.0000     -19.252852      -523.8967
   3   2.0000     -19.248653      -523.7825
   4   2.0000     -19.246551      -523.7253
   5   2.0000     -19.242504      -523.6152
   6   2.0000     -19.241177      -523.5790
   7   2.0000     -19.241041      -523.5754
   8   2.0000     -19.239574      -523.5354
   9   2.0000     -19.238900      -523.5171
  10   2.0000     -19.237145      -523.4693
  11   2.0000     -19.234327      -523.3927
  12   2.0000     -19.234219      -523.3897
  13   2.0000     -19.231893      -523.3264
  14   2.0000     -19.231570      -523.3176
  15   2.0000     -19.230479      -523.2879
  16   2.0000     -19.225293      -523.1468
  17   2.0000     -19.218669      -522.9666
  18   2.0000     -19.216392      -522.9046
  19   2.0000     -19.214594      -522.8557
  20   2.0000      -1.160547       -31.5801
  21   2.0000      -1.149674       -31.2842
  22   2.0000      -1.147537       -31.2261
  23   2.0000      -1.145155       -31.1613
  24   2.0000      -1.138920       -30.9916
  25   2.0000      -1.138720       -30.9862
  26   2.0000      -1.134563       -30.8730
  27   2.0000      -1.131067       -30.7779
  28   2.0000      -1.128985       -30.7212
  29   2.0000      -1.127379       -30.6776
  30   2.0000      -1.119283       -30.4572
  31   2.0000      -1.116094       -30.3705
  32   2.0000      -1.111018       -30.2323
  33   2.0000      -1.110169       -30.2092
  34   2.0000      -1.105293       -30.0766
  35   2.0000      -1.102371       -29.9970
  36   2.0000      -1.099127       -29.9088
  37   2.0000      -1.094106       -29.7721
  38   2.0000      -1.089158       -29.6375
  39   2.0000      -1.085735       -29.5444
  40   2.0000      -0.662933       -18.0393
  41   2.0000      -0.658336       -17.9142
  42   2.0000      -0.655556       -17.8386
  43   2.0000      -0.653010       -17.7693
  44   2.0000      -0.651612       -17.7313
  45   2.0000      -0.649019       -17.6607
  46   2.0000      -0.646086       -17.5809
  47   2.0000      -0.642697       -17.4887
  48   2.0000      -0.641694       -17.4614
  49   2.0000      -0.639550       -17.4031
  50   2.0000      -0.636294       -17.3144
  51   2.0000      -0.634248       -17.2588
  52   2.0000      -0.632766       -17.2184
  53   2.0000      -0.629422       -17.1274
  54   2.0000      -0.627413       -17.0728
  55   2.0000      -0.624976       -17.0065
  56   2.0000      -0.623114       -16.9558
  57   2.0000      -0.617755       -16.8100
  58   2.0000      -0.613829       -16.7031
  59   2.0000      -0.613330       -16.6896
  60   2.0000      -0.582667       -15.8552
  61   2.0000      -0.569871       -15.5070
  62   2.0000      -0.561476       -15.2785
  63   2.0000      -0.556605       -15.1460
  64   2.0000      -0.555648       -15.1200
  65   2.0000      -0.547284       -14.8924
  66   2.0000      -0.532922       -14.5015
  67   2.0000      -0.521957       -14.2032
  68   2.0000      -0.517476       -14.0812
  69   2.0000      -0.509362       -13.8604
  70   2.0000      -0.506833       -13.7916
  71   2.0000      -0.498167       -13.5558
  72   2.0000      -0.492710       -13.4073
  73   2.0000      -0.490042       -13.3347
  74   2.0000      -0.488996       -13.3062
  75   2.0000      -0.482709       -13.1352
  76   2.0000      -0.473836       -12.8937
  77   2.0000      -0.469229       -12.7684
  78   2.0000      -0.462927       -12.5969
  79   2.0000      -0.446654       -12.1541
  80   2.0000      -0.437437       -11.9033
  81   2.0000      -0.434808       -11.8317
  82   2.0000      -0.434199       -11.8151
  83   2.0000      -0.432366       -11.7653
  84   2.0000      -0.430815       -11.7231
  85   2.0000      -0.428872       -11.6702
  86   2.0000      -0.426586       -11.6080
  87   2.0000      -0.426047       -11.5933
  88   2.0000      -0.425623       -11.5818
  89   2.0000      -0.421993       -11.4830
  90   2.0000      -0.419267       -11.4088
  91   2.0000      -0.418118       -11.3776
  92   2.0000      -0.416732       -11.3399
  93   2.0000      -0.415889       -11.3169
  94   2.0000      -0.412262       -11.2182
  95   2.0000      -0.411161       -11.1883
  96   2.0000      -0.409257       -11.1364
  97   2.0000      -0.403871       -10.9899
  98   2.0000      -0.398199       -10.8355
  99   2.0000      -0.396043       -10.7769
 100   0.0000       0.071556         1.9471
 101   0.0000       0.098143         2.6706
 102   0.0000       0.102707         2.7948
 103   0.0000       0.109875         2.9898
 104   0.0000       0.117663         3.2018

MULLIKEN ATOMIC CHARGES
-----------------------
   0 O :   -0.699997
   1 H :    0.397833
   2 H :    0.364542
   3 O :   -0.778257
   4 H :    0.392445
   5 H :    0.388886
   6 O :   -0.780320
   7 H :    0.381696
   8 H :    0.357744
   9 O :   -0.700442
  10 H :    0.397238
  11 H :    0.366787
  12 O :   -0.718192
  13 H :    0.359196
  14 H :    0.356777
  15 O :   -0.854718
  16 H :    0.413279
  17 H :    0.358213
  18 O :   -0.702392
  19 H :    0.397930
  20 H :    0.374864
  21 O :   -0.785533
  22 H :    0.370387
  23 H :    0.395129
  24 O :   -0.698119
  25 H :    0.392797
  26 H :    0.364099
  27 O :   -0.779191
  28 H :    0.357086
  29 H :    0.384596
  30 O :   -0.784846
  31 H :    0.383467
  32 H :    0.354686
  33 O :   -0.779478
  34 H :    0.345338
  35 H :    0.382493
  36 O :   -0.758830
  37 H :    0.390651
  38 H :    0.387506
  39 O :   -0.699489
  40 H :    0.359184
  41 H :    0.358973
  42 O :   -0.745735
  43 H :    0.358842
  44 H :    0.374951
  45 O :   -0.766827
  46 H :    0.355841
  47 H :    0.380414
  48 O :   -0.710885
  49 H :    0.356946
  50 H :    0.363838
  51 O :   -0.754394
  52 H :    0.354201
  53 H :    0.394780
  54 O :   -0.708807
  55 H :    0.394367
  56 H :    0.374045
  57 O :   -0.772930
  58 H :    0.379699
  59 H :    0.357636
Sum of atomic charges:   -0.0000000

LOEWDIN ATOMIC CHARGES
----------------------
   0 O :   -0.269735
   1 H :    0.151714
   2 H :    0.147213
   3 O :   -0.288382
   4 H :    0.142428
   5 H :    0.143650
   6 O :   -0.320606
   7 H :    0.141718
   8 H :    0.162689
   9 O :   -0.252766
  10 H :    0.149597
  11 H :    0.144099
  12 O :   -0.303259
  13 H :    0.144112
  14 H :    0.143784
  15 O :   -0.337255
  16 H :    0.141618
  17 H :    0.127642
  18 O :   -0.262751
  19 H :    0.150934
  20 H :    0.148637
  21 O :   -0.293927
  22 H :    0.135239
  23 H :    0.144321
  24 O :   -0.267345
  25 H :    0.149155
  26 H :    0.150429
  27 O :   -0.316832
  28 H :    0.162488
  29 H :    0.140879
  30 O :   -0.322656
  31 H :    0.136463
  32 H :    0.159460
  33 O :   -0.288778
  34 H :    0.134512
  35 H :    0.137351
  36 O :   -0.291591
  37 H :    0.146142
  38 H :    0.145060
  39 O :   -0.284026
  40 H :    0.144462
  41 H :    0.142656
  42 O :   -0.297315
  43 H :    0.168801
  44 H :    0.145432
  45 O :   -0.311444
  46 H :    0.163313
  47 H :    0.143521
  48 O :   -0.297340
  49 H :    0.143034
  50 H :    0.143166
  51 O :   -0.305061
  52 H :    0.165103
  53 H :    0.144687
  54 O :   -0.264579
  55 H :    0.150779
  56 H :    0.148023
  57 O :   -0.316443
  58 H :    0.143605
  59 H :    0.164177

  Mayer bond orders larger than 0.1
B(  0-O ,  1-H ) :   0.8085 B(  0-O ,  2-H ) :   0.8121 B(  0-O , 47-H ) :   0.2238
B(  3-O ,  4-H ) :   0.7332 B(  3-O ,  5-H ) :   0.7652 B(  3-O , 35-H ) :   0.2185
B(  4-H , 30-O ) :   0.1618 B(  5-H , 45-O ) :   0.1276 B(  6-O ,  7-H ) :   0.6574
B(  6-O ,  8-H ) :   0.8773 B(  6-O , 38-H ) :   0.1308 B(  6-O , 41-H ) :   0.1114
B(  7-H , 18-O ) :   0.2544 B(  9-O , 10-H ) :   0.7533 B(  9-O , 11-H ) :   0.8045
B(  9-O , 31-H ) :   0.2970 B( 10-H , 12-O ) :   0.1339 B( 11-H , 27-O ) :   0.1026
B( 12-O , 13-H ) :   0.8238 B( 12-O , 14-H ) :   0.8277 B( 15-O , 16-H ) :   0.6856
B( 15-O , 17-H ) :   0.7474 B( 15-O , 44-H ) :   0.1420 B( 16-H , 39-O ) :   0.2057
B( 17-H , 33-O ) :   0.1413 B( 18-O , 19-H ) :   0.7927 B( 18-O , 20-H ) :   0.8098
B( 21-O , 22-H ) :   0.7574 B( 21-O , 23-H ) :   0.7430 B( 21-O , 25-H ) :   0.1066
B( 21-O , 53-H ) :   0.1380 B( 22-H , 33-O ) :   0.1392 B( 23-H , 27-O ) :   0.1498
B( 24-O , 25-H ) :   0.7816 B( 24-O , 26-H ) :   0.8383 B( 24-O , 58-H ) :   0.2178
B( 27-O , 28-H ) :   0.8772 B( 27-O , 29-H ) :   0.6468 B( 29-H , 54-O ) :   0.2611
B( 30-O , 31-H ) :   0.6186 B( 30-O , 32-H ) :   0.8790 B( 30-O , 50-H ) :   0.1082
B( 33-O , 34-H ) :   0.7348 B( 33-O , 35-H ) :   0.6988 B( 34-H , 36-O ) :   0.2015
B( 36-O , 37-H ) :   0.7759 B( 36-O , 38-H ) :   0.7693 B( 37-H , 57-O ) :   0.1168
B( 39-O , 40-H ) :   0.8193 B( 39-O , 41-H ) :   0.8088 B( 42-O , 43-H ) :   0.8759
B( 42-O , 44-H ) :   0.7485 B( 45-O , 46-H ) :   0.8782 B( 45-O , 47-H ) :   0.6864
B( 48-O , 49-H ) :   0.8378 B( 48-O , 50-H ) :   0.8045 B( 48-O , 55-H ) :   0.1760
B( 51-O , 52-H ) :   0.8781 B( 51-O , 53-H ) :   0.7399 B( 54-O , 55-H ) :   0.7255
B( 54-O , 56-H ) :   0.8422 B( 57-O , 58-H ) :   0.6904 B( 57-O , 59-H ) :   0.8760

Dispersion correction           -0.042666570
FINAL SINGLE POINT ENERGY     -1529.133235916395

DIPOLE MOMENT
-------------
                                X             Y             Z
Electronic contribution:      0.01966       0.30216       0.03000
Nuclear contribution   :      0.21895      -1.74815       0.32846
                        -----------------------------------------
Total Dipole Moment    :      0.23861      -1.44599       0.35846
                        -----------------------------------------
Magnitude (a.u.)       :      1.50874
Magnitude (Debye)      :      3.83492

                             ****ORCA TERMINATED NORMALLY****
TOTAL RUN TIME: 0 days 0 hours 2 minutes 46 seconds 784 msec
