                         Program Version 4.2.0 -  RELEASE  -
|  1> # 12meoh.boyd.etal.mol5,7,8
|  2> ! MP2 def2-TZVP EnGrad TightSCF
|  3>
|  4> %pal
|  5>     nprocs 6
|  6> end
|  7>
|  8> %maxcore 8000
|  9>
| 10> %scf
| 11>     ConvForced true
| 12> end
| 13>
| 14> *xyz 0 1
| 15> O  -0.662721750   1.449094618  -1.383082065
| 16> H   0.064188300   2.119867608  -1.465650660
| 17> C  -0.353319239   0.341218776  -2.229326771
| 18> H  -1.072358530  -0.454743281  -2.019906495
| 19> H   0.657636746  -0.044472139  -2.042736771
| 20> H  -0.434616607   0.624733901  -3.287793021
| 21> O   4.310535586  -1.588322800   0.656128299
| 22> H   3.804372199  -1.630404735  -0.196849819
| 23> C   4.312298137  -2.894980854   1.222112691
| 24> H   4.713177833  -2.819907076   2.237066773
| 25> H   4.957796734  -3.574699304   0.648211180
| 26> H   3.302735989  -3.324433205   1.269756773
| 27> O   3.570084754   2.361662577  -0.202416728
| 28> H   3.393280933   1.755669977   0.560634073
| 29> C   4.368082883   1.644741793  -1.143112807
| 30> H   4.552851717   2.311801738  -1.989632421
| 31> H   3.862427494   0.740851663  -1.508095690
| 32> H   5.333949674   1.357289092  -0.706288100
| 33> *
| 34>
| 35>                          ****END OF INPUT****

CARTESIAN COORDINATES (ANGSTROEM)
---------------------------------
  O     -0.662722    1.449095   -1.383082
  H      0.064188    2.119868   -1.465651
  C     -0.353319    0.341219   -2.229327
  H     -1.072359   -0.454743   -2.019906
  H      0.657637   -0.044472   -2.042737
  H     -0.434617    0.624734   -3.287793
  O      4.310536   -1.588323    0.656128
  H      3.804372   -1.630405   -0.196850
  C      4.312298   -2.894981    1.222113
  H      4.713178   -2.819907    2.237067
  H      4.957797   -3.574699    0.648211
  H      3.302736   -3.324433    1.269757
  O      3.570085    2.361663   -0.202417
  H      3.393281    1.755670    0.560634
  C      4.368083    1.644742   -1.143113
  H      4.552852    2.311802   -1.989632
  H      3.862427    0.740852   -1.508096
  H      5.333950    1.357289   -0.706288

 Total Charge           Charge          ....    0
 Multiplicity           Mult            ....    1
 Number of Electrons    NEL             ....   54
 Basis Dimension        Dim             ....  258

ORBITAL ENERGIES
----------------

  NO   OCC          E(Eh)            E(eV)
   0   2.0000     -20.569586      -559.7269
   1   2.0000     -20.556328      -559.3661
   2   2.0000     -20.553565      -559.2909
   3   2.0000     -11.280389      -306.9550
   4   2.0000     -11.272493      -306.7401
   5   2.0000     -11.271904      -306.7241
   6   2.0000      -1.358962       -36.9792
   7   2.0000      -1.345757       -36.6199
   8   2.0000      -1.342102       -36.5204
   9   2.0000      -0.929084       -25.2817
  10   2.0000      -0.919933       -25.0327
  11   2.0000      -0.919520       -25.0214
  12   2.0000      -0.693109       -18.8604
  13   2.0000      -0.680895       -18.5281
  14   2.0000      -0.678599       -18.4656
  15   2.0000      -0.626683       -17.0529
  16   2.0000      -0.617594       -16.8056
  17   2.0000      -0.615474       -16.7479
  18   2.0000      -0.601650       -16.3717
  19   2.0000      -0.589230       -16.0338
  20   2.0000      -0.589015       -16.0279
  21   2.0000      -0.511407       -13.9161
  22   2.0000      -0.501321       -13.6416
  23   2.0000      -0.499178       -13.5833
  24   2.0000      -0.459999       -12.5172
  25   2.0000      -0.449552       -12.2329
  26   2.0000      -0.447247       -12.1702
  27   0.0000       0.098301         2.6749
  28   0.0000       0.139432         3.7941
  29   0.0000       0.159326         4.3355
  30   0.0000       0.163793         4.4570
  31   0.0000       0.185231         5.0404

MULLIKEN ATOMIC CHARGES
-----------------------
   0 O :   -0.501598
   1 H :    0.329211
   2 C :   -0.165915
   3 H :    0.128899
   4 H :    0.095777
   5 H :    0.111696
   6 O :   -0.498018
   7 H :    0.322463
   8 C :   -0.180484
   9 H :    0.132715
  10 H :    0.112979
  11 H :    0.115113
  12 O :   -0.507524
  13 H :    0.330897
  14 C :   -0.162867
  15 H :    0.130804
  16 H :    0.079687
  17 H :    0.126164
Sum of atomic charges:   -0.0000000

LOEWDIN ATOMIC CHARGES
----------------------
   0 O :   -0.111749
   1 H :    0.191479
   2 C :   -0.377975
   3 H :    0.109128
   4 H :    0.091477
   5 H :    0.096194
   6 O :   -0.111129
   7 H :    0.188093
   8 C :   -0.378123
   9 H :    0.111278
  10 H :    0.096928
  11 H :    0.097439
  12 O :   -0.111796
  13 H :    0.191208
  14 C :   -0.379736
  15 H :    0.109145
  16 H :    0.087141
  17 H :    0.100998

  Mayer bond orders larger than 0.100000
B(  0-O ,  1-H ) :   0.8366 B(  0-O ,  2-C ) :   0.9323 B(  2-C ,  3-H ) :   0.9379
B(  2-C ,  4-H ) :   0.9388 B(  2-C ,  5-H ) :   0.9406 B(  6-O ,  7-H ) :   0.8403
B(  6-O ,  8-C ) :   0.9173 B(  8-C ,  9-H ) :   0.9383 B(  8-C , 10-H ) :   0.9381
B(  8-C , 11-H ) :   0.9397 B( 12-O , 13-H ) :   0.8370 B( 12-O , 14-C ) :   0.9255
B( 14-C , 15-H ) :   0.9368 B( 14-C , 16-H ) :   0.9380 B( 14-C , 17-H ) :   0.9416

MP2 TOTAL ENERGY:     -346.524266305 Eh
FINAL SINGLE POINT ENERGY      -346.524266304572

DIPOLE MOMENT
-------------
                                X             Y             Z
Electronic contribution:     -1.39442       3.99359       1.68127
Nuclear contribution   :      1.92847      -5.27264      -2.19677
                        -----------------------------------------
Total Dipole Moment    :      0.53405      -1.27904      -0.51550
                        -----------------------------------------
Magnitude (a.u.)       :      1.47882
Magnitude (Debye)      :      3.75886

Rotational constants in cm-1:     0.057648     0.024304     0.018285
Rotational constants in MHz :  1728.247409   728.624148   548.159721

                             ****ORCA TERMINATED NORMALLY****
TOTAL RUN TIME: 0 days 0 hours 1 minutes 23 seconds 637 msec
