                         Program Version 3.0.3 - RELEASE   -
|  1> ! wB97X-D3 Def2-TZVP def2-TZVP/J RIJCOSX TightSCF Grid4 COSMO
|  2>
|  3> %pal nprocs 12 end
|  4>
|  5> %scf
|  6>         maxiter 400
|  7> end
|  8>
|  9> %cosmo
| 10>         SMD true
| 11>         solvent "WATER"
| 12> end
| 13>
| 14> * xyz  0  1
| 15> O  -1.711932	-0.533135	-0.786512
| 16> H  -0.782401	-0.591552	-1.136591
| 17> H  -2.119157	0.159442	-1.329382
| 18> O  -0.916629	0.553634	1.527858
| 19> H  -1.092474	1.501821	1.423702
| 20> H  -1.299744	0.153605	0.700535
| 21> O  1.682704	0.045171	1.011774
| 22> H  2.153827	0.891700	0.962745
| 23> H  0.760580	0.301318	1.285231
| 24> O  0.902042	-0.591186	-1.481372
| 25> H  1.257037	-0.346156	-0.584301
| 26> H  1.159238	-1.521997	-1.574119
| 27> **                         ****END OF INPUT****

CARTESIAN COORDINATES (ANGSTROEM)
---------------------------------
  O     -1.711932   -0.533135   -0.786512
  H     -0.782401   -0.591552   -1.136591
  H     -2.119157    0.159442   -1.329382
  O     -0.916629    0.553634    1.527858
  H     -1.092474    1.501821    1.423702
  H     -1.299744    0.153605    0.700535
  O      1.682704    0.045171    1.011774
  H      2.153827    0.891700    0.962745
  H      0.760580    0.301318    1.285231
  O      0.902042   -0.591186   -1.481372
  H      1.257037   -0.346156   -0.584301
  H      1.159238   -1.521997   -1.574119

 Total Charge           Charge          ....    0
 Multiplicity           Mult            ....    1
 Number of Electrons    NEL             ....   40
 Basis Dimension        Dim             ....  172

ORBITAL ENERGIES
----------------

  NO   OCC          E(Eh)            E(eV)
   0   2.0000     -19.232317      -523.3380
   1   2.0000     -19.232005      -523.3295
   2   2.0000     -19.230614      -523.2916
   3   2.0000     -19.230483      -523.2881
   4   2.0000      -1.138824       -30.9890
   5   2.0000      -1.122284       -30.5389
   6   2.0000      -1.119969       -30.4759
   7   2.0000      -1.103974       -30.0406
   8   2.0000      -0.637418       -17.3450
   9   2.0000      -0.626531       -17.0488
  10   2.0000      -0.622175       -16.9302
  11   2.0000      -0.619997       -16.8710
  12   2.0000      -0.531806       -14.4712
  13   2.0000      -0.506680       -13.7875
  14   2.0000      -0.504589       -13.7306
  15   2.0000      -0.484034       -13.1712
  16   2.0000      -0.421425       -11.4676
  17   2.0000      -0.420334       -11.4379
  18   2.0000      -0.418947       -11.4001
  19   2.0000      -0.413043       -11.2395
  20   0.0000       0.109439         2.9780
  21   0.0000       0.157391         4.2828
  22   0.0000       0.158829         4.3220
  23   0.0000       0.193612         5.2684
  24   0.0000       0.257102         6.9961

MULLIKEN ATOMIC CHARGES
-----------------------
   0 O :   -0.765922
   1 H :    0.371090
   2 H :    0.396928
   3 O :   -0.775261
   4 H :    0.393486
   5 H :    0.377999
   6 O :   -0.763978
   7 H :    0.396593
   8 H :    0.375940
   9 O :   -0.767394
  10 H :    0.364197
  11 H :    0.396322
Sum of atomic charges:   -0.0000000

LOEWDIN ATOMIC CHARGES
----------------------
   0 O :   -0.320839
   1 H :    0.143848
   2 H :    0.182404
   3 O :   -0.325776
   4 H :    0.180575
   5 H :    0.141036
   6 O :   -0.322829
   7 H :    0.182438
   8 H :    0.143577
   9 O :   -0.327235
  10 H :    0.140417
  11 H :    0.182385

  Mayer bond orders larger than 0.1
B(  0-O ,  1-H ) :   0.7888 B(  0-O ,  2-H ) :   0.8504 B(  0-O ,  5-H ) :   0.1293
B(  1-H ,  9-O ) :   0.1267 B(  3-O ,  4-H ) :   0.8528 B(  3-O ,  5-H ) :   0.7814
B(  3-O ,  8-H ) :   0.1207 B(  6-O ,  7-H ) :   0.8508 B(  6-O ,  8-H ) :   0.7893
B(  6-O , 10-H ) :   0.1405 B(  9-O , 10-H ) :   0.7834 B(  9-O , 11-H ) :   0.8517

Dispersion correction           -0.003063893
FINAL SINGLE POINT ENERGY      -305.829403244242

DIPOLE MOMENT
-------------
                                X             Y             Z
Electronic contribution:     -0.00146       0.00898      -0.00895
Nuclear contribution   :      0.10366       1.33112      -0.66229
                        -----------------------------------------
Total Dipole Moment    :      0.10220       1.34010      -0.67124
                        -----------------------------------------
Magnitude (a.u.)       :      1.50229
Magnitude (Debye)      :      3.81852

                             ****ORCA TERMINATED NORMALLY****
TOTAL RUN TIME: 0 days 0 hours 1 minutes 21 seconds 348 msec
