                         Program Version 4.2.0 -  RELEASE  -
|  1> ! MP2 def2-TZVP EnGrad TightSCF FrozenCore
|  2>
|  3> %pal
|  4>     nprocs 12
|  5> end
|  6>
|  7> %maxcore 8000
|  8>
|  9> %scf
| 10>     ConvForced true
| 11> end
| 12>
| 13> *xyz 0 1
| 14> O    -2.3355635526    -0.0089834047    -0.0821280569
| 15> H    -1.5180155375    -0.5028273392     0.1459537706
| 16> C    -2.6475170078    -0.2581688947    -1.4485959317
| 17> H    -3.528932907      0.3399762817    -1.6947249614
| 18> H    -2.8879387974    -1.3160232389    -1.6196197288
| 19> H    -1.828677566      0.0272765909    -2.1248174072
| 20> O     1.9374183159    -1.9853807737    -0.970114078
| 21> H     1.3482230285    -1.3472873955    -0.5229275804
| 22> C     3.2255101815    -1.4109344036    -1.0254057192
| 23> H     3.8912212989    -2.1396764248    -1.4992293336
| 24> H     3.6376412026    -1.1791401306    -0.0286011764
| 25> H     3.2592482655    -0.4862361146    -1.6264984876
| 26> O    -0.7557287557     2.0153932632     0.8781070905
| 27> H    -1.5376628391     1.5343987017     0.5173787591
| 28> C    -0.4132466643     3.0667167807    -0.0178310308
| 29> H     0.4820486217     3.5541910371     0.3769651565
| 30> H    -1.2146068282     3.8151164378    -0.0815934349
| 31> H    -0.1928327423     2.6997961564    -1.0309879635
| 32> O     0.2836157536    -0.4741512375     0.7346967525
| 33> H     0.1574514015     0.5003032722     0.8634900118
| 34> C     0.6244960618    -1.0823590435     1.9824934883
| 35> H     0.8702035402    -2.124933223      1.7699739654
| 36> H    -0.2111202082    -1.0417012323     2.6927734961
| 37> H     1.5003605501    -0.5997827892     2.4340064092
| 38> *
| 39>
| 40>                          ****END OF INPUT****

CARTESIAN COORDINATES (ANGSTROEM)
---------------------------------
  O     -2.335564   -0.008983   -0.082128
  H     -1.518016   -0.502827    0.145954
  C     -2.647517   -0.258169   -1.448596
  H     -3.528933    0.339976   -1.694725
  H     -2.887939   -1.316023   -1.619620
  H     -1.828678    0.027277   -2.124817
  O      1.937418   -1.985381   -0.970114
  H      1.348223   -1.347287   -0.522928
  C      3.225510   -1.410934   -1.025406
  H      3.891221   -2.139676   -1.499229
  H      3.637641   -1.179140   -0.028601
  H      3.259248   -0.486236   -1.626498
  O     -0.755729    2.015393    0.878107
  H     -1.537663    1.534399    0.517379
  C     -0.413247    3.066717   -0.017831
  H      0.482049    3.554191    0.376965
  H     -1.214607    3.815116   -0.081593
  H     -0.192833    2.699796   -1.030988
  O      0.283616   -0.474151    0.734697
  H      0.157451    0.500303    0.863490
  C      0.624496   -1.082359    1.982493
  H      0.870204   -2.124933    1.769974
  H     -0.211120   -1.041701    2.692773
  H      1.500361   -0.599783    2.434006

 Total Charge           Charge          ....    0
 Multiplicity           Mult            ....    1
 Number of Electrons    NEL             ....   72
 Basis Dimension        Dim             ....  344

ORBITAL ENERGIES
----------------

  NO   OCC          E(Eh)            E(eV)
   0   2.0000     -20.568895      -559.7081
   1   2.0000     -20.563719      -559.5672
   2   2.0000     -20.561582      -559.5091
   3   2.0000     -20.527977      -558.5947
   4   2.0000     -11.280564      -306.9598
   5   2.0000     -11.278775      -306.9111
   6   2.0000     -11.276927      -306.8608
   7   2.0000     -11.257094      -306.3211
   8   2.0000      -1.379181       -37.5294
   9   2.0000      -1.358664       -36.9711
  10   2.0000      -1.355055       -36.8729
  11   2.0000      -1.330194       -36.1964
  12   2.0000      -0.939686       -25.5702
  13   2.0000      -0.928448       -25.2643
  14   2.0000      -0.925353       -25.1801
  15   2.0000      -0.904040       -24.6002
  16   2.0000      -0.715854       -19.4794
  17   2.0000      -0.703842       -19.1525
  18   2.0000      -0.700123       -19.0513
  19   2.0000      -0.671548       -18.2737
  20   2.0000      -0.628897       -17.1131
  21   2.0000      -0.625974       -17.0336
  22   2.0000      -0.620689       -16.8898
  23   2.0000      -0.606482       -16.5032
  24   2.0000      -0.602146       -16.3852
  25   2.0000      -0.597725       -16.2649
  26   2.0000      -0.595661       -16.2088
  27   2.0000      -0.572977       -15.5915
  28   2.0000      -0.524738       -14.2789
  29   2.0000      -0.518428       -14.1072
  30   2.0000      -0.504584       -13.7304
  31   2.0000      -0.481715       -13.1081
  32   2.0000      -0.464607       -12.6426
  33   2.0000      -0.456398       -12.4192
  34   2.0000      -0.452347       -12.3090
  35   2.0000      -0.427036       -11.6202
  36   0.0000       0.119899         3.2626
  37   0.0000       0.144420         3.9299
  38   0.0000       0.163227         4.4416
  39   0.0000       0.171945         4.6789
  40   0.0000       0.184758         5.0275

MULLIKEN ATOMIC CHARGES
-----------------------
   0 O :   -0.549456
   1 H :    0.358811
   2 C :   -0.175564
   3 H :    0.129872
   4 H :    0.127124
   5 H :    0.117786
   6 O :   -0.513797
   7 H :    0.353113
   8 C :   -0.173336
   9 H :    0.122621
  10 H :    0.096515
  11 H :    0.100645
  12 O :   -0.546383
  13 H :    0.366280
  14 C :   -0.181727
  15 H :    0.132665
  16 H :    0.125479
  17 H :    0.117309
  18 O :   -0.601294
  19 H :    0.371469
  20 C :   -0.187499
  21 H :    0.150920
  22 H :    0.130797
  23 H :    0.127650
Sum of atomic charges:   -0.0000000

LOEWDIN ATOMIC CHARGES
----------------------
   0 O :   -0.091057
   1 H :    0.169770
   2 C :   -0.379545
   3 H :    0.109727
   4 H :    0.104303
   5 H :    0.098846
   6 O :   -0.095738
   7 H :    0.162389
   8 C :   -0.401085
   9 H :    0.107148
  10 H :    0.091569
  11 H :    0.092553
  12 O :   -0.087308
  13 H :    0.170025
  14 C :   -0.381440
  15 H :    0.110554
  16 H :    0.103736
  17 H :    0.098595
  18 O :   -0.098642
  19 H :    0.167948
  20 C :   -0.375605
  21 H :    0.114644
  22 H :    0.104377
  23 H :    0.104237

  Mayer bond orders larger than 0.100000
B(  0-O ,  1-H ) :   0.7868 B(  0-O ,  2-C ) :   0.8870 B(  2-C ,  3-H ) :   0.9404
B(  2-C ,  4-H ) :   0.9409 B(  2-C ,  5-H ) :   0.9348 B(  6-O ,  7-H ) :   0.8093
B(  6-O ,  8-C ) :   0.9471 B(  8-C ,  9-H ) :   0.9413 B(  8-C , 10-H ) :   0.9331
B(  8-C , 11-H ) :   0.9426 B( 12-O , 13-H ) :   0.7736 B( 12-O , 14-C ) :   0.8907
B( 12-O , 19-H ) :   0.1073 B( 14-C , 15-H ) :   0.9421 B( 14-C , 16-H ) :   0.9388
B( 14-C , 17-H ) :   0.9352 B( 18-O , 19-H ) :   0.7479 B( 18-O , 20-C ) :   0.8475
B( 20-C , 21-H ) :   0.9381 B( 20-C , 22-H ) :   0.9336 B( 20-C , 23-H ) :   0.9414

MP2 TOTAL ENERGY:     -462.070769080 Eh
FINAL SINGLE POINT ENERGY      -462.070769080455

DIPOLE MOMENT
-------------
                                X             Y             Z
Electronic contribution:     -2.36621      -0.99031       1.48630
Nuclear contribution   :      2.33467       1.82131      -1.49775
                        -----------------------------------------
Total Dipole Moment    :     -0.03154       0.83100      -0.01145
                        -----------------------------------------
Magnitude (a.u.)       :      0.83167
Magnitude (Debye)      :      2.11394

Rotational constants in cm-1:     0.047051     0.023457     0.020952
Rotational constants in MHz :  1410.565289   703.224285   628.130973

                             ****ORCA TERMINATED NORMALLY****
TOTAL RUN TIME: 0 days 0 hours 4 minutes 21 seconds 659 msec
