                         Program Version 4.2.0 -  RELEASE  -
|  1> # 12h2o.su.etal.mol1,2,8,10,11
|  2> ! MP2 def2-TZVP EnGrad TightSCF
|  3>
|  4> %pal
|  5>     nprocs 6
|  6> end
|  7>
|  8> %maxcore 8000
|  9>
| 10> %scf
| 11>     ConvForced true
| 12> end
| 13>
| 14> *xyz 0 1
| 15> O  -1.794470000  -0.923410000   2.768350000
| 16> H  -2.338250000  -1.359750000   3.430940000
| 17> H  -0.879480000  -1.303000000   2.865760000
| 18> O   0.923410000  -1.794470000  -2.768350000
| 19> H   1.359750000  -2.338250000  -3.430940000
| 20> H   1.303000000  -0.879480000  -2.865760000
| 21> O   1.752130000   0.741530000  -2.896280000
| 22> H   2.036450000   0.920500000  -1.984040000
| 23> H   0.921210000   1.242140000  -2.984230000
| 24> O  -0.923410000   1.794470000  -2.768350000
| 25> H  -1.359750000   2.338250000  -3.430940000
| 26> H  -1.303000000   0.879480000  -2.865760000
| 27> O  -0.741530000   1.752130000   2.896280000
| 28> H  -0.920500000   2.036450000   1.984040000
| 29> H  -1.242140000   0.921210000   2.984230000
| 30> *
| 31>
| 32>                          ****END OF INPUT****

CARTESIAN COORDINATES (ANGSTROEM)
---------------------------------
  O     -1.794470   -0.923410    2.768350
  H     -2.338250   -1.359750    3.430940
  H     -0.879480   -1.303000    2.865760
  O      0.923410   -1.794470   -2.768350
  H      1.359750   -2.338250   -3.430940
  H      1.303000   -0.879480   -2.865760
  O      1.752130    0.741530   -2.896280
  H      2.036450    0.920500   -1.984040
  H      0.921210    1.242140   -2.984230
  O     -0.923410    1.794470   -2.768350
  H     -1.359750    2.338250   -3.430940
  H     -1.303000    0.879480   -2.865760
  O     -0.741530    1.752130    2.896280
  H     -0.920500    2.036450    1.984040
  H     -1.242140    0.921210    2.984230

 Total Charge           Charge          ....    0
 Multiplicity           Mult            ....    1
 Number of Electrons    NEL             ....   50
 Basis Dimension        Dim             ....  215

ORBITAL ENERGIES
----------------

  NO   OCC          E(Eh)            E(eV)
   0   2.0000     -20.596343      -560.4550
   1   2.0000     -20.587574      -560.2164
   2   2.0000     -20.568211      -559.6895
   3   2.0000     -20.528967      -558.6216
   4   2.0000     -20.515489      -558.2548
   5   2.0000      -1.375007       -37.4158
   6   2.0000      -1.365226       -37.1497
   7   2.0000      -1.355961       -36.8976
   8   2.0000      -1.311407       -35.6852
   9   2.0000      -1.297474       -35.3061
  10   2.0000      -0.742062       -20.1925
  11   2.0000      -0.732394       -19.9294
  12   2.0000      -0.717671       -19.5288
  13   2.0000      -0.685284       -18.6475
  14   2.0000      -0.680846       -18.5268
  15   2.0000      -0.619196       -16.8492
  16   2.0000      -0.604315       -16.4442
  17   2.0000      -0.591269       -16.0892
  18   2.0000      -0.554818       -15.0974
  19   2.0000      -0.548379       -14.9221
  20   2.0000      -0.535044       -14.5593
  21   2.0000      -0.523369       -14.2416
  22   2.0000      -0.499734       -13.5985
  23   2.0000      -0.476752       -12.9731
  24   2.0000      -0.466259       -12.6876
  25   0.0000       0.104531         2.8444
  26   0.0000       0.114522         3.1163
  27   0.0000       0.151852         4.1321
  28   0.0000       0.171612         4.6698
  29   0.0000       0.179315         4.8794

MULLIKEN ATOMIC CHARGES
-----------------------
   0 O :   -0.693635
   1 H :    0.352456
   2 H :    0.361969
   3 O :   -0.738174
   4 H :    0.324197
   5 H :    0.364177
   6 O :   -0.700539
   7 H :    0.354037
   8 H :    0.372728
   9 O :   -0.703484
  10 H :    0.356075
  11 H :    0.371114
  12 O :   -0.706973
  13 H :    0.330318
  14 H :    0.355735
Sum of atomic charges:    0.0000000

LOEWDIN ATOMIC CHARGES
----------------------
   0 O :   -0.310141
   1 H :    0.163517
   2 H :    0.189156
   3 O :   -0.376366
   4 H :    0.147793
   5 H :    0.140669
   6 O :   -0.283454
   7 H :    0.171697
   8 H :    0.153086
   9 O :   -0.311378
  10 H :    0.165481
  11 H :    0.192543
  12 O :   -0.349816
  13 H :    0.160772
  14 H :    0.146441

  Mayer bond orders larger than 0.100000
B(  0-O ,  1-H ) :   0.8417 B(  0-O ,  2-H ) :   0.8299 B(  3-O ,  4-H ) :   0.8611
B(  3-O ,  5-H ) :   0.7776 B(  6-O ,  7-H ) :   0.8403 B(  6-O ,  8-H ) :   0.7988
B(  9-O , 10-H ) :   0.8396 B(  9-O , 11-H ) :   0.8220 B( 12-O , 13-H ) :   0.8576
B( 12-O , 14-H ) :   0.8193

MP2 TOTAL ENERGY:     -381.592023326 Eh
FINAL SINGLE POINT ENERGY      -381.592023325760

DIPOLE MOMENT
-------------
                                X             Y             Z
Electronic contribution:     -0.07716       0.28678       0.10020
Nuclear contribution   :     -0.71164      -0.56846      -0.63259
                        -----------------------------------------
Total Dipole Moment    :     -0.78880      -0.28168      -0.53239
                        -----------------------------------------
Magnitude (a.u.)       :      0.99247
Magnitude (Debye)      :      2.52265

Rotational constants in cm-1:     0.064476     0.019908     0.017385
Rotational constants in MHz :  1932.956644   596.818444   521.191000

                             ****ORCA TERMINATED NORMALLY****
TOTAL RUN TIME: 0 days 0 hours 0 minutes 26 seconds 537 msec
