                         Program Version 4.2.0 -  RELEASE  -
|  1> # 12h2o.su.etal.mol1,4,5,6,8,10
|  2> ! MP2 def2-TZVP EnGrad TightSCF
|  3>
|  4> %pal
|  5>     nprocs 6
|  6> end
|  7>
|  8> %maxcore 8000
|  9>
| 10> %scf
| 11>     ConvForced true
| 12> end
| 13>
| 14> *xyz 0 1
| 15> O  -1.794470000  -0.923410000   2.768350000
| 16> H  -2.338250000  -1.359750000   3.430940000
| 17> H  -0.879480000  -1.303000000   2.865760000
| 18> O  -0.885520000   1.737840000   0.052730000
| 19> H  -1.032320000   2.090180000  -0.841890000
| 20> H  -1.284090000   0.839590000   0.017130000
| 21> O   0.885520000  -1.737840000   0.052730000
| 22> H   1.284090000  -0.839590000   0.017130000
| 23> H   1.032320000  -2.090180000  -0.841890000
| 24> O   1.737840000   0.885520000  -0.052730000
| 25> H   2.090180000   1.032320000   0.841890000
| 26> H   0.839590000   1.284090000  -0.017130000
| 27> O   1.752130000   0.741530000  -2.896280000
| 28> H   2.036450000   0.920500000  -1.984040000
| 29> H   0.921210000   1.242140000  -2.984230000
| 30> O  -0.923410000   1.794470000  -2.768350000
| 31> H  -1.359750000   2.338250000  -3.430940000
| 32> H  -1.303000000   0.879480000  -2.865760000
| 33> *
| 34>
| 35>                          ****END OF INPUT****

CARTESIAN COORDINATES (ANGSTROEM)
---------------------------------
  O     -1.794470   -0.923410    2.768350
  H     -2.338250   -1.359750    3.430940
  H     -0.879480   -1.303000    2.865760
  O     -0.885520    1.737840    0.052730
  H     -1.032320    2.090180   -0.841890
  H     -1.284090    0.839590    0.017130
  O      0.885520   -1.737840    0.052730
  H      1.284090   -0.839590    0.017130
  H      1.032320   -2.090180   -0.841890
  O      1.737840    0.885520   -0.052730
  H      2.090180    1.032320    0.841890
  H      0.839590    1.284090   -0.017130
  O      1.752130    0.741530   -2.896280
  H      2.036450    0.920500   -1.984040
  H      0.921210    1.242140   -2.984230
  O     -0.923410    1.794470   -2.768350
  H     -1.359750    2.338250   -3.430940
  H     -1.303000    0.879480   -2.865760

 Total Charge           Charge          ....    0
 Multiplicity           Mult            ....    1
 Number of Electrons    NEL             ....   60
 Basis Dimension        Dim             ....  258

ORBITAL ENERGIES
----------------

  NO   OCC          E(Eh)            E(eV)
   0   2.0000     -20.621097      -561.1286
   1   2.0000     -20.573615      -559.8365
   2   2.0000     -20.568697      -559.7027
   3   2.0000     -20.556205      -559.3628
   4   2.0000     -20.524303      -558.4947
   5   2.0000     -20.516425      -558.2803
   6   2.0000      -1.401557       -38.1383
   7   2.0000      -1.364899       -37.1408
   8   2.0000      -1.349070       -36.7101
   9   2.0000      -1.331554       -36.2334
  10   2.0000      -1.305171       -35.5155
  11   2.0000      -1.301485       -35.4152
  12   2.0000      -0.766960       -20.8701
  13   2.0000      -0.724062       -19.7027
  14   2.0000      -0.720571       -19.6077
  15   2.0000      -0.699743       -19.0410
  16   2.0000      -0.683531       -18.5998
  17   2.0000      -0.678935       -18.4747
  18   2.0000      -0.642698       -17.4887
  19   2.0000      -0.607802       -16.5391
  20   2.0000      -0.597928       -16.2705
  21   2.0000      -0.568575       -15.4717
  22   2.0000      -0.563466       -15.3327
  23   2.0000      -0.553350       -15.0574
  24   2.0000      -0.530875       -14.4458
  25   2.0000      -0.514502       -14.0003
  26   2.0000      -0.505470       -13.7545
  27   2.0000      -0.499465       -13.5911
  28   2.0000      -0.472945       -12.8695
  29   2.0000      -0.465858       -12.6766
  30   0.0000       0.087851         2.3906
  31   0.0000       0.123357         3.3567
  32   0.0000       0.149084         4.0568
  33   0.0000       0.157766         4.2930
  34   0.0000       0.185839         5.0569

MULLIKEN ATOMIC CHARGES
-----------------------
   0 O :   -0.690199
   1 H :    0.336374
   2 H :    0.353941
   3 O :   -0.698953
   4 H :    0.375317
   5 H :    0.360421
   6 O :   -0.726426
   7 H :    0.355120
   8 H :    0.333079
   9 O :   -0.734208
  10 H :    0.354728
  11 H :    0.371368
  12 O :   -0.722060
  13 H :    0.368776
  14 H :    0.339903
  15 O :   -0.716680
  16 H :    0.368311
  17 H :    0.371189
Sum of atomic charges:   -0.0000000

LOEWDIN ATOMIC CHARGES
----------------------
   0 O :   -0.341655
   1 H :    0.156979
   2 H :    0.184654
   3 O :   -0.293053
   4 H :    0.151282
   5 H :    0.178152
   6 O :   -0.366073
   7 H :    0.139347
   8 H :    0.159838
   9 O :   -0.296803
  10 H :    0.169413
  11 H :    0.146866
  12 O :   -0.351989
  13 H :    0.149550
  14 H :    0.139156
  15 O :   -0.287688
  16 H :    0.169664
  17 H :    0.192360

  Mayer bond orders larger than 0.100000
B(  0-O ,  1-H ) :   0.8542 B(  0-O ,  2-H ) :   0.8367 B(  3-O ,  4-H ) :   0.8085
B(  3-O ,  5-H ) :   0.8280 B(  3-O , 11-H ) :   0.1037 B(  6-O ,  7-H ) :   0.7949
B(  6-O ,  8-H ) :   0.8545 B(  9-O , 10-H ) :   0.8372 B(  9-O , 11-H ) :   0.7569
B( 12-O , 13-H ) :   0.8228 B( 12-O , 14-H ) :   0.8383 B( 15-O , 16-H ) :   0.8296
B( 15-O , 17-H ) :   0.8200

MP2 TOTAL ENERGY:     -457.920087953 Eh
FINAL SINGLE POINT ENERGY      -457.920087952972

DIPOLE MOMENT
-------------
                                X             Y             Z
Electronic contribution:     -0.14283       0.39184      -0.02579
Nuclear contribution   :     -1.27953       0.03147      -0.08817
                        -----------------------------------------
Total Dipole Moment    :     -1.42236       0.42331      -0.11396
                        -----------------------------------------
Magnitude (a.u.)       :      1.48838
Magnitude (Debye)      :      3.78317

Rotational constants in cm-1:     0.059457     0.028130     0.022748
Rotational constants in MHz :  1782.486167   843.320562   681.954742

                             ****ORCA TERMINATED NORMALLY****
TOTAL RUN TIME: 0 days 0 hours 0 minutes 58 seconds 348 msec
