                         Program Version 4.2.0 -  RELEASE  -
|  1> ! MP2 def2-TZVP EnGrad TightSCF FrozenCore
|  2>
|  3> %pal
|  4>     nprocs 12
|  5> end
|  6>
|  7> %maxcore 8000
|  8>
|  9> %scf
| 10>     ConvForced true
| 11> end
| 12>
| 13> *xyz 0 1
| 14> O    -1.5856913741    -1.4364971953    -1.0274383155
| 15> H    -0.6455747637    -1.4388850082    -0.7219650798
| 16> C    -1.5846984897    -1.4372545219    -2.4517455381
| 17> H    -2.6256877749    -1.3816835316    -2.7813299386
| 18> H    -1.1440573433    -2.36144134      -2.8491197328
| 19> H    -1.0383193687    -0.5798105427    -2.8686528337
| 20> O    -2.3603671134     0.8298658644     0.2448024967
| 21> H    -2.1716108106     0.0102331365    -0.2827857818
| 22> C    -3.4866933786     0.5771292106     1.0736460502
| 23> H    -3.6726952057     1.4780932318     1.6653508696
| 24> H    -3.3231829631    -0.2664069622     1.7606537039
| 25> H    -4.3839747202     0.3672075931     0.4756457588
| 26> O     0.1342664193     1.1334953128     1.2454320519
| 27> H    -0.8083418922     1.1549032637     0.9296174371
| 28> C     0.1451961263     1.2159271825     2.6644594501
| 29> H     1.1870458067     1.1644227203     2.9920948091
| 30> H    -0.4114622577     0.3927043437     3.1366283304
| 31> H    -0.27804835       2.1682700075     3.0111142509
| 32> O     0.9667115243    -1.01567602      -0.1374406505
| 33> H     0.7496259931    -0.2270860313     0.4339384567
| 34> C     1.7655537518    -1.9254642012     0.6247384944
| 35> H     1.9043403611    -2.8258640842     0.0213126817
| 36> H     1.2732030435    -2.2040679502     1.5656769791
| 37> H     2.7478034342    -1.4874649173     0.835271067
| 38> O     3.2176791132     0.3434053146    -1.215192969
| 39> H     2.3679726741    -0.1267445541    -1.1202047631
| 40> C     2.9364262568     1.7312731111    -1.1755039749
| 41> H     3.8910226785     2.2574451056    -1.0705963653
| 42> H     2.2921204309     2.0080704155    -0.3274972753
| 43> H     2.454326874      2.0916942049    -2.100020372
| 44> *
| 45>
| 46>                          ****END OF INPUT****

CARTESIAN COORDINATES (ANGSTROEM)
---------------------------------
  O     -1.585691   -1.436497   -1.027438
  H     -0.645575   -1.438885   -0.721965
  C     -1.584698   -1.437255   -2.451746
  H     -2.625688   -1.381684   -2.781330
  H     -1.144057   -2.361441   -2.849120
  H     -1.038319   -0.579811   -2.868653
  O     -2.360367    0.829866    0.244802
  H     -2.171611    0.010233   -0.282786
  C     -3.486693    0.577129    1.073646
  H     -3.672695    1.478093    1.665351
  H     -3.323183   -0.266407    1.760654
  H     -4.383975    0.367208    0.475646
  O      0.134266    1.133495    1.245432
  H     -0.808342    1.154903    0.929617
  C      0.145196    1.215927    2.664459
  H      1.187046    1.164423    2.992095
  H     -0.411462    0.392704    3.136628
  H     -0.278048    2.168270    3.011114
  O      0.966712   -1.015676   -0.137441
  H      0.749626   -0.227086    0.433938
  C      1.765554   -1.925464    0.624738
  H      1.904340   -2.825864    0.021313
  H      1.273203   -2.204068    1.565677
  H      2.747803   -1.487465    0.835271
  O      3.217679    0.343405   -1.215193
  H      2.367973   -0.126745   -1.120205
  C      2.936426    1.731273   -1.175504
  H      3.891023    2.257445   -1.070596
  H      2.292120    2.008070   -0.327497
  H      2.454327    2.091694   -2.100020

 Total Charge           Charge          ....    0
 Multiplicity           Mult            ....    1
 Number of Electrons    NEL             ....   90
 Basis Dimension        Dim             ....  430

ORBITAL ENERGIES
----------------

  NO   OCC          E(Eh)            E(eV)
   0   2.0000     -20.565732      -559.6220
   1   2.0000     -20.559718      -559.4584
   2   2.0000     -20.557983      -559.4112
   3   2.0000     -20.555543      -559.3448
   4   2.0000     -20.525322      -558.5224
   5   2.0000     -11.279932      -306.9425
   6   2.0000     -11.277611      -306.8794
   7   2.0000     -11.275884      -306.8324
   8   2.0000     -11.274194      -306.7864
   9   2.0000     -11.248967      -306.1000
  10   2.0000      -1.376829       -37.4654
  11   2.0000      -1.360867       -37.0311
  12   2.0000      -1.359076       -36.9823
  13   2.0000      -1.343720       -36.5645
  14   2.0000      -1.325614       -36.0718
  15   2.0000      -0.937801       -25.5189
  16   2.0000      -0.928748       -25.2725
  17   2.0000      -0.926963       -25.2240
  18   2.0000      -0.919629       -25.0244
  19   2.0000      -0.897622       -24.4255
  20   2.0000      -0.721669       -19.6376
  21   2.0000      -0.702117       -19.1056
  22   2.0000      -0.700079       -19.0501
  23   2.0000      -0.693016       -18.8579
  24   2.0000      -0.673060       -18.3149
  25   2.0000      -0.626247       -17.0410
  26   2.0000      -0.621660       -16.9162
  27   2.0000      -0.620674       -16.8894
  28   2.0000      -0.618416       -16.8280
  29   2.0000      -0.607762       -16.5380
  30   2.0000      -0.600177       -16.3316
  31   2.0000      -0.596868       -16.2416
  32   2.0000      -0.592605       -16.1256
  33   2.0000      -0.589697       -16.0465
  34   2.0000      -0.567268       -15.4362
  35   2.0000      -0.532566       -14.4918
  36   2.0000      -0.512961       -13.9584
  37   2.0000      -0.511294       -13.9130
  38   2.0000      -0.494814       -13.4646
  39   2.0000      -0.482460       -13.1284
  40   2.0000      -0.458566       -12.4782
  41   2.0000      -0.453967       -12.3531
  42   2.0000      -0.452437       -12.3114
  43   2.0000      -0.447994       -12.1905
  44   2.0000      -0.422445       -11.4953
  45   0.0000       0.116628         3.1736
  46   0.0000       0.141340         3.8461
  47   0.0000       0.152544         4.1509
  48   0.0000       0.167730         4.5642
  49   0.0000       0.181324         4.9341

MULLIKEN ATOMIC CHARGES
-----------------------
   0 O :   -0.554826
   1 H :    0.363228
   2 C :   -0.174311
   3 H :    0.128789
   4 H :    0.123097
   5 H :    0.125869
   6 O :   -0.564594
   7 H :    0.364358
   8 C :   -0.170582
   9 H :    0.127744
  10 H :    0.116041
  11 H :    0.123554
  12 O :   -0.557010
  13 H :    0.378893
  14 C :   -0.185224
  15 H :    0.137539
  16 H :    0.116185
  17 H :    0.127013
  18 O :   -0.610179
  19 H :    0.379888
  20 C :   -0.191504
  21 H :    0.136299
  22 H :    0.123202
  23 H :    0.152470
  24 O :   -0.512624
  25 H :    0.344584
  26 C :   -0.189612
  27 H :    0.117827
  28 H :    0.122587
  29 H :    0.101297
Sum of atomic charges:   -0.0000000

LOEWDIN ATOMIC CHARGES
----------------------
   0 O :   -0.089157
   1 H :    0.164254
   2 C :   -0.381165
   3 H :    0.109395
   4 H :    0.103748
   5 H :    0.101737
   6 O :   -0.089165
   7 H :    0.165726
   8 C :   -0.385940
   9 H :    0.108632
  10 H :    0.098470
  11 H :    0.104039
  12 O :   -0.082180
  13 H :    0.167316
  14 C :   -0.385354
  15 H :    0.110857
  16 H :    0.098557
  17 H :    0.104863
  18 O :   -0.093723
  19 H :    0.164533
  20 C :   -0.378774
  21 H :    0.111740
  22 H :    0.101473
  23 H :    0.109186
  24 O :   -0.098601
  25 H :    0.162744
  26 C :   -0.397790
  27 H :    0.105191
  28 H :    0.096020
  29 H :    0.093370

  Mayer bond orders larger than 0.100000
B(  0-O ,  1-H ) :   0.7632 B(  0-O ,  2-C ) :   0.8806 B(  0-O ,  7-H ) :   0.1203
B(  2-C ,  3-H ) :   0.9414 B(  2-C ,  4-H ) :   0.9388 B(  2-C ,  5-H ) :   0.9376
B(  6-O ,  7-H ) :   0.7448 B(  6-O ,  8-C ) :   0.8853 B(  6-O , 13-H ) :   0.1039
B(  8-C ,  9-H ) :   0.9412 B(  8-C , 10-H ) :   0.9380 B(  8-C , 11-H ) :   0.9396
B( 12-O , 13-H ) :   0.7443 B( 12-O , 14-C ) :   0.8846 B( 12-O , 19-H ) :   0.1220
B( 14-C , 15-H ) :   0.9421 B( 14-C , 16-H ) :   0.9340 B( 14-C , 17-H ) :   0.9391
B( 18-O , 19-H ) :   0.7140 B( 18-O , 20-C ) :   0.8461 B( 20-C , 21-H ) :   0.9432
B( 20-C , 22-H ) :   0.9369 B( 20-C , 23-H ) :   0.9320 B( 24-O , 25-H ) :   0.8135
B( 24-O , 26-C ) :   0.9377 B( 26-C , 27-H ) :   0.9398 B( 26-C , 28-H ) :   0.9314
B( 26-C , 29-H ) :   0.9424

MP2 TOTAL ENERGY:     -577.599432701 Eh
FINAL SINGLE POINT ENERGY      -577.599432701431

DIPOLE MOMENT
-------------
                                X             Y             Z
Electronic contribution:      0.73846      -0.51241      -1.96946
Nuclear contribution   :     -1.71930       0.20182       2.83920
                        -----------------------------------------
Total Dipole Moment    :     -0.98084      -0.31058       0.86974
                        -----------------------------------------
Magnitude (a.u.)       :      1.34721
Magnitude (Debye)      :      3.42433

Rotational constants in cm-1:     0.029357     0.018404     0.014591
Rotational constants in MHz :   880.100007   551.725356   437.441981

                             ****ORCA TERMINATED NORMALLY****
TOTAL RUN TIME: 0 days 0 hours 7 minutes 7 seconds 492 msec
