                         Program Version 4.2.0 -  RELEASE  -
|  1> # 12meoh.boyd.etal.mol1,10,11
|  2> ! MP2 def2-TZVP EnGrad TightSCF
|  3>
|  4> %pal
|  5>     nprocs 6
|  6> end
|  7>
|  8> %maxcore 8000
|  9>
| 10> %scf
| 11>     ConvForced true
| 12> end
| 13>
| 14> *xyz 0 1
| 15> O   0.666045193  -2.600503172   0.138317521
| 16> H  -0.227115049  -2.712051982  -0.281868004
| 17> C   0.490021232  -1.851247678   1.341189459
| 18> H   1.466500502  -1.466176022   1.645844415
| 19> H   0.097564527  -2.488364683   2.146902740
| 20> H  -0.187588112  -1.000787499   1.200739571
| 21> O  -5.201143618   0.064582726  -0.172223772
| 22> H  -4.686891530   0.869258890   0.107806143
| 23> C  -6.513192168   0.171391798   0.359883449
| 24> H  -7.049381312  -0.749234190   0.111361174
| 25> H  -7.057741163   1.017801101  -0.081819420
| 26> H  -6.514770575   0.292264928   1.453058834
| 27> O   3.252955559   0.588596242   1.858934315
| 28> H   3.621209177  -0.251605199   1.476063364
| 29> C   4.040824528   0.944288422   2.989639460
| 30> H   3.670521436   1.902573549   3.363847391
| 31> H   5.103749934   1.055868619   2.734277559
| 32> H   3.948540682   0.200279590   3.792908518
| 33> *
| 34>
| 35>                          ****END OF INPUT****

CARTESIAN COORDINATES (ANGSTROEM)
---------------------------------
  O      0.666045   -2.600503    0.138318
  H     -0.227115   -2.712052   -0.281868
  C      0.490021   -1.851248    1.341189
  H      1.466501   -1.466176    1.645844
  H      0.097565   -2.488365    2.146903
  H     -0.187588   -1.000787    1.200740
  O     -5.201144    0.064583   -0.172224
  H     -4.686892    0.869259    0.107806
  C     -6.513192    0.171392    0.359883
  H     -7.049381   -0.749234    0.111361
  H     -7.057741    1.017801   -0.081819
  H     -6.514771    0.292265    1.453059
  O      3.252956    0.588596    1.858934
  H      3.621209   -0.251605    1.476063
  C      4.040825    0.944288    2.989639
  H      3.670521    1.902574    3.363847
  H      5.103750    1.055869    2.734278
  H      3.948541    0.200280    3.792909

 Total Charge           Charge          ....    0
 Multiplicity           Mult            ....    1
 Number of Electrons    NEL             ....   54
 Basis Dimension        Dim             ....  258

ORBITAL ENERGIES
----------------

  NO   OCC          E(Eh)            E(eV)
   0   2.0000     -20.559893      -559.4631
   1   2.0000     -20.559359      -559.4486
   2   2.0000     -20.550350      -559.2034
   3   2.0000     -11.273208      -306.7596
   4   2.0000     -11.272856      -306.7500
   5   2.0000     -11.262899      -306.4791
   6   2.0000      -1.349953       -36.7341
   7   2.0000      -1.348581       -36.6967
   8   2.0000      -1.338493       -36.4223
   9   2.0000      -0.921316       -25.0703
  10   2.0000      -0.921115       -25.0648
  11   2.0000      -0.911487       -24.8028
  12   2.0000      -0.684433       -18.6244
  13   2.0000      -0.683457       -18.5978
  14   2.0000      -0.673742       -18.3334
  15   2.0000      -0.619053       -16.8453
  16   2.0000      -0.618787       -16.8381
  17   2.0000      -0.608783       -16.5658
  18   2.0000      -0.593652       -16.1541
  19   2.0000      -0.593426       -16.1479
  20   2.0000      -0.581202       -15.8153
  21   2.0000      -0.501969       -13.6593
  22   2.0000      -0.501710       -13.6522
  23   2.0000      -0.493870       -13.4389
  24   2.0000      -0.450746       -12.2654
  25   2.0000      -0.450703       -12.2643
  26   2.0000      -0.441517       -12.0143
  27   0.0000       0.127463         3.4684
  28   0.0000       0.134386         3.6568
  29   0.0000       0.148500         4.0409
  30   0.0000       0.173344         4.7169
  31   0.0000       0.175588         4.7780

MULLIKEN ATOMIC CHARGES
-----------------------
   0 O :   -0.503998
   1 H :    0.324533
   2 C :   -0.151911
   3 H :    0.098983
   4 H :    0.104127
   5 H :    0.112306
   6 O :   -0.498462
   7 H :    0.322575
   8 C :   -0.172446
   9 H :    0.129285
  10 H :    0.109738
  11 H :    0.109337
  12 O :   -0.487360
  13 H :    0.328996
  14 C :   -0.178584
  15 H :    0.128991
  16 H :    0.113721
  17 H :    0.110169
Sum of atomic charges:    0.0000000

LOEWDIN ATOMIC CHARGES
----------------------
   0 O :   -0.115273
   1 H :    0.190370
   2 C :   -0.378355
   3 H :    0.102869
   4 H :    0.094245
   5 H :    0.098294
   6 O :   -0.107932
   7 H :    0.191264
   8 C :   -0.384716
   9 H :    0.110452
  10 H :    0.095501
  11 H :    0.095445
  12 O :   -0.103520
  13 H :    0.190428
  14 C :   -0.381459
  15 H :    0.110185
  16 H :    0.096766
  17 H :    0.095435

  Mayer bond orders larger than 0.100000
B(  0-O ,  1-H ) :   0.8422 B(  0-O ,  2-C ) :   0.9302 B(  2-C ,  3-H ) :   0.9332
B(  2-C ,  4-H ) :   0.9386 B(  2-C ,  5-H ) :   0.9454 B(  6-O ,  7-H ) :   0.8415
B(  6-O ,  8-C ) :   0.9262 B(  8-C ,  9-H ) :   0.9376 B(  8-C , 10-H ) :   0.9391
B(  8-C , 11-H ) :   0.9385 B( 12-O , 13-H ) :   0.8362 B( 12-O , 14-C ) :   0.9310
B( 14-C , 15-H ) :   0.9380 B( 14-C , 16-H ) :   0.9394 B( 14-C , 17-H ) :   0.9369

MP2 TOTAL ENERGY:     -346.521836374 Eh
FINAL SINGLE POINT ENERGY      -346.521836373718

DIPOLE MOMENT
-------------
                                X             Y             Z
Electronic contribution:      0.93847      -1.46723      -3.61167
Nuclear contribution   :     -1.21341       1.94364       4.45195
                        -----------------------------------------
Total Dipole Moment    :     -0.27494       0.47642       0.84028
                        -----------------------------------------
Magnitude (a.u.)       :      1.00431
Magnitude (Debye)      :      2.55275

Rotational constants in cm-1:     0.077390     0.010400     0.009375
Rotational constants in MHz :  2320.108215   311.775618   281.057345

                             ****ORCA TERMINATED NORMALLY****
TOTAL RUN TIME: 0 days 0 hours 0 minutes 48 seconds 628 msec
