                         Program Version 4.2.0 -  RELEASE  -
|  1> # 12h2o.su.etal.mol1,5,6
|  2> ! MP2 def2-TZVP EnGrad TightSCF
|  3>
|  4> %pal
|  5>     nprocs 6
|  6> end
|  7>
|  8> %maxcore 8000
|  9>
| 10> %scf
| 11>     ConvForced true
| 12> end
| 13>
| 14> *xyz 0 1
| 15> O  -1.794470000  -0.923410000   2.768350000
| 16> H  -2.338250000  -1.359750000   3.430940000
| 17> H  -0.879480000  -1.303000000   2.865760000
| 18> O   0.885520000  -1.737840000   0.052730000
| 19> H   1.284090000  -0.839590000   0.017130000
| 20> H   1.032320000  -2.090180000  -0.841890000
| 21> O   1.737840000   0.885520000  -0.052730000
| 22> H   2.090180000   1.032320000   0.841890000
| 23> H   0.839590000   1.284090000  -0.017130000
| 24> *
| 25>
| 26>                          ****END OF INPUT****

CARTESIAN COORDINATES (ANGSTROEM)
---------------------------------
  O     -1.794470   -0.923410    2.768350
  H     -2.338250   -1.359750    3.430940
  H     -0.879480   -1.303000    2.865760
  O      0.885520   -1.737840    0.052730
  H      1.284090   -0.839590    0.017130
  H      1.032320   -2.090180   -0.841890
  O      1.737840    0.885520   -0.052730
  H      2.090180    1.032320    0.841890
  H      0.839590    1.284090   -0.017130

 Total Charge           Charge          ....    0
 Multiplicity           Mult            ....    1
 Number of Electrons    NEL             ....   30
 Basis Dimension        Dim             ....  129

ORBITAL ENERGIES
----------------

  NO   OCC          E(Eh)            E(eV)
   0   2.0000     -20.594985      -560.4180
   1   2.0000     -20.553541      -559.2903
   2   2.0000     -20.527167      -558.5726
   3   2.0000      -1.375553       -37.4307
   4   2.0000      -1.328943       -36.1624
   5   2.0000      -1.308368       -35.6025
   6   2.0000      -0.733415       -19.9572
   7   2.0000      -0.697243       -18.9729
   8   2.0000      -0.684859       -18.6360
   9   2.0000      -0.614399       -16.7186
  10   2.0000      -0.565489       -15.3877
  11   2.0000      -0.563460       -15.3325
  12   2.0000      -0.520162       -14.1543
  13   2.0000      -0.496800       -13.5186
  14   2.0000      -0.475321       -12.9342
  15   0.0000       0.106019         2.8849
  16   0.0000       0.142100         3.8667
  17   0.0000       0.173454         4.7199
  18   0.0000       0.185470         5.0469
  19   0.0000       0.214289         5.8311

MULLIKEN ATOMIC CHARGES
-----------------------
   0 O :   -0.687163
   1 H :    0.335341
   2 H :    0.349784
   3 O :   -0.715038
   4 H :    0.350855
   5 H :    0.328913
   6 O :   -0.682508
   7 H :    0.356264
   8 H :    0.363552
Sum of atomic charges:   -0.0000000

LOEWDIN ATOMIC CHARGES
----------------------
   0 O :   -0.341139
   1 H :    0.156324
   2 H :    0.182822
   3 O :   -0.363457
   4 H :    0.140564
   5 H :    0.159353
   6 O :   -0.290395
   7 H :    0.172842
   8 H :    0.183086

  Mayer bond orders larger than 0.100000
B(  0-O ,  1-H ) :   0.8551 B(  0-O ,  2-H ) :   0.8395 B(  3-O ,  4-H ) :   0.8028
B(  3-O ,  5-H ) :   0.8582 B(  6-O ,  7-H ) :   0.8387 B(  6-O ,  8-H ) :   0.8316

MP2 TOTAL ENERGY:     -228.947125870 Eh
FINAL SINGLE POINT ENERGY      -228.947125870130

DIPOLE MOMENT
-------------
                                X             Y             Z
Electronic contribution:      0.02169       0.20625      -0.11843
Nuclear contribution   :      0.30853       0.22919       0.63259
                        -----------------------------------------
Total Dipole Moment    :      0.33022       0.43544       0.51416
                        -----------------------------------------
Magnitude (a.u.)       :      0.75034
Magnitude (Debye)      :      1.90721

Rotational constants in cm-1:     0.279455     0.073950     0.059274
Rotational constants in MHz :  8377.862133  2216.952534  1777.001236

                             ****ORCA TERMINATED NORMALLY****
TOTAL RUN TIME: 0 days 0 hours 0 minutes 32 seconds 835 msec
