                         Program Version 4.2.0 -  RELEASE  -
|  1> # 12h2o.su.etal.mol0,3,4,5,7,8
|  2> ! MP2 def2-TZVP EnGrad TightSCF
|  3>
|  4> %pal
|  5>     nprocs 6
|  6> end
|  7>
|  8> %maxcore 8000
|  9>
| 10> %scf
| 11>     ConvForced true
| 12> end
| 13>
| 14> *xyz 0 1
| 15> O   1.794470000   0.923410000   2.768350000
| 16> H   2.338250000   1.359750000   3.430940000
| 17> H   0.879480000   1.303000000   2.865760000
| 18> O  -1.752130000  -0.741530000  -2.896280000
| 19> H  -2.036450000  -0.920500000  -1.984040000
| 20> H  -0.921210000  -1.242140000  -2.984230000
| 21> O  -0.885520000   1.737840000   0.052730000
| 22> H  -1.032320000   2.090180000  -0.841890000
| 23> H  -1.284090000   0.839590000   0.017130000
| 24> O   0.885520000  -1.737840000   0.052730000
| 25> H   1.284090000  -0.839590000   0.017130000
| 26> H   1.032320000  -2.090180000  -0.841890000
| 27> O  -1.737840000  -0.885520000  -0.052730000
| 28> H  -2.090180000  -1.032320000   0.841890000
| 29> H  -0.839590000  -1.284090000  -0.017130000
| 30> O   1.752130000   0.741530000  -2.896280000
| 31> H   2.036450000   0.920500000  -1.984040000
| 32> H   0.921210000   1.242140000  -2.984230000
| 33> *
| 34>
| 35>                          ****END OF INPUT****

CARTESIAN COORDINATES (ANGSTROEM)
---------------------------------
  O      1.794470    0.923410    2.768350
  H      2.338250    1.359750    3.430940
  H      0.879480    1.303000    2.865760
  O     -1.752130   -0.741530   -2.896280
  H     -2.036450   -0.920500   -1.984040
  H     -0.921210   -1.242140   -2.984230
  O     -0.885520    1.737840    0.052730
  H     -1.032320    2.090180   -0.841890
  H     -1.284090    0.839590    0.017130
  O      0.885520   -1.737840    0.052730
  H      1.284090   -0.839590    0.017130
  H      1.032320   -2.090180   -0.841890
  O     -1.737840   -0.885520   -0.052730
  H     -2.090180   -1.032320    0.841890
  H     -0.839590   -1.284090   -0.017130
  O      1.752130    0.741530   -2.896280
  H      2.036450    0.920500   -1.984040
  H      0.921210    1.242140   -2.984230

 Total Charge           Charge          ....    0
 Multiplicity           Mult            ....    1
 Number of Electrons    NEL             ....   60
 Basis Dimension        Dim             ....  258

ORBITAL ENERGIES
----------------

  NO   OCC          E(Eh)            E(eV)
   0   2.0000     -20.605476      -560.7035
   1   2.0000     -20.586794      -560.1952
   2   2.0000     -20.572737      -559.8126
   3   2.0000     -20.565498      -559.6157
   4   2.0000     -20.546588      -559.1011
   5   2.0000     -20.541851      -558.9722
   6   2.0000      -1.389473       -37.8095
   7   2.0000      -1.371511       -37.3207
   8   2.0000      -1.351646       -36.7801
   9   2.0000      -1.340828       -36.4858
  10   2.0000      -1.328198       -36.1421
  11   2.0000      -1.322411       -35.9846
  12   2.0000      -0.743654       -20.2359
  13   2.0000      -0.741745       -20.1839
  14   2.0000      -0.714413       -19.4402
  15   2.0000      -0.709094       -19.2954
  16   2.0000      -0.700428       -19.0596
  17   2.0000      -0.695423       -18.9234
  18   2.0000      -0.636389       -17.3170
  19   2.0000      -0.610939       -16.6245
  20   2.0000      -0.589637       -16.0448
  21   2.0000      -0.578406       -15.7392
  22   2.0000      -0.578041       -15.7293
  23   2.0000      -0.561779       -15.2868
  24   2.0000      -0.541187       -14.7264
  25   2.0000      -0.523608       -14.2481
  26   2.0000      -0.517100       -14.0710
  27   2.0000      -0.508901       -13.8479
  28   2.0000      -0.492634       -13.4052
  29   2.0000      -0.489614       -13.3231
  30   0.0000       0.080225         2.1830
  31   0.0000       0.124758         3.3948
  32   0.0000       0.132842         3.6148
  33   0.0000       0.140049         3.8109
  34   0.0000       0.160075         4.3559

MULLIKEN ATOMIC CHARGES
-----------------------
   0 O :   -0.693500
   1 H :    0.340274
   2 H :    0.353616
   3 O :   -0.695836
   4 H :    0.372173
   5 H :    0.320973
   6 O :   -0.721148
   7 H :    0.329755
   8 H :    0.356539
   9 O :   -0.682619
  10 H :    0.370328
  11 H :    0.355545
  12 O :   -0.734676
  13 H :    0.360931
  14 H :    0.367331
  15 O :   -0.681369
  16 H :    0.334736
  17 H :    0.346945
Sum of atomic charges:   -0.0000000

LOEWDIN ATOMIC CHARGES
----------------------
   0 O :   -0.342953
   1 H :    0.158767
   2 H :    0.184406
   3 O :   -0.336681
   4 H :    0.151726
   5 H :    0.156133
   6 O :   -0.361796
   7 H :    0.157542
   8 H :    0.139872
   9 O :   -0.282555
  10 H :    0.182203
  11 H :    0.171074
  12 O :   -0.296278
  13 H :    0.172444
  14 H :    0.145919
  15 O :   -0.329541
  16 H :    0.161566
  17 H :    0.168151

  Mayer bond orders larger than 0.100000
B(  0-O ,  1-H ) :   0.8521 B(  0-O ,  2-H ) :   0.8369 B(  3-O ,  4-H ) :   0.8185
B(  3-O ,  5-H ) :   0.8586 B(  6-O ,  7-H ) :   0.8559 B(  6-O ,  8-H ) :   0.7946
B(  9-O , 10-H ) :   0.8203 B(  9-O , 11-H ) :   0.8369 B( 12-O , 13-H ) :   0.8338
B( 12-O , 14-H ) :   0.7623 B( 15-O , 16-H ) :   0.8519 B( 15-O , 17-H ) :   0.8424

MP2 TOTAL ENERGY:     -457.911903519 Eh
FINAL SINGLE POINT ENERGY      -457.911903519022

DIPOLE MOMENT
-------------
                                X             Y             Z
Electronic contribution:      0.14154      -0.31594      -0.01847
Nuclear contribution   :      0.14541       0.22520       1.23053
                        -----------------------------------------
Total Dipole Moment    :      0.28695      -0.09073       1.21206
                        -----------------------------------------
Magnitude (a.u.)       :      1.24886
Magnitude (Debye)      :      3.17436

Rotational constants in cm-1:     0.047147     0.027771     0.024512
Rotational constants in MHz :  1413.443865   832.549592   734.866015

                             ****ORCA TERMINATED NORMALLY****
TOTAL RUN TIME: 0 days 0 hours 0 minutes 52 seconds 157 msec
