                         Program Version 4.2.0 -  RELEASE  -
|  1> # 12h2o.su.etal.mol0,2,4,6,8,9,10
|  2> ! MP2 def2-TZVP EnGrad TightSCF
|  3>
|  4> %pal
|  5>     nprocs 6
|  6> end
|  7>
|  8> %maxcore 8000
|  9>
| 10> %scf
| 11>     ConvForced true
| 12> end
| 13>
| 14> *xyz 0 1
| 15> O   1.794470000   0.923410000   2.768350000
| 16> H   2.338250000   1.359750000   3.430940000
| 17> H   0.879480000   1.303000000   2.865760000
| 18> O   0.923410000  -1.794470000  -2.768350000
| 19> H   1.359750000  -2.338250000  -3.430940000
| 20> H   1.303000000  -0.879480000  -2.865760000
| 21> O  -0.885520000   1.737840000   0.052730000
| 22> H  -1.032320000   2.090180000  -0.841890000
| 23> H  -1.284090000   0.839590000   0.017130000
| 24> O   1.737840000   0.885520000  -0.052730000
| 25> H   2.090180000   1.032320000   0.841890000
| 26> H   0.839590000   1.284090000  -0.017130000
| 27> O   1.752130000   0.741530000  -2.896280000
| 28> H   2.036450000   0.920500000  -1.984040000
| 29> H   0.921210000   1.242140000  -2.984230000
| 30> O   0.741530000  -1.752130000   2.896280000
| 31> H   0.920500000  -2.036450000   1.984040000
| 32> H   1.242140000  -0.921210000   2.984230000
| 33> O  -0.923410000   1.794470000  -2.768350000
| 34> H  -1.359750000   2.338250000  -3.430940000
| 35> H  -1.303000000   0.879480000  -2.865760000
| 36> *
| 37>
| 38>                          ****END OF INPUT****

CARTESIAN COORDINATES (ANGSTROEM)
---------------------------------
  O      1.794470    0.923410    2.768350
  H      2.338250    1.359750    3.430940
  H      0.879480    1.303000    2.865760
  O      0.923410   -1.794470   -2.768350
  H      1.359750   -2.338250   -3.430940
  H      1.303000   -0.879480   -2.865760
  O     -0.885520    1.737840    0.052730
  H     -1.032320    2.090180   -0.841890
  H     -1.284090    0.839590    0.017130
  O      1.737840    0.885520   -0.052730
  H      2.090180    1.032320    0.841890
  H      0.839590    1.284090   -0.017130
  O      1.752130    0.741530   -2.896280
  H      2.036450    0.920500   -1.984040
  H      0.921210    1.242140   -2.984230
  O      0.741530   -1.752130    2.896280
  H      0.920500   -2.036450    1.984040
  H      1.242140   -0.921210    2.984230
  O     -0.923410    1.794470   -2.768350
  H     -1.359750    2.338250   -3.430940
  H     -1.303000    0.879480   -2.865760

 Total Charge           Charge          ....    0
 Multiplicity           Mult            ....    1
 Number of Electrons    NEL             ....   70
 Basis Dimension        Dim             ....  301

ORBITAL ENERGIES
----------------

  NO   OCC          E(Eh)            E(eV)
   0   2.0000     -20.623965      -561.2066
   1   2.0000     -20.606334      -560.7268
   2   2.0000     -20.581861      -560.0609
   3   2.0000     -20.537274      -558.8476
   4   2.0000     -20.526901      -558.5654
   5   2.0000     -20.526777      -558.5620
   6   2.0000     -20.504183      -557.9472
   7   2.0000      -1.404571       -38.2203
   8   2.0000      -1.386519       -37.7291
   9   2.0000      -1.365470       -37.1563
  10   2.0000      -1.331548       -36.2333
  11   2.0000      -1.311139       -35.6779
  12   2.0000      -1.309411       -35.6309
  13   2.0000      -1.285465       -34.9793
  14   2.0000      -0.769742       -20.9457
  15   2.0000      -0.752076       -20.4650
  16   2.0000      -0.729669       -19.8553
  17   2.0000      -0.702050       -19.1037
  18   2.0000      -0.691512       -18.8170
  19   2.0000      -0.680653       -18.5215
  20   2.0000      -0.671663       -18.2769
  21   2.0000      -0.646460       -17.5911
  22   2.0000      -0.626024       -17.0350
  23   2.0000      -0.605810       -16.4849
  24   2.0000      -0.592755       -16.1297
  25   2.0000      -0.569259       -15.4903
  26   2.0000      -0.555954       -15.1283
  27   2.0000      -0.548357       -14.9216
  28   2.0000      -0.532425       -14.4880
  29   2.0000      -0.525475       -14.2989
  30   2.0000      -0.512823       -13.9546
  31   2.0000      -0.480841       -13.0843
  32   2.0000      -0.475052       -12.9268
  33   2.0000      -0.473970       -12.8974
  34   2.0000      -0.455001       -12.3812
  35   0.0000       0.086283         2.3479
  36   0.0000       0.106559         2.8996
  37   0.0000       0.142792         3.8856
  38   0.0000       0.169768         4.6196
  39   0.0000       0.179164         4.8753

MULLIKEN ATOMIC CHARGES
-----------------------
   0 O :   -0.712540
   1 H :    0.361443
   2 H :    0.374840
   3 O :   -0.744831
   4 H :    0.320964
   5 H :    0.370136
   6 O :   -0.700322
   7 H :    0.379253
   8 H :    0.352321
   9 O :   -0.740264
  10 H :    0.363334
  11 H :    0.343464
  12 O :   -0.717057
  13 H :    0.388310
  14 H :    0.352675
  15 O :   -0.711112
  16 H :    0.341454
  17 H :    0.353807
  18 O :   -0.723569
  19 H :    0.368902
  20 H :    0.378791
Sum of atomic charges:   -0.0000000

LOEWDIN ATOMIC CHARGES
----------------------
   0 O :   -0.286384
   1 H :    0.166652
   2 H :    0.193116
   3 O :   -0.379836
   4 H :    0.146154
   5 H :    0.141576
   6 O :   -0.299615
   7 H :    0.152877
   8 H :    0.176599
   9 O :   -0.345963
  10 H :    0.146570
  11 H :    0.137960
  12 O :   -0.289416
  13 H :    0.158054
  14 H :    0.143824
  15 O :   -0.349392
  16 H :    0.165059
  17 H :    0.144807
  18 O :   -0.288053
  19 H :    0.170154
  20 H :    0.195260

  Mayer bond orders larger than 0.100000
B(  0-O ,  1-H ) :   0.8336 B(  0-O ,  2-H ) :   0.8179 B(  3-O ,  4-H ) :   0.8627
B(  3-O ,  5-H ) :   0.7678 B(  5-H , 12-O ) :   0.1040 B(  6-O ,  7-H ) :   0.8062
B(  6-O ,  8-H ) :   0.8377 B(  9-O , 10-H ) :   0.8228 B(  9-O , 11-H ) :   0.7876
B( 12-O , 13-H ) :   0.7941 B( 12-O , 14-H ) :   0.8250 B( 15-O , 16-H ) :   0.8499
B( 15-O , 17-H ) :   0.8271 B( 18-O , 19-H ) :   0.8295 B( 18-O , 20-H ) :   0.8129

MP2 TOTAL ENERGY:     -534.247107198 Eh
FINAL SINGLE POINT ENERGY      -534.247107197861

DIPOLE MOMENT
-------------
                                X             Y             Z
Electronic contribution:     -0.02889       0.36782       0.27107
Nuclear contribution   :     -1.10663       1.69932      -0.63259
                        -----------------------------------------
Total Dipole Moment    :     -1.13552       2.06714      -0.36152
                        -----------------------------------------
Magnitude (a.u.)       :      2.38604
Magnitude (Debye)      :      6.06483

Rotational constants in cm-1:     0.043455     0.019899     0.017017
Rotational constants in MHz :  1302.754519   596.551616   510.170482

                             ****ORCA TERMINATED NORMALLY****
TOTAL RUN TIME: 0 days 0 hours 2 minutes 41 seconds 646 msec
