                         Program Version 3.0.3 - RELEASE   -
|  1> ! B3LYP Def2-SVP def2-SVP/J RIJCOSX TightSCF Grid4 D3BJ COSMO OPT
|  2>
|  3> %pal nprocs 12 end
|  4>
|  5> %scf
|  6>         maxiter 800
|  7> end
|  8>
|  9> %cosmo
| 10>         SMD true
| 11>         solvent "WATER"
| 12> end
| 13>
| 14> * xyz  0  1
| 15>   O     -0.164722    2.258367   -0.375398
| 16>   H      0.138744    1.785433   -1.150301
| 17>   H      0.481050    2.051508    0.300190
| 18>   O      0.222442   -2.413757    0.390279
| 19>   H      0.976066   -1.890936    0.116525
| 20>   H      0.564995   -3.303756    0.472694
| 21>   O     -1.418666   -1.108261   -1.423877
| 22>   H     -1.887851   -0.514955   -0.837289
| 23>   H     -0.954969   -1.707274   -0.838727
| 24>   O      1.493977    1.167023    1.560165
| 25>   H      1.919570    1.499076    2.350635
| 26>   H      0.784901    0.611844    1.884542
| 27>   O     -0.568589   -0.447497    2.178242
| 28>   H     -1.291111   -0.051110    1.691342
| 29>   H     -0.358229   -1.243428    1.689904
| 30>   O     -2.288900    0.795994    0.394151
| 31>   H     -3.070256    1.342468    0.478301
| 32>   H     -1.600457    1.402121    0.120495
| 33>   O      2.151978   -0.702610   -0.378966
| 34>   H      2.107338   -0.027051    0.297687
| 35>   H      1.765031   -0.293126   -1.152804
| 36>   O      0.572482    0.450739   -2.344594
| 37>   H      0.585687    0.462217   -3.301635
| 38>   H     -0.160511   -0.123029   -2.121562
| 39> **                         ****END OF INPUT****
 Total Charge           Charge          ....    0
 Multiplicity           Mult            ....    1
 Number of Electrons    NEL             ....   80
Dispersion correction           -0.024471261
FINAL SINGLE POINT ENERGY      -610.803560783448
Dispersion correction            ...
Dispersion correction           -0.024068868
FINAL SINGLE POINT ENERGY      -610.812687021297
Dispersion correction            ...
Dispersion correction           -0.024516946
FINAL SINGLE POINT ENERGY      -610.814149906852
Dispersion correction            ...
FINAL SINGLE POINT ENERGY      -610.823355003503
FINAL SINGLE POINT ENERGY      -610.815079968793
FINAL SINGLE POINT ENERGY      -610.815189369193
FINAL SINGLE POINT ENERGY      -610.815371395523
FINAL SINGLE POINT ENERGY      -610.815463840593
FINAL SINGLE POINT ENERGY      -610.815597540474
FINAL SINGLE POINT ENERGY      -610.815715739051
FINAL SINGLE POINT ENERGY      -610.816162608671
FINAL SINGLE POINT ENERGY      -610.816183789840
FINAL SINGLE POINT ENERGY      -610.816206246307
FINAL SINGLE POINT ENERGY      -610.816260689584
FINAL SINGLE POINT ENERGY      -610.824628192930
FINAL SINGLE POINT ENERGY      -610.816250941336
FINAL SINGLE POINT ENERGY      -610.816258935527
Dispersion correction            ...
Dispersion correction           -0.025337033
FINAL SINGLE POINT ENERGY      -610.816284433359
Dispersion correction            ...
Dispersion correction           -0.025345678
FINAL SINGLE POINT ENERGY      -610.816292274950
Dispersion correction            ...
                    ***********************HURRAY********************

CARTESIAN COORDINATES (ANGSTROEM)
---------------------------------
  O     -0.081123    2.278696   -0.336208
  H      0.166909    1.709215   -1.101791
  H      0.531144    1.985970    0.380442
  O      0.262665   -2.194642    0.329439
  H      1.096394   -1.714854    0.055475
  H      0.520137   -3.121580    0.450077
  O     -1.590289   -1.227129   -1.456661
  H     -1.971665   -0.542475   -0.858885
  H     -1.005524   -1.743201   -0.853628
  O      1.440266    1.064030    1.550878
  H      1.893183    1.445316    2.317870
  H      0.680183    0.513552    1.913184
  O     -0.613208   -0.434214    2.180645
  H     -1.305976   -0.000625    1.627449
  H     -0.338219   -1.208365    1.632425
  O     -2.164356    0.782233    0.318547
  H     -2.984852    1.286647    0.429085
  H     -1.459255    1.450710    0.072411
  O      2.302760   -0.612477   -0.412329
  H      2.154632    0.028836    0.321892
  H      1.768457   -0.249261   -1.157232
  O      0.466534    0.327143   -2.194713
  H      0.555559    0.443564   -3.152627
  H     -0.324357   -0.267090   -2.055747

 Multiplicity           Mult            ....    1
 Number of Electrons    NEL             ....   80
 Basis Dimension        Dim             ....  192

ORBITAL ENERGIES
----------------

  NO   OCC          E(Eh)            E(eV)
   0   2.0000     -19.135261      -520.6969
   1   2.0000     -19.134472      -520.6755
   2   2.0000     -19.132405      -520.6192
   3   2.0000     -19.130806      -520.5757
   4   2.0000     -19.114791      -520.1399
   5   2.0000     -19.114433      -520.1302
   6   2.0000     -19.113273      -520.0986
   7   2.0000     -19.113134      -520.0948
   8   2.0000      -1.005459       -27.3599
   9   2.0000      -0.991639       -26.9839
  10   2.0000      -0.991253       -26.9734
  11   2.0000      -0.986899       -26.8549
  12   2.0000      -0.970706       -26.4142
  13   2.0000      -0.966205       -26.2918
  14   2.0000      -0.965800       -26.2808
  15   2.0000      -0.953121       -25.9357
  16   2.0000      -0.530345       -14.4314
  17   2.0000      -0.529111       -14.3978
  18   2.0000      -0.527564       -14.3558
  19   2.0000      -0.521182       -14.1821
  20   2.0000      -0.510197       -13.8832
  21   2.0000      -0.507191       -13.8014
  22   2.0000      -0.505676       -13.7601
  23   2.0000      -0.501849       -13.6560
  24   2.0000      -0.445767       -12.1299
  25   2.0000      -0.418563       -11.3897
  26   2.0000      -0.396451       -10.7880
  27   2.0000      -0.394837       -10.7441
  28   2.0000      -0.377078       -10.2608
  29   2.0000      -0.376408       -10.2426
  30   2.0000      -0.363979        -9.9044
  31   2.0000      -0.340352        -9.2614
  32   2.0000      -0.315280        -8.5792
  33   2.0000      -0.315019        -8.5721
  34   2.0000      -0.312162        -8.4944
  35   2.0000      -0.310669        -8.4537
  36   2.0000      -0.301672        -8.2089
  37   2.0000      -0.300175        -8.1682
  38   2.0000      -0.299403        -8.1472
  39   2.0000      -0.299150        -8.1403
  40   0.0000       0.044534         1.2118
  41   0.0000       0.085861         2.3364
  42   0.0000       0.086227         2.3464
  43   0.0000       0.087301         2.3756
  44   0.0000       0.165120         4.4931

MULLIKEN ATOMIC CHARGES
-----------------------
   0 O :   -0.371504
   1 H :    0.160100
   2 H :    0.158138
   3 O :   -0.322872
   4 H :    0.151410
   5 H :    0.222345
   6 O :   -0.369409
   7 H :    0.161303
   8 H :    0.161464
   9 O :   -0.332833
  10 H :    0.219515
  11 H :    0.163247
  12 O :   -0.371469
  13 H :    0.158634
  14 H :    0.162208
  15 O :   -0.327685
  16 H :    0.220191
  17 H :    0.157992
  18 O :   -0.374359
  19 H :    0.160192
  20 H :    0.162720
  21 O :   -0.323397
  22 H :    0.221601
  23 H :    0.152468
Sum of atomic charges:   -0.0000000

LOEWDIN ATOMIC CHARGES
----------------------
   0 O :   -0.145451
   1 H :    0.041160
   2 H :    0.037561
   3 O :   -0.080437
   4 H :    0.044381
   5 H :    0.113196
   6 O :   -0.152977
   7 H :    0.041344
   8 H :    0.042314
   9 O :   -0.087780
  10 H :    0.110439
  11 H :    0.037789
  12 O :   -0.140702
  13 H :    0.038722
  14 H :    0.039135
  15 O :   -0.086064
  16 H :    0.111538
  17 H :    0.040305
  18 O :   -0.154827
  19 H :    0.037802
  20 H :    0.038621
  21 O :   -0.082401
  22 H :    0.112696
  23 H :    0.043636

  Mayer bond orders larger than 0.1
B(  0-O ,  1-H ) :   0.9101 B(  0-O ,  2-H ) :   0.9044 B(  0-O , 17-H ) :   0.2444
B(  1-H , 21-O ) :   0.1708 B(  2-H ,  9-O ) :   0.1831 B(  3-O ,  4-H ) :   0.8476
B(  3-O ,  5-H ) :   0.9603 B(  3-O ,  8-H ) :   0.1673 B(  3-O , 14-H ) :   0.1778
B(  4-H , 18-O ) :   0.2444 B(  6-O ,  7-H ) :   0.9126 B(  6-O ,  8-H ) :   0.9140
B(  6-O , 23-H ) :   0.2420 B(  7-H , 15-O ) :   0.1699 B(  9-O , 10-H ) :   0.9610
B(  9-O , 11-H ) :   0.8313 B(  9-O , 19-H ) :   0.1743 B( 11-H , 12-O ) :   0.2494
B( 12-O , 13-H ) :   0.9055 B( 12-O , 14-H ) :   0.9042 B( 13-H , 15-O ) :   0.1807
B( 15-O , 16-H ) :   0.9610 B( 15-O , 17-H ) :   0.8407 B( 18-O , 19-H ) :   0.9097
B( 18-O , 20-H ) :   0.9097 B( 20-H , 21-O ) :   0.1702 B( 21-O , 22-H ) :   0.9607
B( 21-O , 23-H ) :   0.8500

Dispersion correction           -0.025351566
FINAL SINGLE POINT ENERGY      -610.816301708916

DIPOLE MOMENT
-------------
                                X             Y             Z
Electronic contribution:     -0.02313      -0.02296      -0.00857
Nuclear contribution   :     -0.05805       0.04085       0.05094
                        -----------------------------------------
Total Dipole Moment    :     -0.08118       0.01789       0.04237
                        -----------------------------------------
Magnitude (a.u.)       :      0.09331
Magnitude (Debye)      :      0.23717

                             ****ORCA TERMINATED NORMALLY****
TOTAL RUN TIME: 0 days 0 hours 36 minutes 30 seconds 2 msec
