                         Program Version 3.0.3 - RELEASE   -
|  1> ! BP86 Def2-SVP TightSCF Opt D3BJ COSMO
|  2>
|  3> %pal nprocs 12 end
|  4>
|  5> %scf
|  6>         maxiter 800
|  7> end
|  8>
|  9> %cosmo
| 10> 	SMD true
| 11>         solvent "WATER"
| 12> end
| 13>
| 14> * xyz  0  1
| 15>   O     -0.164722    2.258367   -0.375398
| 16>   H      0.138744    1.785433   -1.150301
| 17>   H      0.481050    2.051508    0.300190
| 18>   O      0.222442   -2.413757    0.390279
| 19>   H      0.976066   -1.890936    0.116525
| 20>   H      0.564995   -3.303756    0.472694
| 21>   O     -1.418666   -1.108261   -1.423877
| 22>   H     -1.887851   -0.514955   -0.837289
| 23>   H     -0.954969   -1.707274   -0.838727
| 24>   O      1.493977    1.167023    1.560165
| 25>   H      1.919570    1.499076    2.350635
| 26>   H      0.784901    0.611844    1.884542
| 27>   O     -0.568589   -0.447497    2.178242
| 28>   H     -1.291111   -0.051110    1.691342
| 29>   H     -0.358229   -1.243428    1.689904
| 30>   O     -2.288900    0.795994    0.394151
| 31>   H     -3.070256    1.342468    0.478301
| 32>   H     -1.600457    1.402121    0.120495
| 33>   O      2.151978   -0.702610   -0.378966
| 34>   H      2.107338   -0.027051    0.297687
| 35>   H      1.765031   -0.293126   -1.152804
| 36>   O      0.572482    0.450739   -2.344594
| 37>   H      0.585687    0.462217   -3.301635
| 38>   H     -0.160511   -0.123029   -2.121562
| 39> **                         ****END OF INPUT****
 Total Charge           Charge          ....    0
 Multiplicity           Mult            ....    1
 Number of Electrons    NEL             ....   80
Dispersion correction           -0.022546618
FINAL SINGLE POINT ENERGY      -611.109130146358
Dispersion correction            ...
Dispersion correction           -0.022143306
FINAL SINGLE POINT ENERGY      -611.125985975935
Dispersion correction            ...
Dispersion correction           -0.022475210
FINAL SINGLE POINT ENERGY      -611.128977966283
Dispersion correction            ...
FINAL SINGLE POINT ENERGY      -611.130787492105
FINAL SINGLE POINT ENERGY      -611.132038133243
FINAL SINGLE POINT ENERGY      -611.132928573625
FINAL SINGLE POINT ENERGY      -611.133260321062
FINAL SINGLE POINT ENERGY      -611.133384692537
FINAL SINGLE POINT ENERGY      -611.133686008124
FINAL SINGLE POINT ENERGY      -611.134081461813
FINAL SINGLE POINT ENERGY      -611.144393175493
FINAL SINGLE POINT ENERGY      -611.136136082675
FINAL SINGLE POINT ENERGY      -611.136186499728
FINAL SINGLE POINT ENERGY      -611.136186770208
FINAL SINGLE POINT ENERGY      -611.136197774478
FINAL SINGLE POINT ENERGY      -611.136194272065
FINAL SINGLE POINT ENERGY      -611.144479571678
Dispersion correction            ...
Dispersion correction           -0.023889465
FINAL SINGLE POINT ENERGY      -611.136213631313
Dispersion correction            ...
Dispersion correction           -0.023885264
FINAL SINGLE POINT ENERGY      -611.136220276514
Dispersion correction            ...
                    ***********************HURRAY********************

CARTESIAN COORDINATES (ANGSTROEM)
---------------------------------
  O     -0.181690    2.327180   -0.386723
  H      0.102854    1.750384   -1.157158
  H      0.450072    2.022552    0.331400
  O      0.198815   -2.209437    0.353795
  H      1.062136   -1.726714    0.065323
  H      0.449560   -3.145337    0.482787
  O     -1.457945   -1.133419   -1.478172
  H     -1.869740   -0.469245   -0.848190
  H     -0.911101   -1.694824   -0.852223
  O      1.368298    1.067895    1.420901
  H      1.874688    1.466264    2.155733
  H      0.635454    0.493506    1.863059
  O     -0.572993   -0.453527    2.243668
  H     -1.268301   -0.009150    1.673018
  H     -0.311919   -1.237201    1.673544
  O     -2.098893    0.726064    0.359198
  H     -2.951451    1.187850    0.482889
  H     -1.426403    1.449157    0.067894
  O      2.218705   -0.739246   -0.384268
  H      2.080099   -0.050762    0.332841
  H      1.728367   -0.325889   -1.156173
  O      0.533876    0.407600   -2.139882
  H      0.622075    0.511091   -3.107856
  H     -0.274565   -0.214793   -1.995407

 Multiplicity           Mult            ....    1
 Number of Electrons    NEL             ....   80
 Basis Dimension        Dim             ....  192

ORBITAL ENERGIES
----------------

  NO   OCC          E(Eh)            E(eV)
   0   2.0000     -18.779484      -511.0157
   1   2.0000     -18.779254      -511.0095
   2   2.0000     -18.778927      -511.0006
   3   2.0000     -18.778646      -510.9929
   4   2.0000     -18.760717      -510.5051
   5   2.0000     -18.760506      -510.4993
   6   2.0000     -18.760491      -510.4989
   7   2.0000     -18.760233      -510.4919
   8   2.0000      -0.920184       -25.0395
   9   2.0000      -0.904659       -24.6170
  10   2.0000      -0.904595       -24.6153
  11   2.0000      -0.899094       -24.4656
  12   2.0000      -0.883816       -24.0498
  13   2.0000      -0.878191       -23.8968
  14   2.0000      -0.878111       -23.8946
  15   2.0000      -0.863468       -23.4962
  16   2.0000      -0.474095       -12.9008
  17   2.0000      -0.473885       -12.8951
  18   2.0000      -0.473129       -12.8745
  19   2.0000      -0.466425       -12.6921
  20   2.0000      -0.455043       -12.3823
  21   2.0000      -0.447327       -12.1724
  22   2.0000      -0.446802       -12.1581
  23   2.0000      -0.446435       -12.1481
  24   2.0000      -0.399246       -10.8640
  25   2.0000      -0.367327        -9.9955
  26   2.0000      -0.349680        -9.5153
  27   2.0000      -0.349116        -9.4999
  28   2.0000      -0.328764        -8.9461
  29   2.0000      -0.328025        -8.9260
  30   2.0000      -0.316000        -8.5988
  31   2.0000      -0.288703        -7.8560
  32   2.0000      -0.264478        -7.1968
  33   2.0000      -0.264292        -7.1918
  34   2.0000      -0.263117        -7.1598
  35   2.0000      -0.260533        -7.0895
  36   2.0000      -0.252986        -6.8841
  37   2.0000      -0.250522        -6.8170
  38   2.0000      -0.250464        -6.8155
  39   2.0000      -0.250204        -6.8084
  40   0.0000       0.023999         0.6530
  41   0.0000       0.066117         1.7991
  42   0.0000       0.066531         1.8104
  43   0.0000       0.066961         1.8221
  44   0.0000       0.143743         3.9114

MULLIKEN ATOMIC CHARGES
-----------------------
   0 O :   -0.365026
   1 H :    0.153874
   2 H :    0.156967
   3 O :   -0.332846
   4 H :    0.156075
   5 H :    0.225909
   6 O :   -0.362492
   7 H :    0.157755
   8 H :    0.157469
   9 O :   -0.332773
  10 H :    0.225521
  11 H :    0.158206
  12 O :   -0.364073
  13 H :    0.155973
  14 H :    0.157328
  15 O :   -0.332680
  16 H :    0.226289
  17 H :    0.158318
  18 O :   -0.363652
  19 H :    0.155880
  20 H :    0.156690
  21 O :   -0.329199
  22 H :    0.225736
  23 H :    0.154751
Sum of atomic charges:   -0.0000000

LOEWDIN ATOMIC CHARGES
----------------------
   0 O :   -0.143723
   1 H :    0.036760
   2 H :    0.037131
   3 O :   -0.082901
   4 H :    0.035546
   5 H :    0.113669
   6 O :   -0.140466
   7 H :    0.037619
   8 H :    0.037511
   9 O :   -0.081933
  10 H :    0.113424
  11 H :    0.035321
  12 O :   -0.140167
  13 H :    0.037189
  14 H :    0.037419
  15 O :   -0.081709
  16 H :    0.114075
  17 H :    0.036152
  18 O :   -0.142078
  19 H :    0.036728
  20 H :    0.036906
  21 O :   -0.080978
  22 H :    0.113568
  23 H :    0.034935

  Mayer bond orders larger than 0.1
B(  0-O ,  1-H ) :   0.8863 B(  0-O ,  2-H ) :   0.8867 B(  0-O , 17-H ) :   0.2869
B(  1-H , 21-O ) :   0.2022 B(  2-H ,  9-O ) :   0.2003 B(  3-O ,  4-H ) :   0.7954
B(  3-O ,  5-H ) :   0.9564 B(  3-O ,  8-H ) :   0.1975 B(  3-O , 14-H ) :   0.2008
B(  4-H , 18-O ) :   0.2889 B(  6-O ,  7-H ) :   0.8865 B(  6-O ,  8-H ) :   0.8881
B(  6-O , 23-H ) :   0.2899 B(  7-H , 15-O ) :   0.1981 B(  9-O , 10-H ) :   0.9567
B(  9-O , 11-H ) :   0.7949 B(  9-O , 19-H ) :   0.2000 B( 11-H , 12-O ) :   0.2880
B( 12-O , 13-H ) :   0.8864 B( 12-O , 14-H ) :   0.8857 B( 13-H , 15-O ) :   0.2008
B( 15-O , 16-H ) :   0.9558 B( 15-O , 17-H ) :   0.7969 B( 18-O , 19-H ) :   0.8871
B( 18-O , 20-H ) :   0.8862 B( 20-H , 21-O ) :   0.2003 B( 21-O , 22-H ) :   0.9567
B( 21-O , 23-H ) :   0.7956

Dispersion correction           -0.023881202
FINAL SINGLE POINT ENERGY      -611.136219408537

DIPOLE MOMENT
-------------
                                X             Y             Z
Electronic contribution:     -0.01129      -0.00678       0.00003
Nuclear contribution   :     -0.02041       0.01720       0.02867
                        -----------------------------------------
Total Dipole Moment    :     -0.03170       0.01042       0.02870
                        -----------------------------------------
Magnitude (a.u.)       :      0.04401
Magnitude (Debye)      :      0.11188

                             ****ORCA TERMINATED NORMALLY****
TOTAL RUN TIME: 0 days 0 hours 33 minutes 36 seconds 126 msec
