                         Program Version 3.0.3 - RELEASE   -
|  1> ! BP86 Def2-SVP TightSCF Opt D3BJ
|  2>
|  3> %pal nprocs 12 end
|  4>
|  5> %scf
|  6>         maxiter 800
|  7> end
|  8>
|  9> * xyz  0  1
| 10>   O     -0.164722    2.258367   -0.375398
| 11>   H      0.138744    1.785433   -1.150301
| 12>   H      0.481050    2.051508    0.300190
| 13>   O      0.222442   -2.413757    0.390279
| 14>   H      0.976066   -1.890936    0.116525
| 15>   H      0.564995   -3.303756    0.472694
| 16>   O     -1.418666   -1.108261   -1.423877
| 17>   H     -1.887851   -0.514955   -0.837289
| 18>   H     -0.954969   -1.707274   -0.838727
| 19>   O      1.493977    1.167023    1.560165
| 20>   H      1.919570    1.499076    2.350635
| 21>   H      0.784901    0.611844    1.884542
| 22>   O     -0.568589   -0.447497    2.178242
| 23>   H     -1.291111   -0.051110    1.691342
| 24>   H     -0.358229   -1.243428    1.689904
| 25>   O     -2.288900    0.795994    0.394151
| 26>   H     -3.070256    1.342468    0.478301
| 27>   H     -1.600457    1.402121    0.120495
| 28>   O      2.151978   -0.702610   -0.378966
| 29>   H      2.107338   -0.027051    0.297687
| 30>   H      1.765031   -0.293126   -1.152804
| 31>   O      0.572482    0.450739   -2.344594
| 32>   H      0.585687    0.462217   -3.301635
| 33>   H     -0.160511   -0.123029   -2.121562
| 34> **                         ****END OF INPUT****
 Total Charge           Charge          ....    0
 Multiplicity           Mult            ....    1
 Number of Electrons    NEL             ....   80
Dispersion correction           -0.022546618
FINAL SINGLE POINT ENERGY      -611.080373954906
Dispersion correction            ...
Dispersion correction           -0.022132726
FINAL SINGLE POINT ENERGY      -611.096906739626
Dispersion correction            ...
Dispersion correction           -0.022379102
FINAL SINGLE POINT ENERGY      -611.100444955750
Dispersion correction            ...
FINAL SINGLE POINT ENERGY      -611.102793592104
FINAL SINGLE POINT ENERGY      -611.104608580909
FINAL SINGLE POINT ENERGY      -611.105922637033
FINAL SINGLE POINT ENERGY      -611.106712581786
FINAL SINGLE POINT ENERGY      -611.107019625950
FINAL SINGLE POINT ENERGY      -611.107127357244
FINAL SINGLE POINT ENERGY      -611.107329242567
FINAL SINGLE POINT ENERGY      -611.108513884242
FINAL SINGLE POINT ENERGY      -611.108529946939
FINAL SINGLE POINT ENERGY      -611.108539796232
FINAL SINGLE POINT ENERGY      -611.108555805807
FINAL SINGLE POINT ENERGY      -611.108581371730
FINAL SINGLE POINT ENERGY      -611.108617114979
FINAL SINGLE POINT ENERGY      -611.108658580047
Dispersion correction            ...
Dispersion correction           -0.023892891
FINAL SINGLE POINT ENERGY      -611.108690703529
Dispersion correction            ...
Dispersion correction           -0.023908956
FINAL SINGLE POINT ENERGY      -611.108703946378
Dispersion correction            ...
                    ***********************HURRAY********************

CARTESIAN COORDINATES (ANGSTROEM)
---------------------------------
  O     -0.209608    2.285122   -0.370503
  H      0.106562    1.759431   -1.160584
  H      0.456319    2.032255    0.331890
  O      0.222153   -2.230562    0.354191
  H      1.075969   -1.696493    0.056429
  H      0.506740   -3.155621    0.466550
  O     -1.418812   -1.102467   -1.478223
  H     -1.874780   -0.472971   -0.848067
  H     -0.919583   -1.702411   -0.853486
  O      1.373272    1.070446    1.454861
  H      1.854469    1.450127    2.212041
  H      0.609911    0.473217    1.859102
  O     -0.541535   -0.427200    2.219434
  H     -1.276250   -0.013026    1.682072
  H     -0.316271   -1.238481    1.678743
  O     -2.113687    0.752463    0.359076
  H     -2.947653    1.243745    0.470721
  H     -1.393373    1.454767    0.060570
  O      2.168796   -0.754400   -0.372890
  H      2.084532   -0.047828    0.330131
  H      1.735260   -0.321266   -1.163246
  O      0.521246    0.402432   -2.171659
  H      0.590337    0.467773   -3.141470
  H     -0.294014   -0.229051   -1.975684

 Multiplicity           Mult            ....    1
 Number of Electrons    NEL             ....   80
 Basis Dimension        Dim             ....  192

ORBITAL ENERGIES
----------------

  NO   OCC          E(Eh)            E(eV)
   0   2.0000     -18.782360      -511.0940
   1   2.0000     -18.782131      -511.0878
   2   2.0000     -18.781544      -511.0718
   3   2.0000     -18.781247      -511.0637
   4   2.0000     -18.759894      -510.4827
   5   2.0000     -18.759614      -510.4751
   6   2.0000     -18.759448      -510.4705
   7   2.0000     -18.759060      -510.4600
   8   2.0000      -0.923043       -25.1173
   9   2.0000      -0.908317       -24.7166
  10   2.0000      -0.908141       -24.7118
  11   2.0000      -0.900709       -24.5095
  12   2.0000      -0.886650       -24.1270
  13   2.0000      -0.879029       -23.9196
  14   2.0000      -0.878790       -23.9131
  15   2.0000      -0.865135       -23.5415
  16   2.0000      -0.481951       -13.1146
  17   2.0000      -0.481812       -13.1108
  18   2.0000      -0.479068       -13.0361
  19   2.0000      -0.474928       -12.9234
  20   2.0000      -0.456772       -12.4294
  21   2.0000      -0.448237       -12.1971
  22   2.0000      -0.448154       -12.1949
  23   2.0000      -0.447618       -12.1803
  24   2.0000      -0.402364       -10.9489
  25   2.0000      -0.362109        -9.8535
  26   2.0000      -0.353561        -9.6209
  27   2.0000      -0.353466        -9.6183
  28   2.0000      -0.323332        -8.7983
  29   2.0000      -0.323128        -8.7928
  30   2.0000      -0.319215        -8.6863
  31   2.0000      -0.282902        -7.6982
  32   2.0000      -0.266434        -7.2500
  33   2.0000      -0.266048        -7.2395
  34   2.0000      -0.265801        -7.2328
  35   2.0000      -0.262601        -7.1457
  36   2.0000      -0.248193        -6.7537
  37   2.0000      -0.247502        -6.7349
  38   2.0000      -0.245943        -6.6924
  39   2.0000      -0.245775        -6.6879
  40   0.0000       0.010745         0.2924
  41   0.0000       0.042376         1.1531
  42   0.0000       0.043059         1.1717
  43   0.0000       0.043365         1.1800
  44   0.0000       0.126407         3.4397

MULLIKEN ATOMIC CHARGES
-----------------------
   0 O :   -0.307106
   1 H :    0.147905
   2 H :    0.150828
   3 O :   -0.341903
   4 H :    0.162563
   5 H :    0.183437
   6 O :   -0.304140
   7 H :    0.150454
   8 H :    0.150708
   9 O :   -0.341245
  10 H :    0.183462
  11 H :    0.163157
  12 O :   -0.305714
  13 H :    0.148962
  14 H :    0.150433
  15 O :   -0.340830
  16 H :    0.183612
  17 H :    0.164608
  18 O :   -0.304203
  19 H :    0.148966
  20 H :    0.149615
  21 O :   -0.337478
  22 H :    0.183564
  23 H :    0.160345
Sum of atomic charges:   -0.0000000

LOEWDIN ATOMIC CHARGES
----------------------
   0 O :   -0.085780
   1 H :    0.038325
   2 H :    0.038790
   3 O :   -0.106264
   4 H :    0.027179
   5 H :    0.084594
   6 O :   -0.084144
   7 H :    0.038777
   8 H :    0.039173
   9 O :   -0.104695
  10 H :    0.084545
  11 H :    0.027122
  12 O :   -0.084048
  13 H :    0.038480
  14 H :    0.038852
  15 O :   -0.104272
  16 H :    0.084820
  17 H :    0.027847
  18 O :   -0.083781
  19 H :    0.038056
  20 H :    0.038234
  21 O :   -0.103558
  22 H :    0.084708
  23 H :    0.027041

  Mayer bond orders larger than 0.1
B(  0-O ,  1-H ) :   0.8960 B(  0-O ,  2-H ) :   0.8963 B(  0-O , 17-H ) :   0.3171
B(  1-H , 21-O ) :   0.1922 B(  2-H ,  9-O ) :   0.1909 B(  3-O ,  4-H ) :   0.7580
B(  3-O ,  5-H ) :   0.9765 B(  3-O ,  8-H ) :   0.1883 B(  3-O , 14-H ) :   0.1920
B(  4-H , 18-O ) :   0.3196 B(  6-O ,  7-H ) :   0.8963 B(  6-O ,  8-H ) :   0.8978
B(  6-O , 23-H ) :   0.3198 B(  7-H , 15-O ) :   0.1892 B(  9-O , 10-H ) :   0.9767
B(  9-O , 11-H ) :   0.7585 B(  9-O , 19-H ) :   0.1902 B( 11-H , 12-O ) :   0.3188
B( 12-O , 13-H ) :   0.8962 B( 12-O , 14-H ) :   0.8952 B( 13-H , 15-O ) :   0.1919
B( 15-O , 16-H ) :   0.9761 B( 15-O , 17-H ) :   0.7596 B( 18-O , 19-H ) :   0.8972
B( 18-O , 20-H ) :   0.8959 B( 20-H , 21-O ) :   0.1915 B( 21-O , 22-H ) :   0.9770
B( 21-O , 23-H ) :   0.7593

Dispersion correction           -0.023913571
FINAL SINGLE POINT ENERGY      -611.108707689744

DIPOLE MOMENT
-------------
                                X             Y             Z
Electronic contribution:     -0.00510      -0.00274      -0.00425
Nuclear contribution   :     -0.00456       0.01040       0.01427
                        -----------------------------------------
Total Dipole Moment    :     -0.00965       0.00766       0.01002
                        -----------------------------------------
Magnitude (a.u.)       :      0.01588
Magnitude (Debye)      :      0.04037

                             ****ORCA TERMINATED NORMALLY****
TOTAL RUN TIME: 0 days 0 hours 22 minutes 29 seconds 399 msec
