                         Program Version 4.2.0 -  RELEASE  -
|  1> # 12h2o.su.etal.mol1,8,10,11
|  2> ! MP2 def2-TZVP EnGrad TightSCF
|  3>
|  4> %pal
|  5>     nprocs 6
|  6> end
|  7>
|  8> %maxcore 8000
|  9>
| 10> %scf
| 11>     ConvForced true
| 12> end
| 13>
| 14> *xyz 0 1
| 15> O  -1.794470000  -0.923410000   2.768350000
| 16> H  -2.338250000  -1.359750000   3.430940000
| 17> H  -0.879480000  -1.303000000   2.865760000
| 18> O   1.752130000   0.741530000  -2.896280000
| 19> H   2.036450000   0.920500000  -1.984040000
| 20> H   0.921210000   1.242140000  -2.984230000
| 21> O  -0.923410000   1.794470000  -2.768350000
| 22> H  -1.359750000   2.338250000  -3.430940000
| 23> H  -1.303000000   0.879480000  -2.865760000
| 24> O  -0.741530000   1.752130000   2.896280000
| 25> H  -0.920500000   2.036450000   1.984040000
| 26> H  -1.242140000   0.921210000   2.984230000
| 27> *
| 28>
| 29>                          ****END OF INPUT****

CARTESIAN COORDINATES (ANGSTROEM)
---------------------------------
  O     -1.794470   -0.923410    2.768350
  H     -2.338250   -1.359750    3.430940
  H     -0.879480   -1.303000    2.865760
  O      1.752130    0.741530   -2.896280
  H      2.036450    0.920500   -1.984040
  H      0.921210    1.242140   -2.984230
  O     -0.923410    1.794470   -2.768350
  H     -1.359750    2.338250   -3.430940
  H     -1.303000    0.879480   -2.865760
  O     -0.741530    1.752130    2.896280
  H     -0.920500    2.036450    1.984040
  H     -1.242140    0.921210    2.984230

 Total Charge           Charge          ....    0
 Multiplicity           Mult            ....    1
 Number of Electrons    NEL             ....   40
 Basis Dimension        Dim             ....  172

ORBITAL ENERGIES
----------------

  NO   OCC          E(Eh)            E(eV)
   0   2.0000     -20.592484      -560.3500
   1   2.0000     -20.592141      -560.3407
   2   2.0000     -20.530889      -558.6739
   3   2.0000     -20.530828      -558.6722
   4   2.0000      -1.370127       -37.2831
   5   2.0000      -1.369761       -37.2731
   6   2.0000      -1.313364       -35.7384
   7   2.0000      -1.313286       -35.7363
   8   2.0000      -0.737289       -20.0627
   9   2.0000      -0.736913       -20.0524
  10   2.0000      -0.682998       -18.5853
  11   2.0000      -0.682910       -18.5829
  12   2.0000      -0.608887       -16.5686
  13   2.0000      -0.608562       -16.5598
  14   2.0000      -0.557726       -15.1765
  15   2.0000      -0.557546       -15.1716
  16   2.0000      -0.527422       -14.3519
  17   2.0000      -0.527153       -14.3446
  18   2.0000      -0.478634       -13.0243
  19   2.0000      -0.478545       -13.0219
  20   0.0000       0.105476         2.8702
  21   0.0000       0.111494         3.0339
  22   0.0000       0.163966         4.4617
  23   0.0000       0.179275         4.8783
  24   0.0000       0.184705         5.0261

MULLIKEN ATOMIC CHARGES
-----------------------
   0 O :   -0.694626
   1 H :    0.353614
   2 H :    0.361021
   3 O :   -0.705816
   4 H :    0.330438
   5 H :    0.355406
   6 O :   -0.694791
   7 H :    0.354178
   8 H :    0.360721
   9 O :   -0.706246
  10 H :    0.331145
  11 H :    0.354956
Sum of atomic charges:   -0.0000000

LOEWDIN ATOMIC CHARGES
----------------------
   0 O :   -0.310681
   1 H :    0.163989
   2 H :    0.188628
   3 O :   -0.349145
   4 H :    0.160923
   5 H :    0.146268
   6 O :   -0.310729
   7 H :    0.164281
   8 H :    0.188476
   9 O :   -0.349282
  10 H :    0.161166
  11 H :    0.146106

  Mayer bond orders larger than 0.100000
B(  0-O ,  1-H ) :   0.8411 B(  0-O ,  2-H ) :   0.8305 B(  3-O ,  4-H ) :   0.8576
B(  3-O ,  5-H ) :   0.8203 B(  6-O ,  7-H ) :   0.8407 B(  6-O ,  8-H ) :   0.8306
B(  9-O , 10-H ) :   0.8571 B(  9-O , 11-H ) :   0.8205

MP2 TOTAL ENERGY:     -305.267364701 Eh
FINAL SINGLE POINT ENERGY      -305.267364700814

DIPOLE MOMENT
-------------
                                X             Y             Z
Electronic contribution:     -0.04409       0.01885      -0.00334
Nuclear contribution   :     -1.39079      -0.87744       0.00000
                        -----------------------------------------
Total Dipole Moment    :     -1.43489      -0.85859      -0.00334
                        -----------------------------------------
Magnitude (a.u.)       :      1.67215
Magnitude (Debye)      :      4.25027

Rotational constants in cm-1:     0.116287     0.023407     0.023144
Rotational constants in MHz :  3486.181784   701.722987   693.853777

                             ****ORCA TERMINATED NORMALLY****
TOTAL RUN TIME: 0 days 0 hours 0 minutes 24 seconds 347 msec
