                         Program Version 4.2.0 -  RELEASE  -
|  1> # 12h2o.su.etal.mol1,2,3,5,8,9,10
|  2> ! MP2 def2-TZVP EnGrad TightSCF
|  3>
|  4> %pal
|  5>     nprocs 6
|  6> end
|  7>
|  8> %maxcore 8000
|  9>
| 10> %scf
| 11>     ConvForced true
| 12> end
| 13>
| 14> *xyz 0 1
| 15> O  -1.794470000  -0.923410000   2.768350000
| 16> H  -2.338250000  -1.359750000   3.430940000
| 17> H  -0.879480000  -1.303000000   2.865760000
| 18> O   0.923410000  -1.794470000  -2.768350000
| 19> H   1.359750000  -2.338250000  -3.430940000
| 20> H   1.303000000  -0.879480000  -2.865760000
| 21> O  -1.752130000  -0.741530000  -2.896280000
| 22> H  -2.036450000  -0.920500000  -1.984040000
| 23> H  -0.921210000  -1.242140000  -2.984230000
| 24> O   0.885520000  -1.737840000   0.052730000
| 25> H   1.284090000  -0.839590000   0.017130000
| 26> H   1.032320000  -2.090180000  -0.841890000
| 27> O   1.752130000   0.741530000  -2.896280000
| 28> H   2.036450000   0.920500000  -1.984040000
| 29> H   0.921210000   1.242140000  -2.984230000
| 30> O   0.741530000  -1.752130000   2.896280000
| 31> H   0.920500000  -2.036450000   1.984040000
| 32> H   1.242140000  -0.921210000   2.984230000
| 33> O  -0.923410000   1.794470000  -2.768350000
| 34> H  -1.359750000   2.338250000  -3.430940000
| 35> H  -1.303000000   0.879480000  -2.865760000
| 36> *
| 37>
| 38>                          ****END OF INPUT****

CARTESIAN COORDINATES (ANGSTROEM)
---------------------------------
  O     -1.794470   -0.923410    2.768350
  H     -2.338250   -1.359750    3.430940
  H     -0.879480   -1.303000    2.865760
  O      0.923410   -1.794470   -2.768350
  H      1.359750   -2.338250   -3.430940
  H      1.303000   -0.879480   -2.865760
  O     -1.752130   -0.741530   -2.896280
  H     -2.036450   -0.920500   -1.984040
  H     -0.921210   -1.242140   -2.984230
  O      0.885520   -1.737840    0.052730
  H      1.284090   -0.839590    0.017130
  H      1.032320   -2.090180   -0.841890
  O      1.752130    0.741530   -2.896280
  H      2.036450    0.920500   -1.984040
  H      0.921210    1.242140   -2.984230
  O      0.741530   -1.752130    2.896280
  H      0.920500   -2.036450    1.984040
  H      1.242140   -0.921210    2.984230
  O     -0.923410    1.794470   -2.768350
  H     -1.359750    2.338250   -3.430940
  H     -1.303000    0.879480   -2.865760

 Total Charge           Charge          ....    0
 Multiplicity           Mult            ....    1
 Number of Electrons    NEL             ....   70
 Basis Dimension        Dim             ....  301

ORBITAL ENERGIES
----------------

  NO   OCC          E(Eh)            E(eV)
   0   2.0000     -20.590338      -560.2916
   1   2.0000     -20.583417      -560.1032
   2   2.0000     -20.573466      -559.8325
   3   2.0000     -20.573325      -559.8286
   4   2.0000     -20.564645      -559.5924
   5   2.0000     -20.553006      -559.2757
   6   2.0000     -20.503393      -557.9257
   7   2.0000      -1.386328       -37.7239
   8   2.0000      -1.367784       -37.2193
   9   2.0000      -1.362611       -37.0785
  10   2.0000      -1.357289       -36.9337
  11   2.0000      -1.347691       -36.6725
  12   2.0000      -1.333363       -36.2826
  13   2.0000      -1.285553       -34.9817
  14   2.0000      -0.749827       -20.4038
  15   2.0000      -0.741412       -20.1748
  16   2.0000      -0.726917       -19.7804
  17   2.0000      -0.723394       -19.6846
  18   2.0000      -0.716365       -19.4933
  19   2.0000      -0.709796       -19.3145
  20   2.0000      -0.674068       -18.3423
  21   2.0000      -0.643457       -17.5094
  22   2.0000      -0.614324       -16.7166
  23   2.0000      -0.606671       -16.5084
  24   2.0000      -0.601267       -16.3613
  25   2.0000      -0.580667       -15.8008
  26   2.0000      -0.567477       -15.4418
  27   2.0000      -0.536821       -14.6076
  28   2.0000      -0.533018       -14.5042
  29   2.0000      -0.529267       -14.4021
  30   2.0000      -0.519414       -14.1340
  31   2.0000      -0.513735       -13.9794
  32   2.0000      -0.503667       -13.7055
  33   2.0000      -0.492130       -13.3915
  34   2.0000      -0.453941       -12.3524
  35   0.0000       0.086280         2.3478
  36   0.0000       0.131005         3.5648
  37   0.0000       0.142615         3.8808
  38   0.0000       0.148020         4.0278
  39   0.0000       0.171170         4.6578

MULLIKEN ATOMIC CHARGES
-----------------------
   0 O :   -0.735793
   1 H :    0.319878
   2 H :    0.368684
   3 O :   -0.758209
   4 H :    0.355855
   5 H :    0.381770
   6 O :   -0.711311
   7 H :    0.367124
   8 H :    0.376360
   9 O :   -0.704632
  10 H :    0.319465
  11 H :    0.380098
  12 O :   -0.703051
  13 H :    0.345409
  14 H :    0.384956
  15 O :   -0.692677
  16 H :    0.386866
  17 H :    0.338485
  18 O :   -0.744112
  19 H :    0.343864
  20 H :    0.380972
Sum of atomic charges:    0.0000000

LOEWDIN ATOMIC CHARGES
----------------------
   0 O :   -0.374921
   1 H :    0.145761
   2 H :    0.142417
   3 O :   -0.314900
   4 H :    0.161720
   5 H :    0.145423
   6 O :   -0.282434
   7 H :    0.176866
   8 H :    0.152782
   9 O :   -0.322603
  10 H :    0.162224
  11 H :    0.154204
  12 O :   -0.279305
  13 H :    0.166046
  14 H :    0.157174
  15 O :   -0.277886
  16 H :    0.158887
  17 H :    0.166817
  18 O :   -0.340752
  19 H :    0.157084
  20 H :    0.145396

  Mayer bond orders larger than 0.100000
B(  0-O ,  1-H ) :   0.8635 B(  0-O ,  2-H ) :   0.7812 B(  3-O ,  4-H ) :   0.8377
B(  3-O ,  5-H ) :   0.7335 B(  5-H , 12-O ) :   0.1143 B(  6-O ,  7-H ) :   0.8308
B(  6-O ,  8-H ) :   0.7947 B(  6-O , 20-H ) :   0.1084 B(  9-O , 10-H ) :   0.8541
B(  9-O , 11-H ) :   0.7997 B( 12-O , 13-H ) :   0.8448 B( 12-O , 14-H ) :   0.7716
B( 15-O , 16-H ) :   0.7981 B( 15-O , 17-H ) :   0.8487 B( 18-O , 19-H ) :   0.8468
B( 18-O , 20-H ) :   0.7482

MP2 TOTAL ENERGY:     -534.259908185 Eh
FINAL SINGLE POINT ENERGY      -534.259908184907

DIPOLE MOMENT
-------------
                                X             Y             Z
Electronic contribution:      0.00676      -0.15109      -0.34015
Nuclear contribution   :      1.32858       0.23021      -0.72077
                        -----------------------------------------
Total Dipole Moment    :      1.33534       0.07913      -1.06091
                        -----------------------------------------
Magnitude (a.u.)       :      1.70732
Magnitude (Debye)      :      4.33966

Rotational constants in cm-1:     0.045034     0.017222     0.015283
Rotational constants in MHz :  1350.082700   516.316208   458.161679

                             ****ORCA TERMINATED NORMALLY****
TOTAL RUN TIME: 0 days 0 hours 1 minutes 48 seconds 747 msec
