                         Program Version 4.2.0 -  RELEASE  -
|  1> # 12h2o.su.etal.mol1,2,3,4,7,8,11
|  2> ! MP2 def2-TZVP EnGrad TightSCF
|  3>
|  4> %pal
|  5>     nprocs 6
|  6> end
|  7>
|  8> %maxcore 8000
|  9>
| 10> %scf
| 11>     ConvForced true
| 12> end
| 13>
| 14> *xyz 0 1
| 15> O  -1.794470000  -0.923410000   2.768350000
| 16> H  -2.338250000  -1.359750000   3.430940000
| 17> H  -0.879480000  -1.303000000   2.865760000
| 18> O   0.923410000  -1.794470000  -2.768350000
| 19> H   1.359750000  -2.338250000  -3.430940000
| 20> H   1.303000000  -0.879480000  -2.865760000
| 21> O  -1.752130000  -0.741530000  -2.896280000
| 22> H  -2.036450000  -0.920500000  -1.984040000
| 23> H  -0.921210000  -1.242140000  -2.984230000
| 24> O  -0.885520000   1.737840000   0.052730000
| 25> H  -1.032320000   2.090180000  -0.841890000
| 26> H  -1.284090000   0.839590000   0.017130000
| 27> O  -1.737840000  -0.885520000  -0.052730000
| 28> H  -2.090180000  -1.032320000   0.841890000
| 29> H  -0.839590000  -1.284090000  -0.017130000
| 30> O   1.752130000   0.741530000  -2.896280000
| 31> H   2.036450000   0.920500000  -1.984040000
| 32> H   0.921210000   1.242140000  -2.984230000
| 33> O  -0.741530000   1.752130000   2.896280000
| 34> H  -0.920500000   2.036450000   1.984040000
| 35> H  -1.242140000   0.921210000   2.984230000
| 36> *
| 37>
| 38>                          ****END OF INPUT****

CARTESIAN COORDINATES (ANGSTROEM)
---------------------------------
  O     -1.794470   -0.923410    2.768350
  H     -2.338250   -1.359750    3.430940
  H     -0.879480   -1.303000    2.865760
  O      0.923410   -1.794470   -2.768350
  H      1.359750   -2.338250   -3.430940
  H      1.303000   -0.879480   -2.865760
  O     -1.752130   -0.741530   -2.896280
  H     -2.036450   -0.920500   -1.984040
  H     -0.921210   -1.242140   -2.984230
  O     -0.885520    1.737840    0.052730
  H     -1.032320    2.090180   -0.841890
  H     -1.284090    0.839590    0.017130
  O     -1.737840   -0.885520   -0.052730
  H     -2.090180   -1.032320    0.841890
  H     -0.839590   -1.284090   -0.017130
  O      1.752130    0.741530   -2.896280
  H      2.036450    0.920500   -1.984040
  H      0.921210    1.242140   -2.984230
  O     -0.741530    1.752130    2.896280
  H     -0.920500    2.036450    1.984040
  H     -1.242140    0.921210    2.984230

 Total Charge           Charge          ....    0
 Multiplicity           Mult            ....    1
 Number of Electrons    NEL             ....   70
 Basis Dimension        Dim             ....  301

ORBITAL ENERGIES
----------------

  NO   OCC          E(Eh)            E(eV)
   0   2.0000     -20.625796      -561.2565
   1   2.0000     -20.601612      -560.5984
   2   2.0000     -20.594767      -560.4121
   3   2.0000     -20.552220      -559.2543
   4   2.0000     -20.550998      -559.2211
   5   2.0000     -20.513380      -558.1975
   6   2.0000     -20.509699      -558.0973
   7   2.0000      -1.406649       -38.2769
   8   2.0000      -1.387446       -37.7543
   9   2.0000      -1.380424       -37.5632
  10   2.0000      -1.335392       -36.3379
  11   2.0000      -1.335018       -36.3277
  12   2.0000      -1.298334       -35.3295
  13   2.0000      -1.294829       -35.2341
  14   2.0000      -0.771878       -21.0039
  15   2.0000      -0.744147       -20.2493
  16   2.0000      -0.743808       -20.2400
  17   2.0000      -0.720001       -19.5922
  18   2.0000      -0.709438       -19.3048
  19   2.0000      -0.678398       -18.4601
  20   2.0000      -0.676149       -18.3990
  21   2.0000      -0.647483       -17.6189
  22   2.0000      -0.628084       -17.0910
  23   2.0000      -0.613486       -16.6938
  24   2.0000      -0.595280       -16.1984
  25   2.0000      -0.583097       -15.8669
  26   2.0000      -0.564634       -15.3645
  27   2.0000      -0.541524       -14.7356
  28   2.0000      -0.532738       -14.4965
  29   2.0000      -0.527772       -14.3614
  30   2.0000      -0.523838       -14.2543
  31   2.0000      -0.499740       -13.5986
  32   2.0000      -0.497147       -13.5281
  33   2.0000      -0.463447       -12.6110
  34   2.0000      -0.459387       -12.5005
  35   0.0000       0.081282         2.2118
  36   0.0000       0.102149         2.7796
  37   0.0000       0.144378         3.9287
  38   0.0000       0.154602         4.2069
  39   0.0000       0.167654         4.5621

MULLIKEN ATOMIC CHARGES
-----------------------
   0 O :   -0.715288
   1 H :    0.369898
   2 H :    0.370082
   3 O :   -0.742178
   4 H :    0.342042
   5 H :    0.378844
   6 O :   -0.735282
   7 H :    0.363764
   8 H :    0.350059
   9 O :   -0.728295
  10 H :    0.335371
  11 H :    0.360455
  12 O :   -0.719821
  13 H :    0.386266
  14 H :    0.356980
  15 O :   -0.685341
  16 H :    0.364050
  17 H :    0.364842
  18 O :   -0.722803
  19 H :    0.370826
  20 H :    0.335527
Sum of atomic charges:   -0.0000000

LOEWDIN ATOMIC CHARGES
----------------------
   0 O :   -0.286960
   1 H :    0.170568
   2 H :    0.191946
   3 O :   -0.342438
   4 H :    0.156184
   5 H :    0.144932
   6 O :   -0.357487
   7 H :    0.146024
   8 H :    0.141925
   9 O :   -0.340280
  10 H :    0.159840
  11 H :    0.143724
  12 O :   -0.280276
  13 H :    0.155450
  14 H :    0.177448
  15 O :   -0.268823
  16 H :    0.176604
  17 H :    0.176932
  18 O :   -0.354253
  19 H :    0.151747
  20 H :    0.137192

  Mayer bond orders larger than 0.100000
B(  0-O ,  1-H ) :   0.8288 B(  0-O ,  2-H ) :   0.8210 B(  3-O ,  4-H ) :   0.8481
B(  3-O ,  5-H ) :   0.7639 B(  6-O ,  7-H ) :   0.8299 B(  6-O ,  8-H ) :   0.8157
B(  9-O , 10-H ) :   0.8493 B(  9-O , 11-H ) :   0.7803 B( 12-O , 13-H ) :   0.7964
B( 12-O , 14-H ) :   0.8293 B( 15-O , 16-H ) :   0.8325 B( 15-O , 17-H ) :   0.8281
B( 18-O , 19-H ) :   0.8198 B( 18-O , 20-H ) :   0.8435

MP2 TOTAL ENERGY:     -534.246712324 Eh
FINAL SINGLE POINT ENERGY      -534.246712324204

DIPOLE MOMENT
-------------
                                X             Y             Z
Electronic contribution:      0.03261       0.13103       0.05288
Nuclear contribution   :      0.42292      -1.73347       0.68611
                        -----------------------------------------
Total Dipole Moment    :      0.45553      -1.60245       0.73899
                        -----------------------------------------
Magnitude (a.u.)       :      1.82248
Magnitude (Debye)      :      4.63239

Rotational constants in cm-1:     0.049801     0.018594     0.016120
Rotational constants in MHz :  1492.987815   557.443852   483.256508

                             ****ORCA TERMINATED NORMALLY****
TOTAL RUN TIME: 0 days 0 hours 1 minutes 51 seconds 472 msec
