                         Program Version 3.0.3 - RELEASE   -
|  1> ! wB97X-D3 MA-Def2-TZVP def2-TZVP/J RIJCOSX TightSCF Grid4
|  2>
|  3> %pal nprocs 1 end
|  4>
|  5> %scf
|  6>         maxiter 400
|  7> end
|  8>
|  9> %cosmo
| 10>         SMD true
| 11>         solvent "WATER"
| 12> end
| 13>
| 14> * xyz  0  1
| 15> O  1.819450	0.392881	0.241960
| 16> H  1.307851	0.087169	-0.582301
| 17> H  2.307522	-0.412736	0.505385
| 18> O  0.330052	-0.424224	-1.795388
| 19> H  -0.538339	-0.429893	-1.266386
| 20> H  0.239226	0.376650	-2.349727
| 21> O  -0.324902	0.386330	1.797639
| 22> H  0.544560	0.402354	1.269760
| 23> H  -0.519217	1.336343	1.926055
| 24> O  -1.827900	-0.356662	-0.254596
| 25> H  -2.027356	-1.294883	-0.063627
| 26> H  -1.310948	-0.063330	0.571226
| 27> **                         ****END OF INPUT****

CARTESIAN COORDINATES (ANGSTROEM)
---------------------------------
  O      1.819450    0.392881    0.241960
  H      1.307851    0.087169   -0.582301
  H      2.307522   -0.412736    0.505385
  O      0.330052   -0.424224   -1.795388
  H     -0.538339   -0.429893   -1.266386
  H      0.239226    0.376650   -2.349727
  O     -0.324902    0.386330    1.797639
  H      0.544560    0.402354    1.269760
  H     -0.519217    1.336343    1.926055
  O     -1.827900   -0.356662   -0.254596
  H     -2.027356   -1.294883   -0.063627
  H     -1.310948   -0.063330    0.571226

 Total Charge           Charge          ....    0
 Multiplicity           Mult            ....    1
 Number of Electrons    NEL             ....   40
 Basis Dimension        Dim             ....  188

ORBITAL ENERGIES
----------------

  NO   OCC          E(Eh)            E(eV)
   0   2.0000     -19.235492      -523.4243
   1   2.0000     -19.235349      -523.4204
   2   2.0000     -19.235189      -523.4161
   3   2.0000     -19.234980      -523.4104
   4   2.0000      -1.139295       -31.0018
   5   2.0000      -1.118848       -30.4454
   6   2.0000      -1.118725       -30.4421
   7   2.0000      -1.098727       -29.8979
   8   2.0000      -0.630651       -17.1609
   9   2.0000      -0.620954       -16.8970
  10   2.0000      -0.620405       -16.8821
  11   2.0000      -0.620043       -16.8722
  12   2.0000      -0.542410       -14.7597
  13   2.0000      -0.507829       -13.8187
  14   2.0000      -0.507370       -13.8063
  15   2.0000      -0.482288       -13.1237
  16   2.0000      -0.420856       -11.4521
  17   2.0000      -0.420534       -11.4433
  18   2.0000      -0.416737       -11.3400
  19   2.0000      -0.415084       -11.2950
  20   0.0000       0.073517         2.0005
  21   0.0000       0.113224         3.0810
  22   0.0000       0.113366         3.0849
  23   0.0000       0.128052         3.4845
  24   0.0000       0.145104         3.9485

MULLIKEN ATOMIC CHARGES
-----------------------
   0 O :   -0.804696
   1 H :    0.392935
   2 H :    0.411677
   3 O :   -0.805221
   4 H :    0.394087
   5 H :    0.411619
   6 O :   -0.806421
   7 H :    0.394773
   8 H :    0.411266
   9 O :   -0.804661
  10 H :    0.411069
  11 H :    0.393573
Sum of atomic charges:   -0.0000000

LOEWDIN ATOMIC CHARGES
----------------------
   0 O :   -0.409651
   1 H :    0.193486
   2 H :    0.216629
   3 O :   -0.409891
   4 H :    0.193484
   5 H :    0.216784
   6 O :   -0.409754
   7 H :    0.193386
   8 H :    0.216685
   9 O :   -0.410881
  10 H :    0.216436
  11 H :    0.193286

  Mayer bond orders larger than 0.1
B(  0-O ,  1-H ) :   0.7679 B(  0-O ,  2-H ) :   0.8494 B(  0-O ,  7-H ) :   0.1161
B(  1-H ,  3-O ) :   0.1174 B(  3-O ,  4-H ) :   0.7687 B(  3-O ,  5-H ) :   0.8496
B(  4-H ,  9-O ) :   0.1144 B(  6-O ,  7-H ) :   0.7667 B(  6-O ,  8-H ) :   0.8488
B(  6-O , 11-H ) :   0.1156 B(  9-O , 10-H ) :   0.8492 B(  9-O , 11-H ) :   0.7674

Dispersion correction           -0.003129973
FINAL SINGLE POINT ENERGY      -305.828006654125

DIPOLE MOMENT
-------------
                                X             Y             Z
Electronic contribution:      0.00386       0.00088       0.00049
Nuclear contribution   :      0.00824       0.00418       0.02593
                        -----------------------------------------
Total Dipole Moment    :      0.01210       0.00507       0.02642
                        -----------------------------------------
Magnitude (a.u.)       :      0.02950
Magnitude (Debye)      :      0.07498

                             ****ORCA TERMINATED NORMALLY****
TOTAL RUN TIME: 0 days 0 hours 1 minutes 18 seconds 969 msec
