                         Program Version 3.0.3 - RELEASE   -
|  1> ! wB97X-D3 Def2-TZVP def2-TZVP/J RIJCOSX TightSCF Grid4 COSMO
|  2>
|  3> %pal nprocs 12 end
|  4>
|  5> %scf
|  6>         maxiter 400
|  7> end
|  8>
|  9> %cosmo
| 10>         SMD true
| 11>         solvent "WATER"
| 12> end
| 13>
| 14> * xyz  0  1
| 15> O  1.819450	0.392881	0.241960
| 16> H  1.307851	0.087169	-0.582301
| 17> H  2.307522	-0.412736	0.505385
| 18> O  0.330052	-0.424224	-1.795388
| 19> H  -0.538339	-0.429893	-1.266386
| 20> H  0.239226	0.376650	-2.349727
| 21> O  -0.324902	0.386330	1.797639
| 22> H  0.544560	0.402354	1.269760
| 23> H  -0.519217	1.336343	1.926055
| 24> O  -1.827900	-0.356662	-0.254596
| 25> H  -2.027356	-1.294883	-0.063627
| 26> H  -1.310948	-0.063330	0.571226
| 27> **                         ****END OF INPUT****

CARTESIAN COORDINATES (ANGSTROEM)
---------------------------------
  O      1.819450    0.392881    0.241960
  H      1.307851    0.087169   -0.582301
  H      2.307522   -0.412736    0.505385
  O      0.330052   -0.424224   -1.795388
  H     -0.538339   -0.429893   -1.266386
  H      0.239226    0.376650   -2.349727
  O     -0.324902    0.386330    1.797639
  H      0.544560    0.402354    1.269760
  H     -0.519217    1.336343    1.926055
  O     -1.827900   -0.356662   -0.254596
  H     -2.027356   -1.294883   -0.063627
  H     -1.310948   -0.063330    0.571226

 Total Charge           Charge          ....    0
 Multiplicity           Mult            ....    1
 Number of Electrons    NEL             ....   40
 Basis Dimension        Dim             ....  172

ORBITAL ENERGIES
----------------

  NO   OCC          E(Eh)            E(eV)
   0   2.0000     -19.232449      -523.3415
   1   2.0000     -19.232294      -523.3373
   2   2.0000     -19.232104      -523.3321
   3   2.0000     -19.231905      -523.3267
   4   2.0000      -1.137340       -30.9486
   5   2.0000      -1.116892       -30.3922
   6   2.0000      -1.116768       -30.3888
   7   2.0000      -1.096762       -29.8444
   8   2.0000      -0.628873       -17.1125
   9   2.0000      -0.619174       -16.8486
  10   2.0000      -0.618612       -16.8333
  11   2.0000      -0.618258       -16.8236
  12   2.0000      -0.540501       -14.7078
  13   2.0000      -0.506010       -13.7692
  14   2.0000      -0.505551       -13.7567
  15   2.0000      -0.480532       -13.0759
  16   2.0000      -0.418940       -11.3999
  17   2.0000      -0.418618       -11.3912
  18   2.0000      -0.414748       -11.2859
  19   2.0000      -0.413072       -11.2403
  20   0.0000       0.110073         2.9952
  21   0.0000       0.160260         4.3609
  22   0.0000       0.160337         4.3630
  23   0.0000       0.181614         4.9420
  24   0.0000       0.282096         7.6762

MULLIKEN ATOMIC CHARGES
-----------------------
   0 O :   -0.769211
   1 H :    0.371103
   2 H :    0.397756
   3 O :   -0.768922
   4 H :    0.371949
   5 H :    0.397687
   6 O :   -0.769905
   7 H :    0.372581
   8 H :    0.397737
   9 O :   -0.770307
  10 H :    0.397556
  11 H :    0.371979
Sum of atomic charges:   -0.0000000

LOEWDIN ATOMIC CHARGES
----------------------
   0 O :   -0.333876
   1 H :    0.147918
   2 H :    0.186381
   3 O :   -0.334031
   4 H :    0.147860
   5 H :    0.186527
   6 O :   -0.333802
   7 H :    0.147891
   8 H :    0.186462
   9 O :   -0.335159
  10 H :    0.186220
  11 H :    0.147609

  Mayer bond orders larger than 0.1
B(  0-O ,  1-H ) :   0.7619 B(  0-O ,  2-H ) :   0.8498 B(  0-O ,  7-H ) :   0.1572
B(  1-H ,  3-O ) :   0.1579 B(  3-O ,  4-H ) :   0.7622 B(  3-O ,  5-H ) :   0.8499
B(  4-H ,  9-O ) :   0.1566 B(  6-O ,  7-H ) :   0.7610 B(  6-O ,  8-H ) :   0.8496
B(  6-O , 11-H ) :   0.1574 B(  9-O , 10-H ) :   0.8499 B(  9-O , 11-H ) :   0.7613

Dispersion correction           -0.003129973
FINAL SINGLE POINT ENERGY      -305.825276087528

DIPOLE MOMENT
-------------
                                X             Y             Z
Electronic contribution:      0.00336       0.00096       0.00054
Nuclear contribution   :      0.00824       0.00418       0.02593
                        -----------------------------------------
Total Dipole Moment    :      0.01160       0.00514       0.02647
                        -----------------------------------------
Magnitude (a.u.)       :      0.02935
Magnitude (Debye)      :      0.07461

                             ****ORCA TERMINATED NORMALLY****
TOTAL RUN TIME: 0 days 0 hours 0 minutes 53 seconds 579 msec
