                         Program Version 4.2.0 -  RELEASE  -
|  1> # 12h2o.su.etal.mol0,1,2,3,4,5,7,11
|  2> ! MP2 def2-TZVP EnGrad TightSCF
|  3>
|  4> %pal
|  5>     nprocs 6
|  6> end
|  7>
|  8> %maxcore 8000
|  9>
| 10> %scf
| 11>     ConvForced true
| 12> end
| 13>
| 14> *xyz 0 1
| 15> O   1.794470000   0.923410000   2.768350000
| 16> H   2.338250000   1.359750000   3.430940000
| 17> H   0.879480000   1.303000000   2.865760000
| 18> O  -1.794470000  -0.923410000   2.768350000
| 19> H  -2.338250000  -1.359750000   3.430940000
| 20> H  -0.879480000  -1.303000000   2.865760000
| 21> O   0.923410000  -1.794470000  -2.768350000
| 22> H   1.359750000  -2.338250000  -3.430940000
| 23> H   1.303000000  -0.879480000  -2.865760000
| 24> O  -1.752130000  -0.741530000  -2.896280000
| 25> H  -2.036450000  -0.920500000  -1.984040000
| 26> H  -0.921210000  -1.242140000  -2.984230000
| 27> O  -0.885520000   1.737840000   0.052730000
| 28> H  -1.032320000   2.090180000  -0.841890000
| 29> H  -1.284090000   0.839590000   0.017130000
| 30> O   0.885520000  -1.737840000   0.052730000
| 31> H   1.284090000  -0.839590000   0.017130000
| 32> H   1.032320000  -2.090180000  -0.841890000
| 33> O  -1.737840000  -0.885520000  -0.052730000
| 34> H  -2.090180000  -1.032320000   0.841890000
| 35> H  -0.839590000  -1.284090000  -0.017130000
| 36> O  -0.741530000   1.752130000   2.896280000
| 37> H  -0.920500000   2.036450000   1.984040000
| 38> H  -1.242140000   0.921210000   2.984230000
| 39> *
| 40>
| 41>                          ****END OF INPUT****

CARTESIAN COORDINATES (ANGSTROEM)
---------------------------------
  O      1.794470    0.923410    2.768350
  H      2.338250    1.359750    3.430940
  H      0.879480    1.303000    2.865760
  O     -1.794470   -0.923410    2.768350
  H     -2.338250   -1.359750    3.430940
  H     -0.879480   -1.303000    2.865760
  O      0.923410   -1.794470   -2.768350
  H      1.359750   -2.338250   -3.430940
  H      1.303000   -0.879480   -2.865760
  O     -1.752130   -0.741530   -2.896280
  H     -2.036450   -0.920500   -1.984040
  H     -0.921210   -1.242140   -2.984230
  O     -0.885520    1.737840    0.052730
  H     -1.032320    2.090180   -0.841890
  H     -1.284090    0.839590    0.017130
  O      0.885520   -1.737840    0.052730
  H      1.284090   -0.839590    0.017130
  H      1.032320   -2.090180   -0.841890
  O     -1.737840   -0.885520   -0.052730
  H     -2.090180   -1.032320    0.841890
  H     -0.839590   -1.284090   -0.017130
  O     -0.741530    1.752130    2.896280
  H     -0.920500    2.036450    1.984040
  H     -1.242140    0.921210    2.984230

 Total Charge           Charge          ....    0
 Multiplicity           Mult            ....    1
 Number of Electrons    NEL             ....   80
 Basis Dimension        Dim             ....  344

ORBITAL ENERGIES
----------------

  NO   OCC          E(Eh)            E(eV)
   0   2.0000     -20.621468      -561.1387
   1   2.0000     -20.611909      -560.8786
   2   2.0000     -20.575464      -559.8868
   3   2.0000     -20.554527      -559.3171
   4   2.0000     -20.540818      -558.9441
   5   2.0000     -20.537093      -558.8427
   6   2.0000     -20.515384      -558.2520
   7   2.0000     -20.507359      -558.0336
   8   2.0000      -1.401944       -38.1488
   9   2.0000      -1.392542       -37.8930
  10   2.0000      -1.362009       -37.0622
  11   2.0000      -1.344463       -36.5847
  12   2.0000      -1.332227       -36.2518
  13   2.0000      -1.319498       -35.9054
  14   2.0000      -1.300486       -35.3880
  15   2.0000      -1.288393       -35.0590
  16   2.0000      -0.767353       -20.8807
  17   2.0000      -0.757744       -20.6193
  18   2.0000      -0.723127       -19.6773
  19   2.0000      -0.718992       -19.5648
  20   2.0000      -0.701714       -19.0946
  21   2.0000      -0.692345       -18.8397
  22   2.0000      -0.680625       -18.5207
  23   2.0000      -0.674278       -18.3480
  24   2.0000      -0.644770       -17.5451
  25   2.0000      -0.634663       -17.2701
  26   2.0000      -0.602585       -16.3972
  27   2.0000      -0.597582       -16.2610
  28   2.0000      -0.592093       -16.1117
  29   2.0000      -0.565142       -15.3783
  30   2.0000      -0.555799       -15.1241
  31   2.0000      -0.547127       -14.8881
  32   2.0000      -0.529315       -14.4034
  33   2.0000      -0.526798       -14.3349
  34   2.0000      -0.514776       -14.0078
  35   2.0000      -0.500403       -13.6167
  36   2.0000      -0.490475       -13.3465
  37   2.0000      -0.476656       -12.9705
  38   2.0000      -0.465069       -12.6552
  39   2.0000      -0.458267       -12.4701
  40   0.0000       0.087041         2.3685
  41   0.0000       0.105775         2.8783
  42   0.0000       0.145142         3.9495
  43   0.0000       0.166436         4.5290
  44   0.0000       0.175372         4.7721

MULLIKEN ATOMIC CHARGES
-----------------------
   0 O :   -0.744731
   1 H :    0.321256
   2 H :    0.370892
   3 O :   -0.725200
   4 H :    0.365287
   5 H :    0.386089
   6 O :   -0.716620
   7 H :    0.368328
   8 H :    0.371441
   9 O :   -0.724459
  10 H :    0.370617
  11 H :    0.339525
  12 O :   -0.737863
  13 H :    0.342987
  14 H :    0.360559
  15 O :   -0.706195
  16 H :    0.364191
  17 H :    0.376807
  18 O :   -0.746964
  19 H :    0.376946
  20 H :    0.360776
  21 O :   -0.717685
  22 H :    0.387302
  23 H :    0.356712
Sum of atomic charges:    0.0000000

LOEWDIN ATOMIC CHARGES
----------------------
   0 O :   -0.379622
   1 H :    0.146743
   2 H :    0.142035
   3 O :   -0.288488
   4 H :    0.168631
   5 H :    0.197504
   6 O :   -0.287571
   7 H :    0.169669
   8 H :    0.192510
   9 O :   -0.353949
  10 H :    0.149044
  11 H :    0.138833
  12 O :   -0.343899
  13 H :    0.164699
  14 H :    0.142365
  15 O :   -0.296632
  16 H :    0.179560
  17 H :    0.151921
  18 O :   -0.300563
  19 H :    0.149999
  20 H :    0.141994
  21 O :   -0.288698
  22 H :    0.158443
  23 H :    0.145473

  Mayer bond orders larger than 0.100000
B(  0-O ,  1-H ) :   0.8622 B(  0-O ,  2-H ) :   0.7648 B(  2-H , 21-O ) :   0.1061
B(  3-O ,  4-H ) :   0.8317 B(  3-O ,  5-H ) :   0.8081 B(  6-O ,  7-H ) :   0.8296
B(  6-O ,  8-H ) :   0.8199 B(  9-O , 10-H ) :   0.8199 B(  9-O , 11-H ) :   0.8388
B( 12-O , 13-H ) :   0.8458 B( 12-O , 14-H ) :   0.7710 B( 15-O , 16-H ) :   0.8249
B( 15-O , 17-H ) :   0.8076 B( 15-O , 20-H ) :   0.1025 B( 18-O , 19-H ) :   0.8079
B( 18-O , 20-H ) :   0.7636 B( 21-O , 22-H ) :   0.7980 B( 21-O , 23-H ) :   0.8200

MP2 TOTAL ENERGY:     -610.581748243 Eh
FINAL SINGLE POINT ENERGY      -610.581748243400

DIPOLE MOMENT
-------------
                                X             Y             Z
Electronic contribution:     -0.22323      -0.28460      -0.04262
Nuclear contribution   :      1.02285      -1.16559      -0.14168
                        -----------------------------------------
Total Dipole Moment    :      0.79962      -1.45018      -0.18431
                        -----------------------------------------
Magnitude (a.u.)       :      1.66625
Magnitude (Debye)      :      4.23528

Rotational constants in cm-1:     0.038967     0.017252     0.015796
Rotational constants in MHz :  1168.195126   517.200113   473.554909

                             ****ORCA TERMINATED NORMALLY****
TOTAL RUN TIME: 0 days 0 hours 3 minutes 11 seconds 879 msec
