                         Program Version 4.2.0 -  RELEASE  -
|  1> # 12h2o.su.etal.mol0,4,5,8,9,10
|  2> ! MP2 def2-TZVP EnGrad TightSCF
|  3>
|  4> %pal
|  5>     nprocs 6
|  6> end
|  7>
|  8> %maxcore 8000
|  9>
| 10> %scf
| 11>     ConvForced true
| 12> end
| 13>
| 14> *xyz 0 1
| 15> O   1.794470000   0.923410000   2.768350000
| 16> H   2.338250000   1.359750000   3.430940000
| 17> H   0.879480000   1.303000000   2.865760000
| 18> O  -0.885520000   1.737840000   0.052730000
| 19> H  -1.032320000   2.090180000  -0.841890000
| 20> H  -1.284090000   0.839590000   0.017130000
| 21> O   0.885520000  -1.737840000   0.052730000
| 22> H   1.284090000  -0.839590000   0.017130000
| 23> H   1.032320000  -2.090180000  -0.841890000
| 24> O   1.752130000   0.741530000  -2.896280000
| 25> H   2.036450000   0.920500000  -1.984040000
| 26> H   0.921210000   1.242140000  -2.984230000
| 27> O   0.741530000  -1.752130000   2.896280000
| 28> H   0.920500000  -2.036450000   1.984040000
| 29> H   1.242140000  -0.921210000   2.984230000
| 30> O  -0.923410000   1.794470000  -2.768350000
| 31> H  -1.359750000   2.338250000  -3.430940000
| 32> H  -1.303000000   0.879480000  -2.865760000
| 33> *
| 34>
| 35>                          ****END OF INPUT****

CARTESIAN COORDINATES (ANGSTROEM)
---------------------------------
  O      1.794470    0.923410    2.768350
  H      2.338250    1.359750    3.430940
  H      0.879480    1.303000    2.865760
  O     -0.885520    1.737840    0.052730
  H     -1.032320    2.090180   -0.841890
  H     -1.284090    0.839590    0.017130
  O      0.885520   -1.737840    0.052730
  H      1.284090   -0.839590    0.017130
  H      1.032320   -2.090180   -0.841890
  O      1.752130    0.741530   -2.896280
  H      2.036450    0.920500   -1.984040
  H      0.921210    1.242140   -2.984230
  O      0.741530   -1.752130    2.896280
  H      0.920500   -2.036450    1.984040
  H      1.242140   -0.921210    2.984230
  O     -0.923410    1.794470   -2.768350
  H     -1.359750    2.338250   -3.430940
  H     -1.303000    0.879480   -2.865760

 Total Charge           Charge          ....    0
 Multiplicity           Mult            ....    1
 Number of Electrons    NEL             ....   60
 Basis Dimension        Dim             ....  258

ORBITAL ENERGIES
----------------

  NO   OCC          E(Eh)            E(eV)
   0   2.0000     -20.625624      -561.2518
   1   2.0000     -20.577063      -559.9304
   2   2.0000     -20.575191      -559.8794
   3   2.0000     -20.552881      -559.2723
   4   2.0000     -20.551545      -559.2360
   5   2.0000     -20.496566      -557.7399
   6   2.0000      -1.405768       -38.2529
   7   2.0000      -1.354939       -36.8698
   8   2.0000      -1.353230       -36.8233
   9   2.0000      -1.333773       -36.2938
  10   2.0000      -1.331845       -36.2413
  11   2.0000      -1.281935       -34.8832
  12   2.0000      -0.771459       -20.9925
  13   2.0000      -0.721721       -19.6390
  14   2.0000      -0.715606       -19.4726
  15   2.0000      -0.705151       -19.1881
  16   2.0000      -0.702136       -19.1061
  17   2.0000      -0.660177       -17.9643
  18   2.0000      -0.641485       -17.4557
  19   2.0000      -0.601851       -16.3772
  20   2.0000      -0.593993       -16.1634
  21   2.0000      -0.584883       -15.9155
  22   2.0000      -0.567195       -15.4342
  23   2.0000      -0.549574       -14.9547
  24   2.0000      -0.533510       -14.5175
  25   2.0000      -0.518832       -14.1181
  26   2.0000      -0.503750       -13.7077
  27   2.0000      -0.498869       -13.5749
  28   2.0000      -0.497324       -13.5329
  29   2.0000      -0.446607       -12.1528
  30   0.0000       0.079000         2.1497
  31   0.0000       0.114468         3.1148
  32   0.0000       0.134621         3.6632
  33   0.0000       0.152950         4.1620
  34   0.0000       0.173845         4.7306

MULLIKEN ATOMIC CHARGES
-----------------------
   0 O :   -0.700626
   1 H :    0.349542
   2 H :    0.369535
   3 O :   -0.700304
   4 H :    0.363443
   5 H :    0.332272
   6 O :   -0.697951
   7 H :    0.349233
   8 H :    0.347892
   9 O :   -0.701762
  10 H :    0.331897
  11 H :    0.357881
  12 O :   -0.727057
  13 H :    0.363052
  14 H :    0.341057
  15 O :   -0.714009
  16 H :    0.367764
  17 H :    0.368142
Sum of atomic charges:   -0.0000000

LOEWDIN ATOMIC CHARGES
----------------------
   0 O :   -0.313403
   1 H :    0.162016
   2 H :    0.191002
   3 O :   -0.345403
   4 H :    0.147186
   5 H :    0.166353
   6 O :   -0.317666
   7 H :    0.172620
   8 H :    0.168430
   9 O :   -0.343232
  10 H :    0.159345
  11 H :    0.146679
  12 O :   -0.356838
  13 H :    0.148879
  14 H :    0.140292
  15 O :   -0.286792
  16 H :    0.169485
  17 H :    0.191045

  Mayer bond orders larger than 0.100000
B(  0-O ,  1-H ) :   0.8434 B(  0-O ,  2-H ) :   0.8230 B(  3-O ,  4-H ) :   0.8240
B(  3-O ,  5-H ) :   0.8499 B(  6-O ,  7-H ) :   0.8331 B(  6-O ,  8-H ) :   0.8419
B(  9-O , 10-H ) :   0.8545 B(  9-O , 11-H ) :   0.8231 B( 12-O , 13-H ) :   0.8297
B( 12-O , 14-H ) :   0.8310 B( 15-O , 16-H ) :   0.8296 B( 15-O , 17-H ) :   0.8221

MP2 TOTAL ENERGY:     -457.908579892 Eh
FINAL SINGLE POINT ENERGY      -457.908579891812

DIPOLE MOMENT
-------------
                                X             Y             Z
Electronic contribution:      0.01042       0.07463      -0.09039
Nuclear contribution   :     -0.87744       1.39079      -1.54856
                        -----------------------------------------
Total Dipole Moment    :     -0.86702       1.46542      -1.63895
                        -----------------------------------------
Magnitude (a.u.)       :      2.36333
Magnitude (Debye)      :      6.00711

Rotational constants in cm-1:     0.059567     0.021809     0.019648
Rotational constants in MHz :  1785.783996   653.815830   589.018693

                             ****ORCA TERMINATED NORMALLY****
TOTAL RUN TIME: 0 days 0 hours 1 minutes 1 seconds 36 msec
