                         Program Version 4.2.0 -  RELEASE  -
|  1> # 12h2o.su.etal.mol0,2,3,4,6,8,9,10
|  2> ! MP2 def2-TZVP EnGrad TightSCF
|  3>
|  4> %pal
|  5>     nprocs 6
|  6> end
|  7>
|  8> %maxcore 8000
|  9>
| 10> %scf
| 11>     ConvForced true
| 12> end
| 13>
| 14> *xyz 0 1
| 15> O   1.794470000   0.923410000   2.768350000
| 16> H   2.338250000   1.359750000   3.430940000
| 17> H   0.879480000   1.303000000   2.865760000
| 18> O   0.923410000  -1.794470000  -2.768350000
| 19> H   1.359750000  -2.338250000  -3.430940000
| 20> H   1.303000000  -0.879480000  -2.865760000
| 21> O  -1.752130000  -0.741530000  -2.896280000
| 22> H  -2.036450000  -0.920500000  -1.984040000
| 23> H  -0.921210000  -1.242140000  -2.984230000
| 24> O  -0.885520000   1.737840000   0.052730000
| 25> H  -1.032320000   2.090180000  -0.841890000
| 26> H  -1.284090000   0.839590000   0.017130000
| 27> O   1.737840000   0.885520000  -0.052730000
| 28> H   2.090180000   1.032320000   0.841890000
| 29> H   0.839590000   1.284090000  -0.017130000
| 30> O   1.752130000   0.741530000  -2.896280000
| 31> H   2.036450000   0.920500000  -1.984040000
| 32> H   0.921210000   1.242140000  -2.984230000
| 33> O   0.741530000  -1.752130000   2.896280000
| 34> H   0.920500000  -2.036450000   1.984040000
| 35> H   1.242140000  -0.921210000   2.984230000
| 36> O  -0.923410000   1.794470000  -2.768350000
| 37> H  -1.359750000   2.338250000  -3.430940000
| 38> H  -1.303000000   0.879480000  -2.865760000
| 39> *
| 40>
| 41>                          ****END OF INPUT****

CARTESIAN COORDINATES (ANGSTROEM)
---------------------------------
  O      1.794470    0.923410    2.768350
  H      2.338250    1.359750    3.430940
  H      0.879480    1.303000    2.865760
  O      0.923410   -1.794470   -2.768350
  H      1.359750   -2.338250   -3.430940
  H      1.303000   -0.879480   -2.865760
  O     -1.752130   -0.741530   -2.896280
  H     -2.036450   -0.920500   -1.984040
  H     -0.921210   -1.242140   -2.984230
  O     -0.885520    1.737840    0.052730
  H     -1.032320    2.090180   -0.841890
  H     -1.284090    0.839590    0.017130
  O      1.737840    0.885520   -0.052730
  H      2.090180    1.032320    0.841890
  H      0.839590    1.284090   -0.017130
  O      1.752130    0.741530   -2.896280
  H      2.036450    0.920500   -1.984040
  H      0.921210    1.242140   -2.984230
  O      0.741530   -1.752130    2.896280
  H      0.920500   -2.036450    1.984040
  H      1.242140   -0.921210    2.984230
  O     -0.923410    1.794470   -2.768350
  H     -1.359750    2.338250   -3.430940
  H     -1.303000    0.879480   -2.865760

 Total Charge           Charge          ....    0
 Multiplicity           Mult            ....    1
 Number of Electrons    NEL             ....   80
 Basis Dimension        Dim             ....  344

ORBITAL ENERGIES
----------------

  NO   OCC          E(Eh)            E(eV)
   0   2.0000     -20.608631      -560.7893
   1   2.0000     -20.582482      -560.0778
   2   2.0000     -20.578756      -559.9764
   3   2.0000     -20.576595      -559.9176
   4   2.0000     -20.539132      -558.8982
   5   2.0000     -20.538980      -558.8941
   6   2.0000     -20.532353      -558.7137
   7   2.0000     -20.529247      -558.6292
   8   2.0000      -1.388822       -37.7918
   9   2.0000      -1.378939       -37.5228
  10   2.0000      -1.364940       -37.1419
  11   2.0000      -1.354687       -36.8629
  12   2.0000      -1.337297       -36.3897
  13   2.0000      -1.318126       -35.8680
  14   2.0000      -1.314852       -35.7789
  15   2.0000      -1.311638       -35.6915
  16   2.0000      -0.754388       -20.5280
  17   2.0000      -0.742523       -20.2051
  18   2.0000      -0.732984       -19.9455
  19   2.0000      -0.725167       -19.7328
  20   2.0000      -0.702727       -19.1222
  21   2.0000      -0.701312       -19.0837
  22   2.0000      -0.691507       -18.8169
  23   2.0000      -0.685694       -18.6587
  24   2.0000      -0.638341       -17.3701
  25   2.0000      -0.627914       -17.0864
  26   2.0000      -0.607510       -16.5312
  27   2.0000      -0.592814       -16.1313
  28   2.0000      -0.590891       -16.0790
  29   2.0000      -0.575888       -15.6707
  30   2.0000      -0.559368       -15.2212
  31   2.0000      -0.544409       -14.8141
  32   2.0000      -0.533270       -14.5110
  33   2.0000      -0.524673       -14.2771
  34   2.0000      -0.521564       -14.1925
  35   2.0000      -0.512776       -13.9533
  36   2.0000      -0.490247       -13.3403
  37   2.0000      -0.486220       -13.2307
  38   2.0000      -0.480604       -13.0779
  39   2.0000      -0.478783       -13.0283
  40   0.0000       0.089609         2.4384
  41   0.0000       0.110145         2.9972
  42   0.0000       0.141745         3.8571
  43   0.0000       0.157338         4.2814
  44   0.0000       0.172102         4.6831

MULLIKEN ATOMIC CHARGES
-----------------------
   0 O :   -0.713789
   1 H :    0.362240
   2 H :    0.375723
   3 O :   -0.747145
   4 H :    0.338509
   5 H :    0.385821
   6 O :   -0.704153
   7 H :    0.344437
   8 H :    0.385004
   9 O :   -0.697996
  10 H :    0.383918
  11 H :    0.336747
  12 O :   -0.745172
  13 H :    0.363823
  14 H :    0.346738
  15 O :   -0.726891
  16 H :    0.389600
  17 H :    0.361618
  18 O :   -0.709440
  19 H :    0.337771
  20 H :    0.355255
  21 O :   -0.758367
  22 H :    0.354551
  23 H :    0.381197
Sum of atomic charges:    0.0000000

LOEWDIN ATOMIC CHARGES
----------------------
   0 O :   -0.286701
   1 H :    0.167035
   2 H :    0.193491
   3 O :   -0.342584
   4 H :    0.154443
   5 H :    0.146187
   6 O :   -0.280114
   7 H :    0.165582
   8 H :    0.157267
   9 O :   -0.299772
  10 H :    0.154079
  11 H :    0.168496
  12 O :   -0.347904
  13 H :    0.146622
  14 H :    0.138671
  15 O :   -0.290265
  16 H :    0.158246
  17 H :    0.146345
  18 O :   -0.348916
  19 H :    0.163461
  20 H :    0.145368
  21 O :   -0.315475
  22 H :    0.160931
  23 H :    0.145508

  Mayer bond orders larger than 0.100000
B(  0-O ,  1-H ) :   0.8332 B(  0-O ,  2-H ) :   0.8173 B(  3-O ,  4-H ) :   0.8495
B(  3-O ,  5-H ) :   0.7375 B(  5-H , 15-O ) :   0.1178 B(  6-O ,  7-H ) :   0.8452
B(  6-O ,  8-H ) :   0.7690 B(  6-O , 23-H ) :   0.1148 B(  9-O , 10-H ) :   0.7944
B(  9-O , 11-H ) :   0.8456 B( 12-O , 13-H ) :   0.8225 B( 12-O , 14-H ) :   0.7838
B( 15-O , 16-H ) :   0.7932 B( 15-O , 17-H ) :   0.8088 B( 18-O , 19-H ) :   0.8520
B( 18-O , 20-H ) :   0.8256 B( 21-O , 22-H ) :   0.8385 B( 21-O , 23-H ) :   0.7330

MP2 TOTAL ENERGY:     -610.590741503 Eh
FINAL SINGLE POINT ENERGY      -610.590741502757

DIPOLE MOMENT
-------------
                                X             Y             Z
Electronic contribution:      0.05048       0.07116       0.09917
Nuclear contribution   :     -0.65166       1.13367       0.05351
                        -----------------------------------------
Total Dipole Moment    :     -0.60118       1.20482       0.15268
                        -----------------------------------------
Magnitude (a.u.)       :      1.35511
Magnitude (Debye)      :      3.44443

Rotational constants in cm-1:     0.035536     0.016035     0.015005
Rotational constants in MHz :  1065.327960   480.724115   449.824610

                             ****ORCA TERMINATED NORMALLY****
TOTAL RUN TIME: 0 days 0 hours 2 minutes 55 seconds 72 msec
