                         Program Version 4.2.0 -  RELEASE  -
|  1> # 12h2o.su.etal.mol1,4,5,6,10
|  2> ! MP2 def2-TZVP EnGrad TightSCF
|  3>
|  4> %pal
|  5>     nprocs 6
|  6> end
|  7>
|  8> %maxcore 8000
|  9>
| 10> %scf
| 11>     ConvForced true
| 12> end
| 13>
| 14> *xyz 0 1
| 15> O  -1.794470000  -0.923410000   2.768350000
| 16> H  -2.338250000  -1.359750000   3.430940000
| 17> H  -0.879480000  -1.303000000   2.865760000
| 18> O  -0.885520000   1.737840000   0.052730000
| 19> H  -1.032320000   2.090180000  -0.841890000
| 20> H  -1.284090000   0.839590000   0.017130000
| 21> O   0.885520000  -1.737840000   0.052730000
| 22> H   1.284090000  -0.839590000   0.017130000
| 23> H   1.032320000  -2.090180000  -0.841890000
| 24> O   1.737840000   0.885520000  -0.052730000
| 25> H   2.090180000   1.032320000   0.841890000
| 26> H   0.839590000   1.284090000  -0.017130000
| 27> O  -0.923410000   1.794470000  -2.768350000
| 28> H  -1.359750000   2.338250000  -3.430940000
| 29> H  -1.303000000   0.879480000  -2.865760000
| 30> *
| 31>
| 32>                          ****END OF INPUT****

CARTESIAN COORDINATES (ANGSTROEM)
---------------------------------
  O     -1.794470   -0.923410    2.768350
  H     -2.338250   -1.359750    3.430940
  H     -0.879480   -1.303000    2.865760
  O     -0.885520    1.737840    0.052730
  H     -1.032320    2.090180   -0.841890
  H     -1.284090    0.839590    0.017130
  O      0.885520   -1.737840    0.052730
  H      1.284090   -0.839590    0.017130
  H      1.032320   -2.090180   -0.841890
  O      1.737840    0.885520   -0.052730
  H      2.090180    1.032320    0.841890
  H      0.839590    1.284090   -0.017130
  O     -0.923410    1.794470   -2.768350
  H     -1.359750    2.338250   -3.430940
  H     -1.303000    0.879480   -2.865760

 Total Charge           Charge          ....    0
 Multiplicity           Mult            ....    1
 Number of Electrons    NEL             ....   50
 Basis Dimension        Dim             ....  215

ORBITAL ENERGIES
----------------

  NO   OCC          E(Eh)            E(eV)
   0   2.0000     -20.597019      -560.4734
   1   2.0000     -20.559126      -559.4423
   2   2.0000     -20.552325      -559.2572
   3   2.0000     -20.544804      -559.0525
   4   2.0000     -20.521694      -558.4237
   5   2.0000      -1.375259       -37.4227
   6   2.0000      -1.345641       -36.6168
   7   2.0000      -1.328095       -36.1393
   8   2.0000      -1.327672       -36.1278
   9   2.0000      -1.301489       -35.4153
  10   2.0000      -0.741833       -20.1863
  11   2.0000      -0.706023       -19.2119
  12   2.0000      -0.697554       -18.9814
  13   2.0000      -0.695772       -18.9329
  14   2.0000      -0.675769       -18.3886
  15   2.0000      -0.616973       -16.7887
  16   2.0000      -0.592214       -16.1150
  17   2.0000      -0.571348       -15.5472
  18   2.0000      -0.564490       -15.3605
  19   2.0000      -0.548150       -14.9159
  20   2.0000      -0.534604       -14.5473
  21   2.0000      -0.499412       -13.5897
  22   2.0000      -0.495624       -13.4866
  23   2.0000      -0.486148       -13.2288
  24   2.0000      -0.470072       -12.7913
  25   0.0000       0.097101         2.6423
  26   0.0000       0.129430         3.5220
  27   0.0000       0.154816         4.2127
  28   0.0000       0.168274         4.5790
  29   0.0000       0.187274         5.0960

MULLIKEN ATOMIC CHARGES
-----------------------
   0 O :   -0.688570
   1 H :    0.334844
   2 H :    0.353722
   3 O :   -0.702844
   4 H :    0.375610
   5 H :    0.354386
   6 O :   -0.723665
   7 H :    0.353934
   8 H :    0.323425
   9 O :   -0.715019
  10 H :    0.342671
  11 H :    0.375882
  12 O :   -0.693609
  13 H :    0.354561
  14 H :    0.354671
Sum of atomic charges:   -0.0000000

LOEWDIN ATOMIC CHARGES
----------------------
   0 O :   -0.340962
   1 H :    0.156274
   2 H :    0.184622
   3 O :   -0.296029
   4 H :    0.152198
   5 H :    0.175409
   6 O :   -0.368063
   7 H :    0.140317
   8 H :    0.156007
   9 O :   -0.312232
  10 H :    0.164072
  11 H :    0.146845
  12 O :   -0.308980
  13 H :    0.164637
  14 H :    0.185886

  Mayer bond orders larger than 0.100000
B(  0-O ,  1-H ) :   0.8550 B(  0-O ,  2-H ) :   0.8368 B(  3-O ,  4-H ) :   0.8053
B(  3-O ,  5-H ) :   0.8318 B(  6-O ,  7-H ) :   0.7839 B(  6-O ,  8-H ) :   0.8610
B(  7-H ,  9-O ) :   0.1033 B(  9-O , 10-H ) :   0.8465 B(  9-O , 11-H ) :   0.7690
B( 12-O , 13-H ) :   0.8405 B( 12-O , 14-H ) :   0.8342

MP2 TOTAL ENERGY:     -381.594272474 Eh
FINAL SINGLE POINT ENERGY      -381.594272474457

DIPOLE MOMENT
-------------
                                X             Y             Z
Electronic contribution:     -0.07011       0.47686      -0.08241
Nuclear contribution   :     -0.82456      -0.53418      -0.77428
                        -----------------------------------------
Total Dipole Moment    :     -0.89467      -0.05732      -0.85668
                        -----------------------------------------
Magnitude (a.u.)       :      1.24001
Magnitude (Debye)      :      3.15187

Rotational constants in cm-1:     0.069627     0.036925     0.030089
Rotational constants in MHz :  2087.361938  1106.969392   902.049545

                             ****ORCA TERMINATED NORMALLY****
TOTAL RUN TIME: 0 days 0 hours 0 minutes 35 seconds 721 msec
