                         Program Version 4.2.0 -  RELEASE  -
|  1> # 12meoh.boyd.etal.mol1,6,10
|  2> ! MP2 def2-TZVP EnGrad TightSCF
|  3>
|  4> %pal
|  5>     nprocs 6
|  6> end
|  7>
|  8> %maxcore 8000
|  9>
| 10> %scf
| 11>     ConvForced true
| 12> end
| 13>
| 14> *xyz 0 1
| 15> O   0.666045193  -2.600503172   0.138317521
| 16> H  -0.227115049  -2.712051982  -0.281868004
| 17> C   0.490021232  -1.851247678   1.341189459
| 18> H   1.466500502  -1.466176022   1.645844415
| 19> H   0.097564527  -2.488364683   2.146902740
| 20> H  -0.187588112  -1.000787499   1.200739571
| 21> O   2.622209273  -1.703002590  -1.445859723
| 22> H   1.828551432  -1.986513781  -0.909754968
| 23> C   2.781117675  -2.615822239  -2.525472890
| 24> H   3.691063626  -2.339003544  -3.065143454
| 25> H   1.934727323  -2.559520367  -3.223226661
| 26> H   2.879948338  -3.653846211  -2.177750170
| 27> O  -5.201143618   0.064582726  -0.172223772
| 28> H  -4.686891530   0.869258890   0.107806143
| 29> C  -6.513192168   0.171391798   0.359883449
| 30> H  -7.049381312  -0.749234190   0.111361174
| 31> H  -7.057741163   1.017801101  -0.081819420
| 32> H  -6.514770575   0.292264928   1.453058834
| 33> *
| 34>
| 35>                          ****END OF INPUT****

CARTESIAN COORDINATES (ANGSTROEM)
---------------------------------
  O      0.666045   -2.600503    0.138318
  H     -0.227115   -2.712052   -0.281868
  C      0.490021   -1.851248    1.341189
  H      1.466501   -1.466176    1.645844
  H      0.097565   -2.488365    2.146903
  H     -0.187588   -1.000787    1.200740
  O      2.622209   -1.703003   -1.445860
  H      1.828551   -1.986514   -0.909755
  C      2.781118   -2.615822   -2.525473
  H      3.691064   -2.339004   -3.065143
  H      1.934727   -2.559520   -3.223227
  H      2.879948   -3.653846   -2.177750
  O     -5.201144    0.064583   -0.172224
  H     -4.686892    0.869259    0.107806
  C     -6.513192    0.171392    0.359883
  H     -7.049381   -0.749234    0.111361
  H     -7.057741    1.017801   -0.081819
  H     -6.514771    0.292265    1.453059

 Total Charge           Charge          ....    0
 Multiplicity           Mult            ....    1
 Number of Electrons    NEL             ....   54
 Basis Dimension        Dim             ....  258

ORBITAL ENERGIES
----------------

  NO   OCC          E(Eh)            E(eV)
   0   2.0000     -20.588003      -560.2281
   1   2.0000     -20.564458      -559.5873
   2   2.0000     -20.509647      -558.0959
   3   2.0000     -11.287869      -307.1585
   4   2.0000     -11.277086      -306.8651
   5   2.0000     -11.245981      -306.0187
   6   2.0000      -1.380298       -37.5598
   7   2.0000      -1.354486       -36.8574
   8   2.0000      -1.305879       -35.5348
   9   2.0000      -0.939906       -25.5762
  10   2.0000      -0.925125       -25.1739
  11   2.0000      -0.892353       -24.2822
  12   2.0000      -0.713898       -19.4262
  13   2.0000      -0.688782       -18.7427
  14   2.0000      -0.669384       -18.2149
  15   2.0000      -0.632071       -17.1995
  16   2.0000      -0.622893       -16.9498
  17   2.0000      -0.606155       -16.4943
  18   2.0000      -0.597943       -16.2708
  19   2.0000      -0.587084       -15.9754
  20   2.0000      -0.557959       -15.1828
  21   2.0000      -0.526958       -14.3393
  22   2.0000      -0.506203       -13.7745
  23   2.0000      -0.485274       -13.2050
  24   2.0000      -0.455078       -12.3833
  25   2.0000      -0.453049       -12.3281
  26   2.0000      -0.412727       -11.2309
  27   0.0000       0.116774         3.1776
  28   0.0000       0.130355         3.5471
  29   0.0000       0.159931         4.3519
  30   0.0000       0.171112         4.6562
  31   0.0000       0.183412         4.9909

MULLIKEN ATOMIC CHARGES
-----------------------
   0 O :   -0.516352
   1 H :    0.343129
   2 C :   -0.185574
   3 H :    0.151399
   4 H :    0.125221
   5 H :    0.124660
   6 O :   -0.534921
   7 H :    0.343597
   8 C :   -0.164771
   9 H :    0.119901
  10 H :    0.091964
  11 H :    0.101716
  12 O :   -0.500075
  13 H :    0.322183
  14 C :   -0.172603
  15 H :    0.129839
  16 H :    0.111215
  17 H :    0.109472
Sum of atomic charges:    0.0000000

LOEWDIN ATOMIC CHARGES
----------------------
   0 O :   -0.077087
   1 H :    0.198762
   2 C :   -0.366440
   3 H :    0.117227
   4 H :    0.104083
   5 H :    0.101861
   6 O :   -0.128627
   7 H :    0.159401
   8 C :   -0.396249
   9 H :    0.105373
  10 H :    0.089161
  11 H :    0.092518
  12 O :   -0.108829
  13 H :    0.190941
  14 C :   -0.384320
  15 H :    0.110663
  16 H :    0.096044
  17 H :    0.095517

  Mayer bond orders larger than 0.100000
B(  0-O ,  1-H ) :   0.8274 B(  0-O ,  2-C ) :   0.8707 B(  2-C ,  3-H ) :   0.9385
B(  2-C ,  4-H ) :   0.9336 B(  2-C ,  5-H ) :   0.9404 B(  6-O ,  7-H ) :   0.7867
B(  6-O ,  8-C ) :   0.9448 B(  8-C ,  9-H ) :   0.9415 B(  8-C , 10-H ) :   0.9414
B(  8-C , 11-H ) :   0.9370 B( 12-O , 13-H ) :   0.8418 B( 12-O , 14-C ) :   0.9244
B( 14-C , 15-H ) :   0.9374 B( 14-C , 16-H ) :   0.9393 B( 14-C , 17-H ) :   0.9385

MP2 TOTAL ENERGY:     -346.528714517 Eh
FINAL SINGLE POINT ENERGY      -346.528714517235

DIPOLE MOMENT
-------------
                                X             Y             Z
Electronic contribution:      1.64243       0.00190      -0.53665
Nuclear contribution   :     -3.18309       0.22730       1.40655
                        -----------------------------------------
Total Dipole Moment    :     -1.54067       0.22920       0.86991
                        -----------------------------------------
Magnitude (a.u.)       :      1.78408
Magnitude (Debye)      :      4.53476

Rotational constants in cm-1:     0.118556     0.011630     0.010888
Rotational constants in MHz :  3554.224885   348.669839   326.416951

                             ****ORCA TERMINATED NORMALLY****
TOTAL RUN TIME: 0 days 0 hours 0 minutes 59 seconds 861 msec
