                         Program Version 4.2.0 -  RELEASE  -
|  1> ! MP2 def2-TZVP EnGrad TightSCF FrozenCore
|  2>
|  3> %pal
|  4>     nprocs 8
|  5> end
|  6>
|  7> %maxcore 8000
|  8>
|  9> %scf
| 10>     ConvForced true
| 11> end
| 12>
| 13> *xyz 0 1
| 14> O          0.00000        0.00000        0.00000
| 15> H          0.99710        0.00000        0.00000
| 16> H         -0.24802        0.00000       -0.93279
| 17> O          0.65718       -0.31907        3.71416
| 18> H          0.32745        0.52493        3.35043
| 19> H          0.12008       -0.98184        3.23773
| 20> O          2.66731       -0.01739        0.15307
| 21> H          3.10808        0.83601        0.05400
| 22> H          2.89932       -0.30389        1.07403
| 23> O          3.14855       -0.65715        2.72175
| 24> H          3.47669       -1.51912        3.00422
| 25> H          2.26675       -0.55520        3.16526
| 26> O         -0.24614        1.86994        2.10595
| 27> H         -1.07264        2.36274        2.17451
| 28> H         -0.32395        1.34925        1.28258
| 29> O         -0.65445       -2.02302        1.86721
| 30> H         -0.53959       -1.41295        1.11086
| 31> H         -1.57731       -2.30182        1.83192
| 32> *
| 33>
| 34>
| 35>                          ****END OF INPUT****

CARTESIAN COORDINATES (ANGSTROEM)
---------------------------------
  O      0.000000    0.000000    0.000000
  H      0.997100    0.000000    0.000000
  H     -0.248020    0.000000   -0.932790
  O      0.657180   -0.319070    3.714160
  H      0.327450    0.524930    3.350430
  H      0.120080   -0.981840    3.237730
  O      2.667310   -0.017390    0.153070
  H      3.108080    0.836010    0.054000
  H      2.899320   -0.303890    1.074030
  O      3.148550   -0.657150    2.721750
  H      3.476690   -1.519120    3.004220
  H      2.266750   -0.555200    3.165260
  O     -0.246140    1.869940    2.105950
  H     -1.072640    2.362740    2.174510
  H     -0.323950    1.349250    1.282580
  O     -0.654450   -2.023020    1.867210
  H     -0.539590   -1.412950    1.110860
  H     -1.577310   -2.301820    1.831920

 Total Charge           Charge          ....    0
 Multiplicity           Mult            ....    1
 Number of Electrons    NEL             ....   60
 Basis Dimension        Dim             ....  258

ORBITAL ENERGIES
----------------

  NO   OCC          E(Eh)            E(eV)
   0   2.0000     -20.574874      -559.8708
   1   2.0000     -20.559053      -559.4403
   2   2.0000     -20.558160      -559.4160
   3   2.0000     -20.555509      -559.3438
   4   2.0000     -20.543656      -559.0213
   5   2.0000     -20.530342      -558.6590
   6   2.0000      -1.368207       -37.2308
   7   2.0000      -1.346503       -36.6402
   8   2.0000      -1.344784       -36.5934
   9   2.0000      -1.343501       -36.5585
  10   2.0000      -1.328066       -36.1385
  11   2.0000      -1.312203       -35.7069
  12   2.0000      -0.738299       -20.0901
  13   2.0000      -0.717403       -19.5215
  14   2.0000      -0.715635       -19.4734
  15   2.0000      -0.713345       -19.4111
  16   2.0000      -0.700810       -19.0700
  17   2.0000      -0.686640       -18.6844
  18   2.0000      -0.627385       -17.0720
  19   2.0000      -0.608913       -16.5694
  20   2.0000      -0.582239       -15.8435
  21   2.0000      -0.578941       -15.7538
  22   2.0000      -0.567352       -15.4384
  23   2.0000      -0.543799       -14.7975
  24   2.0000      -0.523289       -14.2394
  25   2.0000      -0.505071       -13.7437
  26   2.0000      -0.503856       -13.7106
  27   2.0000      -0.501779       -13.6541
  28   2.0000      -0.493215       -13.4211
  29   2.0000      -0.477519       -12.9940
  30   0.0000       0.111581         3.0363
  31   0.0000       0.151434         4.1207
  32   0.0000       0.153707         4.1826
  33   0.0000       0.155508         4.2316
  34   0.0000       0.177831         4.8390

MULLIKEN ATOMIC CHARGES
-----------------------
   0 O :   -0.758516
   1 H :    0.409058
   2 H :    0.350524
   3 O :   -0.745432
   4 H :    0.381511
   5 H :    0.375188
   6 O :   -0.737937
   7 H :    0.347668
   8 H :    0.399734
   9 O :   -0.740334
  10 H :    0.343441
  11 H :    0.395986
  12 O :   -0.711857
  13 H :    0.338740
  14 H :    0.360926
  15 O :   -0.714013
  16 H :    0.366513
  17 H :    0.338798
Sum of atomic charges:   -0.0000000

LOEWDIN ATOMIC CHARGES
----------------------
   0 O :   -0.310630
   1 H :    0.154618
   2 H :    0.161409
   3 O :   -0.306197
   4 H :    0.153025
   5 H :    0.149207
   6 O :   -0.304871
   7 H :    0.162486
   8 H :    0.153842
   9 O :   -0.312752
  10 H :    0.159925
  11 H :    0.152542
  12 O :   -0.315923
  13 H :    0.159934
  14 H :    0.149445
  15 O :   -0.315460
  16 H :    0.149907
  17 H :    0.159491

  Mayer bond orders larger than 0.100000
B(  0-O ,  1-H ) :   0.7186 B(  0-O ,  2-H ) :   0.8414 B(  1-H ,  6-O ) :   0.1157
B(  3-O ,  4-H ) :   0.7988 B(  3-O ,  5-H ) :   0.7964 B(  3-O , 11-H ) :   0.1094
B(  6-O ,  7-H ) :   0.8435 B(  6-O ,  8-H ) :   0.7379 B(  8-H ,  9-O ) :   0.1121
B(  9-O , 10-H ) :   0.8455 B(  9-O , 11-H ) :   0.7407 B( 12-O , 13-H ) :   0.8493
B( 12-O , 14-H ) :   0.7970 B( 15-O , 16-H ) :   0.7927 B( 15-O , 17-H ) :   0.8494

MP2 TOTAL ENERGY:     -457.958520355 Eh
FINAL SINGLE POINT ENERGY      -457.958520355147

DIPOLE MOMENT
-------------
                                X             Y             Z
Electronic contribution:      0.28734      -0.03592       0.18367
Nuclear contribution   :     -1.42412       0.24262      -1.47455
                        -----------------------------------------
Total Dipole Moment    :     -1.13678       0.20670      -1.29089
                        -----------------------------------------
Magnitude (a.u.)       :      1.73245
Magnitude (Debye)      :      4.40354

Rotational constants in cm-1:     0.050066     0.044558     0.038691
Rotational constants in MHz :  1500.945877  1335.822641  1159.925083

                             ****ORCA TERMINATED NORMALLY****
TOTAL RUN TIME: 0 days 0 hours 1 minutes 8 seconds 818 msec
