                         Program Version 4.2.0 -  RELEASE  -
|  1> # 12mecn.remya.etal.2.mol0,1,9
|  2> ! MP2 def2-TZVP EnGrad TightSCF
|  3>
|  4> %pal
|  5>     nprocs 6
|  6> end
|  7>
|  8> %maxcore 8000
|  9>
| 10> %scf
| 11>     ConvForced true
| 12> end
| 13>
| 14> *xyz 0 1
| 15> C  -0.869520000  -3.929380000   1.700199000
| 16> H  -0.057420000  -3.268850000   2.015352000
| 17> H  -0.697530000  -4.930670000   2.101524000
| 18> H  -1.821490000  -3.546590000   2.077146000
| 19> C  -0.916080000  -3.969960000   0.256749000
| 20> N  -0.955390000  -3.995980000  -0.909290000
| 21> C  -4.697980000  -0.249690000   1.746215000
| 22> H  -4.927570000   0.755530000   2.111799000
| 23> H  -3.709180000  -0.561560000   2.093253000
| 24> H  -5.432280000  -0.961520000   2.128066000
| 25> C  -4.714100000  -0.247110000   0.301670000
| 26> N  -4.729750000  -0.234960000  -0.865260000
| 27> C   0.923766000   4.000693000  -1.575910000
| 28> H   0.011949000   4.478423000  -1.939550000
| 29> H   0.947903000   2.966558000  -1.929960000
| 30> H   1.805950000   4.519548000  -1.956520000
| 31> C   0.942834000   3.994846000  -0.131200000
| 32> N   0.960035000   3.982544000   1.035639000
| 33> *
| 34>
| 35>                          ****END OF INPUT****

CARTESIAN COORDINATES (ANGSTROEM)
---------------------------------
  C     -0.869520   -3.929380    1.700199
  H     -0.057420   -3.268850    2.015352
  H     -0.697530   -4.930670    2.101524
  H     -1.821490   -3.546590    2.077146
  C     -0.916080   -3.969960    0.256749
  N     -0.955390   -3.995980   -0.909290
  C     -4.697980   -0.249690    1.746215
  H     -4.927570    0.755530    2.111799
  H     -3.709180   -0.561560    2.093253
  H     -5.432280   -0.961520    2.128066
  C     -4.714100   -0.247110    0.301670
  N     -4.729750   -0.234960   -0.865260
  C      0.923766    4.000693   -1.575910
  H      0.011949    4.478423   -1.939550
  H      0.947903    2.966558   -1.929960
  H      1.805950    4.519548   -1.956520
  C      0.942834    3.994846   -0.131200
  N      0.960035    3.982544    1.035639

 Total Charge           Charge          ....    0
 Multiplicity           Mult            ....    1
 Number of Electrons    NEL             ....   66
 Basis Dimension        Dim             ....  333

ORBITAL ENERGIES
----------------

  NO   OCC          E(Eh)            E(eV)
   0   2.0000     -15.573571      -423.7784
   1   2.0000     -15.573416      -423.7742
   2   2.0000     -15.573102      -423.7656
   3   2.0000     -11.287477      -307.1479
   4   2.0000     -11.286908      -307.1324
   5   2.0000     -11.282661      -307.0168
   6   2.0000     -11.280630      -306.9616
   7   2.0000     -11.279876      -306.9410
   8   2.0000     -11.279867      -306.9408
   9   2.0000      -1.214628       -33.0517
  10   2.0000      -1.214385       -33.0451
  11   2.0000      -1.214231       -33.0409
  12   2.0000      -1.046216       -28.4690
  13   2.0000      -1.045730       -28.4558
  14   2.0000      -1.042808       -28.3763
  15   2.0000      -0.701920       -19.1002
  16   2.0000      -0.701481       -19.0883
  17   2.0000      -0.699097       -19.0234
  18   2.0000      -0.636401       -17.3174
  19   2.0000      -0.634826       -17.2745
  20   2.0000      -0.633976       -17.2514
  21   2.0000      -0.632287       -17.2054
  22   2.0000      -0.631852       -17.1936
  23   2.0000      -0.628218       -17.0947
  24   2.0000      -0.556459       -15.1420
  25   2.0000      -0.555591       -15.1184
  26   2.0000      -0.555471       -15.1151
  27   2.0000      -0.458115       -12.4659
  28   2.0000      -0.458085       -12.4651
  29   2.0000      -0.457589       -12.4516
  30   2.0000      -0.457401       -12.4465
  31   2.0000      -0.457257       -12.4426
  32   2.0000      -0.456805       -12.4303
  33   0.0000       0.094076         2.5599
  34   0.0000       0.121739         3.3127
  35   0.0000       0.133178         3.6240
  36   0.0000       0.163176         4.4402
  37   0.0000       0.169371         4.6088

MULLIKEN ATOMIC CHARGES
-----------------------
   0 C :   -0.279908
   1 H :    0.174815
   2 H :    0.174345
   3 H :    0.162260
   4 C :   -0.144608
   5 N :   -0.086898
   6 C :   -0.280272
   7 H :    0.176256
   8 H :    0.164570
   9 H :    0.172137
  10 C :   -0.144342
  11 N :   -0.088356
  12 C :   -0.277746
  13 H :    0.173655
  14 H :    0.176041
  15 H :    0.171338
  16 C :   -0.145670
  17 N :   -0.097617
Sum of atomic charges:    0.0000000

LOEWDIN ATOMIC CHARGES
----------------------
   0 C :   -0.284559
   1 H :    0.153192
   2 H :    0.151947
   3 H :    0.149525
   4 C :   -0.220679
   5 N :    0.050583
   6 C :   -0.284445
   7 H :    0.154039
   8 H :    0.150174
   9 H :    0.151106
  10 C :   -0.220443
  11 N :    0.049560
  12 C :   -0.282267
  13 H :    0.152420
  14 H :    0.154973
  15 H :    0.151886
  16 C :   -0.218593
  17 N :    0.041580

  Mayer bond orders larger than 0.100000
B(  0-C ,  1-H ) :   0.9167 B(  0-C ,  2-H ) :   0.9168 B(  0-C ,  3-H ) :   0.9191
B(  0-C ,  4-C ) :   0.9005 B(  4-C ,  5-N ) :   2.8318 B(  6-C ,  7-H ) :   0.9152
B(  6-C ,  8-H ) :   0.9187 B(  6-C ,  9-H ) :   0.9179 B(  6-C , 10-C ) :   0.9007
B( 10-C , 11-N ) :   2.8327 B( 12-C , 13-H ) :   0.9154 B( 12-C , 14-H ) :   0.9156
B( 12-C , 15-H ) :   0.9164 B( 12-C , 16-C ) :   0.9018 B( 16-C , 17-N ) :   2.8404

MP2 TOTAL ENERGY:     -397.449267255 Eh
FINAL SINGLE POINT ENERGY      -397.449267254846

DIPOLE MOMENT
-------------
                                X             Y             Z
Electronic contribution:     -0.10997      -0.06077      -3.19060
Nuclear contribution   :      0.15861       0.09100       4.63394
                        -----------------------------------------
Total Dipole Moment    :      0.04863       0.03022       1.44334
                        -----------------------------------------
Magnitude (a.u.)       :      1.44448
Magnitude (Debye)      :      3.67156

Rotational constants in cm-1:     0.024133     0.010372     0.008393
Rotational constants in MHz :   723.479261   310.943317   251.617599

                             ****ORCA TERMINATED NORMALLY****
TOTAL RUN TIME: 0 days 0 hours 2 minutes 1 seconds 996 msec
