                         Program Version 4.2.0 -  RELEASE  -
|  1> # 12h2o.su.etal.mol0,2,3,5,6,8,9,10
|  2> ! MP2 def2-TZVP EnGrad TightSCF
|  3>
|  4> %pal
|  5>     nprocs 6
|  6> end
|  7>
|  8> %maxcore 8000
|  9>
| 10> %scf
| 11>     ConvForced true
| 12> end
| 13>
| 14> *xyz 0 1
| 15> O   1.794470000   0.923410000   2.768350000
| 16> H   2.338250000   1.359750000   3.430940000
| 17> H   0.879480000   1.303000000   2.865760000
| 18> O   0.923410000  -1.794470000  -2.768350000
| 19> H   1.359750000  -2.338250000  -3.430940000
| 20> H   1.303000000  -0.879480000  -2.865760000
| 21> O  -1.752130000  -0.741530000  -2.896280000
| 22> H  -2.036450000  -0.920500000  -1.984040000
| 23> H  -0.921210000  -1.242140000  -2.984230000
| 24> O   0.885520000  -1.737840000   0.052730000
| 25> H   1.284090000  -0.839590000   0.017130000
| 26> H   1.032320000  -2.090180000  -0.841890000
| 27> O   1.737840000   0.885520000  -0.052730000
| 28> H   2.090180000   1.032320000   0.841890000
| 29> H   0.839590000   1.284090000  -0.017130000
| 30> O   1.752130000   0.741530000  -2.896280000
| 31> H   2.036450000   0.920500000  -1.984040000
| 32> H   0.921210000   1.242140000  -2.984230000
| 33> O   0.741530000  -1.752130000   2.896280000
| 34> H   0.920500000  -2.036450000   1.984040000
| 35> H   1.242140000  -0.921210000   2.984230000
| 36> O  -0.923410000   1.794470000  -2.768350000
| 37> H  -1.359750000   2.338250000  -3.430940000
| 38> H  -1.303000000   0.879480000  -2.865760000
| 39> *
| 40>
| 41>                          ****END OF INPUT****

CARTESIAN COORDINATES (ANGSTROEM)
---------------------------------
  O      1.794470    0.923410    2.768350
  H      2.338250    1.359750    3.430940
  H      0.879480    1.303000    2.865760
  O      0.923410   -1.794470   -2.768350
  H      1.359750   -2.338250   -3.430940
  H      1.303000   -0.879480   -2.865760
  O     -1.752130   -0.741530   -2.896280
  H     -2.036450   -0.920500   -1.984040
  H     -0.921210   -1.242140   -2.984230
  O      0.885520   -1.737840    0.052730
  H      1.284090   -0.839590    0.017130
  H      1.032320   -2.090180   -0.841890
  O      1.737840    0.885520   -0.052730
  H      2.090180    1.032320    0.841890
  H      0.839590    1.284090   -0.017130
  O      1.752130    0.741530   -2.896280
  H      2.036450    0.920500   -1.984040
  H      0.921210    1.242140   -2.984230
  O      0.741530   -1.752130    2.896280
  H      0.920500   -2.036450    1.984040
  H      1.242140   -0.921210    2.984230
  O     -0.923410    1.794470   -2.768350
  H     -1.359750    2.338250   -3.430940
  H     -1.303000    0.879480   -2.865760

 Total Charge           Charge          ....    0
 Multiplicity           Mult            ....    1
 Number of Electrons    NEL             ....   80
 Basis Dimension        Dim             ....  344

ORBITAL ENERGIES
----------------

  NO   OCC          E(Eh)            E(eV)
   0   2.0000     -20.623216      -561.1862
   1   2.0000     -20.596281      -560.4533
   2   2.0000     -20.570228      -559.7444
   3   2.0000     -20.562235      -559.5268
   4   2.0000     -20.554647      -559.3204
   5   2.0000     -20.553028      -559.2763
   6   2.0000     -20.520151      -558.3817
   7   2.0000     -20.500419      -557.8448
   8   2.0000      -1.404252       -38.2116
   9   2.0000      -1.381898       -37.6033
  10   2.0000      -1.365456       -37.1560
  11   2.0000      -1.353915       -36.8419
  12   2.0000      -1.341171       -36.4951
  13   2.0000      -1.330169       -36.1957
  14   2.0000      -1.307405       -35.5763
  15   2.0000      -1.285028       -34.9674
  16   2.0000      -0.769384       -20.9360
  17   2.0000      -0.746512       -20.3136
  18   2.0000      -0.729986       -19.8639
  19   2.0000      -0.721499       -19.6330
  20   2.0000      -0.717641       -19.5280
  21   2.0000      -0.708417       -19.2770
  22   2.0000      -0.689423       -18.7601
  23   2.0000      -0.668484       -18.1904
  24   2.0000      -0.648962       -17.6591
  25   2.0000      -0.628226       -17.0949
  26   2.0000      -0.611340       -16.6354
  27   2.0000      -0.598830       -16.2950
  28   2.0000      -0.584957       -15.9175
  29   2.0000      -0.579879       -15.7793
  30   2.0000      -0.565961       -15.4006
  31   2.0000      -0.548168       -14.9164
  32   2.0000      -0.527462       -14.3530
  33   2.0000      -0.519007       -14.1229
  34   2.0000      -0.511313       -13.9135
  35   2.0000      -0.503995       -13.7144
  36   2.0000      -0.503382       -13.6977
  37   2.0000      -0.499769       -13.5994
  38   2.0000      -0.471546       -12.8314
  39   2.0000      -0.450095       -12.2477
  40   0.0000       0.084930         2.3111
  41   0.0000       0.119215         3.2440
  42   0.0000       0.147749         4.0204
  43   0.0000       0.155289         4.2256
  44   0.0000       0.170941         4.6515

MULLIKEN ATOMIC CHARGES
-----------------------
   0 O :   -0.713882
   1 H :    0.368600
   2 H :    0.370319
   3 O :   -0.756984
   4 H :    0.349149
   5 H :    0.384167
   6 O :   -0.710687
   7 H :    0.358718
   8 H :    0.380322
   9 O :   -0.744515
  10 H :    0.342229
  11 H :    0.366074
  12 O :   -0.724770
  13 H :    0.388180
  14 H :    0.359371
  15 O :   -0.724727
  16 H :    0.384258
  17 H :    0.369760
  18 O :   -0.725878
  19 H :    0.373281
  20 H :    0.332443
  21 O :   -0.749031
  22 H :    0.343519
  23 H :    0.380084
Sum of atomic charges:   -0.0000000

LOEWDIN ATOMIC CHARGES
----------------------
   0 O :   -0.286419
   1 H :    0.169951
   2 H :    0.192122
   3 O :   -0.315801
   4 H :    0.158425
   5 H :    0.146170
   6 O :   -0.283227
   7 H :    0.173007
   8 H :    0.154486
   9 O :   -0.348688
  10 H :    0.136611
  11 H :    0.146349
  12 O :   -0.283287
  13 H :    0.156740
  14 H :    0.178309
  15 O :   -0.287253
  16 H :    0.154857
  17 H :    0.150177
  18 O :   -0.356969
  19 H :    0.151624
  20 H :    0.135771
  21 O :   -0.344743
  22 H :    0.156779
  23 H :    0.145006

  Mayer bond orders larger than 0.100000
B(  0-O ,  1-H ) :   0.8296 B(  0-O ,  2-H ) :   0.8209 B(  3-O ,  4-H ) :   0.8411
B(  3-O ,  5-H ) :   0.7271 B(  5-H , 15-O ) :   0.1227 B(  6-O ,  7-H ) :   0.8356
B(  6-O ,  8-H ) :   0.7865 B(  6-O , 23-H ) :   0.1116 B(  9-O , 10-H ) :   0.7972
B(  9-O , 11-H ) :   0.8141 B( 12-O , 13-H ) :   0.7948 B( 12-O , 14-H ) :   0.8279
B( 15-O , 16-H ) :   0.8080 B( 15-O , 17-H ) :   0.7904 B( 18-O , 19-H ) :   0.8135
B( 18-O , 20-H ) :   0.8466 B( 21-O , 22-H ) :   0.8472 B( 21-O , 23-H ) :   0.7467

MP2 TOTAL ENERGY:     -610.592559263 Eh
FINAL SINGLE POINT ENERGY      -610.592559263437

DIPOLE MOMENT
-------------
                                X             Y             Z
Electronic contribution:      0.09276       0.01558      -0.01512
Nuclear contribution   :      0.25623       2.04245       0.05351
                        -----------------------------------------
Total Dipole Moment    :      0.34898       2.05804       0.03839
                        -----------------------------------------
Magnitude (a.u.)       :      2.08777
Magnitude (Debye)      :      5.30668

Rotational constants in cm-1:     0.039385     0.016571     0.014806
Rotational constants in MHz :  1180.726304   496.794741   443.861697

                             ****ORCA TERMINATED NORMALLY****
TOTAL RUN TIME: 0 days 0 hours 3 minutes 5 seconds 763 msec
