                         Program Version 4.2.0 -  RELEASE  -
|  1> # 12h2o.su.etal.mol1,5,7,9,10,11
|  2> ! MP2 def2-TZVP EnGrad TightSCF
|  3>
|  4> %pal
|  5>     nprocs 6
|  6> end
|  7>
|  8> %maxcore 8000
|  9>
| 10> %scf
| 11>     ConvForced true
| 12> end
| 13>
| 14> *xyz 0 1
| 15> O  -1.794470000  -0.923410000   2.768350000
| 16> H  -2.338250000  -1.359750000   3.430940000
| 17> H  -0.879480000  -1.303000000   2.865760000
| 18> O   0.885520000  -1.737840000   0.052730000
| 19> H   1.284090000  -0.839590000   0.017130000
| 20> H   1.032320000  -2.090180000  -0.841890000
| 21> O  -1.737840000  -0.885520000  -0.052730000
| 22> H  -2.090180000  -1.032320000   0.841890000
| 23> H  -0.839590000  -1.284090000  -0.017130000
| 24> O   0.741530000  -1.752130000   2.896280000
| 25> H   0.920500000  -2.036450000   1.984040000
| 26> H   1.242140000  -0.921210000   2.984230000
| 27> O  -0.923410000   1.794470000  -2.768350000
| 28> H  -1.359750000   2.338250000  -3.430940000
| 29> H  -1.303000000   0.879480000  -2.865760000
| 30> O  -0.741530000   1.752130000   2.896280000
| 31> H  -0.920500000   2.036450000   1.984040000
| 32> H  -1.242140000   0.921210000   2.984230000
| 33> *
| 34>
| 35>                          ****END OF INPUT****

CARTESIAN COORDINATES (ANGSTROEM)
---------------------------------
  O     -1.794470   -0.923410    2.768350
  H     -2.338250   -1.359750    3.430940
  H     -0.879480   -1.303000    2.865760
  O      0.885520   -1.737840    0.052730
  H      1.284090   -0.839590    0.017130
  H      1.032320   -2.090180   -0.841890
  O     -1.737840   -0.885520   -0.052730
  H     -2.090180   -1.032320    0.841890
  H     -0.839590   -1.284090   -0.017130
  O      0.741530   -1.752130    2.896280
  H      0.920500   -2.036450    1.984040
  H      1.242140   -0.921210    2.984230
  O     -0.923410    1.794470   -2.768350
  H     -1.359750    2.338250   -3.430940
  H     -1.303000    0.879480   -2.865760
  O     -0.741530    1.752130    2.896280
  H     -0.920500    2.036450    1.984040
  H     -1.242140    0.921210    2.984230

 Total Charge           Charge          ....    0
 Multiplicity           Mult            ....    1
 Number of Electrons    NEL             ....   60
 Basis Dimension        Dim             ....  258

ORBITAL ENERGIES
----------------

  NO   OCC          E(Eh)            E(eV)
   0   2.0000     -20.625065      -561.2366
   1   2.0000     -20.587322      -560.2095
   2   2.0000     -20.558032      -559.4125
   3   2.0000     -20.555962      -559.3562
   4   2.0000     -20.524702      -558.5055
   5   2.0000     -20.510523      -558.1197
   6   2.0000      -1.408410       -38.3248
   7   2.0000      -1.376543       -37.4576
   8   2.0000      -1.343732       -36.5648
   9   2.0000      -1.331355       -36.2280
  10   2.0000      -1.306822       -35.5604
  11   2.0000      -1.294838       -35.2343
  12   2.0000      -0.767872       -20.8949
  13   2.0000      -0.736750       -20.0480
  14   2.0000      -0.725588       -19.7443
  15   2.0000      -0.699625       -19.0378
  16   2.0000      -0.683834       -18.6081
  17   2.0000      -0.676443       -18.4070
  18   2.0000      -0.652097       -17.7445
  19   2.0000      -0.612631       -16.6705
  20   2.0000      -0.594955       -16.1896
  21   2.0000      -0.570248       -15.5172
  22   2.0000      -0.568075       -15.4581
  23   2.0000      -0.548568       -14.9273
  24   2.0000      -0.528643       -14.3851
  25   2.0000      -0.521957       -14.2032
  26   2.0000      -0.499883       -13.6025
  27   2.0000      -0.498402       -13.5622
  28   2.0000      -0.472832       -12.8664
  29   2.0000      -0.460848       -12.5403
  30   0.0000       0.085522         2.3272
  31   0.0000       0.133488         3.6324
  32   0.0000       0.138777         3.7763
  33   0.0000       0.155984         4.2445
  34   0.0000       0.180960         4.9242

MULLIKEN ATOMIC CHARGES
-----------------------
   0 O :   -0.747194
   1 H :    0.346055
   2 H :    0.381391
   3 O :   -0.713883
   4 H :    0.371854
   5 H :    0.374219
   6 O :   -0.730615
   7 H :    0.363522
   8 H :    0.332225
   9 O :   -0.698058
  10 H :    0.385973
  11 H :    0.358477
  12 O :   -0.689767
  13 H :    0.336696
  14 H :    0.350864
  15 O :   -0.720981
  16 H :    0.337907
  17 H :    0.361315
Sum of atomic charges:    0.0000000

LOEWDIN ATOMIC CHARGES
----------------------
   0 O :   -0.312517
   1 H :    0.157142
   2 H :    0.146108
   3 O :   -0.279419
   4 H :    0.185933
   5 H :    0.180831
   6 O :   -0.368749
   7 H :    0.144853
   8 H :    0.131867
   9 O :   -0.272190
  10 H :    0.158330
  11 H :    0.174461
  12 O :   -0.342316
  13 H :    0.156938
  14 H :    0.183061
  15 O :   -0.353232
  16 H :    0.162925
  17 H :    0.145975

  Mayer bond orders larger than 0.100000
B(  0-O ,  1-H ) :   0.8426 B(  0-O ,  2-H ) :   0.7467 B(  3-O ,  4-H ) :   0.8221
B(  3-O ,  5-H ) :   0.8262 B(  6-O ,  7-H ) :   0.8203 B(  6-O ,  8-H ) :   0.8263
B(  9-O , 10-H ) :   0.8058 B(  9-O , 11-H ) :   0.8331 B( 12-O , 13-H ) :   0.8544
B( 12-O , 14-H ) :   0.8386 B( 15-O , 16-H ) :   0.8515 B( 15-O , 17-H ) :   0.8123

MP2 TOTAL ENERGY:     -457.919462588 Eh
FINAL SINGLE POINT ENERGY      -457.919462587530

DIPOLE MOMENT
-------------
                                X             Y             Z
Electronic contribution:      0.33014      -0.18169       0.22667
Nuclear contribution   :      0.53817      -0.98768      -1.37221
                        -----------------------------------------
Total Dipole Moment    :      0.86831      -1.16937      -1.14555
                        -----------------------------------------
Magnitude (a.u.)       :      1.85302
Magnitude (Debye)      :      4.71000

Rotational constants in cm-1:     0.051880     0.026979     0.022201
Rotational constants in MHz :  1555.331956   808.819608   665.573998

                             ****ORCA TERMINATED NORMALLY****
TOTAL RUN TIME: 0 days 0 hours 0 minutes 55 seconds 975 msec
