                         Program Version 4.2.0 -  RELEASE  -
|  1> # 12h2o.su.etal.mol0,2,4,5,6,9,11
|  2> ! MP2 def2-TZVP EnGrad TightSCF
|  3>
|  4> %pal
|  5>     nprocs 6
|  6> end
|  7>
|  8> %maxcore 8000
|  9>
| 10> %scf
| 11>     ConvForced true
| 12> end
| 13>
| 14> *xyz 0 1
| 15> O   1.794470000   0.923410000   2.768350000
| 16> H   2.338250000   1.359750000   3.430940000
| 17> H   0.879480000   1.303000000   2.865760000
| 18> O   0.923410000  -1.794470000  -2.768350000
| 19> H   1.359750000  -2.338250000  -3.430940000
| 20> H   1.303000000  -0.879480000  -2.865760000
| 21> O  -0.885520000   1.737840000   0.052730000
| 22> H  -1.032320000   2.090180000  -0.841890000
| 23> H  -1.284090000   0.839590000   0.017130000
| 24> O   0.885520000  -1.737840000   0.052730000
| 25> H   1.284090000  -0.839590000   0.017130000
| 26> H   1.032320000  -2.090180000  -0.841890000
| 27> O   1.737840000   0.885520000  -0.052730000
| 28> H   2.090180000   1.032320000   0.841890000
| 29> H   0.839590000   1.284090000  -0.017130000
| 30> O   0.741530000  -1.752130000   2.896280000
| 31> H   0.920500000  -2.036450000   1.984040000
| 32> H   1.242140000  -0.921210000   2.984230000
| 33> O  -0.741530000   1.752130000   2.896280000
| 34> H  -0.920500000   2.036450000   1.984040000
| 35> H  -1.242140000   0.921210000   2.984230000
| 36> *
| 37>
| 38>                          ****END OF INPUT****

CARTESIAN COORDINATES (ANGSTROEM)
---------------------------------
  O      1.794470    0.923410    2.768350
  H      2.338250    1.359750    3.430940
  H      0.879480    1.303000    2.865760
  O      0.923410   -1.794470   -2.768350
  H      1.359750   -2.338250   -3.430940
  H      1.303000   -0.879480   -2.865760
  O     -0.885520    1.737840    0.052730
  H     -1.032320    2.090180   -0.841890
  H     -1.284090    0.839590    0.017130
  O      0.885520   -1.737840    0.052730
  H      1.284090   -0.839590    0.017130
  H      1.032320   -2.090180   -0.841890
  O      1.737840    0.885520   -0.052730
  H      2.090180    1.032320    0.841890
  H      0.839590    1.284090   -0.017130
  O      0.741530   -1.752130    2.896280
  H      0.920500   -2.036450    1.984040
  H      1.242140   -0.921210    2.984230
  O     -0.741530    1.752130    2.896280
  H     -0.920500    2.036450    1.984040
  H     -1.242140    0.921210    2.984230

 Total Charge           Charge          ....    0
 Multiplicity           Mult            ....    1
 Number of Electrons    NEL             ....   70
 Basis Dimension        Dim             ....  301

ORBITAL ENERGIES
----------------

  NO   OCC          E(Eh)            E(eV)
   0   2.0000     -20.629394      -561.3543
   1   2.0000     -20.585640      -560.1637
   2   2.0000     -20.584799      -560.1408
   3   2.0000     -20.557755      -559.4050
   4   2.0000     -20.542254      -558.9832
   5   2.0000     -20.510748      -558.1258
   6   2.0000     -20.488645      -557.5244
   7   2.0000      -1.412802       -38.4443
   8   2.0000      -1.374386       -37.3989
   9   2.0000      -1.363558       -37.1043
  10   2.0000      -1.344854       -36.5953
  11   2.0000      -1.330029       -36.1919
  12   2.0000      -1.297278       -35.3007
  13   2.0000      -1.273143       -34.6440
  14   2.0000      -0.771438       -20.9919
  15   2.0000      -0.735140       -20.0042
  16   2.0000      -0.730489       -19.8776
  17   2.0000      -0.724993       -19.7281
  18   2.0000      -0.709355       -19.3025
  19   2.0000      -0.678011       -18.4496
  20   2.0000      -0.657481       -17.8910
  21   2.0000      -0.650294       -17.6954
  22   2.0000      -0.614637       -16.7251
  23   2.0000      -0.606531       -16.5045
  24   2.0000      -0.599953       -16.3256
  25   2.0000      -0.572277       -15.5725
  26   2.0000      -0.561724       -15.2853
  27   2.0000      -0.548252       -14.9187
  28   2.0000      -0.530091       -14.4245
  29   2.0000      -0.522272       -14.2117
  30   2.0000      -0.508947       -13.8491
  31   2.0000      -0.495028       -13.4704
  32   2.0000      -0.484483       -13.1834
  33   2.0000      -0.462290       -12.5795
  34   2.0000      -0.438853       -11.9418
  35   0.0000       0.085416         2.3243
  36   0.0000       0.119921         3.2632
  37   0.0000       0.139516         3.7964
  38   0.0000       0.157913         4.2970
  39   0.0000       0.189541         5.1577

MULLIKEN ATOMIC CHARGES
-----------------------
   0 O :   -0.748331
   1 H :    0.347053
   2 H :    0.381938
   3 O :   -0.697005
   4 H :    0.349594
   5 H :    0.357193
   6 O :   -0.721272
   7 H :    0.373681
   8 H :    0.379181
   9 O :   -0.750863
  10 H :    0.344589
  11 H :    0.362503
  12 O :   -0.728401
  13 H :    0.379731
  14 H :    0.348315
  15 O :   -0.740170
  16 H :    0.371563
  17 H :    0.342978
  18 O :   -0.699100
  19 H :    0.383610
  20 H :    0.363211
Sum of atomic charges:   -0.0000000

LOEWDIN ATOMIC CHARGES
----------------------
   0 O :   -0.312806
   1 H :    0.157622
   2 H :    0.146384
   3 O :   -0.312558
   4 H :    0.162092
   5 H :    0.185672
   6 O :   -0.278837
   7 H :    0.180452
   8 H :    0.188037
   9 O :   -0.352901
  10 H :    0.136454
  11 H :    0.146001
  12 O :   -0.319644
  13 H :    0.150563
  14 H :    0.136172
  15 O :   -0.362765
  16 H :    0.150334
  17 H :    0.138070
  18 O :   -0.272401
  19 H :    0.157286
  20 H :    0.176772

  Mayer bond orders larger than 0.100000
B(  0-O ,  1-H ) :   0.8422 B(  0-O ,  2-H ) :   0.7455 B(  3-O ,  4-H ) :   0.8434
B(  3-O ,  5-H ) :   0.8323 B(  6-O ,  7-H ) :   0.8264 B(  6-O ,  8-H ) :   0.8132
B(  9-O , 10-H ) :   0.7788 B(  9-O , 11-H ) :   0.8213 B( 12-O , 13-H ) :   0.8003
B( 12-O , 14-H ) :   0.8070 B( 15-O , 16-H ) :   0.8147 B( 15-O , 17-H ) :   0.8300
B( 18-O , 19-H ) :   0.8089 B( 18-O , 20-H ) :   0.8293

MP2 TOTAL ENERGY:     -534.256928354 Eh
FINAL SINGLE POINT ENERGY      -534.256928353970

DIPOLE MOMENT
-------------
                                X             Y             Z
Electronic contribution:     -0.37864       0.27456       0.04803
Nuclear contribution   :     -0.08423       1.44207      -2.14649
                        -----------------------------------------
Total Dipole Moment    :     -0.46286       1.71664      -2.09846
                        -----------------------------------------
Magnitude (a.u.)       :      2.75038
Magnitude (Debye)      :      6.99092

Rotational constants in cm-1:     0.047266     0.024895     0.020190
Rotational constants in MHz :  1417.011341   746.347727   605.284673

                             ****ORCA TERMINATED NORMALLY****
TOTAL RUN TIME: 0 days 0 hours 2 minutes 17 seconds 232 msec
