                         Program Version 4.2.0 -  RELEASE  -
|  1> # 12meoh.boyd.etal.mol7,9,11
|  2> ! MP2 def2-TZVP EnGrad TightSCF
|  3>
|  4> %pal
|  5>     nprocs 6
|  6> end
|  7>
|  8> %maxcore 8000
|  9>
| 10> %scf
| 11>     ConvForced true
| 12> end
| 13>
| 14> *xyz 0 1
| 15> O   4.310535586  -1.588322800   0.656128299
| 16> H   3.804372199  -1.630404735  -0.196849819
| 17> C   4.312298137  -2.894980854   1.222112691
| 18> H   4.713177833  -2.819907076   2.237066773
| 19> H   4.957796734  -3.574699304   0.648211180
| 20> H   3.302735989  -3.324433205   1.269756773
| 21> O   1.390610024   3.194080770  -1.536658882
| 22> H   2.162932299   2.881562730  -0.993525056
| 23> C   1.202977189   4.580367182  -1.302880219
| 24> H   0.374773115   4.915764831  -1.934164643
| 25> H   2.098649340   5.157710875  -1.570472348
| 26> H   0.950320401   4.800436015  -0.254328827
| 27> O   3.252955559   0.588596242   1.858934315
| 28> H   3.621209177  -0.251605199   1.476063364
| 29> C   4.040824528   0.944288422   2.989639460
| 30> H   3.670521436   1.902573549   3.363847391
| 31> H   5.103749934   1.055868619   2.734277559
| 32> H   3.948540682   0.200279590   3.792908518
| 33> *
| 34>
| 35>                          ****END OF INPUT****

CARTESIAN COORDINATES (ANGSTROEM)
---------------------------------
  O      4.310536   -1.588323    0.656128
  H      3.804372   -1.630405   -0.196850
  C      4.312298   -2.894981    1.222113
  H      4.713178   -2.819907    2.237067
  H      4.957797   -3.574699    0.648211
  H      3.302736   -3.324433    1.269757
  O      1.390610    3.194081   -1.536659
  H      2.162932    2.881563   -0.993525
  C      1.202977    4.580367   -1.302880
  H      0.374773    4.915765   -1.934165
  H      2.098649    5.157711   -1.570472
  H      0.950320    4.800436   -0.254329
  O      3.252956    0.588596    1.858934
  H      3.621209   -0.251605    1.476063
  C      4.040825    0.944288    2.989639
  H      3.670521    1.902574    3.363847
  H      5.103750    1.055869    2.734278
  H      3.948541    0.200280    3.792909

 Total Charge           Charge          ....    0
 Multiplicity           Mult            ....    1
 Number of Electrons    NEL             ....   54
 Basis Dimension        Dim             ....  258

ORBITAL ENERGIES
----------------

  NO   OCC          E(Eh)            E(eV)
   0   2.0000     -20.591681      -560.3281
   1   2.0000     -20.545914      -559.0827
   2   2.0000     -20.519745      -558.3706
   3   2.0000     -11.293228      -307.3044
   4   2.0000     -11.262206      -306.4602
   5   2.0000     -11.253545      -306.2245
   6   2.0000      -1.385232       -37.6941
   7   2.0000      -1.336860       -36.3778
   8   2.0000      -1.316165       -35.8147
   9   2.0000      -0.945210       -25.7205
  10   2.0000      -0.909761       -24.7559
  11   2.0000      -0.900072       -24.4922
  12   2.0000      -0.716188       -19.4885
  13   2.0000      -0.677686       -18.4408
  14   2.0000      -0.671974       -18.2853
  15   2.0000      -0.638041       -17.3620
  16   2.0000      -0.613176       -16.6854
  17   2.0000      -0.606945       -16.5158
  18   2.0000      -0.595231       -16.1971
  19   2.0000      -0.582170       -15.8417
  20   2.0000      -0.566797       -15.4233
  21   2.0000      -0.531681       -14.4678
  22   2.0000      -0.490216       -13.3395
  23   2.0000      -0.489182       -13.3113
  24   2.0000      -0.461317       -12.5531
  25   2.0000      -0.437901       -11.9159
  26   2.0000      -0.422119       -11.4864
  27   0.0000       0.115804         3.1512
  28   0.0000       0.146451         3.9851
  29   0.0000       0.154277         4.1981
  30   0.0000       0.171562         4.6685
  31   0.0000       0.184336         5.0160

MULLIKEN ATOMIC CHARGES
-----------------------
   0 O :   -0.514972
   1 H :    0.345795
   2 C :   -0.184055
   3 H :    0.140104
   4 H :    0.125568
   5 H :    0.129977
   6 O :   -0.504044
   7 H :    0.329820
   8 C :   -0.168433
   9 H :    0.124639
  10 H :    0.105368
  11 H :    0.110166
  12 O :   -0.535057
  13 H :    0.341035
  14 C :   -0.165695
  15 H :    0.120635
  16 H :    0.103613
  17 H :    0.095535
Sum of atomic charges:   -0.0000000

LOEWDIN ATOMIC CHARGES
----------------------
   0 O :   -0.075339
   1 H :    0.200795
   2 C :   -0.372083
   3 H :    0.114230
   4 H :    0.104423
   5 H :    0.102885
   6 O :   -0.107350
   7 H :    0.193619
   8 C :   -0.386491
   9 H :    0.108746
  10 H :    0.094044
  11 H :    0.095796
  12 O :   -0.127647
  13 H :    0.157479
  14 C :   -0.392842
  15 H :    0.105487
  16 H :    0.093307
  17 H :    0.090942

  Mayer bond orders larger than 0.100000
B(  0-O ,  1-H ) :   0.8270 B(  0-O ,  2-C ) :   0.8714 B(  2-C ,  3-H ) :   0.9399
B(  2-C ,  4-H ) :   0.9330 B(  2-C ,  5-H ) :   0.9399 B(  6-O ,  7-H ) :   0.8353
B(  6-O ,  8-C ) :   0.9322 B(  8-C ,  9-H ) :   0.9380 B(  8-C , 10-H ) :   0.9405
B(  8-C , 11-H ) :   0.9376 B( 12-O , 13-H ) :   0.7890 B( 12-O , 14-C ) :   0.9372
B( 14-C , 15-H ) :   0.9420 B( 14-C , 16-H ) :   0.9378 B( 14-C , 17-H ) :   0.9387

MP2 TOTAL ENERGY:     -346.531009093 Eh
FINAL SINGLE POINT ENERGY      -346.531009092866

DIPOLE MOMENT
-------------
                                X             Y             Z
Electronic contribution:     -0.78881      -0.79287      -2.53642
Nuclear contribution   :      1.52058      -0.17567       2.73192
                        -----------------------------------------
Total Dipole Moment    :      0.73177      -0.96854       0.19551
                        -----------------------------------------
Magnitude (a.u.)       :      1.22954
Magnitude (Debye)      :      3.12525

Rotational constants in cm-1:     0.105132     0.018546     0.016061
Rotational constants in MHz :  3151.778523   555.988699   481.496292

                             ****ORCA TERMINATED NORMALLY****
TOTAL RUN TIME: 0 days 0 hours 1 minutes 4 seconds 545 msec
