                         Program Version 4.2.0 -  RELEASE  -
|  1> # 12h2o.su.etal.mol0,1,2,3,4,5,6,8,9,11
|  2> ! MP2 def2-TZVP EnGrad TightSCF
|  3>
|  4> %pal
|  5>     nprocs 6
|  6> end
|  7>
|  8> %maxcore 8000
|  9>
| 10> %scf
| 11>     ConvForced true
| 12> end
| 13>
| 14> *xyz 0 1
| 15> O   1.794470000   0.923410000   2.768350000
| 16> H   2.338250000   1.359750000   3.430940000
| 17> H   0.879480000   1.303000000   2.865760000
| 18> O  -1.794470000  -0.923410000   2.768350000
| 19> H  -2.338250000  -1.359750000   3.430940000
| 20> H  -0.879480000  -1.303000000   2.865760000
| 21> O   0.923410000  -1.794470000  -2.768350000
| 22> H   1.359750000  -2.338250000  -3.430940000
| 23> H   1.303000000  -0.879480000  -2.865760000
| 24> O  -1.752130000  -0.741530000  -2.896280000
| 25> H  -2.036450000  -0.920500000  -1.984040000
| 26> H  -0.921210000  -1.242140000  -2.984230000
| 27> O  -0.885520000   1.737840000   0.052730000
| 28> H  -1.032320000   2.090180000  -0.841890000
| 29> H  -1.284090000   0.839590000   0.017130000
| 30> O   0.885520000  -1.737840000   0.052730000
| 31> H   1.284090000  -0.839590000   0.017130000
| 32> H   1.032320000  -2.090180000  -0.841890000
| 33> O   1.737840000   0.885520000  -0.052730000
| 34> H   2.090180000   1.032320000   0.841890000
| 35> H   0.839590000   1.284090000  -0.017130000
| 36> O   1.752130000   0.741530000  -2.896280000
| 37> H   2.036450000   0.920500000  -1.984040000
| 38> H   0.921210000   1.242140000  -2.984230000
| 39> O   0.741530000  -1.752130000   2.896280000
| 40> H   0.920500000  -2.036450000   1.984040000
| 41> H   1.242140000  -0.921210000   2.984230000
| 42> O  -0.741530000   1.752130000   2.896280000
| 43> H  -0.920500000   2.036450000   1.984040000
| 44> H  -1.242140000   0.921210000   2.984230000
| 45> *
| 46>
| 47>                          ****END OF INPUT****

CARTESIAN COORDINATES (ANGSTROEM)
---------------------------------
  O      1.794470    0.923410    2.768350
  H      2.338250    1.359750    3.430940
  H      0.879480    1.303000    2.865760
  O     -1.794470   -0.923410    2.768350
  H     -2.338250   -1.359750    3.430940
  H     -0.879480   -1.303000    2.865760
  O      0.923410   -1.794470   -2.768350
  H      1.359750   -2.338250   -3.430940
  H      1.303000   -0.879480   -2.865760
  O     -1.752130   -0.741530   -2.896280
  H     -2.036450   -0.920500   -1.984040
  H     -0.921210   -1.242140   -2.984230
  O     -0.885520    1.737840    0.052730
  H     -1.032320    2.090180   -0.841890
  H     -1.284090    0.839590    0.017130
  O      0.885520   -1.737840    0.052730
  H      1.284090   -0.839590    0.017130
  H      1.032320   -2.090180   -0.841890
  O      1.737840    0.885520   -0.052730
  H      2.090180    1.032320    0.841890
  H      0.839590    1.284090   -0.017130
  O      1.752130    0.741530   -2.896280
  H      2.036450    0.920500   -1.984040
  H      0.921210    1.242140   -2.984230
  O      0.741530   -1.752130    2.896280
  H      0.920500   -2.036450    1.984040
  H      1.242140   -0.921210    2.984230
  O     -0.741530    1.752130    2.896280
  H     -0.920500    2.036450    1.984040
  H     -1.242140    0.921210    2.984230

 Total Charge           Charge          ....    0
 Multiplicity           Mult            ....    1
 Number of Electrons    NEL             ....  100
 Basis Dimension        Dim             ....  430

ORBITAL ENERGIES
----------------

  NO   OCC          E(Eh)            E(eV)
   0   2.0000     -20.629759      -561.3643
   1   2.0000     -20.588553      -560.2430
   2   2.0000     -20.572820      -559.8149
   3   2.0000     -20.570911      -559.7630
   4   2.0000     -20.567223      -559.6626
   5   2.0000     -20.561129      -559.4968
   6   2.0000     -20.547618      -559.1291
   7   2.0000     -20.541813      -558.9711
   8   2.0000     -20.538651      -558.8851
   9   2.0000     -20.529265      -558.6297
  10   2.0000      -1.413360       -38.4595
  11   2.0000      -1.381396       -37.5897
  12   2.0000      -1.368969       -37.2515
  13   2.0000      -1.360495       -37.0209
  14   2.0000      -1.352442       -36.8018
  15   2.0000      -1.344588       -36.5881
  16   2.0000      -1.337689       -36.4004
  17   2.0000      -1.328987       -36.1636
  18   2.0000      -1.319174       -35.8965
  19   2.0000      -1.311604       -35.6906
  20   2.0000      -0.770743       -20.9730
  21   2.0000      -0.744970       -20.2717
  22   2.0000      -0.735123       -20.0037
  23   2.0000      -0.734213       -19.9790
  24   2.0000      -0.732185       -19.9238
  25   2.0000      -0.722588       -19.6626
  26   2.0000      -0.703650       -19.1473
  27   2.0000      -0.701597       -19.0914
  28   2.0000      -0.697675       -18.9847
  29   2.0000      -0.690231       -18.7821
  30   2.0000      -0.661007       -17.9869
  31   2.0000      -0.635811       -17.3013
  32   2.0000      -0.622654       -16.9433
  33   2.0000      -0.611297       -16.6342
  34   2.0000      -0.597024       -16.2459
  35   2.0000      -0.590107       -16.0576
  36   2.0000      -0.579702       -15.7745
  37   2.0000      -0.575950       -15.6724
  38   2.0000      -0.565249       -15.3812
  39   2.0000      -0.557230       -15.1630
  40   2.0000      -0.542834       -14.7713
  41   2.0000      -0.527765       -14.3612
  42   2.0000      -0.517399       -14.0792
  43   2.0000      -0.516014       -14.0415
  44   2.0000      -0.509748       -13.8709
  45   2.0000      -0.507783       -13.8175
  46   2.0000      -0.494924       -13.4676
  47   2.0000      -0.492410       -13.3992
  48   2.0000      -0.486032       -13.2256
  49   2.0000      -0.479723       -13.0539
  50   0.0000       0.077718         2.1148
  51   0.0000       0.129848         3.5333
  52   0.0000       0.137594         3.7441
  53   0.0000       0.138661         3.7732
  54   0.0000       0.160603         4.3702

MULLIKEN ATOMIC CHARGES
-----------------------
   0 O :   -0.760257
   1 H :    0.352458
   2 H :    0.384603
   3 O :   -0.753197
   4 H :    0.340517
   5 H :    0.386572
   6 O :   -0.752933
   7 H :    0.349948
   8 H :    0.386713
   9 O :   -0.714099
  10 H :    0.327931
  11 H :    0.367636
  12 O :   -0.720388
  13 H :    0.369623
  14 H :    0.382308
  15 O :   -0.755000
  16 H :    0.348995
  17 H :    0.369390
  18 O :   -0.753479
  19 H :    0.389996
  20 H :    0.354615
  21 O :   -0.697346
  22 H :    0.394262
  23 H :    0.344498
  24 O :   -0.727500
  25 H :    0.389807
  26 H :    0.363057
  27 O :   -0.721925
  28 H :    0.379691
  29 H :    0.373505
Sum of atomic charges:    0.0000000

LOEWDIN ATOMIC CHARGES
----------------------
   0 O :   -0.316300
   1 H :    0.160103
   2 H :    0.146355
   3 O :   -0.346061
   4 H :    0.155391
   5 H :    0.146196
   6 O :   -0.313528
   7 H :    0.159123
   8 H :    0.146935
   9 O :   -0.348021
  10 H :    0.156712
  11 H :    0.148862
  12 O :   -0.274408
  13 H :    0.176514
  14 H :    0.187166
  15 O :   -0.350430
  16 H :    0.136699
  17 H :    0.147942
  18 O :   -0.302649
  19 H :    0.155311
  20 H :    0.139560
  21 O :   -0.273238
  22 H :    0.159483
  23 H :    0.167430
  24 O :   -0.290355
  25 H :    0.157856
  26 H :    0.146843
  27 O :   -0.285196
  28 H :    0.153735
  29 H :    0.151973

  Mayer bond orders larger than 0.100000
B(  0-O ,  1-H ) :   0.8396 B(  0-O ,  2-H ) :   0.7255 B(  2-H , 27-O ) :   0.1247
B(  3-O ,  4-H ) :   0.8487 B(  3-O ,  5-H ) :   0.7352 B(  5-H , 24-O ) :   0.1206
B(  6-O ,  7-H ) :   0.8406 B(  6-O ,  8-H ) :   0.7415 B(  9-O , 10-H ) :   0.8563
B(  9-O , 11-H ) :   0.8044 B( 12-O , 13-H ) :   0.8267 B( 12-O , 14-H ) :   0.8068
B( 15-O , 16-H ) :   0.7845 B( 15-O , 17-H ) :   0.8111 B( 18-O , 19-H ) :   0.7880
B( 18-O , 20-H ) :   0.7809 B( 21-O , 22-H ) :   0.7912 B( 21-O , 23-H ) :   0.8417
B( 24-O , 25-H ) :   0.7931 B( 24-O , 26-H ) :   0.8066 B( 27-O , 28-H ) :   0.8163
B( 27-O , 29-H ) :   0.7820

MP2 TOTAL ENERGY:     -763.260290309 Eh
FINAL SINGLE POINT ENERGY      -763.260290309044

DIPOLE MOMENT
-------------
                                X             Y             Z
Electronic contribution:      0.09671       0.29248      -0.08175
Nuclear contribution   :      0.22475       0.76293      -0.14168
                        -----------------------------------------
Total Dipole Moment    :      0.32146       1.05541      -0.22343
                        -----------------------------------------
Magnitude (a.u.)       :      1.12568
Magnitude (Debye)      :      2.86124

Rotational constants in cm-1:     0.025551     0.012601     0.012312
Rotational constants in MHz :   766.002460   377.780947   369.115770

                             ****ORCA TERMINATED NORMALLY****
TOTAL RUN TIME: 0 days 0 hours 7 minutes 11 seconds 663 msec
