                         Program Version 4.2.0 -  RELEASE  -
|  1> # 12h2o.su.etal.mol4,5,6,7
|  2> ! MP2 def2-TZVP EnGrad TightSCF
|  3>
|  4> %pal
|  5>     nprocs 6
|  6> end
|  7>
|  8> %maxcore 8000
|  9>
| 10> %scf
| 11>     ConvForced true
| 12> end
| 13>
| 14> *xyz 0 1
| 15> O  -0.885520000   1.737840000   0.052730000
| 16> H  -1.032320000   2.090180000  -0.841890000
| 17> H  -1.284090000   0.839590000   0.017130000
| 18> O   0.885520000  -1.737840000   0.052730000
| 19> H   1.284090000  -0.839590000   0.017130000
| 20> H   1.032320000  -2.090180000  -0.841890000
| 21> O   1.737840000   0.885520000  -0.052730000
| 22> H   2.090180000   1.032320000   0.841890000
| 23> H   0.839590000   1.284090000  -0.017130000
| 24> O  -1.737840000  -0.885520000  -0.052730000
| 25> H  -2.090180000  -1.032320000   0.841890000
| 26> H  -0.839590000  -1.284090000  -0.017130000
| 27> *
| 28>
| 29>                          ****END OF INPUT****

CARTESIAN COORDINATES (ANGSTROEM)
---------------------------------
  O     -0.885520    1.737840    0.052730
  H     -1.032320    2.090180   -0.841890
  H     -1.284090    0.839590    0.017130
  O      0.885520   -1.737840    0.052730
  H      1.284090   -0.839590    0.017130
  H      1.032320   -2.090180   -0.841890
  O      1.737840    0.885520   -0.052730
  H      2.090180    1.032320    0.841890
  H      0.839590    1.284090   -0.017130
  O     -1.737840   -0.885520   -0.052730
  H     -2.090180   -1.032320    0.841890
  H     -0.839590   -1.284090   -0.017130

 Total Charge           Charge          ....    0
 Multiplicity           Mult            ....    1
 Number of Electrons    NEL             ....   40
 Basis Dimension        Dim             ....  172

ORBITAL ENERGIES
----------------

  NO   OCC          E(Eh)            E(eV)
   0   2.0000     -20.563422      -559.5592
   1   2.0000     -20.563412      -559.5589
   2   2.0000     -20.563412      -559.5589
   3   2.0000     -20.563402      -559.5586
   4   2.0000      -1.365272       -37.1509
   5   2.0000      -1.348837       -36.7037
   6   2.0000      -1.348837       -36.7037
   7   2.0000      -1.332672       -36.2638
   8   2.0000      -0.718997       -19.5649
   9   2.0000      -0.716725       -19.5031
  10   2.0000      -0.713601       -19.4181
  11   2.0000      -0.713601       -19.4181
  12   2.0000      -0.621770       -16.9192
  13   2.0000      -0.594136       -16.1673
  14   2.0000      -0.594136       -16.1673
  15   2.0000      -0.570163       -15.5149
  16   2.0000      -0.509871       -13.8743
  17   2.0000      -0.508972       -13.8498
  18   2.0000      -0.508972       -13.8498
  19   2.0000      -0.503249       -13.6941
  20   0.0000       0.116378         3.1668
  21   0.0000       0.157143         4.2761
  22   0.0000       0.157143         4.2761
  23   0.0000       0.174112         4.7378
  24   0.0000       0.299525         8.1505

MULLIKEN ATOMIC CHARGES
-----------------------
   0 O :   -0.717992
   1 H :    0.349313
   2 H :    0.368679
   3 O :   -0.717992
   4 H :    0.368679
   5 H :    0.349313
   6 O :   -0.717992
   7 H :    0.349313
   8 H :    0.368679
   9 O :   -0.717992
  10 H :    0.349313
  11 H :    0.368679
Sum of atomic charges:   -0.0000000

LOEWDIN ATOMIC CHARGES
----------------------
   0 O :   -0.311903
   1 H :    0.167009
   2 H :    0.144894
   3 O :   -0.311903
   4 H :    0.144894
   5 H :    0.167009
   6 O :   -0.311903
   7 H :    0.167009
   8 H :    0.144894
   9 O :   -0.311903
  10 H :    0.167009
  11 H :    0.144894

  Mayer bond orders larger than 0.100000
B(  0-O ,  1-H ) :   0.8428 B(  0-O ,  2-H ) :   0.7642 B(  0-O ,  8-H ) :   0.1110
B(  2-H ,  9-O ) :   0.1110 B(  3-O ,  4-H ) :   0.7642 B(  3-O ,  5-H ) :   0.8428
B(  3-O , 11-H ) :   0.1110 B(  4-H ,  6-O ) :   0.1110 B(  6-O ,  7-H ) :   0.8428
B(  6-O ,  8-H ) :   0.7642 B(  9-O , 10-H ) :   0.8428 B(  9-O , 11-H ) :   0.7642

MP2 TOTAL ENERGY:     -305.297382315 Eh
FINAL SINGLE POINT ENERGY      -305.297382315299

DIPOLE MOMENT
-------------
                                X             Y             Z
Electronic contribution:      0.00000       0.00000       0.00000
Nuclear contribution   :      0.00000       0.00000      -0.00000
                        -----------------------------------------
Total Dipole Moment    :      0.00000       0.00000       0.00000
                        -----------------------------------------
Magnitude (a.u.)       :      0.00000
Magnitude (Debye)      :      0.00000

Rotational constants in cm-1:     0.120012     0.120012     0.061332
Rotational constants in MHz :  3597.875941  3597.875941  1838.691002

                             ****ORCA TERMINATED NORMALLY****
TOTAL RUN TIME: 0 days 0 hours 0 minutes 22 seconds 118 msec
