                         Program Version 3.0.3 - RELEASE   -
|  1> ! B3LYP Def2-TZVP def2-TZVP/J RIJCOSX TightSCF Grid4 D3BJ COSMO
|  2>
|  3> %pal nprocs 12 end
|  4>
|  5> %scf
|  6>         maxiter 400
|  7> end
|  8>
|  9> %cosmo
| 10>         SMD true
| 11>         solvent "WATER"
| 12> end
| 13>
| 14> * xyz  0  1
| 15> O  0.904218	-3.095578	-0.227893
| 16> H  0.517915	-2.487120	-0.924846
| 17> H  1.008812	-3.965265	-0.661380
| 18> O  -2.765372	1.546274	-0.923281
| 19> H  -2.232254	1.356307	-1.751790
| 20> H  -2.614012	0.732144	-0.372104
| 21> O  2.790146	-1.526608	0.964111
| 22> H  2.236450	-2.222777	0.508908
| 23> H  2.249872	-1.343991	1.785697
| 24> O  -0.925431	3.065912	0.149124
| 25> H  -1.263068	3.940213	0.425736
| 26> H  -1.729109	2.559227	-0.240780
| 27> O  0.977885	-0.959486	2.941220
| 28> H  1.240757	-0.837709	3.874508
| 29> H  0.662506	-0.061221	2.627932
| 30> O  -0.846442	-2.650704	1.826570
| 31> H  -0.219787	-2.117841	2.393315
| 32> H  -0.239918	-2.959744	1.093307
| 33> O  -0.194001	-1.086520	-1.528478
| 34> H  -0.848875	-0.905790	-0.768873
| 35> H  -0.488124	-0.442231	-2.243231
| 36> O  -1.723145	-0.514910	0.547151
| 37> H  -1.554339	-1.381262	1.058442
| 38> H  -1.050439	0.116398	0.963751
| 39> O  0.173378	1.101826	1.508359
| 40> H  0.846026	0.901911	0.770397
| 41> H  -0.233300	1.974016	1.213438
| 42> O  1.765307	0.417805	-0.486942
| 43> H  1.070097	-0.162217	-0.937531
| 44> H  2.315625	-0.264095	0.036656
| 45> O  0.836011	2.600672	-1.848368
| 46> H  0.241583	2.925334	-1.108678
| 47> H  1.388110	1.908290	-1.395525
| 48> O  -0.974371	1.029306	-2.883154
| 49> H  -0.239463	1.685926	-2.589339
| 50> H  -1.112248	1.185903	-3.838030
| 51> **                         ****END OF INPUT****

CARTESIAN COORDINATES (ANGSTROEM)
---------------------------------
  O      0.904218   -3.095578   -0.227893
  H      0.517915   -2.487120   -0.924846
  H      1.008812   -3.965265   -0.661380
  O     -2.765372    1.546274   -0.923281
  H     -2.232254    1.356307   -1.751790
  H     -2.614012    0.732144   -0.372104
  O      2.790146   -1.526608    0.964111
  H      2.236450   -2.222777    0.508908
  H      2.249872   -1.343991    1.785697
  O     -0.925431    3.065912    0.149124
  H     -1.263068    3.940213    0.425736
  H     -1.729109    2.559227   -0.240780
  O      0.977885   -0.959486    2.941220
  H      1.240757   -0.837709    3.874508
  H      0.662506   -0.061221    2.627932
  O     -0.846442   -2.650704    1.826570
  H     -0.219787   -2.117841    2.393315
  H     -0.239918   -2.959744    1.093307
  O     -0.194001   -1.086520   -1.528478
  H     -0.848875   -0.905790   -0.768873
  H     -0.488124   -0.442231   -2.243231
  O     -1.723145   -0.514910    0.547151
  H     -1.554339   -1.381262    1.058442
  H     -1.050439    0.116398    0.963751
  O      0.173378    1.101826    1.508359
  H      0.846026    0.901911    0.770397
  H     -0.233300    1.974016    1.213438
  O      1.765307    0.417805   -0.486942
  H      1.070097   -0.162217   -0.937531
  H      2.315625   -0.264095    0.036656
  O      0.836011    2.600672   -1.848368
  H      0.241583    2.925334   -1.108678
  H      1.388110    1.908290   -1.395525
  O     -0.974371    1.029306   -2.883154
  H     -0.239463    1.685926   -2.589339
  H     -1.112248    1.185903   -3.838030

 Total Charge           Charge          ....    0
 Multiplicity           Mult            ....    1
 Number of Electrons    NEL             ....  120
 Basis Dimension        Dim             ....  516

ORBITAL ENERGIES
----------------

  NO   OCC          E(Eh)            E(eV)
   0   2.0000     -19.138276      -520.7790
   1   2.0000     -19.138111      -520.7745
   2   2.0000     -19.133598      -520.6517
   3   2.0000     -19.133091      -520.6379
   4   2.0000     -19.123758      -520.3839
   5   2.0000     -19.123410      -520.3744
   6   2.0000     -19.123120      -520.3666
   7   2.0000     -19.122852      -520.3593
   8   2.0000     -19.120590      -520.2977
   9   2.0000     -19.120452      -520.2940
  10   2.0000     -19.119051      -520.2558
  11   2.0000     -19.118601      -520.2436
  12   2.0000      -1.034658       -28.1545
  13   2.0000      -1.023904       -27.8618
  14   2.0000      -1.020347       -27.7650
  15   2.0000      -1.012315       -27.5465
  16   2.0000      -1.010213       -27.4893
  17   2.0000      -1.009356       -27.4660
  18   2.0000      -1.000469       -27.2242
  19   2.0000      -0.996045       -27.1038
  20   2.0000      -0.991794       -26.9881
  21   2.0000      -0.987382       -26.8680
  22   2.0000      -0.984384       -26.7865
  23   2.0000      -0.969366       -26.3778
  24   2.0000      -0.552199       -15.0261
  25   2.0000      -0.551867       -15.0171
  26   2.0000      -0.538165       -14.6442
  27   2.0000      -0.534222       -14.5369
  28   2.0000      -0.532042       -14.4776
  29   2.0000      -0.526919       -14.3382
  30   2.0000      -0.519029       -14.1235
  31   2.0000      -0.518762       -14.1162
  32   2.0000      -0.512347       -13.9417
  33   2.0000      -0.509681       -13.8691
  34   2.0000      -0.509660       -13.8686
  35   2.0000      -0.507020       -13.7967
  36   2.0000      -0.470675       -12.8077
  37   2.0000      -0.450124       -12.2485
  38   2.0000      -0.437458       -11.9038
  39   2.0000      -0.426655       -11.6099
  40   2.0000      -0.413885       -11.2624
  41   2.0000      -0.408895       -11.1266
  42   2.0000      -0.406055       -11.0493
  43   2.0000      -0.403647       -10.9838
  44   2.0000      -0.390177       -10.6173
  45   2.0000      -0.380366       -10.3503
  46   2.0000      -0.373562       -10.1651
  47   2.0000      -0.358124        -9.7450
  48   2.0000      -0.332691        -9.0530
  49   2.0000      -0.329724        -8.9722
  50   2.0000      -0.328282        -8.9330
  51   2.0000      -0.326688        -8.8896
  52   2.0000      -0.322493        -8.7755
  53   2.0000      -0.321368        -8.7449
  54   2.0000      -0.318018        -8.6537
  55   2.0000      -0.317870        -8.6497
  56   2.0000      -0.317383        -8.6364
  57   2.0000      -0.314423        -8.5559
  58   2.0000      -0.310321        -8.4443
  59   2.0000      -0.310002        -8.4356
  60   0.0000       0.015480         0.4212
  61   0.0000       0.040673         1.1068
  62   0.0000       0.052791         1.4365
  63   0.0000       0.065175         1.7735
  64   0.0000       0.088228         2.4008

MULLIKEN ATOMIC CHARGES
-----------------------
   0 O :   -0.735208
   1 H :    0.392872
   2 H :    0.390422
   3 O :   -0.748635
   4 H :    0.376440
   5 H :    0.388996
   6 O :   -0.760780
   7 H :    0.374039
   8 H :    0.370872
   9 O :   -0.751962
  10 H :    0.388729
  11 H :    0.377867
  12 O :   -0.735254
  13 H :    0.390113
  14 H :    0.392739
  15 O :   -0.762039
  16 H :    0.374496
  17 H :    0.370409
  18 O :   -0.781141
  19 H :    0.371330
  20 H :    0.389681
  21 O :   -0.796709
  22 H :    0.392264
  23 H :    0.361823
  24 O :   -0.779925
  25 H :    0.370583
  26 H :    0.389958
  27 O :   -0.796496
  28 H :    0.360945
  29 H :    0.392888
  30 O :   -0.746692
  31 H :    0.375333
  32 H :    0.389458
  33 O :   -0.753829
  34 H :    0.378092
  35 H :    0.388321
Sum of atomic charges:   -0.0000000

LOEWDIN ATOMIC CHARGES
----------------------
   0 O :   -0.272982
   1 H :    0.157538
   2 H :    0.193083
   3 O :   -0.319564
   4 H :    0.148447
   5 H :    0.153152
   6 O :   -0.335553
   7 H :    0.148248
   8 H :    0.148070
   9 O :   -0.283040
  10 H :    0.188677
  11 H :    0.151383
  12 O :   -0.273744
  13 H :    0.192875
  14 H :    0.157679
  15 O :   -0.337527
  16 H :    0.147980
  17 H :    0.147311
  18 O :   -0.317343
  19 H :    0.139049
  20 H :    0.148397
  21 O :   -0.331128
  22 H :    0.148076
  23 H :    0.136777
  24 O :   -0.315154
  25 H :    0.139274
  26 H :    0.148543
  27 O :   -0.331221
  28 H :    0.137244
  29 H :    0.147646
  30 O :   -0.317305
  31 H :    0.147975
  32 H :    0.153228
  33 O :   -0.285350
  34 H :    0.150983
  35 H :    0.188275

  Mayer bond orders larger than 0.1
B(  0-O ,  1-H ) :   0.7824 B(  0-O ,  2-H ) :   0.8477 B(  0-O ,  7-H ) :   0.1037
B(  0-O , 17-H ) :   0.1115 B(  3-O ,  4-H ) :   0.7895 B(  3-O ,  5-H ) :   0.8115
B(  3-O , 11-H ) :   0.1732 B(  4-H , 33-O ) :   0.1190 B(  6-O ,  7-H ) :   0.8032
B(  6-O ,  8-H ) :   0.8011 B(  6-O , 29-H ) :   0.1568 B(  8-H , 12-O ) :   0.1106
B(  9-O , 10-H ) :   0.8478 B(  9-O , 11-H ) :   0.7291 B(  9-O , 26-H ) :   0.1305
B(  9-O , 31-H ) :   0.1187 B( 12-O , 13-H ) :   0.8479 B( 12-O , 14-H ) :   0.7833
B( 12-O , 16-H ) :   0.1031 B( 15-O , 16-H ) :   0.8034 B( 15-O , 17-H ) :   0.8008
B( 15-O , 22-H ) :   0.1549 B( 18-O , 19-H ) :   0.7413 B( 18-O , 20-H ) :   0.7689
B( 18-O , 28-H ) :   0.1515 B( 19-H , 21-O ) :   0.1658 B( 20-H , 33-O ) :   0.1301
B( 21-O , 22-H ) :   0.7476 B( 21-O , 23-H ) :   0.7559 B( 23-H , 24-O ) :   0.1534
B( 24-O , 25-H ) :   0.7428 B( 24-O , 26-H ) :   0.7686 B( 25-H , 27-O ) :   0.1647
B( 27-O , 28-H ) :   0.7585 B( 27-O , 29-H ) :   0.7455 B( 30-O , 31-H ) :   0.7907
B( 30-O , 32-H ) :   0.8110 B( 30-O , 34-H ) :   0.1753 B( 33-O , 34-H ) :   0.7270
B( 33-O , 35-H ) :   0.8482

Dispersion correction           -0.044570681
FINAL SINGLE POINT ENERGY      -917.367432880990

DIPOLE MOMENT
-------------
                                X             Y             Z
Electronic contribution:     -0.00662       0.04593      -0.01634
Nuclear contribution   :     -0.06954       0.23175      -0.13056
                        -----------------------------------------
Total Dipole Moment    :     -0.07617       0.27768      -0.14691
                        -----------------------------------------
Magnitude (a.u.)       :      0.32325
Magnitude (Debye)      :      0.82164

                             ****ORCA TERMINATED NORMALLY****
TOTAL RUN TIME: 0 days 0 hours 1 minutes 31 seconds 454 msec
