                         Program Version 3.0.3 - RELEASE   -
|  1> ! wB97X-D3 Def2-TZVP def2-TZVP/J RIJCOSX TightSCF Grid4
|  2>
|  3> %pal nprocs 12 end
|  4>
|  5> %scf
|  6>         maxiter 400
|  7> end
|  8>
|  9> * xyz  0  1
| 10> O  0.901961	-3.120213	-0.259040
| 11> H  0.515299	-2.474485	-0.934429
| 12> H  0.989594	-3.974955	-0.718415
| 13> O  -2.695138	1.590580	-0.881687
| 14> H  -2.227589	1.364984	-1.734872
| 15> H  -2.622909	0.746549	-0.354516
| 16> O  2.800583	-1.478863	0.919545
| 17> H  2.281310	-2.207567	0.488660
| 18> H  2.293574	-1.326777	1.760449
| 19> O  -0.921244	3.074375	0.206259
| 20> H  -1.294821	3.937099	0.462054
| 21> H  -1.709606	2.525233	-0.217145
| 22> O  0.982228	-0.933724	2.962388
| 23> H  1.235071	-0.780047	3.890582
| 24> H  0.652230	-0.044875	2.610348
| 25> O  -0.898061	-2.611922	1.810843
| 26> H  -0.269416	-2.122934	2.403673
| 27> H  -0.292246	-2.966519	1.107621
| 28> O  -0.174741	-1.115552	-1.501951
| 29> H  -0.847789	-0.911967	-0.752758
| 30> H  -0.463666	-0.512643	-2.248274
| 31> O  -1.724721	-0.506722	0.500598
| 32> H  -1.615742	-1.370112	1.038547
| 33> H  -1.054979	0.106077	0.944322
| 34> O  0.182772	1.069107	1.524097
| 35> H  0.850500	0.886567	0.764871
| 36> H  -0.214426	1.955837	1.277524
| 37> O  1.741235	0.458668	-0.470156
| 38> H  1.068168	-0.146525	-0.917597
| 39> H  2.345055	-0.211630	0.013697
| 40> O  0.777615	2.542846	-1.874431
| 41> H  0.244699	2.920531	-1.119308
| 42> H  1.393230	1.905535	-1.416130
| 43> O  -0.959219	0.980557	-2.907667
| 44> H  -0.226153	1.648688	-2.561782
| 45> H  -1.071659	1.167194	-3.857525
| 46> **                         ****END OF INPUT****

CARTESIAN COORDINATES (ANGSTROEM)
---------------------------------
  O      0.901961   -3.120213   -0.259040
  H      0.515299   -2.474485   -0.934429
  H      0.989594   -3.974955   -0.718415
  O     -2.695138    1.590580   -0.881687
  H     -2.227589    1.364984   -1.734872
  H     -2.622909    0.746549   -0.354516
  O      2.800583   -1.478863    0.919545
  H      2.281310   -2.207567    0.488660
  H      2.293574   -1.326777    1.760449
  O     -0.921244    3.074375    0.206259
  H     -1.294821    3.937099    0.462054
  H     -1.709606    2.525233   -0.217145
  O      0.982228   -0.933724    2.962388
  H      1.235071   -0.780047    3.890582
  H      0.652230   -0.044875    2.610348
  O     -0.898061   -2.611922    1.810843
  H     -0.269416   -2.122934    2.403673
  H     -0.292246   -2.966519    1.107621
  O     -0.174741   -1.115552   -1.501951
  H     -0.847789   -0.911967   -0.752758
  H     -0.463666   -0.512643   -2.248274
  O     -1.724721   -0.506722    0.500598
  H     -1.615742   -1.370112    1.038547
  H     -1.054979    0.106077    0.944322
  O      0.182772    1.069107    1.524097
  H      0.850500    0.886567    0.764871
  H     -0.214426    1.955837    1.277524
  O      1.741235    0.458668   -0.470156
  H      1.068168   -0.146525   -0.917597
  H      2.345055   -0.211630    0.013697
  O      0.777615    2.542846   -1.874431
  H      0.244699    2.920531   -1.119308
  H      1.393230    1.905535   -1.416130
  O     -0.959219    0.980557   -2.907667
  H     -0.226153    1.648688   -2.561782
  H     -1.071659    1.167194   -3.857525

 Total Charge           Charge          ....    0
 Multiplicity           Mult            ....    1
 Number of Electrons    NEL             ....  120
 Basis Dimension        Dim             ....  516

ORBITAL ENERGIES
----------------

  NO   OCC          E(Eh)            E(eV)
   0   2.0000     -19.258949      -524.0626
   1   2.0000     -19.258936      -524.0623
   2   2.0000     -19.250850      -523.8423
   3   2.0000     -19.250619      -523.8360
   4   2.0000     -19.237258      -523.4724
   5   2.0000     -19.236987      -523.4650
   6   2.0000     -19.234908      -523.4084
   7   2.0000     -19.234370      -523.3938
   8   2.0000     -19.230315      -523.2835
   9   2.0000     -19.229813      -523.2698
  10   2.0000     -19.224877      -523.1355
  11   2.0000     -19.224343      -523.1210
  12   2.0000      -1.158729       -31.5306
  13   2.0000      -1.148524       -31.2529
  14   2.0000      -1.148260       -31.2457
  15   2.0000      -1.137331       -30.9483
  16   2.0000      -1.132124       -30.8067
  17   2.0000      -1.129765       -30.7425
  18   2.0000      -1.118198       -30.4277
  19   2.0000      -1.115137       -30.3444
  20   2.0000      -1.113595       -30.3025
  21   2.0000      -1.107211       -30.1287
  22   2.0000      -1.100360       -29.9423
  23   2.0000      -1.087288       -29.5866
  24   2.0000      -0.671972       -18.2853
  25   2.0000      -0.671744       -18.2791
  26   2.0000      -0.653178       -17.7739
  27   2.0000      -0.650184       -17.6924
  28   2.0000      -0.641679       -17.4610
  29   2.0000      -0.635588       -17.2952
  30   2.0000      -0.630172       -17.1479
  31   2.0000      -0.626181       -17.0392
  32   2.0000      -0.620040       -16.8722
  33   2.0000      -0.619744       -16.8641
  34   2.0000      -0.615504       -16.7487
  35   2.0000      -0.611540       -16.6409
  36   2.0000      -0.584348       -15.9009
  37   2.0000      -0.557773       -15.1778
  38   2.0000      -0.547680       -14.9031
  39   2.0000      -0.532310       -14.4849
  40   2.0000      -0.520955       -14.1759
  41   2.0000      -0.517893       -14.0926
  42   2.0000      -0.509833       -13.8733
  43   2.0000      -0.506137       -13.7727
  44   2.0000      -0.490444       -13.3457
  45   2.0000      -0.486792       -13.2463
  46   2.0000      -0.475748       -12.9458
  47   2.0000      -0.455147       -12.3852
  48   2.0000      -0.440489       -11.9863
  49   2.0000      -0.438309       -11.9270
  50   2.0000      -0.435838       -11.8598
  51   2.0000      -0.433576       -11.7982
  52   2.0000      -0.424557       -11.5528
  53   2.0000      -0.420888       -11.4529
  54   2.0000      -0.419066       -11.4034
  55   2.0000      -0.417748       -11.3675
  56   2.0000      -0.416931       -11.3453
  57   2.0000      -0.413751       -11.2587
  58   2.0000      -0.401884       -10.9358
  59   2.0000      -0.401055       -10.9133
  60   0.0000       0.080481         2.1900
  61   0.0000       0.102306         2.7839
  62   0.0000       0.110560         3.0085
  63   0.0000       0.121278         3.3001
  64   0.0000       0.159747         4.3469

MULLIKEN ATOMIC CHARGES
-----------------------
   0 O :   -0.741138
   1 H :    0.391389
   2 H :    0.355252
   3 O :   -0.691984
   4 H :    0.365422
   5 H :    0.397168
   6 O :   -0.702493
   7 H :    0.360571
   8 H :    0.354327
   9 O :   -0.772995
  10 H :    0.355664
  11 H :    0.372462
  12 O :   -0.740948
  13 H :    0.355042
  14 H :    0.391114
  15 O :   -0.703381
  16 H :    0.361254
  17 H :    0.354450
  18 O :   -0.769006
  19 H :    0.363692
  20 H :    0.391171
  21 O :   -0.780348
  22 H :    0.411561
  23 H :    0.339583
  24 O :   -0.768868
  25 H :    0.362391
  26 H :    0.391535
  27 O :   -0.779671
  28 H :    0.338577
  29 H :    0.411900
  30 O :   -0.690762
  31 H :    0.365232
  32 H :    0.397264
  33 O :   -0.773386
  34 H :    0.372137
  35 H :    0.355818
Sum of atomic charges:   -0.0000000

LOEWDIN ATOMIC CHARGES
----------------------
   0 O :   -0.298034
   1 H :    0.152403
   2 H :    0.168378
   3 O :   -0.269533
   4 H :    0.148404
   5 H :    0.157639
   6 O :   -0.294537
   7 H :    0.147579
   8 H :    0.146170
   9 O :   -0.320299
  10 H :    0.163499
  11 H :    0.145150
  12 O :   -0.298043
  13 H :    0.168230
  14 H :    0.152262
  15 O :   -0.295552
  16 H :    0.147476
  17 H :    0.146102
  18 O :   -0.309416
  19 H :    0.137608
  20 H :    0.148489
  21 O :   -0.312336
  22 H :    0.154182
  23 H :    0.134561
  24 O :   -0.308214
  25 H :    0.137403
  26 H :    0.148495
  27 O :   -0.311832
  28 H :    0.134993
  29 H :    0.153749
  30 O :   -0.268415
  31 H :    0.148552
  32 H :    0.157635
  33 O :   -0.321061
  34 H :    0.144804
  35 H :    0.163508

  Mayer bond orders larger than 0.1
B(  0-O ,  1-H ) :   0.7733 B(  0-O ,  2-H ) :   0.8778 B(  1-H , 18-O ) :   0.1020
B(  3-O ,  4-H ) :   0.8155 B(  3-O ,  5-H ) :   0.8085 B(  3-O , 11-H ) :   0.2215
B(  6-O ,  7-H ) :   0.8342 B(  6-O ,  8-H ) :   0.8345 B(  6-O , 29-H ) :   0.1448
B(  9-O , 10-H ) :   0.8774 B(  9-O , 11-H ) :   0.6928 B(  9-O , 26-H ) :   0.1114
B( 12-O , 13-H ) :   0.8779 B( 12-O , 14-H ) :   0.7733 B( 14-H , 24-O ) :   0.1021
B( 15-O , 16-H ) :   0.8344 B( 15-O , 17-H ) :   0.8350 B( 15-O , 22-H ) :   0.1427
B( 18-O , 19-H ) :   0.7290 B( 18-O , 20-H ) :   0.7848 B( 18-O , 28-H ) :   0.1509
B( 19-H , 21-O ) :   0.1884 B( 20-H , 33-O ) :   0.1105 B( 21-O , 22-H ) :   0.7401
B( 21-O , 23-H ) :   0.7742 B( 23-H , 24-O ) :   0.1511 B( 24-O , 25-H ) :   0.7288
B( 24-O , 26-H ) :   0.7839 B( 25-H , 27-O ) :   0.1896 B( 27-O , 28-H ) :   0.7756
B( 27-O , 29-H ) :   0.7382 B( 30-O , 31-H ) :   0.8165 B( 30-O , 32-H ) :   0.8085
B( 30-O , 34-H ) :   0.2221 B( 33-O , 34-H ) :   0.6924 B( 33-O , 35-H ) :   0.8774

Dispersion correction           -0.022759573
FINAL SINGLE POINT ENERGY      -917.464143080044

DIPOLE MOMENT
-------------
                                X             Y             Z
Electronic contribution:      0.00702      -0.01034       0.00833
Nuclear contribution   :     -0.05728       0.17894      -0.10654
                        -----------------------------------------
Total Dipole Moment    :     -0.05025       0.16860      -0.09821
                        -----------------------------------------
Magnitude (a.u.)       :      0.20149
Magnitude (Debye)      :      0.51214

                             ****ORCA TERMINATED NORMALLY****
TOTAL RUN TIME: 0 days 0 hours 1 minutes 26 seconds 787 msec
