                         Program Version 3.0.3 - RELEASE   -
|  1> ! B3LYP Def2-TZVP def2-TZVP/J RIJCOSX TightSCF Grid4 D3BJ COSMO
|  2>
|  3> %pal nprocs 12 end
|  4>
|  5> %scf
|  6>         maxiter 400
|  7> end
|  8>
|  9> %cosmo
| 10>         SMD true
| 11>         solvent "WATER"
| 12> end
| 13>
| 14> * xyz  0  1
| 15> O  0.928005	-3.113740	-0.311126
| 16> H  0.514781	-2.526961	-0.988709
| 17> H  1.061921	-3.971300	-0.743105
| 18> O  -2.773347	1.468128	-0.913729
| 19> H  -2.273857	1.296058	-1.745961
| 20> H  -2.608021	0.673769	-0.361788
| 21> O  2.710487	-1.538591	1.015342
| 22> H  2.183927	-2.229694	0.550840
| 23> H  2.183531	-1.351627	1.825631
| 24> O  -0.960562	3.068983	0.166587
| 25> H  -1.301525	3.955141	0.362766
| 26> H  -1.731703	2.554302	-0.213924
| 27> O  0.900709	-0.941836	3.040358
| 28> H  1.105562	-0.853073	3.983410
| 29> H  0.653616	-0.040065	2.725655
| 30> O  -0.798388	-2.720510	1.808200
| 31> H  -0.206782	-2.189234	2.389526
| 32> H  -0.207832	-3.003326	1.072168
| 33> O  -0.311634	-1.128457	-1.568753
| 34> H  -0.888008	-0.910728	-0.789627
| 35> H  -0.559196	-0.467531	-2.263095
| 36> O  -1.648151	-0.456587	0.669180
| 37> H  -1.494973	-1.331328	1.123633
| 38> H  -0.981725	0.157946	1.064509
| 39> O  0.346081	1.202399	1.554332
| 40> H  0.925964	0.965496	0.782210
| 41> H  -0.134582	2.013700	1.257619
| 42> O  1.748854	0.376034	-0.581526
| 43> H  1.054004	-0.184475	-1.007611
| 44> H  2.277712	-0.272491	-0.038305
| 45> O  0.847769	2.676149	-1.837727
| 46> H  0.243380	2.959407	-1.110210
| 47> H  1.403329	1.982906	-1.423450
| 48> O  -0.944688	1.057948	-2.955055
| 49> H  -0.240142	1.708574	-2.668983
| 50> H  -1.053513	1.177008	-3.910888
| 51> **                         ****END OF INPUT****

CARTESIAN COORDINATES (ANGSTROEM)
---------------------------------
  O      0.928005   -3.113740   -0.311126
  H      0.514781   -2.526961   -0.988709
  H      1.061921   -3.971300   -0.743105
  O     -2.773347    1.468128   -0.913729
  H     -2.273857    1.296058   -1.745961
  H     -2.608021    0.673769   -0.361788
  O      2.710487   -1.538591    1.015342
  H      2.183927   -2.229694    0.550840
  H      2.183531   -1.351627    1.825631
  O     -0.960562    3.068983    0.166587
  H     -1.301525    3.955141    0.362766
  H     -1.731703    2.554302   -0.213924
  O      0.900709   -0.941836    3.040358
  H      1.105562   -0.853073    3.983410
  H      0.653616   -0.040065    2.725655
  O     -0.798388   -2.720510    1.808200
  H     -0.206782   -2.189234    2.389526
  H     -0.207832   -3.003326    1.072168
  O     -0.311634   -1.128457   -1.568753
  H     -0.888008   -0.910728   -0.789627
  H     -0.559196   -0.467531   -2.263095
  O     -1.648151   -0.456587    0.669180
  H     -1.494973   -1.331328    1.123633
  H     -0.981725    0.157946    1.064509
  O      0.346081    1.202399    1.554332
  H      0.925964    0.965496    0.782210
  H     -0.134582    2.013700    1.257619
  O      1.748854    0.376034   -0.581526
  H      1.054004   -0.184475   -1.007611
  H      2.277712   -0.272491   -0.038305
  O      0.847769    2.676149   -1.837727
  H      0.243380    2.959407   -1.110210
  H      1.403329    1.982906   -1.423450
  O     -0.944688    1.057948   -2.955055
  H     -0.240142    1.708574   -2.668983
  H     -1.053513    1.177008   -3.910888

 Total Charge           Charge          ....    0
 Multiplicity           Mult            ....    1
 Number of Electrons    NEL             ....  120
 Basis Dimension        Dim             ....  516

ORBITAL ENERGIES
----------------

  NO   OCC          E(Eh)            E(eV)
   0   2.0000     -19.137064      -520.7460
   1   2.0000     -19.136076      -520.7191
   2   2.0000     -19.132784      -520.6295
   3   2.0000     -19.132541      -520.6229
   4   2.0000     -19.124623      -520.4074
   5   2.0000     -19.124357      -520.4002
   6   2.0000     -19.124041      -520.3916
   7   2.0000     -19.123270      -520.3706
   8   2.0000     -19.122689      -520.3548
   9   2.0000     -19.121195      -520.3142
  10   2.0000     -19.118498      -520.2408
  11   2.0000     -19.117525      -520.2143
  12   2.0000      -1.037085       -28.2205
  13   2.0000      -1.026251       -27.9257
  14   2.0000      -1.023819       -27.8595
  15   2.0000      -1.016709       -27.6661
  16   2.0000      -1.015574       -27.6352
  17   2.0000      -1.014238       -27.5988
  18   2.0000      -1.004810       -27.3423
  19   2.0000      -1.002315       -27.2744
  20   2.0000      -0.999569       -27.1997
  21   2.0000      -0.993699       -27.0399
  22   2.0000      -0.992316       -27.0023
  23   2.0000      -0.980784       -26.6885
  24   2.0000      -0.555147       -15.1063
  25   2.0000      -0.553444       -15.0600
  26   2.0000      -0.541476       -14.7343
  27   2.0000      -0.540182       -14.6991
  28   2.0000      -0.537904       -14.6371
  29   2.0000      -0.532455       -14.4888
  30   2.0000      -0.527645       -14.3579
  31   2.0000      -0.526633       -14.3304
  32   2.0000      -0.521289       -14.1850
  33   2.0000      -0.520382       -14.1603
  34   2.0000      -0.517778       -14.0895
  35   2.0000      -0.515363       -14.0238
  36   2.0000      -0.465334       -12.6624
  37   2.0000      -0.447017       -12.1640
  38   2.0000      -0.439500       -11.9594
  39   2.0000      -0.423410       -11.5216
  40   2.0000      -0.413055       -11.2398
  41   2.0000      -0.405839       -11.0434
  42   2.0000      -0.403704       -10.9853
  43   2.0000      -0.401468       -10.9245
  44   2.0000      -0.388935       -10.5835
  45   2.0000      -0.380838       -10.3631
  46   2.0000      -0.374362       -10.1869
  47   2.0000      -0.361007        -9.8235
  48   2.0000      -0.334713        -9.1080
  49   2.0000      -0.331468        -9.0197
  50   2.0000      -0.330577        -8.9955
  51   2.0000      -0.329353        -8.9622
  52   2.0000      -0.325552        -8.8587
  53   2.0000      -0.324396        -8.8273
  54   2.0000      -0.323908        -8.8140
  55   2.0000      -0.320196        -8.7130
  56   2.0000      -0.319451        -8.6927
  57   2.0000      -0.318561        -8.6685
  58   2.0000      -0.313269        -8.5245
  59   2.0000      -0.311932        -8.4881
  60   0.0000       0.014378         0.3912
  61   0.0000       0.040590         1.1045
  62   0.0000       0.052593         1.4311
  63   0.0000       0.065475         1.7817
  64   0.0000       0.085770         2.3339

MULLIKEN ATOMIC CHARGES
-----------------------
   0 O :   -0.731795
   1 H :    0.390175
   2 H :    0.388874
   3 O :   -0.741952
   4 H :    0.371549
   5 H :    0.385967
   6 O :   -0.760395
   7 H :    0.373060
   8 H :    0.365863
   9 O :   -0.745073
  10 H :    0.386952
  11 H :    0.375083
  12 O :   -0.733677
  13 H :    0.388351
  14 H :    0.389900
  15 O :   -0.757364
  16 H :    0.372629
  17 H :    0.367655
  18 O :   -0.768732
  19 H :    0.365188
  20 H :    0.386893
  21 O :   -0.781483
  22 H :    0.387297
  23 H :    0.355886
  24 O :   -0.767906
  25 H :    0.365249
  26 H :    0.386023
  27 O :   -0.779253
  28 H :    0.355566
  29 H :    0.388283
  30 O :   -0.745737
  31 H :    0.369601
  32 H :    0.383647
  33 O :   -0.746921
  34 H :    0.373827
  35 H :    0.386768
Sum of atomic charges:    0.0000000

LOEWDIN ATOMIC CHARGES
----------------------
   0 O :   -0.264206
   1 H :    0.151953
   2 H :    0.188642
   3 O :   -0.307805
   4 H :    0.144971
   5 H :    0.146559
   6 O :   -0.326473
   7 H :    0.139582
   8 H :    0.141493
   9 O :   -0.273290
  10 H :    0.185037
  11 H :    0.144059
  12 O :   -0.270480
  13 H :    0.187975
  14 H :    0.151692
  15 O :   -0.326080
  16 H :    0.141661
  17 H :    0.140594
  18 O :   -0.301461
  19 H :    0.132919
  20 H :    0.142443
  21 O :   -0.306584
  22 H :    0.141233
  23 H :    0.133502
  24 O :   -0.302926
  25 H :    0.132915
  26 H :    0.142913
  27 O :   -0.311431
  28 H :    0.132672
  29 H :    0.142271
  30 O :   -0.314408
  31 H :    0.140046
  32 H :    0.148037
  33 O :   -0.278050
  34 H :    0.145269
  35 H :    0.184760

  Mayer bond orders larger than 0.1
B(  0-O ,  1-H ) :   0.7964 B(  0-O ,  2-H ) :   0.8503 B(  0-O , 17-H ) :   0.1023
B(  3-O ,  4-H ) :   0.8124 B(  3-O ,  5-H ) :   0.8198 B(  3-O , 11-H ) :   0.1477
B(  6-O ,  7-H ) :   0.8097 B(  6-O ,  8-H ) :   0.8144 B(  6-O , 29-H ) :   0.1306
B(  9-O , 10-H ) :   0.8512 B(  9-O , 11-H ) :   0.7545 B(  9-O , 26-H ) :   0.1113
B(  9-O , 31-H ) :   0.1122 B( 12-O , 13-H ) :   0.8510 B( 12-O , 14-H ) :   0.7985
B( 15-O , 16-H ) :   0.8145 B( 15-O , 17-H ) :   0.8113 B( 15-O , 22-H ) :   0.1408
B( 18-O , 19-H ) :   0.7734 B( 18-O , 20-H ) :   0.7842 B( 18-O , 28-H ) :   0.1320
B( 19-H , 21-O ) :   0.1358 B( 20-H , 33-O ) :   0.1175 B( 21-O , 22-H ) :   0.7667
B( 21-O , 23-H ) :   0.7827 B( 23-H , 24-O ) :   0.1323 B( 24-O , 25-H ) :   0.7709
B( 24-O , 26-H ) :   0.7894 B( 25-H , 27-O ) :   0.1414 B( 27-O , 28-H ) :   0.7828
B( 27-O , 29-H ) :   0.7731 B( 30-O , 31-H ) :   0.8030 B( 30-O , 32-H ) :   0.8259
B( 30-O , 34-H ) :   0.1456 B( 33-O , 34-H ) :   0.7583 B( 33-O , 35-H ) :   0.8514

Dispersion correction           -0.043556593
FINAL SINGLE POINT ENERGY      -917.378340781818

DIPOLE MOMENT
-------------
                                X             Y             Z
Electronic contribution:     -0.05806       0.02922      -0.03318
Nuclear contribution   :     -0.13684       0.17699      -0.24959
                        -----------------------------------------
Total Dipole Moment    :     -0.19490       0.20621      -0.28277
                        -----------------------------------------
Magnitude (a.u.)       :      0.40058
Magnitude (Debye)      :      1.01820

                             ****ORCA TERMINATED NORMALLY****
TOTAL RUN TIME: 0 days 0 hours 1 minutes 28 seconds 979 msec
