                         Program Version 3.0.3 - RELEASE   -
|  1> ! wB97X-D3 MA-Def2-TZVP def2-TZVP/J RIJCOSX TightSCF Grid4
|  2>
|  3> %pal nprocs 1 end
|  4>
|  5> %scf
|  6>         maxiter 400
|  7> end
|  8>
|  9> * xyz  0  1
| 10> O  0.880271	-3.160211	-0.309932
| 11> H  0.482505	-2.514323	-0.951266
| 12> H  0.981378	-3.993672	-0.788245
| 13> O  -2.715912	1.507512	-0.892322
| 14> H  -2.262707	1.291286	-1.735750
| 15> H  -2.638963	0.693547	-0.348184
| 16> O  2.724937	-1.480600	0.944598
| 17> H  2.231730	-2.214728	0.523772
| 18> H  2.260804	-1.344024	1.795654
| 19> O  -0.968913	3.069843	0.209280
| 20> H  -1.359730	3.929910	0.413230
| 21> H  -1.709999	2.511774	-0.202648
| 22> O  0.928146	-0.940593	3.058896
| 23> H  1.111129	-0.790099	3.995357
| 24> H  0.677975	-0.059091	2.677487
| 25> O  -0.878788	-2.689036	1.821858
| 26> H  -0.266468	-2.220797	2.426103
| 27> H  -0.291605	-3.034115	1.117339
| 28> O  -0.252453	-1.124236	-1.503189
| 29> H  -0.866701	-0.916162	-0.743231
| 30> H  -0.521662	-0.519254	-2.233832
| 31> O  -1.693130	-0.482878	0.622531
| 32> H  -1.592330	-1.344503	1.120791
| 33> H  -1.024144	0.118724	1.029947
| 34> O  0.328685	1.130263	1.537268
| 35> H  0.929402	0.940193	0.761624
| 36> H  -0.111958	1.979204	1.302659
| 37> O  1.781962	0.470481	-0.585304
| 38> H  1.102801	-0.120164	-0.992632
| 39> H  2.352133	-0.173237	-0.078683
| 40> O  0.790302	2.658980	-1.888828
| 41> H  0.249448	2.980740	-1.134683
| 42> H  1.428428	2.035404	-1.480344
| 43> O  -0.900304	1.010587	-2.973933
| 44> H  -0.218011	1.681706	-2.635675
| 45> H  -0.997257	1.173966	-3.921315
| 46> **                         ****END OF INPUT****

CARTESIAN COORDINATES (ANGSTROEM)
---------------------------------
  O      0.880271   -3.160211   -0.309932
  H      0.482505   -2.514323   -0.951266
  H      0.981378   -3.993672   -0.788245
  O     -2.715912    1.507512   -0.892322
  H     -2.262707    1.291286   -1.735750
  H     -2.638963    0.693547   -0.348184
  O      2.724937   -1.480600    0.944598
  H      2.231730   -2.214728    0.523772
  H      2.260804   -1.344024    1.795654
  O     -0.968913    3.069843    0.209280
  H     -1.359730    3.929910    0.413230
  H     -1.709999    2.511774   -0.202648
  O      0.928146   -0.940593    3.058896
  H      1.111129   -0.790099    3.995357
  H      0.677975   -0.059091    2.677487
  O     -0.878788   -2.689036    1.821858
  H     -0.266468   -2.220797    2.426103
  H     -0.291605   -3.034115    1.117339
  O     -0.252453   -1.124236   -1.503189
  H     -0.866701   -0.916162   -0.743231
  H     -0.521662   -0.519254   -2.233832
  O     -1.693130   -0.482878    0.622531
  H     -1.592330   -1.344503    1.120791
  H     -1.024144    0.118724    1.029947
  O      0.328685    1.130263    1.537268
  H      0.929402    0.940193    0.761624
  H     -0.111958    1.979204    1.302659
  O      1.781962    0.470481   -0.585304
  H      1.102801   -0.120164   -0.992632
  H      2.352133   -0.173237   -0.078683
  O      0.790302    2.658980   -1.888828
  H      0.249448    2.980740   -1.134683
  H      1.428428    2.035404   -1.480344
  O     -0.900304    1.010587   -2.973933
  H     -0.218011    1.681706   -2.635675
  H     -0.997257    1.173966   -3.921315

 Total Charge           Charge          ....    0
 Multiplicity           Mult            ....    1
 Number of Electrons    NEL             ....  120
 Basis Dimension        Dim             ....  564

ORBITAL ENERGIES
----------------

  NO   OCC          E(Eh)            E(eV)
   0   2.0000     -19.259803      -524.0859
   1   2.0000     -19.259615      -524.0808
   2   2.0000     -19.254667      -523.9461
   3   2.0000     -19.254191      -523.9332
   4   2.0000     -19.240536      -523.5616
   5   2.0000     -19.240102      -523.5498
   6   2.0000     -19.235528      -523.4253
   7   2.0000     -19.233736      -523.3766
   8   2.0000     -19.233398      -523.3674
   9   2.0000     -19.232548      -523.3442
  10   2.0000     -19.225458      -523.1513
  11   2.0000     -19.225374      -523.1490
  12   2.0000      -1.162328       -31.6286
  13   2.0000      -1.153506       -31.3885
  14   2.0000      -1.153013       -31.3751
  15   2.0000      -1.145088       -31.1594
  16   2.0000      -1.138785       -30.9879
  17   2.0000      -1.135699       -30.9039
  18   2.0000      -1.124700       -30.6046
  19   2.0000      -1.122357       -30.5409
  20   2.0000      -1.122145       -30.5351
  21   2.0000      -1.114884       -30.3375
  22   2.0000      -1.108796       -30.1719
  23   2.0000      -1.099781       -29.9266
  24   2.0000      -0.676163       -18.3993
  25   2.0000      -0.673770       -18.3342
  26   2.0000      -0.659492       -17.9457
  27   2.0000      -0.657091       -17.8804
  28   2.0000      -0.648646       -17.6505
  29   2.0000      -0.642242       -17.4763
  30   2.0000      -0.639072       -17.3900
  31   2.0000      -0.635796       -17.3009
  32   2.0000      -0.628467       -17.1014
  33   2.0000      -0.626489       -17.0476
  34   2.0000      -0.625069       -17.0090
  35   2.0000      -0.621343       -16.9076
  36   2.0000      -0.580046       -15.7839
  37   2.0000      -0.555060       -15.1039
  38   2.0000      -0.550055       -14.9677
  39   2.0000      -0.532389       -14.4870
  40   2.0000      -0.521677       -14.1956
  41   2.0000      -0.520549       -14.1649
  42   2.0000      -0.508928       -13.8486
  43   2.0000      -0.502708       -13.6794
  44   2.0000      -0.492395       -13.3987
  45   2.0000      -0.486727       -13.2445
  46   2.0000      -0.478443       -13.0191
  47   2.0000      -0.459714       -12.5095
  48   2.0000      -0.443513       -12.0686
  49   2.0000      -0.442282       -12.0351
  50   2.0000      -0.441478       -12.0132
  51   2.0000      -0.440161       -11.9774
  52   2.0000      -0.428852       -11.6697
  53   2.0000      -0.427411       -11.6304
  54   2.0000      -0.425466       -11.5775
  55   2.0000      -0.421582       -11.4718
  56   2.0000      -0.420212       -11.4346
  57   2.0000      -0.418894       -11.3987
  58   2.0000      -0.405719       -11.0402
  59   2.0000      -0.404580       -11.0092
  60   0.0000       0.051149         1.3918
  61   0.0000       0.067400         1.8340
  62   0.0000       0.068754         1.8709
  63   0.0000       0.080317         2.1855
  64   0.0000       0.104190         2.8351

MULLIKEN ATOMIC CHARGES
-----------------------
   0 O :   -0.799219
   1 H :    0.412832
   2 H :    0.360687
   3 O :   -0.743995
   4 H :    0.401377
   5 H :    0.418598
   6 O :   -0.739138
   7 H :    0.394559
   8 H :    0.386884
   9 O :   -0.844991
  10 H :    0.361180
  11 H :    0.416721
  12 O :   -0.802997
  13 H :    0.360691
  14 H :    0.411543
  15 O :   -0.714687
  16 H :    0.392223
  17 H :    0.388343
  18 O :   -0.831624
  19 H :    0.413633
  20 H :    0.424599
  21 O :   -0.909272
  22 H :    0.458162
  23 H :    0.388732
  24 O :   -0.816943
  25 H :    0.416190
  26 H :    0.419029
  27 O :   -0.884430
  28 H :    0.389337
  29 H :    0.455773
  30 O :   -0.741259
  31 H :    0.402541
  32 H :    0.418633
  33 O :   -0.843152
  34 H :    0.417713
  35 H :    0.361727
Sum of atomic charges:   -0.0000000

LOEWDIN ATOMIC CHARGES
----------------------
   0 O :   -0.379800
   1 H :    0.195581
   2 H :    0.193069
   3 O :   -0.351473
   4 H :    0.194080
   5 H :    0.197131
   6 O :   -0.372899
   7 H :    0.191159
   8 H :    0.191466
   9 O :   -0.395948
  10 H :    0.191754
  11 H :    0.187325
  12 O :   -0.382549
  13 H :    0.192857
  14 H :    0.196394
  15 O :   -0.368202
  16 H :    0.191210
  17 H :    0.189973
  18 O :   -0.402216
  19 H :    0.185412
  20 H :    0.193455
  21 O :   -0.401295
  22 H :    0.195253
  23 H :    0.186476
  24 O :   -0.401613
  25 H :    0.187491
  26 H :    0.195683
  27 O :   -0.403190
  28 H :    0.186950
  29 H :    0.197508
  30 O :   -0.354635
  31 H :    0.190595
  32 H :    0.199457
  33 O :   -0.397608
  34 H :    0.189582
  35 H :    0.191563

  Mayer bond orders larger than 0.1
B(  0-O ,  1-H ) :   0.8078 B(  0-O ,  2-H ) :   0.8742 B(  3-O ,  4-H ) :   0.8587
B(  3-O ,  5-H ) :   0.8347 B(  3-O , 11-H ) :   0.1254 B(  6-O ,  7-H ) :   0.8670
B(  6-O ,  8-H ) :   0.8689 B(  9-O , 10-H ) :   0.8729 B(  9-O , 11-H ) :   0.7438
B( 12-O , 13-H ) :   0.8751 B( 12-O , 14-H ) :   0.8087 B( 15-O , 16-H ) :   0.8702
B( 15-O , 17-H ) :   0.8666 B( 18-O , 19-H ) :   0.7853 B( 18-O , 20-H ) :   0.8112
B( 21-O , 22-H ) :   0.7746 B( 21-O , 23-H ) :   0.8301 B( 24-O , 25-H ) :   0.7830
B( 24-O , 26-H ) :   0.8156 B( 25-H , 27-O ) :   0.1017 B( 27-O , 28-H ) :   0.8321
B( 27-O , 29-H ) :   0.7911 B( 30-O , 31-H ) :   0.8530 B( 30-O , 32-H ) :   0.8403
B( 30-O , 34-H ) :   0.1217 B( 33-O , 34-H ) :   0.7439 B( 33-O , 35-H ) :   0.8721

Dispersion correction           -0.022225918
FINAL SINGLE POINT ENERGY      -917.484908752219

DIPOLE MOMENT
-------------
                                X             Y             Z
Electronic contribution:     -0.02038       0.01657       0.00144
Nuclear contribution   :     -0.08607       0.12657      -0.13682
                        -----------------------------------------
Total Dipole Moment    :     -0.10645       0.14314      -0.13538
                        -----------------------------------------
Magnitude (a.u.)       :      0.22394
Magnitude (Debye)      :      0.56921

                             ****ORCA TERMINATED NORMALLY****
TOTAL RUN TIME: 0 days 0 hours 15 minutes 30 seconds 677 msec
