                         Program Version 4.2.0 -  RELEASE  -
|  1> # 12h2o.su.etal.mol0,2,3,4,6,7,8,9
|  2> ! MP2 def2-TZVP EnGrad TightSCF
|  3>
|  4> %pal
|  5>     nprocs 6
|  6> end
|  7>
|  8> %maxcore 8000
|  9>
| 10> %scf
| 11>     ConvForced true
| 12> end
| 13>
| 14> *xyz 0 1
| 15> O   1.794470000   0.923410000   2.768350000
| 16> H   2.338250000   1.359750000   3.430940000
| 17> H   0.879480000   1.303000000   2.865760000
| 18> O   0.923410000  -1.794470000  -2.768350000
| 19> H   1.359750000  -2.338250000  -3.430940000
| 20> H   1.303000000  -0.879480000  -2.865760000
| 21> O  -1.752130000  -0.741530000  -2.896280000
| 22> H  -2.036450000  -0.920500000  -1.984040000
| 23> H  -0.921210000  -1.242140000  -2.984230000
| 24> O  -0.885520000   1.737840000   0.052730000
| 25> H  -1.032320000   2.090180000  -0.841890000
| 26> H  -1.284090000   0.839590000   0.017130000
| 27> O   1.737840000   0.885520000  -0.052730000
| 28> H   2.090180000   1.032320000   0.841890000
| 29> H   0.839590000   1.284090000  -0.017130000
| 30> O  -1.737840000  -0.885520000  -0.052730000
| 31> H  -2.090180000  -1.032320000   0.841890000
| 32> H  -0.839590000  -1.284090000  -0.017130000
| 33> O   1.752130000   0.741530000  -2.896280000
| 34> H   2.036450000   0.920500000  -1.984040000
| 35> H   0.921210000   1.242140000  -2.984230000
| 36> O   0.741530000  -1.752130000   2.896280000
| 37> H   0.920500000  -2.036450000   1.984040000
| 38> H   1.242140000  -0.921210000   2.984230000
| 39> *
| 40>
| 41>                          ****END OF INPUT****

CARTESIAN COORDINATES (ANGSTROEM)
---------------------------------
  O      1.794470    0.923410    2.768350
  H      2.338250    1.359750    3.430940
  H      0.879480    1.303000    2.865760
  O      0.923410   -1.794470   -2.768350
  H      1.359750   -2.338250   -3.430940
  H      1.303000   -0.879480   -2.865760
  O     -1.752130   -0.741530   -2.896280
  H     -2.036450   -0.920500   -1.984040
  H     -0.921210   -1.242140   -2.984230
  O     -0.885520    1.737840    0.052730
  H     -1.032320    2.090180   -0.841890
  H     -1.284090    0.839590    0.017130
  O      1.737840    0.885520   -0.052730
  H      2.090180    1.032320    0.841890
  H      0.839590    1.284090   -0.017130
  O     -1.737840   -0.885520   -0.052730
  H     -2.090180   -1.032320    0.841890
  H     -0.839590   -1.284090   -0.017130
  O      1.752130    0.741530   -2.896280
  H      2.036450    0.920500   -1.984040
  H      0.921210    1.242140   -2.984230
  O      0.741530   -1.752130    2.896280
  H      0.920500   -2.036450    1.984040
  H      1.242140   -0.921210    2.984230

 Total Charge           Charge          ....    0
 Multiplicity           Mult            ....    1
 Number of Electrons    NEL             ....   80
 Basis Dimension        Dim             ....  344

ORBITAL ENERGIES
----------------

  NO   OCC          E(Eh)            E(eV)
   0   2.0000     -20.620556      -561.1138
   1   2.0000     -20.614053      -560.9369
   2   2.0000     -20.577065      -559.9304
   3   2.0000     -20.565342      -559.6114
   4   2.0000     -20.553898      -559.3000
   5   2.0000     -20.544008      -559.0309
   6   2.0000     -20.535746      -558.8060
   7   2.0000     -20.512251      -558.1667
   8   2.0000      -1.400794       -38.1176
   9   2.0000      -1.397744       -38.0345
  10   2.0000      -1.362938       -37.0874
  11   2.0000      -1.355979       -36.8981
  12   2.0000      -1.336022       -36.3550
  13   2.0000      -1.328249       -36.1435
  14   2.0000      -1.319156       -35.8961
  15   2.0000      -1.296617       -35.2827
  16   2.0000      -0.766445       -20.8560
  17   2.0000      -0.754288       -20.5252
  18   2.0000      -0.731702       -19.9106
  19   2.0000      -0.719332       -19.5740
  20   2.0000      -0.706827       -19.2338
  21   2.0000      -0.705029       -19.1848
  22   2.0000      -0.702766       -19.1232
  23   2.0000      -0.678298       -18.4574
  24   2.0000      -0.643133       -17.5005
  25   2.0000      -0.633892       -17.2491
  26   2.0000      -0.613858       -16.7039
  27   2.0000      -0.603674       -16.4268
  28   2.0000      -0.589547       -16.0424
  29   2.0000      -0.571806       -15.5596
  30   2.0000      -0.562668       -15.3110
  31   2.0000      -0.551867       -15.0171
  32   2.0000      -0.545179       -14.8351
  33   2.0000      -0.531715       -14.4687
  34   2.0000      -0.517065       -14.0701
  35   2.0000      -0.503955       -13.7133
  36   2.0000      -0.501099       -13.6356
  37   2.0000      -0.494917       -13.4674
  38   2.0000      -0.483760       -13.1638
  39   2.0000      -0.462065       -12.5734
  40   0.0000       0.081315         2.2127
  41   0.0000       0.110481         3.0063
  42   0.0000       0.126163         3.4331
  43   0.0000       0.150939         4.1073
  44   0.0000       0.167452         4.5566

MULLIKEN ATOMIC CHARGES
-----------------------
   0 O :   -0.717108
   1 H :    0.366145
   2 H :    0.375929
   3 O :   -0.746116
   4 H :    0.337502
   5 H :    0.385942
   6 O :   -0.733528
   7 H :    0.358912
   8 H :    0.353146
   9 O :   -0.716898
  10 H :    0.353637
  11 H :    0.373264
  12 O :   -0.749163
  13 H :    0.367828
  14 H :    0.341713
  15 O :   -0.715563
  16 H :    0.370529
  17 H :    0.373426
  18 O :   -0.701275
  19 H :    0.391372
  20 H :    0.342377
  21 O :   -0.703743
  22 H :    0.331079
  23 H :    0.360592
Sum of atomic charges:    0.0000000

LOEWDIN ATOMIC CHARGES
----------------------
   0 O :   -0.287226
   1 H :    0.168960
   2 H :    0.193703
   3 O :   -0.344005
   4 H :    0.154007
   5 H :    0.146377
   6 O :   -0.356562
   7 H :    0.144859
   8 H :    0.143475
   9 O :   -0.311028
  10 H :    0.168125
  11 H :    0.145861
  12 O :   -0.349181
  13 H :    0.147770
  14 H :    0.136225
  15 O :   -0.273286
  16 H :    0.177445
  17 H :    0.183380
  18 O :   -0.277507
  19 H :    0.159847
  20 H :    0.166286
  21 O :   -0.343925
  22 H :    0.158756
  23 H :    0.147643

  Mayer bond orders larger than 0.100000
B(  0-O ,  1-H ) :   0.8309 B(  0-O ,  2-H ) :   0.8168 B(  3-O ,  4-H ) :   0.8505
B(  3-O ,  5-H ) :   0.7526 B(  6-O ,  7-H ) :   0.8358 B(  6-O ,  8-H ) :   0.8097
B(  9-O , 10-H ) :   0.8392 B(  9-O , 11-H ) :   0.7775 B(  9-O , 14-H ) :   0.1013
B( 12-O , 13-H ) :   0.8201 B( 12-O , 14-H ) :   0.7784 B( 15-O , 16-H ) :   0.8256
B( 15-O , 17-H ) :   0.8134 B( 18-O , 19-H ) :   0.7903 B( 18-O , 20-H ) :   0.8427
B( 21-O , 22-H ) :   0.8549 B( 21-O , 23-H ) :   0.8197

MP2 TOTAL ENERGY:     -610.578405735 Eh
FINAL SINGLE POINT ENERGY      -610.578405734907

DIPOLE MOMENT
-------------
                                X             Y             Z
Electronic contribution:      0.00095       0.06850       0.27592
Nuclear contribution   :      0.48188       0.98870       1.46039
                        -----------------------------------------
Total Dipole Moment    :      0.48283       1.05720       1.73631
                        -----------------------------------------
Magnitude (a.u.)       :      2.08939
Magnitude (Debye)      :      5.31081

Rotational constants in cm-1:     0.033256     0.017909     0.016138
Rotational constants in MHz :   997.001789   536.894631   483.792939

                             ****ORCA TERMINATED NORMALLY****
TOTAL RUN TIME: 0 days 0 hours 3 minutes 4 seconds 817 msec
