                         Program Version 4.2.0 -  RELEASE  -
|  1> # 12mecn.remya.etal.2.mol3,6
|  2> ! MP2 def2-TZVP EnGrad TightSCF
|  3>
|  4> %pal
|  5>     nprocs 6
|  6> end
|  7>
|  8> %maxcore 8000
|  9>
| 10> %scf
| 11>     ConvForced true
| 12> end
| 13>
| 14> *xyz 0 1
| 15> C  -5.181310000   2.853865000  -1.626100000
| 16> H  -5.488260000   3.811434000  -2.053310000
| 17> H  -5.857590000   2.068112000  -1.968630000
| 18> H  -4.170750000   2.611402000  -1.966640000
| 19> C  -5.187260000   2.919160000  -0.181450000
| 20> N  -5.181700000   2.970641000   0.983640000
| 21> C   5.300864000  -2.920090000   1.401103000
| 22> H   5.986071000  -2.139770000   1.737487000
| 23> H   5.636642000  -3.888750000   1.778233000
| 24> H   4.307359000  -2.697240000   1.799307000
| 25> C   5.234791000  -2.933140000  -0.043290000
| 26> N   5.170868000  -2.941760000  -1.207750000
| 27> *
| 28>
| 29>                          ****END OF INPUT****

CARTESIAN COORDINATES (ANGSTROEM)
---------------------------------
  C     -5.181310    2.853865   -1.626100
  H     -5.488260    3.811434   -2.053310
  H     -5.857590    2.068112   -1.968630
  H     -4.170750    2.611402   -1.966640
  C     -5.187260    2.919160   -0.181450
  N     -5.181700    2.970641    0.983640
  C      5.300864   -2.920090    1.401103
  H      5.986071   -2.139770    1.737487
  H      5.636642   -3.888750    1.778233
  H      4.307359   -2.697240    1.799307
  C      5.234791   -2.933140   -0.043290
  N      5.170868   -2.941760   -1.207750

 Total Charge           Charge          ....    0
 Multiplicity           Mult            ....    1
 Number of Electrons    NEL             ....   44
 Basis Dimension        Dim             ....  222

ORBITAL ENERGIES
----------------

  NO   OCC          E(Eh)            E(eV)
   0   2.0000     -15.573577      -423.7786
   1   2.0000     -15.573383      -423.7733
   2   2.0000     -11.284983      -307.0800
   3   2.0000     -11.284878      -307.0771
   4   2.0000     -11.280606      -306.9609
   5   2.0000     -11.280417      -306.9557
   6   2.0000      -1.215235       -33.0682
   7   2.0000      -1.215032       -33.0627
   8   2.0000      -1.044107       -28.4116
   9   2.0000      -1.043794       -28.4031
  10   2.0000      -0.701483       -19.0883
  11   2.0000      -0.701221       -19.0812
  12   2.0000      -0.633044       -17.2260
  13   2.0000      -0.632519       -17.2117
  14   2.0000      -0.630288       -17.1510
  15   2.0000      -0.630232       -17.1495
  16   2.0000      -0.556509       -15.1434
  17   2.0000      -0.556306       -15.1379
  18   2.0000      -0.458598       -12.4791
  19   2.0000      -0.458368       -12.4728
  20   2.0000      -0.458003       -12.4629
  21   2.0000      -0.457842       -12.4585
  22   0.0000       0.119035         3.2391
  23   0.0000       0.119229         3.2444
  24   0.0000       0.171000         4.6531
  25   0.0000       0.171181         4.6581
  26   0.0000       0.171406         4.6642

MULLIKEN ATOMIC CHARGES
-----------------------
   0 C :   -0.280757
   1 H :    0.172457
   2 H :    0.172283
   3 H :    0.172753
   4 C :   -0.145576
   5 N :   -0.091160
   6 C :   -0.280612
   7 H :    0.172281
   8 H :    0.172488
   9 H :    0.172661
  10 C :   -0.145636
  11 N :   -0.091183
Sum of atomic charges:    0.0000000

LOEWDIN ATOMIC CHARGES
----------------------
   0 C :   -0.283805
   1 H :    0.151519
   2 H :    0.151642
   3 H :    0.153299
   4 C :   -0.218790
   5 N :    0.046136
   6 C :   -0.283711
   7 H :    0.151642
   8 H :    0.151459
   9 H :    0.153269
  10 C :   -0.218796
  11 N :    0.046138

  Mayer bond orders larger than 0.100000
B(  0-C ,  1-H ) :   0.9162 B(  0-C ,  2-H ) :   0.9167 B(  0-C ,  3-H ) :   0.9166
B(  0-C ,  4-C ) :   0.9025 B(  4-C ,  5-N ) :   2.8374 B(  6-C ,  7-H ) :   0.9168
B(  6-C ,  8-H ) :   0.9161 B(  6-C ,  9-H ) :   0.9166 B(  6-C , 10-C ) :   0.9025
B( 10-C , 11-N ) :   2.8375

MP2 TOTAL ENERGY:     -264.966509161 Eh
FINAL SINGLE POINT ENERGY      -264.966509160660

DIPOLE MOMENT
-------------
                                X             Y             Z
Electronic contribution:     -0.15491       0.11018      -0.00034
Nuclear contribution   :      0.23179      -0.16549       0.00019
                        -----------------------------------------
Total Dipole Moment    :      0.07688      -0.05531      -0.00015
                        -----------------------------------------
Magnitude (a.u.)       :      0.09471
Magnitude (Debye)      :      0.24072

Rotational constants in cm-1:     0.154535     0.005733     0.005540
Rotational constants in MHz :  4632.829056   171.882287   166.080980

                             ****ORCA TERMINATED NORMALLY****
TOTAL RUN TIME: 0 days 0 hours 0 minutes 32 seconds 599 msec
