                         Program Version 4.2.0 -  RELEASE  -
|  1> # 12h2o.su.etal.mol0,1,3,4,5,6,7,10
|  2> ! MP2 def2-TZVP EnGrad TightSCF
|  3>
|  4> %pal
|  5>     nprocs 6
|  6> end
|  7>
|  8> %maxcore 8000
|  9>
| 10> %scf
| 11>     ConvForced true
| 12> end
| 13>
| 14> *xyz 0 1
| 15> O   1.794470000   0.923410000   2.768350000
| 16> H   2.338250000   1.359750000   3.430940000
| 17> H   0.879480000   1.303000000   2.865760000
| 18> O  -1.794470000  -0.923410000   2.768350000
| 19> H  -2.338250000  -1.359750000   3.430940000
| 20> H  -0.879480000  -1.303000000   2.865760000
| 21> O  -1.752130000  -0.741530000  -2.896280000
| 22> H  -2.036450000  -0.920500000  -1.984040000
| 23> H  -0.921210000  -1.242140000  -2.984230000
| 24> O  -0.885520000   1.737840000   0.052730000
| 25> H  -1.032320000   2.090180000  -0.841890000
| 26> H  -1.284090000   0.839590000   0.017130000
| 27> O   0.885520000  -1.737840000   0.052730000
| 28> H   1.284090000  -0.839590000   0.017130000
| 29> H   1.032320000  -2.090180000  -0.841890000
| 30> O   1.737840000   0.885520000  -0.052730000
| 31> H   2.090180000   1.032320000   0.841890000
| 32> H   0.839590000   1.284090000  -0.017130000
| 33> O  -1.737840000  -0.885520000  -0.052730000
| 34> H  -2.090180000  -1.032320000   0.841890000
| 35> H  -0.839590000  -1.284090000  -0.017130000
| 36> O  -0.923410000   1.794470000  -2.768350000
| 37> H  -1.359750000   2.338250000  -3.430940000
| 38> H  -1.303000000   0.879480000  -2.865760000
| 39> *
| 40>
| 41>                          ****END OF INPUT****

CARTESIAN COORDINATES (ANGSTROEM)
---------------------------------
  O      1.794470    0.923410    2.768350
  H      2.338250    1.359750    3.430940
  H      0.879480    1.303000    2.865760
  O     -1.794470   -0.923410    2.768350
  H     -2.338250   -1.359750    3.430940
  H     -0.879480   -1.303000    2.865760
  O     -1.752130   -0.741530   -2.896280
  H     -2.036450   -0.920500   -1.984040
  H     -0.921210   -1.242140   -2.984230
  O     -0.885520    1.737840    0.052730
  H     -1.032320    2.090180   -0.841890
  H     -1.284090    0.839590    0.017130
  O      0.885520   -1.737840    0.052730
  H      1.284090   -0.839590    0.017130
  H      1.032320   -2.090180   -0.841890
  O      1.737840    0.885520   -0.052730
  H      2.090180    1.032320    0.841890
  H      0.839590    1.284090   -0.017130
  O     -1.737840   -0.885520   -0.052730
  H     -2.090180   -1.032320    0.841890
  H     -0.839590   -1.284090   -0.017130
  O     -0.923410    1.794470   -2.768350
  H     -1.359750    2.338250   -3.430940
  H     -1.303000    0.879480   -2.865760

 Total Charge           Charge          ....    0
 Multiplicity           Mult            ....    1
 Number of Electrons    NEL             ....   80
 Basis Dimension        Dim             ....  344

ORBITAL ENERGIES
----------------

  NO   OCC          E(Eh)            E(eV)
   0   2.0000     -20.593451      -560.3763
   1   2.0000     -20.584181      -560.1240
   2   2.0000     -20.571793      -559.7869
   3   2.0000     -20.558666      -559.4297
   4   2.0000     -20.554173      -559.3075
   5   2.0000     -20.530021      -558.6503
   6   2.0000     -20.519826      -558.3729
   7   2.0000     -20.517708      -558.3152
   8   2.0000      -1.372278       -37.3416
   9   2.0000      -1.363175       -37.0939
  10   2.0000      -1.362272       -37.0693
  11   2.0000      -1.352180       -36.7947
  12   2.0000      -1.337177       -36.3864
  13   2.0000      -1.318116       -35.8678
  14   2.0000      -1.310245       -35.6536
  15   2.0000      -1.296525       -35.2802
  16   2.0000      -0.738809       -20.1040
  17   2.0000      -0.728676       -19.8283
  18   2.0000      -0.725936       -19.7537
  19   2.0000      -0.712327       -19.3834
  20   2.0000      -0.709066       -19.2947
  21   2.0000      -0.698307       -19.0019
  22   2.0000      -0.681193       -18.5362
  23   2.0000      -0.680027       -18.5045
  24   2.0000      -0.628347       -17.0982
  25   2.0000      -0.608180       -16.5494
  26   2.0000      -0.604133       -16.4393
  27   2.0000      -0.592794       -16.1308
  28   2.0000      -0.576582       -15.6896
  29   2.0000      -0.575437       -15.6585
  30   2.0000      -0.557533       -15.1713
  31   2.0000      -0.542836       -14.7713
  32   2.0000      -0.531378       -14.4595
  33   2.0000      -0.519409       -14.1338
  34   2.0000      -0.506462       -13.7815
  35   2.0000      -0.502941       -13.6857
  36   2.0000      -0.496911       -13.5216
  37   2.0000      -0.478223       -13.0131
  38   2.0000      -0.471019       -12.8171
  39   2.0000      -0.464115       -12.6292
  40   0.0000       0.096909         2.6370
  41   0.0000       0.116315         3.1651
  42   0.0000       0.130561         3.5527
  43   0.0000       0.163019         4.4360
  44   0.0000       0.188196         5.1211

MULLIKEN ATOMIC CHARGES
-----------------------
   0 O :   -0.705794
   1 H :    0.349651
   2 H :    0.367725
   3 O :   -0.703244
   4 H :    0.352205
   5 H :    0.368314
   6 O :   -0.693933
   7 H :    0.391223
   8 H :    0.340469
   9 O :   -0.743486
  10 H :    0.375970
  11 H :    0.360511
  12 O :   -0.719008
  13 H :    0.379587
  14 H :    0.336708
  15 O :   -0.736366
  16 H :    0.368377
  17 H :    0.365899
  18 O :   -0.757922
  19 H :    0.383279
  20 H :    0.350696
  21 O :   -0.734834
  22 H :    0.332215
  23 H :    0.371758
Sum of atomic charges:   -0.0000000

LOEWDIN ATOMIC CHARGES
----------------------
   0 O :   -0.314060
   1 H :    0.162341
   2 H :    0.189255
   3 O :   -0.311385
   4 H :    0.163864
   5 H :    0.189899
   6 O :   -0.276180
   7 H :    0.158636
   8 H :    0.167124
   9 O :   -0.323297
  10 H :    0.149564
  11 H :    0.138148
  12 O :   -0.313252
  13 H :    0.147342
  14 H :    0.160229
  15 O :   -0.318293
  16 H :    0.146490
  17 H :    0.141285
  18 O :   -0.305996
  19 H :    0.153631
  20 H :    0.138949
  21 O :   -0.340313
  22 H :    0.151662
  23 H :    0.144357

  Mayer bond orders larger than 0.100000
B(  0-O ,  1-H ) :   0.8430 B(  0-O ,  2-H ) :   0.8232 B(  3-O ,  4-H ) :   0.8418
B(  3-O ,  5-H ) :   0.8231 B(  6-O ,  7-H ) :   0.7928 B(  6-O ,  8-H ) :   0.8465
B(  9-O , 10-H ) :   0.7998 B(  9-O , 11-H ) :   0.7859 B(  9-O , 17-H ) :   0.1125
B( 12-O , 13-H ) :   0.7424 B( 12-O , 14-H ) :   0.8496 B( 12-O , 20-H ) :   0.1184
B( 13-H , 15-O ) :   0.1317 B( 15-O , 16-H ) :   0.8150 B( 15-O , 17-H ) :   0.7639
B( 18-O , 19-H ) :   0.8002 B( 18-O , 20-H ) :   0.7584 B( 21-O , 22-H ) :   0.8531
B( 21-O , 23-H ) :   0.7620

MP2 TOTAL ENERGY:     -610.592765376 Eh
FINAL SINGLE POINT ENERGY      -610.592765375938

DIPOLE MOMENT
-------------
                                X             Y             Z
Electronic contribution:     -0.03731      -0.04343       0.18213
Nuclear contribution   :     -0.22418      -0.87464       1.31870
                        -----------------------------------------
Total Dipole Moment    :     -0.26149      -0.91806       1.50083
                        -----------------------------------------
Magnitude (a.u.)       :      1.77868
Magnitude (Debye)      :      4.52105

Rotational constants in cm-1:     0.034543     0.020923     0.017620
Rotational constants in MHz :  1035.573857   627.257182   528.235910

                             ****ORCA TERMINATED NORMALLY****
TOTAL RUN TIME: 0 days 0 hours 3 minutes 15 seconds 973 msec
