                         Program Version 4.2.0 -  RELEASE  -
|  1> # 12h2o.su.etal.mol0,1,4,7,8,10
|  2> ! MP2 def2-TZVP EnGrad TightSCF
|  3>
|  4> %pal
|  5>     nprocs 6
|  6> end
|  7>
|  8> %maxcore 8000
|  9>
| 10> %scf
| 11>     ConvForced true
| 12> end
| 13>
| 14> *xyz 0 1
| 15> O   1.794470000   0.923410000   2.768350000
| 16> H   2.338250000   1.359750000   3.430940000
| 17> H   0.879480000   1.303000000   2.865760000
| 18> O  -1.794470000  -0.923410000   2.768350000
| 19> H  -2.338250000  -1.359750000   3.430940000
| 20> H  -0.879480000  -1.303000000   2.865760000
| 21> O  -0.885520000   1.737840000   0.052730000
| 22> H  -1.032320000   2.090180000  -0.841890000
| 23> H  -1.284090000   0.839590000   0.017130000
| 24> O  -1.737840000  -0.885520000  -0.052730000
| 25> H  -2.090180000  -1.032320000   0.841890000
| 26> H  -0.839590000  -1.284090000  -0.017130000
| 27> O   1.752130000   0.741530000  -2.896280000
| 28> H   2.036450000   0.920500000  -1.984040000
| 29> H   0.921210000   1.242140000  -2.984230000
| 30> O  -0.923410000   1.794470000  -2.768350000
| 31> H  -1.359750000   2.338250000  -3.430940000
| 32> H  -1.303000000   0.879480000  -2.865760000
| 33> *
| 34>
| 35>                          ****END OF INPUT****

CARTESIAN COORDINATES (ANGSTROEM)
---------------------------------
  O      1.794470    0.923410    2.768350
  H      2.338250    1.359750    3.430940
  H      0.879480    1.303000    2.865760
  O     -1.794470   -0.923410    2.768350
  H     -2.338250   -1.359750    3.430940
  H     -0.879480   -1.303000    2.865760
  O     -0.885520    1.737840    0.052730
  H     -1.032320    2.090180   -0.841890
  H     -1.284090    0.839590    0.017130
  O     -1.737840   -0.885520   -0.052730
  H     -2.090180   -1.032320    0.841890
  H     -0.839590   -1.284090   -0.017130
  O      1.752130    0.741530   -2.896280
  H      2.036450    0.920500   -1.984040
  H      0.921210    1.242140   -2.984230
  O     -0.923410    1.794470   -2.768350
  H     -1.359750    2.338250   -3.430940
  H     -1.303000    0.879480   -2.865760

 Total Charge           Charge          ....    0
 Multiplicity           Mult            ....    1
 Number of Electrons    NEL             ....   60
 Basis Dimension        Dim             ....  258

ORBITAL ENERGIES
----------------

  NO   OCC          E(Eh)            E(eV)
   0   2.0000     -20.596872      -560.4694
   1   2.0000     -20.596352      -560.4552
   2   2.0000     -20.564942      -559.6005
   3   2.0000     -20.554334      -559.3119
   4   2.0000     -20.522426      -558.4436
   5   2.0000     -20.496540      -557.7392
   6   2.0000      -1.376548       -37.4578
   7   2.0000      -1.375274       -37.4231
   8   2.0000      -1.347910       -36.6785
   9   2.0000      -1.329688       -36.1827
  10   2.0000      -1.304917       -35.5086
  11   2.0000      -1.280880       -34.8545
  12   2.0000      -0.742185       -20.1959
  13   2.0000      -0.741511       -20.1775
  14   2.0000      -0.712062       -19.3762
  15   2.0000      -0.697641       -18.9838
  16   2.0000      -0.675980       -18.3944
  17   2.0000      -0.665799       -18.1173
  18   2.0000      -0.619112       -16.8469
  19   2.0000      -0.612898       -16.6778
  20   2.0000      -0.586485       -15.9591
  21   2.0000      -0.566576       -15.4173
  22   2.0000      -0.562257       -15.2998
  23   2.0000      -0.538945       -14.6654
  24   2.0000      -0.533633       -14.5209
  25   2.0000      -0.518938       -14.1210
  26   2.0000      -0.497871       -13.5478
  27   2.0000      -0.491886       -13.3849
  28   2.0000      -0.470346       -12.7988
  29   2.0000      -0.447202       -12.1690
  30   0.0000       0.094930         2.5832
  31   0.0000       0.115264         3.1365
  32   0.0000       0.142019         3.8645
  33   0.0000       0.155893         4.2421
  34   0.0000       0.184581         5.0227

MULLIKEN ATOMIC CHARGES
-----------------------
   0 O :   -0.694550
   1 H :    0.335303
   2 H :    0.358255
   3 O :   -0.697478
   4 H :    0.353338
   5 H :    0.359909
   6 O :   -0.734978
   7 H :    0.351390
   8 H :    0.345222
   9 O :   -0.702851
  10 H :    0.379393
  11 H :    0.344191
  12 O :   -0.712117
  13 H :    0.339145
  14 H :    0.355030
  15 O :   -0.710183
  16 H :    0.357554
  17 H :    0.373428
Sum of atomic charges:   -0.0000000

LOEWDIN ATOMIC CHARGES
----------------------
   0 O :   -0.343275
   1 H :    0.156590
   2 H :    0.185169
   3 O :   -0.309170
   4 H :    0.164190
   5 H :    0.187127
   6 O :   -0.370854
   7 H :    0.140292
   8 H :    0.136206
   9 O :   -0.302550
  10 H :    0.153718
  11 H :    0.172819
  12 O :   -0.350394
  13 H :    0.163997
  14 H :    0.145349
  15 O :   -0.286349
  16 H :    0.164679
  17 H :    0.192457

  Mayer bond orders larger than 0.100000
B(  0-O ,  1-H ) :   0.8546 B(  0-O ,  2-H ) :   0.8320 B(  3-O ,  4-H ) :   0.8409
B(  3-O ,  5-H ) :   0.8284 B(  6-O ,  7-H ) :   0.8363 B(  6-O ,  8-H ) :   0.8043
B(  9-O , 10-H ) :   0.8029 B(  9-O , 11-H ) :   0.8425 B( 12-O , 13-H ) :   0.8510
B( 12-O , 14-H ) :   0.8251 B( 15-O , 16-H ) :   0.8355 B( 15-O , 17-H ) :   0.8186

MP2 TOTAL ENERGY:     -457.908746605 Eh
FINAL SINGLE POINT ENERGY      -457.908746604653

DIPOLE MOMENT
-------------
                                X             Y             Z
Electronic contribution:     -0.10650      -0.03674      -0.10685
Nuclear contribution   :     -1.13367      -0.65166       1.31870
                        -----------------------------------------
Total Dipole Moment    :     -1.24017      -0.68840       1.21185
                        -----------------------------------------
Magnitude (a.u.)       :      1.86561
Magnitude (Debye)      :      4.74200

Rotational constants in cm-1:     0.049690     0.024036     0.019138
Rotational constants in MHz :  1489.668776   720.595281   573.757651

                             ****ORCA TERMINATED NORMALLY****
TOTAL RUN TIME: 0 days 0 hours 0 minutes 55 seconds 334 msec
