                         Program Version 3.0.3 - RELEASE   -
|  1> ! B3LYP Def2-SVP def2-SVP/J RIJCOSX TightSCF Grid4 D3BJ COSMO OPT
|  2>
|  3> %pal nprocs 12 end
|  4>
|  5> %scf
|  6>         maxiter 800
|  7> end
|  8>
|  9> %cosmo
| 10>         SMD true
| 11>         solvent "WATER"
| 12> end
| 13>
| 14> * xyz  0  1
| 15>   O      0.626597    2.379461    0.094233
| 16>   H     -0.213615    2.080784   -0.253715
| 17>   H      0.536947    3.330545    0.154512
| 18>   O     -2.032177   -0.481306    1.304586
| 19>   H     -1.239469   -0.118478    1.699809
| 20>   H     -2.694487   -0.416911    1.992649
| 21>   O     -1.649780    1.290088   -0.812103
| 22>   H     -1.962881    0.718868   -0.110742
| 23>   H     -1.286441    0.691632   -1.464841
| 24>   O      1.704338   -1.378437    0.833847
| 25>   H      0.963887   -1.873508    0.483319
| 26>   H      1.990121   -0.826462    0.105916
| 27>   O     -0.269659   -0.559013   -2.261623
| 28>   H     -0.416590   -1.298503   -1.671879
| 29>   H      0.616019   -0.260065   -2.055625
| 30>   O      2.096410    0.456491   -1.211328
| 31>   H      1.682289    1.202595   -0.777665
| 32>   H      2.890792    0.817990   -1.604402
| 33>   O     -0.688242   -2.358141   -0.190066
| 34>   H     -1.245921   -1.791886    0.343395
| 35>   H     -1.116937   -3.213479   -0.160919
| 36>   O      0.294926    0.539564    2.160439
| 37>   H      0.886527   -0.151572    1.862830
| 38>   H      0.482342    1.280515    1.584159
| 39> **                         ****END OF INPUT****
 Total Charge           Charge          ....    0
 Multiplicity           Mult            ....    1
 Number of Electrons    NEL             ....   80
Dispersion correction           -0.024417770
FINAL SINGLE POINT ENERGY      -610.802015423675
Dispersion correction            ...
Dispersion correction           -0.024011148
FINAL SINGLE POINT ENERGY      -610.810610442356
Dispersion correction            ...
Dispersion correction           -0.024448949
FINAL SINGLE POINT ENERGY      -610.811972409232
Dispersion correction            ...
FINAL SINGLE POINT ENERGY      -610.812726785926
FINAL SINGLE POINT ENERGY      -610.813031263671
FINAL SINGLE POINT ENERGY      -610.813169795553
FINAL SINGLE POINT ENERGY      -610.813423017864
FINAL SINGLE POINT ENERGY      -610.813714552754
FINAL SINGLE POINT ENERGY      -610.814002336014
FINAL SINGLE POINT ENERGY      -610.822745223608
FINAL SINGLE POINT ENERGY      -610.823794563303
FINAL SINGLE POINT ENERGY      -610.815385199532
FINAL SINGLE POINT ENERGY      -610.815412590266
FINAL SINGLE POINT ENERGY      -610.815471974038
FINAL SINGLE POINT ENERGY      -610.815472064143
FINAL SINGLE POINT ENERGY      -610.815467859568
FINAL SINGLE POINT ENERGY      -610.815518276228
Dispersion correction            ...
Dispersion correction           -0.025253138
FINAL SINGLE POINT ENERGY      -610.815561062529
Dispersion correction            ...
Dispersion correction           -0.025250945
FINAL SINGLE POINT ENERGY      -610.824039063781
Dispersion correction            ...
                    ***********************HURRAY********************

CARTESIAN COORDINATES (ANGSTROEM)
---------------------------------
  O      0.531003    2.246906    0.195966
  H     -0.333254    2.024242   -0.265391
  H      0.618590    3.211649    0.165244
  O     -1.960002   -0.330218    1.229284
  H     -1.145136   -0.038547    1.745413
  H     -2.672627   -0.432544    1.878421
  O     -1.653707    1.290994   -0.946039
  H     -1.932186    0.757878   -0.166085
  H     -1.223242    0.626681   -1.544867
  O      1.793771   -1.400150    0.854589
  H      0.986024   -1.853313    0.519384
  H      2.020309   -0.787400    0.117454
  O     -0.283337   -0.609607   -2.345333
  H     -0.445052   -1.301565   -1.662295
  H      0.590789   -0.244593   -2.074810
  O      1.956604    0.445998   -1.163368
  H      1.556060    1.231411   -0.706048
  H      2.742253    0.778660   -1.623357
  O     -0.632104   -2.192669   -0.140047
  H     -1.245356   -1.627671    0.400384
  H     -1.022229   -3.080363   -0.132136
  O      0.330044    0.416034    2.231183
  H      0.928484   -0.269198    1.831917
  H      0.449297    1.198159    1.645321

 Multiplicity           Mult            ....    1
 Number of Electrons    NEL             ....   80
 Basis Dimension        Dim             ....  192

ORBITAL ENERGIES
----------------

  NO   OCC          E(Eh)            E(eV)
   0   2.0000     -19.136155      -520.7213
   1   2.0000     -19.135942      -520.7155
   2   2.0000     -19.135029      -520.6906
   3   2.0000     -19.133052      -520.6368
   4   2.0000     -19.112672      -520.0823
   5   2.0000     -19.111686      -520.0554
   6   2.0000     -19.111024      -520.0374
   7   2.0000     -19.110049      -520.0109
   8   2.0000      -1.006591       -27.3907
   9   2.0000      -0.997184       -27.1347
  10   2.0000      -0.988724       -26.9045
  11   2.0000      -0.981122       -26.6977
  12   2.0000      -0.976530       -26.5727
  13   2.0000      -0.968793       -26.3622
  14   2.0000      -0.959137       -26.0994
  15   2.0000      -0.950873       -25.8746
  16   2.0000      -0.538648       -14.6573
  17   2.0000      -0.538339       -14.6490
  18   2.0000      -0.520408       -14.1610
  19   2.0000      -0.517136       -14.0720
  20   2.0000      -0.507685       -13.8148
  21   2.0000      -0.504436       -13.7264
  22   2.0000      -0.503090       -13.6898
  23   2.0000      -0.500266       -13.6129
  24   2.0000      -0.439994       -11.9728
  25   2.0000      -0.414931       -11.2908
  26   2.0000      -0.403605       -10.9827
  27   2.0000      -0.389423       -10.5967
  28   2.0000      -0.383501       -10.4356
  29   2.0000      -0.374859       -10.2004
  30   2.0000      -0.365056        -9.9337
  31   2.0000      -0.344697        -9.3797
  32   2.0000      -0.317463        -8.6386
  33   2.0000      -0.316605        -8.6153
  34   2.0000      -0.313203        -8.5227
  35   2.0000      -0.310840        -8.4584
  36   2.0000      -0.300925        -8.1886
  37   2.0000      -0.300020        -8.1640
  38   2.0000      -0.293553        -7.9880
  39   2.0000      -0.292848        -7.9688
  40   0.0000       0.042803         1.1647
  41   0.0000       0.073535         2.0010
  42   0.0000       0.091374         2.4864
  43   0.0000       0.106266         2.8916
  44   0.0000       0.147764         4.0209

MULLIKEN ATOMIC CHARGES
-----------------------
   0 O :   -0.325222
   1 H :    0.165744
   2 H :    0.222082
   3 O :   -0.329380
   4 H :    0.169914
   5 H :    0.221225
   6 O :   -0.378530
   7 H :    0.159650
   8 H :    0.145197
   9 O :   -0.376217
  10 H :    0.158857
  11 H :    0.156825
  12 O :   -0.378484
  13 H :    0.156021
  14 H :    0.156978
  15 O :   -0.316417
  16 H :    0.166185
  17 H :    0.221622
  18 O :   -0.316407
  19 H :    0.164940
  20 H :    0.221927
  21 O :   -0.374483
  22 H :    0.148288
  23 H :    0.159686
Sum of atomic charges:   -0.0000000

LOEWDIN ATOMIC CHARGES
----------------------
   0 O :   -0.080287
   1 H :    0.043131
   2 H :    0.112680
   3 O :   -0.081912
   4 H :    0.039759
   5 H :    0.111776
   6 O :   -0.150170
   7 H :    0.038285
   8 H :    0.034591
   9 O :   -0.159766
  10 H :    0.039560
  11 H :    0.039375
  12 O :   -0.164834
  13 H :    0.038143
  14 H :    0.038700
  15 O :   -0.077707
  16 H :    0.046630
  17 H :    0.113906
  18 O :   -0.077097
  19 H :    0.046443
  20 H :    0.114236
  21 O :   -0.141227
  22 H :    0.034651
  23 H :    0.041132

  Mayer bond orders larger than 0.1
B(  0-O ,  1-H ) :   0.8357 B(  0-O ,  2-H ) :   0.9604 B(  0-O , 16-H ) :   0.1983
B(  0-O , 23-H ) :   0.1659 B(  1-H ,  6-O ) :   0.2457 B(  3-O ,  4-H ) :   0.8279
B(  3-O ,  5-H ) :   0.9603 B(  3-O ,  7-H ) :   0.1708 B(  3-O , 19-H ) :   0.1990
B(  4-H , 21-O ) :   0.2503 B(  6-O ,  7-H ) :   0.9101 B(  6-O ,  8-H ) :   0.8881
B(  8-H , 12-O ) :   0.2238 B(  9-O , 10-H ) :   0.9138 B(  9-O , 11-H ) :   0.9147
B(  9-O , 22-H ) :   0.2256 B( 10-H , 18-O ) :   0.1685 B( 11-H , 15-O ) :   0.1696
B( 12-O , 13-H ) :   0.9134 B( 12-O , 14-H ) :   0.9138 B( 13-H , 18-O ) :   0.1715
B( 14-H , 15-O ) :   0.1712 B( 15-O , 16-H ) :   0.8660 B( 15-O , 17-H ) :   0.9604
B( 18-O , 19-H ) :   0.8658 B( 18-O , 20-H ) :   0.9602 B( 21-O , 22-H ) :   0.8842
B( 21-O , 23-H ) :   0.9134

Dispersion correction           -0.025248018
FINAL SINGLE POINT ENERGY      -610.815622876191

DIPOLE MOMENT
-------------
                                X             Y             Z
Electronic contribution:      0.00913       0.02511       0.04414
Nuclear contribution   :     -0.24290       0.38198       0.24644
                        -----------------------------------------
Total Dipole Moment    :     -0.23377       0.40709       0.29058
                        -----------------------------------------
Magnitude (a.u.)       :      0.55209
Magnitude (Debye)      :      1.40331

                             ****ORCA TERMINATED NORMALLY****
TOTAL RUN TIME: 0 days 0 hours 41 minutes 13 seconds 585 msec
