                         Program Version 4.2.0 -  RELEASE  -
|  1> # 12h2o.su.etal.mol0,1,2,3,4,8,11
|  2> ! MP2 def2-TZVP EnGrad TightSCF
|  3>
|  4> %pal
|  5>     nprocs 6
|  6> end
|  7>
|  8> %maxcore 8000
|  9>
| 10> %scf
| 11>     ConvForced true
| 12> end
| 13>
| 14> *xyz 0 1
| 15> O   1.794470000   0.923410000   2.768350000
| 16> H   2.338250000   1.359750000   3.430940000
| 17> H   0.879480000   1.303000000   2.865760000
| 18> O  -1.794470000  -0.923410000   2.768350000
| 19> H  -2.338250000  -1.359750000   3.430940000
| 20> H  -0.879480000  -1.303000000   2.865760000
| 21> O   0.923410000  -1.794470000  -2.768350000
| 22> H   1.359750000  -2.338250000  -3.430940000
| 23> H   1.303000000  -0.879480000  -2.865760000
| 24> O  -1.752130000  -0.741530000  -2.896280000
| 25> H  -2.036450000  -0.920500000  -1.984040000
| 26> H  -0.921210000  -1.242140000  -2.984230000
| 27> O  -0.885520000   1.737840000   0.052730000
| 28> H  -1.032320000   2.090180000  -0.841890000
| 29> H  -1.284090000   0.839590000   0.017130000
| 30> O   1.752130000   0.741530000  -2.896280000
| 31> H   2.036450000   0.920500000  -1.984040000
| 32> H   0.921210000   1.242140000  -2.984230000
| 33> O  -0.741530000   1.752130000   2.896280000
| 34> H  -0.920500000   2.036450000   1.984040000
| 35> H  -1.242140000   0.921210000   2.984230000
| 36> *
| 37>
| 38>                          ****END OF INPUT****

CARTESIAN COORDINATES (ANGSTROEM)
---------------------------------
  O      1.794470    0.923410    2.768350
  H      2.338250    1.359750    3.430940
  H      0.879480    1.303000    2.865760
  O     -1.794470   -0.923410    2.768350
  H     -2.338250   -1.359750    3.430940
  H     -0.879480   -1.303000    2.865760
  O      0.923410   -1.794470   -2.768350
  H      1.359750   -2.338250   -3.430940
  H      1.303000   -0.879480   -2.865760
  O     -1.752130   -0.741530   -2.896280
  H     -2.036450   -0.920500   -1.984040
  H     -0.921210   -1.242140   -2.984230
  O     -0.885520    1.737840    0.052730
  H     -1.032320    2.090180   -0.841890
  H     -1.284090    0.839590    0.017130
  O      1.752130    0.741530   -2.896280
  H      2.036450    0.920500   -1.984040
  H      0.921210    1.242140   -2.984230
  O     -0.741530    1.752130    2.896280
  H     -0.920500    2.036450    1.984040
  H     -1.242140    0.921210    2.984230

 Total Charge           Charge          ....    0
 Multiplicity           Mult            ....    1
 Number of Electrons    NEL             ....   70
 Basis Dimension        Dim             ....  301

ORBITAL ENERGIES
----------------

  NO   OCC          E(Eh)            E(eV)
   0   2.0000     -20.601288      -560.5895
   1   2.0000     -20.597446      -560.4850
   2   2.0000     -20.592462      -560.3494
   3   2.0000     -20.548525      -559.1538
   4   2.0000     -20.544097      -559.0333
   5   2.0000     -20.543847      -559.0265
   6   2.0000     -20.508399      -558.0619
   7   2.0000      -1.387080       -37.7444
   8   2.0000      -1.375527       -37.4300
   9   2.0000      -1.370759       -37.3002
  10   2.0000      -1.335584       -36.3431
  11   2.0000      -1.335135       -36.3309
  12   2.0000      -1.323117       -36.0038
  13   2.0000      -1.289868       -35.0991
  14   2.0000      -0.743626       -20.2351
  15   2.0000      -0.742419       -20.2022
  16   2.0000      -0.733836       -19.9687
  17   2.0000      -0.718263       -19.5449
  18   2.0000      -0.702478       -19.1154
  19   2.0000      -0.693158       -18.8618
  20   2.0000      -0.676281       -18.4026
  21   2.0000      -0.627163       -17.0660
  22   2.0000      -0.624326       -16.9888
  23   2.0000      -0.607400       -16.5282
  24   2.0000      -0.586494       -15.9593
  25   2.0000      -0.574174       -15.6241
  26   2.0000      -0.561463       -15.2782
  27   2.0000      -0.542502       -14.7622
  28   2.0000      -0.536648       -14.6029
  29   2.0000      -0.530074       -14.4241
  30   2.0000      -0.526984       -14.3400
  31   2.0000      -0.498457       -13.5637
  32   2.0000      -0.490353       -13.3432
  33   2.0000      -0.482516       -13.1299
  34   2.0000      -0.459367       -12.5000
  35   0.0000       0.081924         2.2293
  36   0.0000       0.109689         2.9848
  37   0.0000       0.140157         3.8139
  38   0.0000       0.149002         4.0546
  39   0.0000       0.166662         4.5351

MULLIKEN ATOMIC CHARGES
-----------------------
   0 O :   -0.743683
   1 H :    0.321318
   2 H :    0.368830
   3 O :   -0.708783
   4 H :    0.357738
   5 H :    0.372762
   6 O :   -0.737965
   7 H :    0.341274
   8 H :    0.379554
   9 O :   -0.711799
  10 H :    0.321270
  11 H :    0.366068
  12 O :   -0.694644
  13 H :    0.347879
  14 H :    0.351287
  15 O :   -0.685401
  16 H :    0.371815
  17 H :    0.357837
  18 O :   -0.715724
  19 H :    0.381103
  20 H :    0.359263
Sum of atomic charges:   -0.0000000

LOEWDIN ATOMIC CHARGES
----------------------
   0 O :   -0.379259
   1 H :    0.146257
   2 H :    0.141379
   3 O :   -0.314132
   4 H :    0.166104
   5 H :    0.192951
   6 O :   -0.339054
   7 H :    0.155880
   8 H :    0.145322
   9 O :   -0.348973
  10 H :    0.154433
  11 H :    0.149011
  12 O :   -0.314682
  13 H :    0.168021
  14 H :    0.175652
  15 O :   -0.268567
  16 H :    0.180059
  17 H :    0.173772
  18 O :   -0.287790
  19 H :    0.156368
  20 H :    0.147249

  Mayer bond orders larger than 0.100000
B(  0-O ,  1-H ) :   0.8625 B(  0-O ,  2-H ) :   0.7696 B(  2-H , 18-O ) :   0.1033
B(  3-O ,  4-H ) :   0.8389 B(  3-O ,  5-H ) :   0.8208 B(  6-O ,  7-H ) :   0.8484
B(  6-O ,  8-H ) :   0.7648 B(  9-O , 10-H ) :   0.8610 B(  9-O , 11-H ) :   0.7990
B( 12-O , 13-H ) :   0.8423 B( 12-O , 14-H ) :   0.8342 B( 15-O , 16-H ) :   0.8278
B( 15-O , 17-H ) :   0.8335 B( 18-O , 19-H ) :   0.8102 B( 18-O , 20-H ) :   0.8114

MP2 TOTAL ENERGY:     -534.241261764 Eh
FINAL SINGLE POINT ENERGY      -534.241261764433

DIPOLE MOMENT
-------------
                                X             Y             Z
Electronic contribution:     -0.03327       0.21539      -0.25176
Nuclear contribution   :     -0.34045      -0.60038       0.54442
                        -----------------------------------------
Total Dipole Moment    :     -0.37372      -0.38499       0.29266
                        -----------------------------------------
Magnitude (a.u.)       :      0.61117
Magnitude (Debye)      :      1.55348

Rotational constants in cm-1:     0.039510     0.015727     0.013986
Rotational constants in MHz :  1184.470711   471.472929   419.299652

                             ****ORCA TERMINATED NORMALLY****
TOTAL RUN TIME: 0 days 0 hours 1 minutes 35 seconds 517 msec
