                         Program Version 4.2.0 -  RELEASE  -
|  1> # 12mecn.remya.etal.2.mol3,7
|  2> ! MP2 def2-TZVP EnGrad TightSCF
|  3>
|  4> %pal
|  5>     nprocs 6
|  6> end
|  7>
|  8> %maxcore 8000
|  9>
| 10> %scf
| 11>     ConvForced true
| 12> end
| 13>
| 14> *xyz 0 1
| 15> C  -5.181310000   2.853865000  -1.626100000
| 16> H  -5.488260000   3.811434000  -2.053310000
| 17> H  -5.857590000   2.068112000  -1.968630000
| 18> H  -4.170750000   2.611402000  -1.966640000
| 19> C  -5.187260000   2.919160000  -0.181450000
| 20> N  -5.181700000   2.970641000   0.983640000
| 21> C   1.502241000   0.651296000   1.710523000
| 22> H   1.309219000   1.637164000   2.143202000
| 23> H   2.493408000   0.297996000   2.009069000
| 24> H   0.746597000  -0.059850000   2.055508000
| 25> C   1.447974000   0.738517000   0.269805000
| 26> N   1.405612000   0.808047000  -0.894380000
| 27> *
| 28>
| 29>                          ****END OF INPUT****

CARTESIAN COORDINATES (ANGSTROEM)
---------------------------------
  C     -5.181310    2.853865   -1.626100
  H     -5.488260    3.811434   -2.053310
  H     -5.857590    2.068112   -1.968630
  H     -4.170750    2.611402   -1.966640
  C     -5.187260    2.919160   -0.181450
  N     -5.181700    2.970641    0.983640
  C      1.502241    0.651296    1.710523
  H      1.309219    1.637164    2.143202
  H      2.493408    0.297996    2.009069
  H      0.746597   -0.059850    2.055508
  C      1.447974    0.738517    0.269805
  N      1.405612    0.808047   -0.894380

 Total Charge           Charge          ....    0
 Multiplicity           Mult            ....    1
 Number of Electrons    NEL             ....   44
 Basis Dimension        Dim             ....  222

ORBITAL ENERGIES
----------------

  NO   OCC          E(Eh)            E(eV)
   0   2.0000     -15.573091      -423.7654
   1   2.0000     -15.572530      -423.7501
   2   2.0000     -11.284147      -307.0573
   3   2.0000     -11.282983      -307.0256
   4   2.0000     -11.280442      -306.9564
   5   2.0000     -11.279892      -306.9415
   6   2.0000      -1.214633       -33.0518
   7   2.0000      -1.214375       -33.0448
   8   2.0000      -1.043645       -28.3990
   9   2.0000      -1.042199       -28.3597
  10   2.0000      -0.699718       -19.0403
  11   2.0000      -0.698319       -19.0022
  12   2.0000      -0.632407       -17.2087
  13   2.0000      -0.631027       -17.1711
  14   2.0000      -0.630803       -17.1650
  15   2.0000      -0.628348       -17.0982
  16   2.0000      -0.556193       -15.1348
  17   2.0000      -0.555841       -15.1252
  18   2.0000      -0.457762       -12.4563
  19   2.0000      -0.457691       -12.4544
  20   2.0000      -0.457525       -12.4499
  21   2.0000      -0.457123       -12.4390
  22   0.0000       0.118970         3.2373
  23   0.0000       0.122673         3.3381
  24   0.0000       0.172107         4.6833
  25   0.0000       0.172429         4.6920
  26   0.0000       0.172644         4.6979

MULLIKEN ATOMIC CHARGES
-----------------------
   0 C :   -0.281579
   1 H :    0.171913
   2 H :    0.171592
   3 H :    0.177449
   4 C :   -0.145194
   5 N :   -0.094189
   6 C :   -0.276172
   7 H :    0.173999
   8 H :    0.171326
   9 H :    0.173324
  10 C :   -0.146284
  11 N :   -0.096186
Sum of atomic charges:    0.0000000

LOEWDIN ATOMIC CHARGES
----------------------
   0 C :   -0.283336
   1 H :    0.151504
   2 H :    0.151592
   3 H :    0.154730
   4 C :   -0.218259
   5 N :    0.043766
   6 C :   -0.282654
   7 H :    0.153505
   8 H :    0.152945
   9 H :    0.153541
  10 C :   -0.220025
  11 N :    0.042691

  Mayer bond orders larger than 0.100000
B(  0-C ,  1-H ) :   0.9160 B(  0-C ,  2-H ) :   0.9165 B(  0-C ,  3-H ) :   0.9154
B(  0-C ,  4-C ) :   0.9026 B(  4-C ,  5-N ) :   2.8395 B(  6-C ,  7-H ) :   0.9155
B(  6-C ,  8-H ) :   0.9166 B(  6-C ,  9-H ) :   0.9159 B(  6-C , 10-C ) :   0.9009
B( 10-C , 11-N ) :   2.8397

MP2 TOTAL ENERGY:     -264.967224402 Eh
FINAL SINGLE POINT ENERGY      -264.967224402180

DIPOLE MOMENT
-------------
                                X             Y             Z
Electronic contribution:     -0.13942       0.35043       0.03346
Nuclear contribution   :      0.20318      -0.51718      -0.03748
                        -----------------------------------------
Total Dipole Moment    :      0.06376      -0.16675      -0.00402
                        -----------------------------------------
Magnitude (a.u.)       :      0.17857
Magnitude (Debye)      :      0.45388

Rotational constants in cm-1:     0.157119     0.016484     0.015010
Rotational constants in MHz :  4710.307833   494.179943   449.978101

                             ****ORCA TERMINATED NORMALLY****
TOTAL RUN TIME: 0 days 0 hours 0 minutes 37 seconds 498 msec
