                         Program Version 4.2.0 -  RELEASE  -
|  1> # 12meoh.boyd.etal.mol2,9,10
|  2> ! MP2 def2-TZVP EnGrad TightSCF
|  3>
|  4> %pal
|  5>     nprocs 6
|  6> end
|  7>
|  8> %maxcore 8000
|  9>
| 10> %scf
| 11>     ConvForced true
| 12> end
| 13>
| 14> *xyz 0 1
| 15> O  -3.839777402   2.233595098   0.660436763
| 16> H  -2.958345897   1.907036203   0.973588449
| 17> C  -3.600368059   3.168790682  -0.390480452
| 18> H  -4.551709193   3.344148967  -0.901254863
| 19> H  -2.868237594   2.789240199  -1.113617525
| 20> H  -3.243594915   4.128998607   0.009549480
| 21> O   1.390610024   3.194080770  -1.536658882
| 22> H   2.162932299   2.881562730  -0.993525056
| 23> C   1.202977189   4.580367182  -1.302880219
| 24> H   0.374773115   4.915764831  -1.934164643
| 25> H   2.098649340   5.157710875  -1.570472348
| 26> H   0.950320401   4.800436015  -0.254328827
| 27> O  -5.201143618   0.064582726  -0.172223772
| 28> H  -4.686891530   0.869258890   0.107806143
| 29> C  -6.513192168   0.171391798   0.359883449
| 30> H  -7.049381312  -0.749234190   0.111361174
| 31> H  -7.057741163   1.017801101  -0.081819420
| 32> H  -6.514770575   0.292264928   1.453058834
| 33> *
| 34>
| 35>                          ****END OF INPUT****

CARTESIAN COORDINATES (ANGSTROEM)
---------------------------------
  O     -3.839777    2.233595    0.660437
  H     -2.958346    1.907036    0.973588
  C     -3.600368    3.168791   -0.390480
  H     -4.551709    3.344149   -0.901255
  H     -2.868238    2.789240   -1.113618
  H     -3.243595    4.128999    0.009549
  O      1.390610    3.194081   -1.536659
  H      2.162932    2.881563   -0.993525
  C      1.202977    4.580367   -1.302880
  H      0.374773    4.915765   -1.934165
  H      2.098649    5.157711   -1.570472
  H      0.950320    4.800436   -0.254329
  O     -5.201144    0.064583   -0.172224
  H     -4.686892    0.869259    0.107806
  C     -6.513192    0.171392    0.359883
  H     -7.049381   -0.749234    0.111361
  H     -7.057741    1.017801   -0.081819
  H     -6.514771    0.292265    1.453059

 Total Charge           Charge          ....    0
 Multiplicity           Mult            ....    1
 Number of Electrons    NEL             ....   54
 Basis Dimension        Dim             ....  258

ORBITAL ENERGIES
----------------

  NO   OCC          E(Eh)            E(eV)
   0   2.0000     -20.587171      -560.2054
   1   2.0000     -20.565927      -559.6273
   2   2.0000     -20.511790      -558.1542
   3   2.0000     -11.287362      -307.1447
   4   2.0000     -11.279901      -306.9417
   5   2.0000     -11.246057      -306.0208
   6   2.0000      -1.380824       -37.5741
   7   2.0000      -1.356631       -36.9158
   8   2.0000      -1.309385       -35.6302
   9   2.0000      -0.939238       -25.5580
  10   2.0000      -0.927902       -25.2495
  11   2.0000      -0.892489       -24.2859
  12   2.0000      -0.712546       -19.3894
  13   2.0000      -0.691199       -18.8085
  14   2.0000      -0.672065       -18.2878
  15   2.0000      -0.630544       -17.1580
  16   2.0000      -0.625576       -17.0228
  17   2.0000      -0.607098       -16.5200
  18   2.0000      -0.600773       -16.3479
  19   2.0000      -0.587656       -15.9909
  20   2.0000      -0.559684       -15.2298
  21   2.0000      -0.526564       -14.3285
  22   2.0000      -0.507706       -13.8154
  23   2.0000      -0.486531       -13.2392
  24   2.0000      -0.457020       -12.4361
  25   2.0000      -0.452890       -12.3238
  26   2.0000      -0.413997       -11.2654
  27   0.0000       0.111978         3.0471
  28   0.0000       0.134068         3.6482
  29   0.0000       0.153480         4.1764
  30   0.0000       0.168004         4.5716
  31   0.0000       0.180022         4.8986

MULLIKEN ATOMIC CHARGES
-----------------------
   0 O :   -0.512544
   1 H :    0.343843
   2 C :   -0.195344
   3 H :    0.142434
   4 H :    0.141665
   5 H :    0.121290
   6 O :   -0.498836
   7 H :    0.323995
   8 C :   -0.174413
   9 H :    0.128860
  10 H :    0.114360
  11 H :    0.106425
  12 O :   -0.534011
  13 H :    0.339011
  14 C :   -0.157067
  15 H :    0.119215
  16 H :    0.091498
  17 H :    0.099619
Sum of atomic charges:    0.0000000

LOEWDIN ATOMIC CHARGES
----------------------
   0 O :   -0.075346
   1 H :    0.198283
   2 C :   -0.371092
   3 H :    0.115009
   4 H :    0.106082
   5 H :    0.102954
   6 O :   -0.106101
   7 H :    0.191630
   8 C :   -0.386816
   9 H :    0.110043
  10 H :    0.096987
  11 H :    0.094375
  12 O :   -0.123989
  13 H :    0.156570
  14 C :   -0.396080
  15 H :    0.105025
  16 H :    0.089984
  17 H :    0.092482

  Mayer bond orders larger than 0.100000
B(  0-O ,  1-H ) :   0.8284 B(  0-O ,  2-C ) :   0.8697 B(  0-O , 13-H ) :   0.1027
B(  2-C ,  3-H ) :   0.9392 B(  2-C ,  4-H ) :   0.9403 B(  2-C ,  5-H ) :   0.9328
B(  6-O ,  7-H ) :   0.8405 B(  6-O ,  8-C ) :   0.9247 B(  8-C ,  9-H ) :   0.9374
B(  8-C , 10-H ) :   0.9406 B(  8-C , 11-H ) :   0.9371 B( 12-O , 13-H ) :   0.7892
B( 12-O , 14-C ) :   0.9428 B( 14-C , 15-H ) :   0.9415 B( 14-C , 16-H ) :   0.9366
B( 14-C , 17-H ) :   0.9411

MP2 TOTAL ENERGY:     -346.530180202 Eh
FINAL SINGLE POINT ENERGY      -346.530180201853

DIPOLE MOMENT
-------------
                                X             Y             Z
Electronic contribution:      1.62063      -2.86824       0.16700
Nuclear contribution   :     -0.46829       4.26389       0.40251
                        -----------------------------------------
Total Dipole Moment    :      1.15233       1.39566       0.56951
                        -----------------------------------------
Magnitude (a.u.)       :      1.89739
Magnitude (Debye)      :      4.82277

Rotational constants in cm-1:     0.198496     0.014682     0.014063
Rotational constants in MHz :  5950.771216   440.164298   421.610840

                             ****ORCA TERMINATED NORMALLY****
TOTAL RUN TIME: 0 days 0 hours 1 minutes 3 seconds 997 msec
