                         Program Version 4.2.0 -  RELEASE  -
|  1> # 12h2o.su.etal.mol2,3,5,6,7,9,10
|  2> ! MP2 def2-TZVP EnGrad TightSCF
|  3>
|  4> %pal
|  5>     nprocs 6
|  6> end
|  7>
|  8> %maxcore 8000
|  9>
| 10> %scf
| 11>     ConvForced true
| 12> end
| 13>
| 14> *xyz 0 1
| 15> O   0.923410000  -1.794470000  -2.768350000
| 16> H   1.359750000  -2.338250000  -3.430940000
| 17> H   1.303000000  -0.879480000  -2.865760000
| 18> O  -1.752130000  -0.741530000  -2.896280000
| 19> H  -2.036450000  -0.920500000  -1.984040000
| 20> H  -0.921210000  -1.242140000  -2.984230000
| 21> O   0.885520000  -1.737840000   0.052730000
| 22> H   1.284090000  -0.839590000   0.017130000
| 23> H   1.032320000  -2.090180000  -0.841890000
| 24> O   1.737840000   0.885520000  -0.052730000
| 25> H   2.090180000   1.032320000   0.841890000
| 26> H   0.839590000   1.284090000  -0.017130000
| 27> O  -1.737840000  -0.885520000  -0.052730000
| 28> H  -2.090180000  -1.032320000   0.841890000
| 29> H  -0.839590000  -1.284090000  -0.017130000
| 30> O   0.741530000  -1.752130000   2.896280000
| 31> H   0.920500000  -2.036450000   1.984040000
| 32> H   1.242140000  -0.921210000   2.984230000
| 33> O  -0.923410000   1.794470000  -2.768350000
| 34> H  -1.359750000   2.338250000  -3.430940000
| 35> H  -1.303000000   0.879480000  -2.865760000
| 36> *
| 37>
| 38>                          ****END OF INPUT****

CARTESIAN COORDINATES (ANGSTROEM)
---------------------------------
  O      0.923410   -1.794470   -2.768350
  H      1.359750   -2.338250   -3.430940
  H      1.303000   -0.879480   -2.865760
  O     -1.752130   -0.741530   -2.896280
  H     -2.036450   -0.920500   -1.984040
  H     -0.921210   -1.242140   -2.984230
  O      0.885520   -1.737840    0.052730
  H      1.284090   -0.839590    0.017130
  H      1.032320   -2.090180   -0.841890
  O      1.737840    0.885520   -0.052730
  H      2.090180    1.032320    0.841890
  H      0.839590    1.284090   -0.017130
  O     -1.737840   -0.885520   -0.052730
  H     -2.090180   -1.032320    0.841890
  H     -0.839590   -1.284090   -0.017130
  O      0.741530   -1.752130    2.896280
  H      0.920500   -2.036450    1.984040
  H      1.242140   -0.921210    2.984230
  O     -0.923410    1.794470   -2.768350
  H     -1.359750    2.338250   -3.430940
  H     -1.303000    0.879480   -2.865760

 Total Charge           Charge          ....    0
 Multiplicity           Mult            ....    1
 Number of Electrons    NEL             ....   70
 Basis Dimension        Dim             ....  301

ORBITAL ENERGIES
----------------

  NO   OCC          E(Eh)            E(eV)
   0   2.0000     -20.619099      -561.0742
   1   2.0000     -20.606275      -560.7252
   2   2.0000     -20.568706      -559.7030
   3   2.0000     -20.546030      -559.0859
   4   2.0000     -20.544364      -559.0406
   5   2.0000     -20.541566      -558.9644
   6   2.0000     -20.511326      -558.1416
   7   2.0000      -1.399911       -38.0935
   8   2.0000      -1.387927       -37.7674
   9   2.0000      -1.359702       -36.9994
  10   2.0000      -1.337251       -36.3885
  11   2.0000      -1.326434       -36.0941
  12   2.0000      -1.324451       -36.0401
  13   2.0000      -1.292382       -35.1675
  14   2.0000      -0.765032       -20.8176
  15   2.0000      -0.743767       -20.2389
  16   2.0000      -0.733994       -19.9730
  17   2.0000      -0.706840       -19.2341
  18   2.0000      -0.698723       -19.0132
  19   2.0000      -0.694219       -18.8907
  20   2.0000      -0.678365       -18.4593
  21   2.0000      -0.648315       -17.6415
  22   2.0000      -0.627374       -17.0717
  23   2.0000      -0.604653       -16.4535
  24   2.0000      -0.597900       -16.2697
  25   2.0000      -0.570860       -15.5339
  26   2.0000      -0.560958       -15.2645
  27   2.0000      -0.552661       -15.0387
  28   2.0000      -0.538376       -14.6500
  29   2.0000      -0.531227       -14.4554
  30   2.0000      -0.513010       -13.9597
  31   2.0000      -0.496047       -13.4981
  32   2.0000      -0.490456       -13.3460
  33   2.0000      -0.481017       -13.0891
  34   2.0000      -0.462240       -12.5782
  35   0.0000       0.084554         2.3008
  36   0.0000       0.106323         2.8932
  37   0.0000       0.154459         4.2031
  38   0.0000       0.160967         4.3801
  39   0.0000       0.184135         5.0106

MULLIKEN ATOMIC CHARGES
-----------------------
   0 O :   -0.725952
   1 H :    0.367425
   2 H :    0.385080
   3 O :   -0.716955
   4 H :    0.388003
   5 H :    0.356213
   6 O :   -0.746083
   7 H :    0.354091
   8 H :    0.381747
   9 O :   -0.691423
  10 H :    0.350600
  11 H :    0.385087
  12 O :   -0.736167
  13 H :    0.346021
  14 H :    0.359805
  15 O :   -0.689824
  16 H :    0.374586
  17 H :    0.309978
  18 O :   -0.746880
  19 H :    0.323522
  20 H :    0.371126
Sum of atomic charges:    0.0000000

LOEWDIN ATOMIC CHARGES
----------------------
   0 O :   -0.288445
   1 H :    0.169684
   2 H :    0.197143
   3 O :   -0.288010
   4 H :    0.158649
   5 H :    0.145210
   6 O :   -0.300380
   7 H :    0.140443
   8 H :    0.151970
   9 O :   -0.288195
  10 H :    0.169567
  11 H :    0.189988
  12 O :   -0.342495
  13 H :    0.166361
  14 H :    0.141807
  15 O :   -0.337628
  16 H :    0.151558
  17 H :    0.153345
  18 O :   -0.380277
  19 H :    0.147773
  20 H :    0.141932

  Mayer bond orders larger than 0.100000
B(  0-O ,  1-H ) :   0.8305 B(  0-O ,  2-H ) :   0.8089 B(  3-O ,  4-H ) :   0.7978
B(  3-O ,  5-H ) :   0.8209 B(  3-O , 20-H ) :   0.1059 B(  6-O ,  7-H ) :   0.7710
B(  6-O ,  8-H ) :   0.8043 B(  9-O , 10-H ) :   0.8407 B(  9-O , 11-H ) :   0.8115
B( 12-O , 13-H ) :   0.8442 B( 12-O , 14-H ) :   0.7761 B( 15-O , 16-H ) :   0.8151
B( 15-O , 17-H ) :   0.8671 B( 18-O , 19-H ) :   0.8612 B( 18-O , 20-H ) :   0.7649

MP2 TOTAL ENERGY:     -534.254903242 Eh
FINAL SINGLE POINT ENERGY      -534.254903241519

DIPOLE MOMENT
-------------
                                X             Y             Z
Electronic contribution:      0.09525      -0.28177      -0.09950
Nuclear contribution   :      1.47457       0.34371      -0.49091
                        -----------------------------------------
Total Dipole Moment    :      1.56982       0.06194      -0.59041
                        -----------------------------------------
Magnitude (a.u.)       :      1.67832
Magnitude (Debye)      :      4.26594

Rotational constants in cm-1:     0.047284     0.022341     0.021806
Rotational constants in MHz :  1417.544501   669.770994   653.730586

                             ****ORCA TERMINATED NORMALLY****
TOTAL RUN TIME: 0 days 0 hours 2 minutes 6 seconds 38 msec
