                         Program Version 4.2.0 -  RELEASE  -
|  1> # 12h2o.su.etal.mol0,2,4,5,8
|  2> ! MP2 def2-TZVP EnGrad TightSCF
|  3>
|  4> %pal
|  5>     nprocs 6
|  6> end
|  7>
|  8> %maxcore 8000
|  9>
| 10> %scf
| 11>     ConvForced true
| 12> end
| 13>
| 14> *xyz 0 1
| 15> O   1.794470000   0.923410000   2.768350000
| 16> H   2.338250000   1.359750000   3.430940000
| 17> H   0.879480000   1.303000000   2.865760000
| 18> O   0.923410000  -1.794470000  -2.768350000
| 19> H   1.359750000  -2.338250000  -3.430940000
| 20> H   1.303000000  -0.879480000  -2.865760000
| 21> O  -0.885520000   1.737840000   0.052730000
| 22> H  -1.032320000   2.090180000  -0.841890000
| 23> H  -1.284090000   0.839590000   0.017130000
| 24> O   0.885520000  -1.737840000   0.052730000
| 25> H   1.284090000  -0.839590000   0.017130000
| 26> H   1.032320000  -2.090180000  -0.841890000
| 27> O   1.752130000   0.741530000  -2.896280000
| 28> H   2.036450000   0.920500000  -1.984040000
| 29> H   0.921210000   1.242140000  -2.984230000
| 30> *
| 31>
| 32>                          ****END OF INPUT****

CARTESIAN COORDINATES (ANGSTROEM)
---------------------------------
  O      1.794470    0.923410    2.768350
  H      2.338250    1.359750    3.430940
  H      0.879480    1.303000    2.865760
  O      0.923410   -1.794470   -2.768350
  H      1.359750   -2.338250   -3.430940
  H      1.303000   -0.879480   -2.865760
  O     -0.885520    1.737840    0.052730
  H     -1.032320    2.090180   -0.841890
  H     -1.284090    0.839590    0.017130
  O      0.885520   -1.737840    0.052730
  H      1.284090   -0.839590    0.017130
  H      1.032320   -2.090180   -0.841890
  O      1.752130    0.741530   -2.896280
  H      2.036450    0.920500   -1.984040
  H      0.921210    1.242140   -2.984230

 Total Charge           Charge          ....    0
 Multiplicity           Mult            ....    1
 Number of Electrons    NEL             ....   50
 Basis Dimension        Dim             ....  215

ORBITAL ENERGIES
----------------

  NO   OCC          E(Eh)            E(eV)
   0   2.0000     -20.611980      -560.8805
   1   2.0000     -20.576716      -559.9209
   2   2.0000     -20.554368      -559.3128
   3   2.0000     -20.545567      -559.0733
   4   2.0000     -20.520222      -558.3836
   5   2.0000      -1.397369       -38.0243
   6   2.0000      -1.352558       -36.8050
   7   2.0000      -1.330681       -36.2097
   8   2.0000      -1.329674       -36.1823
   9   2.0000      -1.298540       -35.3351
  10   2.0000      -0.754587       -20.5334
  11   2.0000      -0.717057       -19.5121
  12   2.0000      -0.714383       -19.4393
  13   2.0000      -0.697838       -18.9891
  14   2.0000      -0.667824       -18.1724
  15   2.0000      -0.634243       -17.2586
  16   2.0000      -0.592223       -16.1152
  17   2.0000      -0.581977       -15.8364
  18   2.0000      -0.565981       -15.4011
  19   2.0000      -0.548687       -14.9305
  20   2.0000      -0.531208       -14.4549
  21   2.0000      -0.519459       -14.1352
  22   2.0000      -0.497532       -13.5385
  23   2.0000      -0.491404       -13.3718
  24   2.0000      -0.465597       -12.6695
  25   0.0000       0.078234         2.1288
  26   0.0000       0.132402         3.6029
  27   0.0000       0.138836         3.7779
  28   0.0000       0.161404         4.3920
  29   0.0000       0.167892         4.5686

MULLIKEN ATOMIC CHARGES
-----------------------
   0 O :   -0.684663
   1 H :    0.334674
   2 H :    0.350731
   3 O :   -0.733819
   4 H :    0.337104
   5 H :    0.365167
   6 O :   -0.682503
   7 H :    0.326328
   8 H :    0.357245
   9 O :   -0.695695
  10 H :    0.315549
  11 H :    0.365002
  12 O :   -0.673961
  13 H :    0.363555
  14 H :    0.355286
Sum of atomic charges:   -0.0000000

LOEWDIN ATOMIC CHARGES
----------------------
   0 O :   -0.339143
   1 H :    0.156157
   2 H :    0.183403
   3 O :   -0.339936
   4 H :    0.153721
   5 H :    0.142224
   6 O :   -0.336257
   7 H :    0.159351
   8 H :    0.178961
   9 O :   -0.346715
  10 H :    0.156548
  11 H :    0.147887
  12 O :   -0.265673
  13 H :    0.175100
  14 H :    0.174370

  Mayer bond orders larger than 0.100000
B(  0-O ,  1-H ) :   0.8549 B(  0-O ,  2-H ) :   0.8392 B(  3-O ,  4-H ) :   0.8504
B(  3-O ,  5-H ) :   0.7741 B(  6-O ,  7-H ) :   0.8578 B(  6-O ,  8-H ) :   0.8341
B(  9-O , 10-H ) :   0.8586 B(  9-O , 11-H ) :   0.8142 B( 12-O , 13-H ) :   0.8320
B( 12-O , 14-H ) :   0.8374

MP2 TOTAL ENERGY:     -381.582833835 Eh
FINAL SINGLE POINT ENERGY      -381.582833835212

DIPOLE MOMENT
-------------
                                X             Y             Z
Electronic contribution:      0.06686      -0.00022      -0.01052
Nuclear contribution   :     -0.08480       1.55378      -0.86245
                        -----------------------------------------
Total Dipole Moment    :     -0.01794       1.55356      -0.87297
                        -----------------------------------------
Magnitude (a.u.)       :      1.78212
Magnitude (Debye)      :      4.52979

Rotational constants in cm-1:     0.069860     0.032331     0.027670
Rotational constants in MHz :  2094.349477   969.272325   829.525955

                             ****ORCA TERMINATED NORMALLY****
TOTAL RUN TIME: 0 days 0 hours 0 minutes 32 seconds 933 msec
