                         Program Version 3.0.3 - RELEASE   -
|  1> ! B3LYP Def2-TZVP def2-TZVP/J RIJCOSX TightSCF Grid4 D3BJ
|  2>
|  3> %pal nprocs 12 end
|  4>
|  5> %scf
|  6>         maxiter 400
|  7> end
|  8>
|  9> * xyz  0  1
| 10> O  -1.671828	-0.597014	-0.672410
| 11> H  -0.764734	-0.616588	-1.080019
| 12> H  -2.231026	-0.186100	-1.344349
| 13> O  -0.889435	0.740492	1.490766
| 14> H  -1.094367	1.670455	1.323810
| 15> H  -1.313777	0.256575	0.732229
| 16> O  1.612952	-0.070110	0.988503
| 17> H  2.255346	0.616173	1.213996
| 18> H  0.737075	0.294760	1.290198
| 19> O  0.877585	-0.466382	-1.543241
| 20> H  1.263954	-0.265050	-0.647835
| 21> H  1.211344	-1.354547	-1.732083
| 22> **                         ****END OF INPUT****

CARTESIAN COORDINATES (ANGSTROEM)
---------------------------------
  O     -1.671828   -0.597014   -0.672410
  H     -0.764734   -0.616588   -1.080019
  H     -2.231026   -0.186100   -1.344349
  O     -0.889435    0.740492    1.490766
  H     -1.094367    1.670455    1.323810
  H     -1.313777    0.256575    0.732229
  O      1.612952   -0.070110    0.988503
  H      2.255346    0.616173    1.213996
  H      0.737075    0.294760    1.290198
  O      0.877585   -0.466382   -1.543241
  H      1.263954   -0.265050   -0.647835
  H      1.211344   -1.354547   -1.732083

 Total Charge           Charge          ....    0
 Multiplicity           Mult            ....    1
 Number of Electrons    NEL             ....   40
 Basis Dimension        Dim             ....  172

ORBITAL ENERGIES
----------------

  NO   OCC          E(Eh)            E(eV)
   0   2.0000     -19.124470      -520.4033
   1   2.0000     -19.124321      -520.3992
   2   2.0000     -19.123075      -520.3653
   3   2.0000     -19.122658      -520.3540
   4   2.0000      -1.023886       -27.8614
   5   2.0000      -1.007708       -27.4211
   6   2.0000      -1.005983       -27.3742
   7   2.0000      -0.990419       -26.9507
   8   2.0000      -0.543802       -14.7976
   9   2.0000      -0.529141       -14.3987
  10   2.0000      -0.524364       -14.2687
  11   2.0000      -0.516399       -14.0519
  12   2.0000      -0.431026       -11.7288
  13   2.0000      -0.400754       -10.9051
  14   2.0000      -0.398073       -10.8321
  15   2.0000      -0.369056       -10.0425
  16   2.0000      -0.322412        -8.7733
  17   2.0000      -0.317252        -8.6329
  18   2.0000      -0.316473        -8.6117
  19   2.0000      -0.308739        -8.4012
  20   0.0000       0.006482         0.1764
  21   0.0000       0.042719         1.1624
  22   0.0000       0.046223         1.2578
  23   0.0000       0.069179         1.8825
  24   0.0000       0.170767         4.6468

MULLIKEN ATOMIC CHARGES
-----------------------
   0 O :   -0.679431
   1 H :    0.349957
   2 H :    0.320265
   3 O :   -0.684045
   4 H :    0.313009
   5 H :    0.373992
   6 O :   -0.679027
   7 H :    0.318268
   8 H :    0.366798
   9 O :   -0.678397
  10 H :    0.353121
  11 H :    0.325490
Sum of atomic charges:   -0.0000000

LOEWDIN ATOMIC CHARGES
----------------------
   0 O :   -0.293879
   1 H :    0.140591
   2 H :    0.154453
   3 O :   -0.294272
   4 H :    0.151137
   5 H :    0.142526
   6 O :   -0.294609
   7 H :    0.154092
   8 H :    0.143821
   9 O :   -0.299566
  10 H :    0.138694
  11 H :    0.157013

  Mayer bond orders larger than 0.1
B(  0-O ,  1-H ) :   0.7874 B(  0-O ,  2-H ) :   0.9015 B(  0-O ,  5-H ) :   0.1249
B(  1-H ,  9-O ) :   0.1494 B(  3-O ,  4-H ) :   0.9047 B(  3-O ,  5-H ) :   0.7874
B(  3-O ,  8-H ) :   0.1252 B(  6-O ,  7-H ) :   0.9016 B(  6-O ,  8-H ) :   0.7887
B(  6-O , 10-H ) :   0.1505 B(  9-O , 10-H ) :   0.7863 B(  9-O , 11-H ) :   0.9001

Dispersion correction           -0.008078850
FINAL SINGLE POINT ENERGY      -305.756492169949

DIPOLE MOMENT
-------------
                                X             Y             Z
Electronic contribution:     -0.03490      -0.20529       0.13415
Nuclear contribution   :      0.17086       1.00025      -0.64199
                        -----------------------------------------
Total Dipole Moment    :      0.13595       0.79497      -0.50784
                        -----------------------------------------
Magnitude (a.u.)       :      0.95308
Magnitude (Debye)      :      2.42253

                             ****ORCA TERMINATED NORMALLY****
TOTAL RUN TIME: 0 days 0 hours 0 minutes 51 seconds 755 msec
