                         Program Version 4.2.0 -  RELEASE  -
|  1> # 12h2o.su.etal.mol2,3,9,11
|  2> ! MP2 def2-TZVP EnGrad TightSCF
|  3>
|  4> %pal
|  5>     nprocs 6
|  6> end
|  7>
|  8> %maxcore 8000
|  9>
| 10> %scf
| 11>     ConvForced true
| 12> end
| 13>
| 14> *xyz 0 1
| 15> O   0.923410000  -1.794470000  -2.768350000
| 16> H   1.359750000  -2.338250000  -3.430940000
| 17> H   1.303000000  -0.879480000  -2.865760000
| 18> O  -1.752130000  -0.741530000  -2.896280000
| 19> H  -2.036450000  -0.920500000  -1.984040000
| 20> H  -0.921210000  -1.242140000  -2.984230000
| 21> O   0.741530000  -1.752130000   2.896280000
| 22> H   0.920500000  -2.036450000   1.984040000
| 23> H   1.242140000  -0.921210000   2.984230000
| 24> O  -0.741530000   1.752130000   2.896280000
| 25> H  -0.920500000   2.036450000   1.984040000
| 26> H  -1.242140000   0.921210000   2.984230000
| 27> *
| 28>
| 29>                          ****END OF INPUT****

CARTESIAN COORDINATES (ANGSTROEM)
---------------------------------
  O      0.923410   -1.794470   -2.768350
  H      1.359750   -2.338250   -3.430940
  H      1.303000   -0.879480   -2.865760
  O     -1.752130   -0.741530   -2.896280
  H     -2.036450   -0.920500   -1.984040
  H     -0.921210   -1.242140   -2.984230
  O      0.741530   -1.752130    2.896280
  H      0.920500   -2.036450    1.984040
  H      1.242140   -0.921210    2.984230
  O     -0.741530    1.752130    2.896280
  H     -0.920500    2.036450    1.984040
  H     -1.242140    0.921210    2.984230

 Total Charge           Charge          ....    0
 Multiplicity           Mult            ....    1
 Number of Electrons    NEL             ....   40
 Basis Dimension        Dim             ....  172

ORBITAL ENERGIES
----------------

  NO   OCC          E(Eh)            E(eV)
   0   2.0000     -20.600007      -560.5547
   1   2.0000     -20.563992      -559.5747
   2   2.0000     -20.563927      -559.5729
   3   2.0000     -20.538877      -558.8913
   4   2.0000      -1.377636       -37.4874
   5   2.0000      -1.343523       -36.5591
   6   2.0000      -1.342770       -36.5386
   7   2.0000      -1.321318       -35.9549
   8   2.0000      -0.744825       -20.2677
   9   2.0000      -0.706930       -19.2365
  10   2.0000      -0.704467       -19.1695
  11   2.0000      -0.690905       -18.8005
  12   2.0000      -0.616603       -16.7786
  13   2.0000      -0.581233       -15.8162
  14   2.0000      -0.580654       -15.8004
  15   2.0000      -0.565448       -15.3866
  16   2.0000      -0.535062       -14.5598
  17   2.0000      -0.511240       -13.9116
  18   2.0000      -0.505166       -13.7463
  19   2.0000      -0.486501       -13.2384
  20   0.0000       0.097525         2.6538
  21   0.0000       0.114403         3.1131
  22   0.0000       0.148956         4.0533
  23   0.0000       0.163007         4.4356
  24   0.0000       0.177597         4.8327

MULLIKEN ATOMIC CHARGES
-----------------------
   0 O :   -0.697173
   1 H :    0.356489
   2 H :    0.360562
   3 O :   -0.703476
   4 H :    0.327731
   5 H :    0.356007
   6 O :   -0.682113
   7 H :    0.336843
   8 H :    0.345123
   9 O :   -0.681635
  10 H :    0.336123
  11 H :    0.345522
Sum of atomic charges:   -0.0000000

LOEWDIN ATOMIC CHARGES
----------------------
   0 O :   -0.311649
   1 H :    0.165303
   2 H :    0.188313
   3 O :   -0.348100
   4 H :    0.159770
   5 H :    0.146442
   6 O :   -0.332979
   7 H :    0.165049
   8 H :    0.167845
   9 O :   -0.332841
  10 H :    0.164802
  11 H :    0.168045

  Mayer bond orders larger than 0.100000
B(  0-O ,  1-H ) :   0.8394 B(  0-O ,  2-H ) :   0.8307 B(  3-O ,  4-H ) :   0.8590
B(  3-O ,  5-H ) :   0.8199 B(  6-O ,  7-H ) :   0.8530 B(  6-O ,  8-H ) :   0.8450
B(  9-O , 10-H ) :   0.8535 B(  9-O , 11-H ) :   0.8448

MP2 TOTAL ENERGY:     -305.262659618 Eh
FINAL SINGLE POINT ENERGY      -305.262659617716

DIPOLE MOMENT
-------------
                                X             Y             Z
Electronic contribution:      0.01307      -0.03609       0.19048
Nuclear contribution   :      1.13412      -0.25668      -1.31870
                        -----------------------------------------
Total Dipole Moment    :      1.14719      -0.29277      -1.12822
                        -----------------------------------------
Magnitude (a.u.)       :      1.63543
Magnitude (Debye)      :      4.15693

Rotational constants in cm-1:     0.083319     0.025931     0.021221
Rotational constants in MHz :  2497.848463   777.403396   636.194285

                             ****ORCA TERMINATED NORMALLY****
TOTAL RUN TIME: 0 days 0 hours 0 minutes 24 seconds 861 msec
