                         Program Version 3.0.3 - RELEASE   -
|  1> ! wB97X-D3 Def2-TZVP def2-TZVP/J RIJCOSX TightSCF Grid4 COSMO
|  2>
|  3> %pal nprocs 12 end
|  4>
|  5> %scf
|  6>         maxiter 400
|  7> end
|  8>
|  9> %cosmo
| 10>         SMD true
| 11>         solvent "WATER"
| 12> end
| 13>
| 14> * xyz  0  1
| 15> O  2.342734	2.348307	-0.317083
| 16> H  2.958459	3.091679	-0.231729
| 17> H  1.486626	2.731282	-0.670327
| 18> O  -0.058335	-1.094787	3.212954
| 19> H  0.493328	-0.421761	2.762264
| 20> H  -0.980336	-0.805315	3.008123
| 21> O  0.221313	1.096878	-3.204349
| 22> H  1.131168	0.787350	-2.924211
| 23> H  0.241175	1.169618	-4.170497
| 24> O  -2.470610	-0.412268	2.171581
| 25> H  -2.589343	-1.120549	1.475093
| 26> H  -3.317965	-0.357617	2.639553
| 27> O  2.515752	0.319251	-2.120870
| 28> H  2.281899	-0.446807	-1.557245
| 29> H  2.608974	1.065821	-1.482084
| 30> O  1.249585	-1.457084	-0.413030
| 31> H  0.398365	-1.183297	-0.852645
| 32> H  0.956704	-2.186289	0.185206
| 33> O  1.145980	0.600180	1.335405
| 34> H  1.716070	1.304192	0.941212
| 35> H  1.269471	-0.172566	0.720856
| 36> O  -1.032881	-0.519935	-1.428530
| 37> H  -0.740349	-0.030078	-2.234194
| 38> H  -1.197284	0.196085	-0.758142
| 39> O  -2.477781	-2.260892	0.228847
| 40> H  -2.130598	-1.757580	-0.536764
| 41> H  -1.667461	-2.691113	0.595560
| 42> O  -0.097606	-2.972961	1.333744
| 43> H  -0.051198	-2.347230	2.114372
| 44> H  0.086354	-3.854457	1.693595
| 45> O  -1.284081	1.328628	0.492030
| 46> H  -0.388664	1.118463	0.875791
| 47> H  -1.903682	0.886858	1.120946
| 48> O  -0.034271	3.025842	-1.277021
| 49> H  -0.655318	2.585351	-0.659768
| 50> H  -0.026188	2.436800	-2.068642
| 51> **                         ****END OF INPUT****

CARTESIAN COORDINATES (ANGSTROEM)
---------------------------------
  O      2.342734    2.348307   -0.317083
  H      2.958459    3.091679   -0.231729
  H      1.486626    2.731282   -0.670327
  O     -0.058335   -1.094787    3.212954
  H      0.493328   -0.421761    2.762264
  H     -0.980336   -0.805315    3.008123
  O      0.221313    1.096878   -3.204349
  H      1.131168    0.787350   -2.924211
  H      0.241175    1.169618   -4.170497
  O     -2.470610   -0.412268    2.171581
  H     -2.589343   -1.120549    1.475093
  H     -3.317965   -0.357617    2.639553
  O      2.515752    0.319251   -2.120870
  H      2.281899   -0.446807   -1.557245
  H      2.608974    1.065821   -1.482084
  O      1.249585   -1.457084   -0.413030
  H      0.398365   -1.183297   -0.852645
  H      0.956704   -2.186289    0.185206
  O      1.145980    0.600180    1.335405
  H      1.716070    1.304192    0.941212
  H      1.269471   -0.172566    0.720856
  O     -1.032881   -0.519935   -1.428530
  H     -0.740349   -0.030078   -2.234194
  H     -1.197284    0.196085   -0.758142
  O     -2.477781   -2.260892    0.228847
  H     -2.130598   -1.757580   -0.536764
  H     -1.667461   -2.691113    0.595560
  O     -0.097606   -2.972961    1.333744
  H     -0.051198   -2.347230    2.114372
  H      0.086354   -3.854457    1.693595
  O     -1.284081    1.328628    0.492030
  H     -0.388664    1.118463    0.875791
  H     -1.903682    0.886858    1.120946
  O     -0.034271    3.025842   -1.277021
  H     -0.655318    2.585351   -0.659768
  H     -0.026188    2.436800   -2.068642

 Total Charge           Charge          ....    0
 Multiplicity           Mult            ....    1
 Number of Electrons    NEL             ....  120
 Basis Dimension        Dim             ....  516

ORBITAL ENERGIES
----------------

  NO   OCC          E(Eh)            E(eV)
   0   2.0000     -19.241485      -523.5874
   1   2.0000     -19.240115      -523.5502
   2   2.0000     -19.239663      -523.5378
   3   2.0000     -19.238628      -523.5097
   4   2.0000     -19.233139      -523.3603
   5   2.0000     -19.232296      -523.3374
   6   2.0000     -19.232274      -523.3368
   7   2.0000     -19.231132      -523.3057
   8   2.0000     -19.230857      -523.2982
   9   2.0000     -19.230184      -523.2799
  10   2.0000     -19.229734      -523.2677
  11   2.0000     -19.229479      -523.2607
  12   2.0000      -1.153141       -31.3786
  13   2.0000      -1.142987       -31.1023
  14   2.0000      -1.135732       -30.9048
  15   2.0000      -1.134798       -30.8794
  16   2.0000      -1.131708       -30.7953
  17   2.0000      -1.124624       -30.6026
  18   2.0000      -1.124127       -30.5890
  19   2.0000      -1.115426       -30.3523
  20   2.0000      -1.113955       -30.3123
  21   2.0000      -1.112833       -30.2817
  22   2.0000      -1.108149       -30.1543
  23   2.0000      -1.096325       -29.8325
  24   2.0000      -0.652647       -17.7594
  25   2.0000      -0.649553       -17.6752
  26   2.0000      -0.647750       -17.6262
  27   2.0000      -0.645386       -17.5619
  28   2.0000      -0.643860       -17.5203
  29   2.0000      -0.635364       -17.2891
  30   2.0000      -0.633768       -17.2457
  31   2.0000      -0.633134       -17.2285
  32   2.0000      -0.622417       -16.9368
  33   2.0000      -0.619431       -16.8556
  34   2.0000      -0.616980       -16.7889
  35   2.0000      -0.616831       -16.7848
  36   2.0000      -0.578634       -15.7454
  37   2.0000      -0.545261       -14.8373
  38   2.0000      -0.540495       -14.7076
  39   2.0000      -0.535665       -14.5762
  40   2.0000      -0.512202       -13.9377
  41   2.0000      -0.509849       -13.8737
  42   2.0000      -0.506170       -13.7736
  43   2.0000      -0.504696       -13.7335
  44   2.0000      -0.484224       -13.1764
  45   2.0000      -0.479818       -13.0565
  46   2.0000      -0.478611       -13.0237
  47   2.0000      -0.455901       -12.4057
  48   2.0000      -0.429182       -11.6786
  49   2.0000      -0.428649       -11.6641
  50   2.0000      -0.427670       -11.6375
  51   2.0000      -0.427140       -11.6231
  52   2.0000      -0.422916       -11.5081
  53   2.0000      -0.421955       -11.4820
  54   2.0000      -0.421399       -11.4668
  55   2.0000      -0.419587       -11.4175
  56   2.0000      -0.419313       -11.4101
  57   2.0000      -0.419188       -11.4067
  58   2.0000      -0.418242       -11.3809
  59   2.0000      -0.415877       -11.3166
  60   0.0000       0.094525         2.5722
  61   0.0000       0.125523         3.4157
  62   0.0000       0.146133         3.9765
  63   0.0000       0.146908         3.9976
  64   0.0000       0.178355         4.8533

MULLIKEN ATOMIC CHARGES
-----------------------
   0 O :   -0.774976
   1 H :    0.406815
   2 H :    0.381335
   3 O :   -0.752520
   4 H :    0.390013
   5 H :    0.381177
   6 O :   -0.778116
   7 H :    0.382904
   8 H :    0.406136
   9 O :   -0.769967
  10 H :    0.373704
  11 H :    0.407716
  12 O :   -0.760651
  13 H :    0.392350
  14 H :    0.377050
  15 O :   -0.783414
  16 H :    0.369930
  17 H :    0.389423
  18 O :   -0.781200
  19 H :    0.395736
  20 H :    0.362218
  21 O :   -0.781885
  22 H :    0.392520
  23 H :    0.362322
  24 O :   -0.754540
  25 H :    0.388076
  26 H :    0.378890
  27 O :   -0.770699
  28 H :    0.372070
  29 H :    0.406822
  30 O :   -0.780306
  31 H :    0.367536
  32 H :    0.390321
  33 O :   -0.759889
  34 H :    0.394110
  35 H :    0.378989
Sum of atomic charges:   -0.0000000

LOEWDIN ATOMIC CHARGES
----------------------
   0 O :   -0.283402
   1 H :    0.186787
   2 H :    0.145748
   3 O :   -0.313401
   4 H :    0.150884
   5 H :    0.143504
   6 O :   -0.289499
   7 H :    0.145523
   8 H :    0.186381
   9 O :   -0.279444
  10 H :    0.147122
  11 H :    0.188129
  12 O :   -0.312300
  13 H :    0.149781
  14 H :    0.141521
  15 O :   -0.317612
  16 H :    0.133125
  17 H :    0.144400
  18 O :   -0.305972
  19 H :    0.146951
  20 H :    0.135739
  21 O :   -0.305491
  22 H :    0.147008
  23 H :    0.132661
  24 O :   -0.318995
  25 H :    0.150813
  26 H :    0.143188
  27 O :   -0.278497
  28 H :    0.144035
  29 H :    0.187419
  30 O :   -0.308499
  31 H :    0.134260
  32 H :    0.146603
  33 O :   -0.310773
  34 H :    0.148321
  35 H :    0.143982

  Mayer bond orders larger than 0.1
B(  0-O ,  1-H ) :   0.8391 B(  0-O ,  2-H ) :   0.7618 B(  0-O , 14-H ) :   0.1042
B(  0-O , 19-H ) :   0.1008 B(  2-H , 33-O ) :   0.1343 B(  3-O ,  4-H ) :   0.8250
B(  3-O ,  5-H ) :   0.8037 B(  3-O , 28-H ) :   0.1454 B(  6-O ,  7-H ) :   0.7635
B(  6-O ,  8-H ) :   0.8398 B(  7-H , 12-O ) :   0.1308 B(  9-O , 10-H ) :   0.7671
B(  9-O , 11-H ) :   0.8389 B(  9-O , 32-H ) :   0.1043 B( 10-H , 24-O ) :   0.1366
B( 12-O , 13-H ) :   0.8213 B( 12-O , 14-H ) :   0.8008 B( 15-O , 16-H ) :   0.7727
B( 15-O , 17-H ) :   0.7925 B( 15-O , 20-H ) :   0.1357 B( 16-H , 21-O ) :   0.1331
B( 17-H , 27-O ) :   0.1047 B( 18-O , 19-H ) :   0.7895 B( 18-O , 20-H ) :   0.7746
B( 18-O , 31-H ) :   0.1359 B( 21-O , 22-H ) :   0.7931 B( 21-O , 23-H ) :   0.7711
B( 23-H , 30-O ) :   0.1380 B( 24-O , 25-H ) :   0.8264 B( 24-O , 26-H ) :   0.8041
B( 27-O , 28-H ) :   0.7613 B( 27-O , 29-H ) :   0.8397 B( 30-O , 31-H ) :   0.7719
B( 30-O , 32-H ) :   0.7920 B( 33-O , 34-H ) :   0.8179 B( 33-O , 35-H ) :   0.8040

Dispersion correction           -0.022182877
FINAL SINGLE POINT ENERGY      -917.518901670117

DIPOLE MOMENT
-------------
                                X             Y             Z
Electronic contribution:     -0.02934       0.02152       0.06134
Nuclear contribution   :     -0.04943      -0.00289      -0.03415
                        -----------------------------------------
Total Dipole Moment    :     -0.07877       0.01863       0.02719
                        -----------------------------------------
Magnitude (a.u.)       :      0.08539
Magnitude (Debye)      :      0.21704

                             ****ORCA TERMINATED NORMALLY****
TOTAL RUN TIME: 0 days 0 hours 2 minutes 50 seconds 7 msec
