                         Program Version 3.0.3 - RELEASE   -
|  1> ! wB97X-D3 MA-Def2-TZVP def2-TZVP/J RIJCOSX TightSCF Grid4
|  2>
|  3> %pal nprocs 1 end
|  4>
|  5> %scf
|  6>         maxiter 400
|  7> end
|  8>
|  9> %cosmo
| 10>         SMD true
| 11>         solvent "WATER"
| 12> end
| 13>
| 14> * xyz  0  1
| 15> O  2.342734	2.348307	-0.317083
| 16> H  2.958459	3.091679	-0.231729
| 17> H  1.486626	2.731282	-0.670327
| 18> O  -0.058335	-1.094787	3.212954
| 19> H  0.493328	-0.421761	2.762264
| 20> H  -0.980336	-0.805315	3.008123
| 21> O  0.221313	1.096878	-3.204349
| 22> H  1.131168	0.787350	-2.924211
| 23> H  0.241175	1.169618	-4.170497
| 24> O  -2.470610	-0.412268	2.171581
| 25> H  -2.589343	-1.120549	1.475093
| 26> H  -3.317965	-0.357617	2.639553
| 27> O  2.515752	0.319251	-2.120870
| 28> H  2.281899	-0.446807	-1.557245
| 29> H  2.608974	1.065821	-1.482084
| 30> O  1.249585	-1.457084	-0.413030
| 31> H  0.398365	-1.183297	-0.852645
| 32> H  0.956704	-2.186289	0.185206
| 33> O  1.145980	0.600180	1.335405
| 34> H  1.716070	1.304192	0.941212
| 35> H  1.269471	-0.172566	0.720856
| 36> O  -1.032881	-0.519935	-1.428530
| 37> H  -0.740349	-0.030078	-2.234194
| 38> H  -1.197284	0.196085	-0.758142
| 39> O  -2.477781	-2.260892	0.228847
| 40> H  -2.130598	-1.757580	-0.536764
| 41> H  -1.667461	-2.691113	0.595560
| 42> O  -0.097606	-2.972961	1.333744
| 43> H  -0.051198	-2.347230	2.114372
| 44> H  0.086354	-3.854457	1.693595
| 45> O  -1.284081	1.328628	0.492030
| 46> H  -0.388664	1.118463	0.875791
| 47> H  -1.903682	0.886858	1.120946
| 48> O  -0.034271	3.025842	-1.277021
| 49> H  -0.655318	2.585351	-0.659768
| 50> H  -0.026188	2.436800	-2.068642
| 51> **                         ****END OF INPUT****

CARTESIAN COORDINATES (ANGSTROEM)
---------------------------------
  O      2.342734    2.348307   -0.317083
  H      2.958459    3.091679   -0.231729
  H      1.486626    2.731282   -0.670327
  O     -0.058335   -1.094787    3.212954
  H      0.493328   -0.421761    2.762264
  H     -0.980336   -0.805315    3.008123
  O      0.221313    1.096878   -3.204349
  H      1.131168    0.787350   -2.924211
  H      0.241175    1.169618   -4.170497
  O     -2.470610   -0.412268    2.171581
  H     -2.589343   -1.120549    1.475093
  H     -3.317965   -0.357617    2.639553
  O      2.515752    0.319251   -2.120870
  H      2.281899   -0.446807   -1.557245
  H      2.608974    1.065821   -1.482084
  O      1.249585   -1.457084   -0.413030
  H      0.398365   -1.183297   -0.852645
  H      0.956704   -2.186289    0.185206
  O      1.145980    0.600180    1.335405
  H      1.716070    1.304192    0.941212
  H      1.269471   -0.172566    0.720856
  O     -1.032881   -0.519935   -1.428530
  H     -0.740349   -0.030078   -2.234194
  H     -1.197284    0.196085   -0.758142
  O     -2.477781   -2.260892    0.228847
  H     -2.130598   -1.757580   -0.536764
  H     -1.667461   -2.691113    0.595560
  O     -0.097606   -2.972961    1.333744
  H     -0.051198   -2.347230    2.114372
  H      0.086354   -3.854457    1.693595
  O     -1.284081    1.328628    0.492030
  H     -0.388664    1.118463    0.875791
  H     -1.903682    0.886858    1.120946
  O     -0.034271    3.025842   -1.277021
  H     -0.655318    2.585351   -0.659768
  H     -0.026188    2.436800   -2.068642

 Total Charge           Charge          ....    0
 Multiplicity           Mult            ....    1
 Number of Electrons    NEL             ....  120
 Basis Dimension        Dim             ....  564
Dispersion correction           -0.022182877
FINAL SINGLE POINT ENERGY      -917.523933630818
                             ****ORCA TERMINATED NORMALLY****
TOTAL RUN TIME: 0 days 0 hours 17 minutes 13 seconds 454 msec

ORBITAL ENERGIES
----------------

  NO   OCC          E(Eh)            E(eV)
   0   2.0000     -19.243306      -523.6370
   1   2.0000     -19.241936      -523.5997
   2   2.0000     -19.241457      -523.5867
   3   2.0000     -19.240520      -523.5612
   4   2.0000     -19.234679      -523.4022
   5   2.0000     -19.233893      -523.3808
   6   2.0000     -19.233807      -523.3785
   7   2.0000     -19.233186      -523.3616
   8   2.0000     -19.232977      -523.3559
   9   2.0000     -19.232321      -523.3381
  10   2.0000     -19.231924      -523.3273
  11   2.0000     -19.231047      -523.3034
  12   2.0000      -1.154271       -31.4093
  13   2.0000      -1.144216       -31.1357
  14   2.0000      -1.136856       -30.9354
  15   2.0000      -1.135911       -30.9097
  16   2.0000      -1.132839       -30.8261
  17   2.0000      -1.125878       -30.6367
  18   2.0000      -1.125389       -30.6234
  19   2.0000      -1.116614       -30.3846
  20   2.0000      -1.115113       -30.3438
  21   2.0000      -1.113999       -30.3135
  22   2.0000      -1.109431       -30.1892
  23   2.0000      -1.097457       -29.8633
  24   2.0000      -0.653720       -17.7886
  25   2.0000      -0.650592       -17.7035
  26   2.0000      -0.648828       -17.6555
  27   2.0000      -0.646459       -17.5910
  28   2.0000      -0.644985       -17.5509
  29   2.0000      -0.636430       -17.3182
  30   2.0000      -0.634853       -17.2752
  31   2.0000      -0.634203       -17.2575
  32   2.0000      -0.623561       -16.9680
  33   2.0000      -0.620518       -16.8851
  34   2.0000      -0.618053       -16.8181
  35   2.0000      -0.617911       -16.8142
  36   2.0000      -0.579777       -15.7765
  37   2.0000      -0.546493       -14.8708
  38   2.0000      -0.541565       -14.7367
  39   2.0000      -0.536719       -14.6049
  40   2.0000      -0.513269       -13.9668
  41   2.0000      -0.511041       -13.9061
  42   2.0000      -0.507375       -13.8064
  43   2.0000      -0.505842       -13.7647
  44   2.0000      -0.485406       -13.2086
  45   2.0000      -0.480990       -13.0884
  46   2.0000      -0.479827       -13.0568
  47   2.0000      -0.457186       -12.4407
  48   2.0000      -0.430328       -11.7098
  49   2.0000      -0.429789       -11.6952
  50   2.0000      -0.428883       -11.6705
  51   2.0000      -0.428350       -11.6560
  52   2.0000      -0.423982       -11.5371
  53   2.0000      -0.423042       -11.5115
  54   2.0000      -0.422666       -11.5013
  55   2.0000      -0.420763       -11.4495
  56   2.0000      -0.420548       -11.4437
  57   2.0000      -0.420406       -11.4398
  58   2.0000      -0.419527       -11.4159
  59   2.0000      -0.416870       -11.3436
  60   0.0000       0.063157         1.7186
  61   0.0000       0.081742         2.2243
  62   0.0000       0.094352         2.5674
  63   0.0000       0.095001         2.5851
  64   0.0000       0.110400         3.0041

MULLIKEN ATOMIC CHARGES
-----------------------
   0 O :   -0.846268
   1 H :    0.416560
   2 H :    0.432823
   3 O :   -0.802143
   4 H :    0.429904
   5 H :    0.424320
   6 O :   -0.849355
   7 H :    0.434300
   8 H :    0.416665
   9 O :   -0.856353
  10 H :    0.423875
  11 H :    0.417070
  12 O :   -0.838180
  13 H :    0.432795
  14 H :    0.424415
  15 O :   -0.842582
  16 H :    0.430400
  17 H :    0.427619
  18 O :   -0.921549
  19 H :    0.439688
  20 H :    0.421876
  21 O :   -0.927148
  22 H :    0.437927
  23 H :    0.423877
  24 O :   -0.806132
  25 H :    0.426380
  26 H :    0.419724
  27 O :   -0.862866
  28 H :    0.422012
  29 H :    0.416139
  30 O :   -0.844921
  31 H :    0.424623
  32 H :    0.428761
  33 O :   -0.836784
  34 H :    0.434283
  35 H :    0.428247
Sum of atomic charges:   -0.0000000

LOEWDIN ATOMIC CHARGES
----------------------
   0 O :   -0.376246
   1 H :    0.214876
   2 H :    0.195171
   3 O :   -0.398361
   4 H :    0.200257
   5 H :    0.194049
   6 O :   -0.381628
   7 H :    0.194951
   8 H :    0.214374
   9 O :   -0.373157
  10 H :    0.196741
  11 H :    0.216274
  12 O :   -0.398763
  13 H :    0.199212
  14 H :    0.192643
  15 O :   -0.421240
  16 H :    0.188327
  17 H :    0.195544
  18 O :   -0.412416
  19 H :    0.198377
  20 H :    0.190921
  21 O :   -0.412563
  22 H :    0.198733
  23 H :    0.187541
  24 O :   -0.403637
  25 H :    0.200206
  26 H :    0.193735
  27 O :   -0.372942
  28 H :    0.193449
  29 H :    0.215919
  30 O :   -0.413184
  31 H :    0.189283
  32 H :    0.197577
  33 O :   -0.397177
  34 H :    0.197840
  35 H :    0.195314

  Mayer bond orders larger than 0.1
B(  0-O ,  1-H ) :   0.8320 B(  0-O ,  2-H ) :   0.7770 B(  3-O ,  4-H ) :   0.8291
B(  3-O ,  5-H ) :   0.8178 B(  6-O ,  7-H ) :   0.7775 B(  6-O ,  8-H ) :   0.8323
B(  9-O , 10-H ) :   0.7820 B(  9-O , 11-H ) :   0.8325 B( 12-O , 13-H ) :   0.8233
B( 12-O , 14-H ) :   0.8140 B( 15-O , 16-H ) :   0.7951 B( 15-O , 17-H ) :   0.8009
B( 18-O , 19-H ) :   0.7990 B( 18-O , 20-H ) :   0.7988 B( 21-O , 22-H ) :   0.8021
B( 21-O , 23-H ) :   0.7970 B( 24-O , 25-H ) :   0.8293 B( 24-O , 26-H ) :   0.8178
B( 27-O , 28-H ) :   0.7769 B( 27-O , 29-H ) :   0.8336 B( 30-O , 31-H ) :   0.7948
B( 30-O , 32-H ) :   0.8000 B( 33-O , 34-H ) :   0.8219 B( 33-O , 35-H ) :   0.8172

Dispersion correction           -0.022182877
FINAL SINGLE POINT ENERGY      -917.523933630818

DIPOLE MOMENT
-------------
                                X             Y             Z
Electronic contribution:     -0.03023       0.02282       0.06205
Nuclear contribution   :     -0.04943      -0.00289      -0.03415
                        -----------------------------------------
Total Dipole Moment    :     -0.07966       0.01992       0.02789
                        -----------------------------------------
Magnitude (a.u.)       :      0.08672
Magnitude (Debye)      :      0.22043

                             ****ORCA TERMINATED NORMALLY****
TOTAL RUN TIME: 0 days 0 hours 17 minutes 7 seconds 296 msec
