                         Program Version 3.0.3 - RELEASE   -
|  1> ! B3LYP Def2-TZVP def2-TZVP/J RIJCOSX TightSCF Grid4 D3BJ
|  2>
|  3> %pal nprocs 12 end
|  4>
|  5> %scf
|  6>         maxiter 400
|  7> end
|  8>
|  9> * xyz  0  1
| 10> O  2.279363	2.297839	-0.284430
| 11> H  2.871367	3.061369	-0.157426
| 12> H  1.388663	2.680307	-0.675004
| 13> O  -0.107418	-1.122614	3.087626
| 14> H  0.482500	-0.421884	2.698435
| 15> H  -1.026222	-0.780723	2.895615
| 16> O  0.200515	1.013535	-3.087602
| 17> H  1.155765	0.715447	-2.784522
| 18> H  0.231979	1.095745	-4.058130
| 19> O  -2.496585	-0.336838	2.046678
| 20> H  -2.532603	-1.120239	1.352221
| 21> H  -3.363033	-0.330253	2.492270
| 22> O  2.473108	0.308701	-2.137483
| 23> H  2.224405	-0.472378	-1.572680
| 24> H  2.600587	1.042525	-1.471117
| 25> O  1.174662	-1.374768	-0.460546
| 26> H  0.282165	-1.114766	-0.871780
| 27> H  0.942771	-2.162910	0.109820
| 28> O  1.165336	0.530008	1.364990
| 29> H  1.742669	1.250870	0.979955
| 30> H  1.245195	-0.225200	0.686579
| 31> O  -1.149560	-0.514798	-1.379943
| 32> H  -0.835277	-0.045163	-2.205528
| 33> H  -1.232770	0.236074	-0.697147
| 34> O  -2.398732	-2.217364	0.314790
| 35> H  -2.095857	-1.737076	-0.502766
| 36> H  -1.574065	-2.686790	0.626566
| 37> O  0.017407	-2.974402	1.321296
| 38> H  -0.004878	-2.271951	2.097191
| 39> H  0.263075	-3.823146	1.732016
| 40> O  -1.186279	1.357325	0.478366
| 41> H  -0.290540	1.100572	0.883978
| 42> H  -1.846443	0.955872	1.113834
| 43> O  0.026744	3.036563	-1.264665
| 44> H  -0.613865	2.629320	-0.620330
| 45> H  -0.014143	2.421192	-2.051125
| 46> **                         ****END OF INPUT****

CARTESIAN COORDINATES (ANGSTROEM)
---------------------------------
  O      2.279363    2.297839   -0.284430
  H      2.871367    3.061369   -0.157426
  H      1.388663    2.680307   -0.675004
  O     -0.107418   -1.122614    3.087626
  H      0.482500   -0.421884    2.698435
  H     -1.026222   -0.780723    2.895615
  O      0.200515    1.013535   -3.087602
  H      1.155765    0.715447   -2.784522
  H      0.231979    1.095745   -4.058130
  O     -2.496585   -0.336838    2.046678
  H     -2.532603   -1.120239    1.352221
  H     -3.363033   -0.330253    2.492270
  O      2.473108    0.308701   -2.137483
  H      2.224405   -0.472378   -1.572680
  H      2.600587    1.042525   -1.471117
  O      1.174662   -1.374768   -0.460546
  H      0.282165   -1.114766   -0.871780
  H      0.942771   -2.162910    0.109820
  O      1.165336    0.530008    1.364990
  H      1.742669    1.250870    0.979955
  H      1.245195   -0.225200    0.686579
  O     -1.149560   -0.514798   -1.379943
  H     -0.835277   -0.045163   -2.205528
  H     -1.232770    0.236074   -0.697147
  O     -2.398732   -2.217364    0.314790
  H     -2.095857   -1.737076   -0.502766
  H     -1.574065   -2.686790    0.626566
  O      0.017407   -2.974402    1.321296
  H     -0.004878   -2.271951    2.097191
  H      0.263075   -3.823146    1.732016
  O     -1.186279    1.357325    0.478366
  H     -0.290540    1.100572    0.883978
  H     -1.846443    0.955872    1.113834
  O      0.026744    3.036563   -1.264665
  H     -0.613865    2.629320   -0.620330
  H     -0.014143    2.421192   -2.051125

 Total Charge           Charge          ....    0
 Multiplicity           Mult            ....    1
 Number of Electrons    NEL             ....  120
 Basis Dimension        Dim             ....  516

ORBITAL ENERGIES
----------------

  NO   OCC          E(Eh)            E(eV)
   0   2.0000     -19.142421      -520.8917
   1   2.0000     -19.142078      -520.8824
   2   2.0000     -19.141863      -520.8766
   3   2.0000     -19.141820      -520.8754
   4   2.0000     -19.126515      -520.4589
   5   2.0000     -19.126511      -520.4588
   6   2.0000     -19.126423      -520.4564
   7   2.0000     -19.125731      -520.4376
   8   2.0000     -19.125684      -520.4363
   9   2.0000     -19.125655      -520.4355
  10   2.0000     -19.125598      -520.4340
  11   2.0000     -19.125552      -520.4327
  12   2.0000      -1.040341       -28.3091
  13   2.0000      -1.031605       -28.0714
  14   2.0000      -1.022369       -27.8201
  15   2.0000      -1.022187       -27.8151
  16   2.0000      -1.016888       -27.6709
  17   2.0000      -1.009054       -27.4578
  18   2.0000      -1.008560       -27.4443
  19   2.0000      -0.997683       -27.1483
  20   2.0000      -0.995044       -27.0765
  21   2.0000      -0.994508       -27.0619
  22   2.0000      -0.990641       -26.9567
  23   2.0000      -0.975481       -26.5442
  24   2.0000      -0.552400       -15.0316
  25   2.0000      -0.549868       -14.9627
  26   2.0000      -0.549236       -14.9455
  27   2.0000      -0.548918       -14.9368
  28   2.0000      -0.542057       -14.7501
  29   2.0000      -0.534653       -14.5487
  30   2.0000      -0.533370       -14.5137
  31   2.0000      -0.532816       -14.4986
  32   2.0000      -0.518760       -14.1162
  33   2.0000      -0.515248       -14.0206
  34   2.0000      -0.513512       -13.9734
  35   2.0000      -0.513196       -13.9648
  36   2.0000      -0.483359       -13.1529
  37   2.0000      -0.452138       -12.3033
  38   2.0000      -0.440427       -11.9846
  39   2.0000      -0.439280       -11.9534
  40   2.0000      -0.412409       -11.2222
  41   2.0000      -0.412354       -11.2207
  42   2.0000      -0.412102       -11.2139
  43   2.0000      -0.406900       -11.0723
  44   2.0000      -0.382546       -10.4096
  45   2.0000      -0.382004       -10.3949
  46   2.0000      -0.378795       -10.3075
  47   2.0000      -0.352218        -9.5843
  48   2.0000      -0.336022        -9.1436
  49   2.0000      -0.335869        -9.1395
  50   2.0000      -0.333739        -9.0815
  51   2.0000      -0.333307        -9.0697
  52   2.0000      -0.323274        -8.7967
  53   2.0000      -0.322821        -8.7844
  54   2.0000      -0.320635        -8.7249
  55   2.0000      -0.319554        -8.6955
  56   2.0000      -0.318303        -8.6615
  57   2.0000      -0.318013        -8.6536
  58   2.0000      -0.317206        -8.6316
  59   2.0000      -0.315440        -8.5836
  60   0.0000       0.000238         0.0065
  61   0.0000       0.017695         0.4815
  62   0.0000       0.030533         0.8308
  63   0.0000       0.030763         0.8371
  64   0.0000       0.074432         2.0254

MULLIKEN ATOMIC CHARGES
-----------------------
   0 O :   -0.741690
   1 H :    0.335453
   2 H :    0.366641
   3 O :   -0.679722
   4 H :    0.382467
   5 H :    0.359492
   6 O :   -0.742570
   7 H :    0.367839
   8 H :    0.335361
   9 O :   -0.742721
  10 H :    0.366566
  11 H :    0.335108
  12 O :   -0.680860
  13 H :    0.382091
  14 H :    0.360085
  15 O :   -0.747018
  16 H :    0.354695
  17 H :    0.371060
  18 O :   -0.749589
  19 H :    0.371645
  20 H :    0.355636
  21 O :   -0.750417
  22 H :    0.372265
  23 H :    0.355645
  24 O :   -0.678620
  25 H :    0.382360
  26 H :    0.360233
  27 O :   -0.742471
  28 H :    0.366458
  29 H :    0.334851
  30 O :   -0.747592
  31 H :    0.353796
  32 H :    0.372360
  33 O :   -0.680615
  34 H :    0.382347
  35 H :    0.359431
Sum of atomic charges:   -0.0000000

LOEWDIN ATOMIC CHARGES
----------------------
   0 O :   -0.312934
   1 H :    0.160763
   2 H :    0.143951
   3 O :   -0.268938
   4 H :    0.154737
   5 H :    0.146178
   6 O :   -0.313559
   7 H :    0.143662
   8 H :    0.160571
   9 O :   -0.313952
  10 H :    0.143035
  11 H :    0.160335
  12 O :   -0.269849
  13 H :    0.154678
  14 H :    0.146806
  15 O :   -0.303128
  16 H :    0.136075
  17 H :    0.146536
  18 O :   -0.307037
  19 H :    0.146348
  20 H :    0.135845
  21 O :   -0.306745
  22 H :    0.146170
  23 H :    0.135791
  24 O :   -0.267060
  25 H :    0.155228
  26 H :    0.146981
  27 O :   -0.314893
  28 H :    0.143693
  29 H :    0.160347
  30 O :   -0.302974
  31 H :    0.136212
  32 H :    0.146486
  33 O :   -0.270964
  34 H :    0.154732
  35 H :    0.146873

  Mayer bond orders larger than 0.1
B(  0-O ,  1-H ) :   0.8862 B(  0-O ,  2-H ) :   0.6949 B(  0-O , 14-H ) :   0.1052
B(  0-O , 19-H ) :   0.1107 B(  2-H , 33-O ) :   0.2229 B(  3-O ,  4-H ) :   0.8163
B(  3-O ,  5-H ) :   0.8129 B(  3-O , 28-H ) :   0.2253 B(  5-H ,  9-O ) :   0.1061
B(  6-O ,  7-H ) :   0.6941 B(  6-O ,  8-H ) :   0.8861 B(  6-O , 22-H ) :   0.1111
B(  6-O , 35-H ) :   0.1053 B(  7-H , 12-O ) :   0.2226 B(  9-O , 10-H ) :   0.6915
B(  9-O , 11-H ) :   0.8865 B(  9-O , 32-H ) :   0.1121 B( 10-H , 24-O ) :   0.2264
B( 12-O , 13-H ) :   0.8167 B( 12-O , 14-H ) :   0.8130 B( 15-O , 16-H ) :   0.7506
B( 15-O , 17-H ) :   0.7978 B( 15-O , 20-H ) :   0.1710 B( 16-H , 21-O ) :   0.1701
B( 17-H , 27-O ) :   0.1117 B( 18-O , 19-H ) :   0.7979 B( 18-O , 20-H ) :   0.7483
B( 18-O , 31-H ) :   0.1701 B( 21-O , 22-H ) :   0.7973 B( 21-O , 23-H ) :   0.7480
B( 23-H , 30-O ) :   0.1714 B( 24-O , 25-H ) :   0.8164 B( 24-O , 26-H ) :   0.8131
B( 26-H , 27-O ) :   0.1047 B( 27-O , 28-H ) :   0.6927 B( 27-O , 29-H ) :   0.8867
B( 30-O , 31-H ) :   0.7513 B( 30-O , 32-H ) :   0.7964 B( 33-O , 34-H ) :   0.8166
B( 33-O , 35-H ) :   0.8134

Dispersion correction           -0.044721816
FINAL SINGLE POINT ENERGY      -917.333201326646

DIPOLE MOMENT
-------------
                                X             Y             Z
Electronic contribution:     -0.00370      -0.00013      -0.00209
Nuclear contribution   :      0.00360      -0.00796       0.00231
                        -----------------------------------------
Total Dipole Moment    :     -0.00011      -0.00809       0.00022
                        -----------------------------------------
Magnitude (a.u.)       :      0.00809
Magnitude (Debye)      :      0.02056

                             ****ORCA TERMINATED NORMALLY****
TOTAL RUN TIME: 0 days 0 hours 1 minutes 28 seconds 523 msec
