                         Program Version 4.2.0 -  RELEASE  -
|  1> # 12meoh.boyd.etal.mol2,7,8
|  2> ! MP2 def2-TZVP EnGrad TightSCF
|  3>
|  4> %pal
|  5>     nprocs 6
|  6> end
|  7>
|  8> %maxcore 8000
|  9>
| 10> %scf
| 11>     ConvForced true
| 12> end
| 13>
| 14> *xyz 0 1
| 15> O  -3.839777402   2.233595098   0.660436763
| 16> H  -2.958345897   1.907036203   0.973588449
| 17> C  -3.600368059   3.168790682  -0.390480452
| 18> H  -4.551709193   3.344148967  -0.901254863
| 19> H  -2.868237594   2.789240199  -1.113617525
| 20> H  -3.243594915   4.128998607   0.009549480
| 21> O   4.310535586  -1.588322800   0.656128299
| 22> H   3.804372199  -1.630404735  -0.196849819
| 23> C   4.312298137  -2.894980854   1.222112691
| 24> H   4.713177833  -2.819907076   2.237066773
| 25> H   4.957796734  -3.574699304   0.648211180
| 26> H   3.302735989  -3.324433205   1.269756773
| 27> O   3.570084754   2.361662577  -0.202416728
| 28> H   3.393280933   1.755669977   0.560634073
| 29> C   4.368082883   1.644741793  -1.143112807
| 30> H   4.552851717   2.311801738  -1.989632421
| 31> H   3.862427494   0.740851663  -1.508095690
| 32> H   5.333949674   1.357289092  -0.706288100
| 33> *
| 34>
| 35>                          ****END OF INPUT****

CARTESIAN COORDINATES (ANGSTROEM)
---------------------------------
  O     -3.839777    2.233595    0.660437
  H     -2.958346    1.907036    0.973588
  C     -3.600368    3.168791   -0.390480
  H     -4.551709    3.344149   -0.901255
  H     -2.868238    2.789240   -1.113618
  H     -3.243595    4.128999    0.009549
  O      4.310536   -1.588323    0.656128
  H      3.804372   -1.630405   -0.196850
  C      4.312298   -2.894981    1.222113
  H      4.713178   -2.819907    2.237067
  H      4.957797   -3.574699    0.648211
  H      3.302736   -3.324433    1.269757
  O      3.570085    2.361663   -0.202417
  H      3.393281    1.755670    0.560634
  C      4.368083    1.644742   -1.143113
  H      4.552852    2.311802   -1.989632
  H      3.862427    0.740852   -1.508096
  H      5.333950    1.357289   -0.706288

 Total Charge           Charge          ....    0
 Multiplicity           Mult            ....    1
 Number of Electrons    NEL             ....   54
 Basis Dimension        Dim             ....  258

ORBITAL ENERGIES
----------------

  NO   OCC          E(Eh)            E(eV)
   0   2.0000     -20.569580      -559.7267
   1   2.0000     -20.555131      -559.3336
   2   2.0000     -20.552871      -559.2721
   3   2.0000     -11.280719      -306.9640
   4   2.0000     -11.269715      -306.6645
   5   2.0000     -11.268619      -306.6347
   6   2.0000      -1.359012       -36.9806
   7   2.0000      -1.344587       -36.5881
   8   2.0000      -1.342418       -36.5290
   9   2.0000      -0.929322       -25.2881
  10   2.0000      -0.917611       -24.9695
  11   2.0000      -0.916314       -24.9342
  12   2.0000      -0.693174       -18.8622
  13   2.0000      -0.679715       -18.4960
  14   2.0000      -0.677648       -18.4397
  15   2.0000      -0.626951       -17.0602
  16   2.0000      -0.614704       -16.7269
  17   2.0000      -0.613497       -16.6941
  18   2.0000      -0.601760       -16.3747
  19   2.0000      -0.588063       -16.0020
  20   2.0000      -0.585931       -15.9440
  21   2.0000      -0.511600       -13.9213
  22   2.0000      -0.499710       -13.5978
  23   2.0000      -0.497960       -13.5502
  24   2.0000      -0.460145       -12.5212
  25   2.0000      -0.447296       -12.1715
  26   2.0000      -0.445988       -12.1360
  27   0.0000       0.114475         3.1150
  28   0.0000       0.136889         3.7249
  29   0.0000       0.150648         4.0993
  30   0.0000       0.172437         4.6923
  31   0.0000       0.178434         4.8554

MULLIKEN ATOMIC CHARGES
-----------------------
   0 O :   -0.497392
   1 H :    0.321112
   2 C :   -0.174920
   3 H :    0.128081
   4 H :    0.111708
   5 H :    0.111411
   6 O :   -0.498683
   7 H :    0.323587
   8 C :   -0.180231
   9 H :    0.132414
  10 H :    0.113612
  11 H :    0.113807
  12 O :   -0.504591
  13 H :    0.326161
  14 C :   -0.159495
  15 H :    0.129898
  16 H :    0.081805
  17 H :    0.121716
Sum of atomic charges:   -0.0000000

LOEWDIN ATOMIC CHARGES
----------------------
   0 O :   -0.111487
   1 H :    0.188010
   2 C :   -0.378394
   3 H :    0.109423
   4 H :    0.096106
   5 H :    0.096341
   6 O :   -0.111170
   7 H :    0.188697
   8 C :   -0.378444
   9 H :    0.111112
  10 H :    0.097162
  11 H :    0.097017
  12 O :   -0.111696
  13 H :    0.189078
  14 C :   -0.378883
  15 H :    0.109166
  16 H :    0.088297
  17 H :    0.099665

  Mayer bond orders larger than 0.100000
B(  0-O ,  1-H ) :   0.8441 B(  0-O ,  2-C ) :   0.9256 B(  2-C ,  3-H ) :   0.9379
B(  2-C ,  4-H ) :   0.9412 B(  2-C ,  5-H ) :   0.9378 B(  6-O ,  7-H ) :   0.8396
B(  6-O ,  8-C ) :   0.9181 B(  8-C ,  9-H ) :   0.9384 B(  8-C , 10-H ) :   0.9382
B(  8-C , 11-H ) :   0.9398 B( 12-O , 13-H ) :   0.8401 B( 12-O , 14-C ) :   0.9274
B( 14-C , 15-H ) :   0.9364 B( 14-C , 16-H ) :   0.9399 B( 14-C , 17-H ) :   0.9408

MP2 TOTAL ENERGY:     -346.522627650 Eh
FINAL SINGLE POINT ENERGY      -346.522627650009

DIPOLE MOMENT
-------------
                                X             Y             Z
Electronic contribution:     -1.33556       1.50366       1.83035
Nuclear contribution   :      1.92198      -2.59575      -2.22716
                        -----------------------------------------
Total Dipole Moment    :      0.58642      -1.09209      -0.39682
                        -----------------------------------------
Magnitude (a.u.)       :      1.30154
Magnitude (Debye)      :      3.30826

Rotational constants in cm-1:     0.052922     0.010733     0.009096
Rotational constants in MHz :  1586.551745   321.757622   272.686846

                             ****ORCA TERMINATED NORMALLY****
TOTAL RUN TIME: 0 days 0 hours 0 minutes 47 seconds 162 msec
