                         Program Version 4.2.0 -  RELEASE  -
|  1> # 12meoh.boyd.etal.mol0,5,11
|  2> ! MP2 def2-TZVP EnGrad TightSCF
|  3>
|  4> %pal
|  5>     nprocs 6
|  6> end
|  7>
|  8> %maxcore 8000
|  9>
| 10> %scf
| 11>     ConvForced true
| 12> end
| 13>
| 14> *xyz 0 1
| 15> O  -1.776108874  -2.741384797  -1.019308298
| 16> H  -2.520094035  -2.452295987  -0.420778302
| 17> C  -2.174025166  -3.952700964  -1.647004581
| 18> H  -1.359803895  -4.272673416  -2.304149236
| 19> H  -3.075973971  -3.808692420  -2.256751112
| 20> H  -2.370225393  -4.752784761  -0.918966137
| 21> O  -0.662721750   1.449094618  -1.383082065
| 22> H   0.064188300   2.119867608  -1.465650660
| 23> C  -0.353319239   0.341218776  -2.229326771
| 24> H  -1.072358530  -0.454743281  -2.019906495
| 25> H   0.657636746  -0.044472139  -2.042736771
| 26> H  -0.434616607   0.624733901  -3.287793021
| 27> O   3.252955559   0.588596242   1.858934315
| 28> H   3.621209177  -0.251605199   1.476063364
| 29> C   4.040824528   0.944288422   2.989639460
| 30> H   3.670521436   1.902573549   3.363847391
| 31> H   5.103749934   1.055868619   2.734277559
| 32> H   3.948540682   0.200279590   3.792908518
| 33> *
| 34>
| 35>                          ****END OF INPUT****

CARTESIAN COORDINATES (ANGSTROEM)
---------------------------------
  O     -1.776109   -2.741385   -1.019308
  H     -2.520094   -2.452296   -0.420778
  C     -2.174025   -3.952701   -1.647005
  H     -1.359804   -4.272673   -2.304149
  H     -3.075974   -3.808692   -2.256751
  H     -2.370225   -4.752785   -0.918966
  O     -0.662722    1.449095   -1.383082
  H      0.064188    2.119868   -1.465651
  C     -0.353319    0.341219   -2.229327
  H     -1.072359   -0.454743   -2.019906
  H      0.657637   -0.044472   -2.042737
  H     -0.434617    0.624734   -3.287793
  O      3.252956    0.588596    1.858934
  H      3.621209   -0.251605    1.476063
  C      4.040825    0.944288    2.989639
  H      3.670521    1.902574    3.363847
  H      5.103750    1.055869    2.734278
  H      3.948541    0.200280    3.792909

 Total Charge           Charge          ....    0
 Multiplicity           Mult            ....    1
 Number of Electrons    NEL             ....   54
 Basis Dimension        Dim             ....  258

ORBITAL ENERGIES
----------------

  NO   OCC          E(Eh)            E(eV)
   0   2.0000     -20.559247      -559.4456
   1   2.0000     -20.554722      -559.3224
   2   2.0000     -20.539544      -558.9094
   3   2.0000     -11.272464      -306.7393
   4   2.0000     -11.269511      -306.6590
   5   2.0000     -11.250957      -306.1541
   6   2.0000      -1.348584       -36.6968
   7   2.0000      -1.344020       -36.5726
   8   2.0000      -1.327582       -36.1253
   9   2.0000      -0.920271       -25.0419
  10   2.0000      -0.917486       -24.9661
  11   2.0000      -0.900414       -24.5015
  12   2.0000      -0.682840       -18.5810
  13   2.0000      -0.679144       -18.4804
  14   2.0000      -0.662963       -18.0401
  15   2.0000      -0.618758       -16.8373
  16   2.0000      -0.614726       -16.7275
  17   2.0000      -0.598710       -16.2917
  18   2.0000      -0.593380       -16.1467
  19   2.0000      -0.588439       -16.0122
  20   2.0000      -0.569898       -15.5077
  21   2.0000      -0.502333       -13.6692
  22   2.0000      -0.497678       -13.5425
  23   2.0000      -0.480855       -13.0847
  24   2.0000      -0.449419       -12.2293
  25   2.0000      -0.446697       -12.1552
  26   2.0000      -0.431509       -11.7420
  27   0.0000       0.130777         3.5586
  28   0.0000       0.135919         3.6985
  29   0.0000       0.153444         4.1754
  30   0.0000       0.174991         4.7617
  31   0.0000       0.178034         4.8445

MULLIKEN ATOMIC CHARGES
-----------------------
   0 O :   -0.491126
   1 H :    0.327801
   2 C :   -0.173888
   3 H :    0.128296
   4 H :    0.111461
   5 H :    0.110298
   6 O :   -0.503653
   7 H :    0.320029
   8 C :   -0.172203
   9 H :    0.142629
  10 H :    0.103926
  11 H :    0.096292
  12 O :   -0.495115
  13 H :    0.321550
  14 C :   -0.172885
  15 H :    0.129351
  16 H :    0.107973
  17 H :    0.109266
Sum of atomic charges:    0.0000000

LOEWDIN ATOMIC CHARGES
----------------------
   0 O :   -0.101264
   1 H :    0.195237
   2 C :   -0.384438
   3 H :    0.110096
   4 H :    0.095820
   5 H :    0.096716
   6 O :   -0.115288
   7 H :    0.187283
   8 C :   -0.380865
   9 H :    0.109792
  10 H :    0.095631
  11 H :    0.091203
  12 O :   -0.108235
  13 H :    0.190084
  14 C :   -0.382174
  15 H :    0.110280
  16 H :    0.094800
  17 H :    0.095323

  Mayer bond orders larger than 0.100000
B(  0-O ,  1-H ) :   0.8367 B(  0-O ,  2-C ) :   0.9193 B(  2-C ,  3-H ) :   0.9394
B(  2-C ,  4-H ) :   0.9399 B(  2-C ,  5-H ) :   0.9339 B(  6-O ,  7-H ) :   0.8438
B(  6-O ,  8-C ) :   0.9257 B(  8-C ,  9-H ) :   0.9308 B(  8-C , 10-H ) :   0.9432
B(  8-C , 11-H ) :   0.9377 B( 12-O , 13-H ) :   0.8421 B( 12-O , 14-C ) :   0.9278
B( 14-C , 15-H ) :   0.9377 B( 14-C , 16-H ) :   0.9386 B( 14-C , 17-H ) :   0.9389

MP2 TOTAL ENERGY:     -346.521626772 Eh
FINAL SINGLE POINT ENERGY      -346.521626772201

DIPOLE MOMENT
-------------
                                X             Y             Z
Electronic contribution:     -0.98257       2.40417       0.47331
Nuclear contribution   :      1.45185      -3.22624      -0.47902
                        -----------------------------------------
Total Dipole Moment    :      0.46928      -0.82207      -0.00572
                        -----------------------------------------
Magnitude (a.u.)       :      0.94660
Magnitude (Debye)      :      2.40608

Rotational constants in cm-1:     0.062474     0.015646     0.012898
Rotational constants in MHz :  1872.923169   469.051761   386.687103

                             ****ORCA TERMINATED NORMALLY****
TOTAL RUN TIME: 0 days 0 hours 0 minutes 53 seconds 470 msec
