                         Program Version 4.2.0 -  RELEASE  -
|  1> # 12h2o.su.etal.mol0,11
|  2> ! MP2 def2-TZVP EnGrad TightSCF
|  3>
|  4> %pal
|  5>     nprocs 6
|  6> end
|  7>
|  8> %maxcore 8000
|  9>
| 10> %scf
| 11>     ConvForced true
| 12> end
| 13>
| 14> *xyz 0 1
| 15> O   1.794470000   0.923410000   2.768350000
| 16> H   2.338250000   1.359750000   3.430940000
| 17> H   0.879480000   1.303000000   2.865760000
| 18> O  -0.741530000   1.752130000   2.896280000
| 19> H  -0.920500000   2.036450000   1.984040000
| 20> H  -1.242140000   0.921210000   2.984230000
| 21> *
| 22>
| 23>                          ****END OF INPUT****

CARTESIAN COORDINATES (ANGSTROEM)
---------------------------------
  O      1.794470    0.923410    2.768350
  H      2.338250    1.359750    3.430940
  H      0.879480    1.303000    2.865760
  O     -0.741530    1.752130    2.896280
  H     -0.920500    2.036450    1.984040
  H     -1.242140    0.921210    2.984230

 Total Charge           Charge          ....    0
 Multiplicity           Mult            ....    1
 Number of Electrons    NEL             ....   20
 Basis Dimension        Dim             ....   86

ORBITAL ENERGIES
----------------

  NO   OCC          E(Eh)            E(eV)
   0   2.0000     -20.599536      -560.5419
   1   2.0000     -20.517150      -558.3000
   2   2.0000      -1.384794       -37.6822
   3   2.0000      -1.299611       -35.3642
   4   2.0000      -0.742346       -20.2003
   5   2.0000      -0.691207       -18.8087
   6   2.0000      -0.619117       -16.8470
   7   2.0000      -0.558766       -15.2048
   8   2.0000      -0.514869       -14.0103
   9   2.0000      -0.467456       -12.7201
  10   0.0000       0.109654         2.9838
  11   0.0000       0.176440         4.8012
  12   0.0000       0.182205         4.9580
  13   0.0000       0.320499         8.7212
  14   0.0000       0.477825        13.0023

MULLIKEN ATOMIC CHARGES
-----------------------
   0 O :   -0.729918
   1 H :    0.324994
   2 H :    0.362538
   3 O :   -0.676585
   4 H :    0.359003
   5 H :    0.359968
Sum of atomic charges:   -0.0000000

LOEWDIN ATOMIC CHARGES
----------------------
   0 O :   -0.371492
   1 H :    0.148416
   2 H :    0.141104
   3 O :   -0.270494
   4 H :    0.175304
   5 H :    0.177162

  Mayer bond orders larger than 0.100000
B(  0-O ,  1-H ) :   0.8609 B(  0-O ,  2-H ) :   0.7913 B(  3-O ,  4-H ) :   0.8368
B(  3-O ,  5-H ) :   0.8358

MP2 TOTAL ENERGY:     -152.632438631 Eh
FINAL SINGLE POINT ENERGY      -152.632438630894

DIPOLE MOMENT
-------------
                                X             Y             Z
Electronic contribution:     -0.16701       0.04568       0.00791
Nuclear contribution   :     -0.87464       0.22418      -0.05351
                        -----------------------------------------
Total Dipole Moment    :     -1.04165       0.26986      -0.04560
                        -----------------------------------------
Magnitude (a.u.)       :      1.07700
Magnitude (Debye)      :      2.73753

Rotational constants in cm-1:     6.854107     0.254492     0.254139
Rotational constants in MHz : 205480.967324  7629.468973  7618.898296

                             ****ORCA TERMINATED NORMALLY****
TOTAL RUN TIME: 0 days 0 hours 0 minutes 29 seconds 268 msec
