                         Program Version 4.2.0 -  RELEASE  -
|  1> # 12h2o.su.etal.mol2,5,6,9,11
|  2> ! MP2 def2-TZVP EnGrad TightSCF
|  3>
|  4> %pal
|  5>     nprocs 6
|  6> end
|  7>
|  8> %maxcore 8000
|  9>
| 10> %scf
| 11>     ConvForced true
| 12> end
| 13>
| 14> *xyz 0 1
| 15> O   0.923410000  -1.794470000  -2.768350000
| 16> H   1.359750000  -2.338250000  -3.430940000
| 17> H   1.303000000  -0.879480000  -2.865760000
| 18> O   0.885520000  -1.737840000   0.052730000
| 19> H   1.284090000  -0.839590000   0.017130000
| 20> H   1.032320000  -2.090180000  -0.841890000
| 21> O   1.737840000   0.885520000  -0.052730000
| 22> H   2.090180000   1.032320000   0.841890000
| 23> H   0.839590000   1.284090000  -0.017130000
| 24> O   0.741530000  -1.752130000   2.896280000
| 25> H   0.920500000  -2.036450000   1.984040000
| 26> H   1.242140000  -0.921210000   2.984230000
| 27> O  -0.741530000   1.752130000   2.896280000
| 28> H  -0.920500000   2.036450000   1.984040000
| 29> H  -1.242140000   0.921210000   2.984230000
| 30> *
| 31>
| 32>                          ****END OF INPUT****

CARTESIAN COORDINATES (ANGSTROEM)
---------------------------------
  O      0.923410   -1.794470   -2.768350
  H      1.359750   -2.338250   -3.430940
  H      1.303000   -0.879480   -2.865760
  O      0.885520   -1.737840    0.052730
  H      1.284090   -0.839590    0.017130
  H      1.032320   -2.090180   -0.841890
  O      1.737840    0.885520   -0.052730
  H      2.090180    1.032320    0.841890
  H      0.839590    1.284090   -0.017130
  O      0.741530   -1.752130    2.896280
  H      0.920500   -2.036450    1.984040
  H      1.242140   -0.921210    2.984230
  O     -0.741530    1.752130    2.896280
  H     -0.920500    2.036450    1.984040
  H     -1.242140    0.921210    2.984230

 Total Charge           Charge          ....    0
 Multiplicity           Mult            ....    1
 Number of Electrons    NEL             ....   50
 Basis Dimension        Dim             ....  215

ORBITAL ENERGIES
----------------

  NO   OCC          E(Eh)            E(eV)
   0   2.0000     -20.609136      -560.8031
   1   2.0000     -20.589911      -560.2800
   2   2.0000     -20.573148      -559.8238
   3   2.0000     -20.526630      -558.5580
   4   2.0000     -20.523977      -558.4858
   5   2.0000      -1.389644       -37.8141
   6   2.0000      -1.367754       -37.2185
   7   2.0000      -1.352073       -36.7918
   8   2.0000      -1.315819       -35.8053
   9   2.0000      -1.303201       -35.4619
  10   2.0000      -0.747965       -20.3532
  11   2.0000      -0.734656       -19.9910
  12   2.0000      -0.714731       -19.4488
  13   2.0000      -0.696682       -18.9577
  14   2.0000      -0.672941       -18.3116
  15   2.0000      -0.630956       -17.1692
  16   2.0000      -0.607318       -16.5260
  17   2.0000      -0.589784       -16.0488
  18   2.0000      -0.575768       -15.6675
  19   2.0000      -0.546822       -14.8798
  20   2.0000      -0.536253       -14.5922
  21   2.0000      -0.517987       -14.0951
  22   2.0000      -0.516998       -14.0682
  23   2.0000      -0.478815       -13.0292
  24   2.0000      -0.469511       -12.7760
  25   0.0000       0.079363         2.1596
  26   0.0000       0.113684         3.0935
  27   0.0000       0.140023         3.8102
  28   0.0000       0.162332         4.4173
  29   0.0000       0.188111         5.1187

MULLIKEN ATOMIC CHARGES
-----------------------
   0 O :   -0.693359
   1 H :    0.350216
   2 H :    0.355700
   3 O :   -0.739682
   4 H :    0.333347
   5 H :    0.368878
   6 O :   -0.679132
   7 H :    0.362166
   8 H :    0.351863
   9 O :   -0.699288
  10 H :    0.377099
  11 H :    0.310572
  12 O :   -0.679163
  13 H :    0.322516
  14 H :    0.358267
Sum of atomic charges:   -0.0000000

LOEWDIN ATOMIC CHARGES
----------------------
   0 O :   -0.310281
   1 H :    0.162623
   2 H :    0.185353
   3 O :   -0.348080
   4 H :    0.135167
   5 H :    0.149241
   6 O :   -0.288661
   7 H :    0.174018
   8 H :    0.176253
   9 O :   -0.342199
  10 H :    0.153970
  11 H :    0.150822
  12 O :   -0.329603
  13 H :    0.157175
  14 H :    0.174204

  Mayer bond orders larger than 0.100000
B(  0-O ,  1-H ) :   0.8429 B(  0-O ,  2-H ) :   0.8339 B(  3-O ,  4-H ) :   0.8002
B(  3-O ,  5-H ) :   0.8165 B(  6-O ,  7-H ) :   0.8340 B(  6-O ,  8-H ) :   0.8366
B(  9-O , 10-H ) :   0.8078 B(  9-O , 11-H ) :   0.8651 B( 12-O , 13-H ) :   0.8597
B( 12-O , 14-H ) :   0.8357

MP2 TOTAL ENERGY:     -381.588627654 Eh
FINAL SINGLE POINT ENERGY      -381.588627654391

DIPOLE MOMENT
-------------
                                X             Y             Z
Electronic contribution:     -0.08730      -0.05734      -0.02649
Nuclear contribution   :      0.67870       1.21732      -2.00481
                        -----------------------------------------
Total Dipole Moment    :      0.59140       1.15998      -2.03130
                        -----------------------------------------
Magnitude (a.u.)       :      2.41277
Magnitude (Debye)      :      6.13278

Rotational constants in cm-1:     0.086035     0.032127     0.026246
Rotational constants in MHz :  2579.255811   963.154100   786.848839

                             ****ORCA TERMINATED NORMALLY****
TOTAL RUN TIME: 0 days 0 hours 1 minutes 2 seconds 562 msec
