                         Program Version 4.2.0 -  RELEASE  -
|  1> # 12h2o.su.etal.mol1,2,9,10
|  2> ! MP2 def2-TZVP EnGrad TightSCF
|  3>
|  4> %pal
|  5>     nprocs 6
|  6> end
|  7>
|  8> %maxcore 8000
|  9>
| 10> %scf
| 11>     ConvForced true
| 12> end
| 13>
| 14> *xyz 0 1
| 15> O  -1.794470000  -0.923410000   2.768350000
| 16> H  -2.338250000  -1.359750000   3.430940000
| 17> H  -0.879480000  -1.303000000   2.865760000
| 18> O   0.923410000  -1.794470000  -2.768350000
| 19> H   1.359750000  -2.338250000  -3.430940000
| 20> H   1.303000000  -0.879480000  -2.865760000
| 21> O   0.741530000  -1.752130000   2.896280000
| 22> H   0.920500000  -2.036450000   1.984040000
| 23> H   1.242140000  -0.921210000   2.984230000
| 24> O  -0.923410000   1.794470000  -2.768350000
| 25> H  -1.359750000   2.338250000  -3.430940000
| 26> H  -1.303000000   0.879480000  -2.865760000
| 27> *
| 28>
| 29>                          ****END OF INPUT****

CARTESIAN COORDINATES (ANGSTROEM)
---------------------------------
  O     -1.794470   -0.923410    2.768350
  H     -2.338250   -1.359750    3.430940
  H     -0.879480   -1.303000    2.865760
  O      0.923410   -1.794470   -2.768350
  H      1.359750   -2.338250   -3.430940
  H      1.303000   -0.879480   -2.865760
  O      0.741530   -1.752130    2.896280
  H      0.920500   -2.036450    1.984040
  H      1.242140   -0.921210    2.984230
  O     -0.923410    1.794470   -2.768350
  H     -1.359750    2.338250   -3.430940
  H     -1.303000    0.879480   -2.865760

 Total Charge           Charge          ....    0
 Multiplicity           Mult            ....    1
 Number of Electrons    NEL             ....   40
 Basis Dimension        Dim             ....  172

ORBITAL ENERGIES
----------------

  NO   OCC          E(Eh)            E(eV)
   0   2.0000     -20.591617      -560.3264
   1   2.0000     -20.567674      -559.6749
   2   2.0000     -20.560629      -559.4832
   3   2.0000     -20.510412      -558.1167
   4   2.0000      -1.376910       -37.4676
   5   2.0000      -1.343000       -36.5449
   6   2.0000      -1.335962       -36.3534
   7   2.0000      -1.292849       -35.1802
   8   2.0000      -0.734434       -19.9850
   9   2.0000      -0.711486       -19.3605
  10   2.0000      -0.703886       -19.1537
  11   2.0000      -0.684200       -18.6180
  12   2.0000      -0.611568       -16.6416
  13   2.0000      -0.579243       -15.7620
  14   2.0000      -0.572257       -15.5719
  15   2.0000      -0.551409       -15.0046
  16   2.0000      -0.511230       -13.9113
  17   2.0000      -0.507663       -13.8142
  18   2.0000      -0.503796       -13.7090
  19   2.0000      -0.460674       -12.5356
  20   0.0000       0.110110         2.9962
  21   0.0000       0.120541         3.2801
  22   0.0000       0.143568         3.9067
  23   0.0000       0.181802         4.9471
  24   0.0000       0.191299         5.2055

MULLIKEN ATOMIC CHARGES
-----------------------
   0 O :   -0.728326
   1 H :    0.322571
   2 H :    0.363162
   3 O :   -0.689621
   4 H :    0.339441
   5 H :    0.350135
   6 O :   -0.679784
   7 H :    0.363001
   8 H :    0.359212
   9 O :   -0.688559
  10 H :    0.338140
  11 H :    0.350627
Sum of atomic charges:   -0.0000000

LOEWDIN ATOMIC CHARGES
----------------------
   0 O :   -0.370935
   1 H :    0.147315
   2 H :    0.141445
   3 O :   -0.341158
   4 H :    0.158291
   5 H :    0.182833
   6 O :   -0.271677
   7 H :    0.176957
   8 H :    0.176802
   9 O :   -0.340780
  10 H :    0.157761
  11 H :    0.183145

  Mayer bond orders larger than 0.100000
B(  0-O ,  1-H ) :   0.8621 B(  0-O ,  2-H ) :   0.7907 B(  3-O ,  4-H ) :   0.8524
B(  3-O ,  5-H ) :   0.8387 B(  6-O ,  7-H ) :   0.8342 B(  6-O ,  8-H ) :   0.8363
B(  9-O , 10-H ) :   0.8533 B(  9-O , 11-H ) :   0.8386

MP2 TOTAL ENERGY:     -305.259695981 Eh
FINAL SINGLE POINT ENERGY      -305.259695981310

DIPOLE MOMENT
-------------
                                X             Y             Z
Electronic contribution:      0.16094      -0.04392       0.18542
Nuclear contribution   :      0.87464      -0.22418      -1.31870
                        -----------------------------------------
Total Dipole Moment    :      1.03558      -0.26810      -1.13328
                        -----------------------------------------
Magnitude (a.u.)       :      1.55840
Magnitude (Debye)      :      3.96115

Rotational constants in cm-1:     0.079849     0.026147     0.021026
Rotational constants in MHz :  2393.823535   783.864628   630.347207

                             ****ORCA TERMINATED NORMALLY****
TOTAL RUN TIME: 0 days 0 hours 0 minutes 13 seconds 49 msec
