                         Program Version 4.2.0 -  RELEASE  -
|  1> # 12meoh.boyd.etal.mol0,4,6
|  2> ! MP2 def2-TZVP EnGrad TightSCF
|  3>
|  4> %pal
|  5>     nprocs 6
|  6> end
|  7>
|  8> %maxcore 8000
|  9>
| 10> %scf
| 11>     ConvForced true
| 12> end
| 13>
| 14> *xyz 0 1
| 15> O  -1.776108874  -2.741384797  -1.019308298
| 16> H  -2.520094035  -2.452295987  -0.420778302
| 17> C  -2.174025166  -3.952700964  -1.647004581
| 18> H  -1.359803895  -4.272673416  -2.304149236
| 19> H  -3.075973971  -3.808692420  -2.256751112
| 20> H  -2.370225393  -4.752784761  -0.918966137
| 21> O  -1.358578914   1.232360421   1.189721000
| 22> H  -1.058250183   1.216459361   0.238591307
| 23> C  -0.389763452   1.957872567   1.943072362
| 24> H  -0.747220771   2.012806578   2.975200343
| 25> H  -0.260410585   2.982763209   1.565366540
| 26> H   0.585220638   1.453754179   1.934070793
| 27> O   2.622209273  -1.703002590  -1.445859723
| 28> H   1.828551432  -1.986513781  -0.909754968
| 29> C   2.781117675  -2.615822239  -2.525472890
| 30> H   3.691063626  -2.339003544  -3.065143454
| 31> H   1.934727323  -2.559520367  -3.223226661
| 32> H   2.879948338  -3.653846211  -2.177750170
| 33> *
| 34>
| 35>                          ****END OF INPUT****

CARTESIAN COORDINATES (ANGSTROEM)
---------------------------------
  O     -1.776109   -2.741385   -1.019308
  H     -2.520094   -2.452296   -0.420778
  C     -2.174025   -3.952701   -1.647005
  H     -1.359804   -4.272673   -2.304149
  H     -3.075974   -3.808692   -2.256751
  H     -2.370225   -4.752785   -0.918966
  O     -1.358579    1.232360    1.189721
  H     -1.058250    1.216459    0.238591
  C     -0.389763    1.957873    1.943072
  H     -0.747221    2.012807    2.975200
  H     -0.260411    2.982763    1.565367
  H      0.585221    1.453754    1.934071
  O      2.622209   -1.703003   -1.445860
  H      1.828551   -1.986514   -0.909755
  C      2.781118   -2.615822   -2.525473
  H      3.691064   -2.339004   -3.065143
  H      1.934727   -2.559520   -3.223227
  H      2.879948   -3.653846   -2.177750

 Total Charge           Charge          ....    0
 Multiplicity           Mult            ....    1
 Number of Electrons    NEL             ....   54
 Basis Dimension        Dim             ....  258

ORBITAL ENERGIES
----------------

  NO   OCC          E(Eh)            E(eV)
   0   2.0000     -20.563482      -559.5608
   1   2.0000     -20.554546      -559.3176
   2   2.0000     -20.550603      -559.2103
   3   2.0000     -11.276479      -306.8486
   4   2.0000     -11.268217      -306.6238
   5   2.0000     -11.266177      -306.5682
   6   2.0000      -1.352550       -36.8047
   7   2.0000      -1.342077       -36.5198
   8   2.0000      -1.338919       -36.4338
   9   2.0000      -0.924114       -25.1464
  10   2.0000      -0.915789       -24.9199
  11   2.0000      -0.913588       -24.8600
  12   2.0000      -0.686981       -18.6937
  13   2.0000      -0.677063       -18.4238
  14   2.0000      -0.674232       -18.3468
  15   2.0000      -0.622353       -16.9351
  16   2.0000      -0.613253       -16.6875
  17   2.0000      -0.610947       -16.6247
  18   2.0000      -0.596770       -16.2389
  19   2.0000      -0.586989       -15.9728
  20   2.0000      -0.585113       -15.9217
  21   2.0000      -0.506038       -13.7700
  22   2.0000      -0.497248       -13.5308
  23   2.0000      -0.493794       -13.4368
  24   2.0000      -0.454238       -12.3605
  25   2.0000      -0.446050       -12.1376
  26   2.0000      -0.442533       -12.0419
  27   0.0000       0.112609         3.0642
  28   0.0000       0.139607         3.7989
  29   0.0000       0.149621         4.0714
  30   0.0000       0.168717         4.5910
  31   0.0000       0.183823         5.0021

MULLIKEN ATOMIC CHARGES
-----------------------
   0 O :   -0.503981
   1 H :    0.329857
   2 C :   -0.175390
   3 H :    0.125595
   4 H :    0.112826
   5 H :    0.112625
   6 O :   -0.504714
   7 H :    0.326365
   8 C :   -0.173365
   9 H :    0.126787
  10 H :    0.109990
  11 H :    0.115183
  12 O :   -0.506414
  13 H :    0.330170
  14 C :   -0.169104
  15 H :    0.126713
  16 H :    0.109707
  17 H :    0.107152
Sum of atomic charges:   -0.0000000

LOEWDIN ATOMIC CHARGES
----------------------
   0 O :   -0.112487
   1 H :    0.196287
   2 C :   -0.384354
   3 H :    0.108834
   4 H :    0.096470
   5 H :    0.096216
   6 O :   -0.115463
   7 H :    0.193522
   8 C :   -0.379958
   9 H :    0.109381
  10 H :    0.095937
  11 H :    0.096773
  12 O :   -0.113250
  13 H :    0.195624
  14 C :   -0.382811
  15 H :    0.109010
  16 H :    0.095329
  17 H :    0.094939

  Mayer bond orders larger than 0.100000
B(  0-O ,  1-H ) :   0.8362 B(  0-O ,  2-C ) :   0.9247 B(  2-C ,  3-H ) :   0.9378
B(  2-C ,  4-H ) :   0.9396 B(  2-C ,  5-H ) :   0.9383 B(  6-O ,  7-H ) :   0.8388
B(  6-O ,  8-C ) :   0.9243 B(  8-C ,  9-H ) :   0.9375 B(  8-C , 10-H ) :   0.9393
B(  8-C , 11-H ) :   0.9388 B( 12-O , 13-H ) :   0.8355 B( 12-O , 14-C ) :   0.9287
B( 14-C , 15-H ) :   0.9378 B( 14-C , 16-H ) :   0.9390 B( 14-C , 17-H ) :   0.9396

MP2 TOTAL ENERGY:     -346.523035791 Eh
FINAL SINGLE POINT ENERGY      -346.523035791268

DIPOLE MOMENT
-------------
                                X             Y             Z
Electronic contribution:     -0.76825       1.80582       1.23227
Nuclear contribution   :      0.26229      -2.37834      -1.49001
                        -----------------------------------------
Total Dipole Moment    :     -0.50596      -0.57252      -0.25774
                        -----------------------------------------
Magnitude (a.u.)       :      0.80636
Magnitude (Debye)      :      2.04960

Rotational constants in cm-1:     0.042068     0.023975     0.015514
Rotational constants in MHz :  1261.168634   718.748505   465.104371

                             ****ORCA TERMINATED NORMALLY****
TOTAL RUN TIME: 0 days 0 hours 0 minutes 53 seconds 933 msec
