                         Program Version 4.2.0 -  RELEASE  -
|  1> # 12h2o.su.etal.mol0,1,2,4,6,7,9
|  2> ! MP2 def2-TZVP EnGrad TightSCF
|  3>
|  4> %pal
|  5>     nprocs 6
|  6> end
|  7>
|  8> %maxcore 8000
|  9>
| 10> %scf
| 11>     ConvForced true
| 12> end
| 13>
| 14> *xyz 0 1
| 15> O   1.794470000   0.923410000   2.768350000
| 16> H   2.338250000   1.359750000   3.430940000
| 17> H   0.879480000   1.303000000   2.865760000
| 18> O  -1.794470000  -0.923410000   2.768350000
| 19> H  -2.338250000  -1.359750000   3.430940000
| 20> H  -0.879480000  -1.303000000   2.865760000
| 21> O   0.923410000  -1.794470000  -2.768350000
| 22> H   1.359750000  -2.338250000  -3.430940000
| 23> H   1.303000000  -0.879480000  -2.865760000
| 24> O  -0.885520000   1.737840000   0.052730000
| 25> H  -1.032320000   2.090180000  -0.841890000
| 26> H  -1.284090000   0.839590000   0.017130000
| 27> O   1.737840000   0.885520000  -0.052730000
| 28> H   2.090180000   1.032320000   0.841890000
| 29> H   0.839590000   1.284090000  -0.017130000
| 30> O  -1.737840000  -0.885520000  -0.052730000
| 31> H  -2.090180000  -1.032320000   0.841890000
| 32> H  -0.839590000  -1.284090000  -0.017130000
| 33> O   0.741530000  -1.752130000   2.896280000
| 34> H   0.920500000  -2.036450000   1.984040000
| 35> H   1.242140000  -0.921210000   2.984230000
| 36> *
| 37>
| 38>                          ****END OF INPUT****

CARTESIAN COORDINATES (ANGSTROEM)
---------------------------------
  O      1.794470    0.923410    2.768350
  H      2.338250    1.359750    3.430940
  H      0.879480    1.303000    2.865760
  O     -1.794470   -0.923410    2.768350
  H     -2.338250   -1.359750    3.430940
  H     -0.879480   -1.303000    2.865760
  O      0.923410   -1.794470   -2.768350
  H      1.359750   -2.338250   -3.430940
  H      1.303000   -0.879480   -2.865760
  O     -0.885520    1.737840    0.052730
  H     -1.032320    2.090180   -0.841890
  H     -1.284090    0.839590    0.017130
  O      1.737840    0.885520   -0.052730
  H      2.090180    1.032320    0.841890
  H      0.839590    1.284090   -0.017130
  O     -1.737840   -0.885520   -0.052730
  H     -2.090180   -1.032320    0.841890
  H     -0.839590   -1.284090   -0.017130
  O      0.741530   -1.752130    2.896280
  H      0.920500   -2.036450    1.984040
  H      1.242140   -0.921210    2.984230

 Total Charge           Charge          ....    0
 Multiplicity           Mult            ....    1
 Number of Electrons    NEL             ....   70
 Basis Dimension        Dim             ....  301

ORBITAL ENERGIES
----------------

  NO   OCC          E(Eh)            E(eV)
   0   2.0000     -20.611377      -560.8641
   1   2.0000     -20.581697      -560.0565
   2   2.0000     -20.552934      -559.2738
   3   2.0000     -20.551999      -559.2483
   4   2.0000     -20.549276      -559.1742
   5   2.0000     -20.545521      -559.0721
   6   2.0000     -20.506266      -558.0039
   7   2.0000      -1.392394       -37.8890
   8   2.0000      -1.370570       -37.2951
   9   2.0000      -1.344094       -36.5747
  10   2.0000      -1.332185       -36.2506
  11   2.0000      -1.327349       -36.1190
  12   2.0000      -1.324353       -36.0375
  13   2.0000      -1.290023       -35.1033
  14   2.0000      -0.758045       -20.6275
  15   2.0000      -0.731321       -19.9003
  16   2.0000      -0.716800       -19.5051
  17   2.0000      -0.699869       -19.0444
  18   2.0000      -0.697310       -18.9748
  19   2.0000      -0.695157       -18.9162
  20   2.0000      -0.675018       -18.3682
  21   2.0000      -0.634494       -17.2655
  22   2.0000      -0.612347       -16.6628
  23   2.0000      -0.596729       -16.2378
  24   2.0000      -0.576110       -15.6767
  25   2.0000      -0.568595       -15.4723
  26   2.0000      -0.564214       -15.3531
  27   2.0000      -0.554386       -15.0856
  28   2.0000      -0.527947       -14.3662
  29   2.0000      -0.519090       -14.1251
  30   2.0000      -0.498350       -13.5608
  31   2.0000      -0.495444       -13.4817
  32   2.0000      -0.493925       -13.4404
  33   2.0000      -0.484187       -13.1754
  34   2.0000      -0.457221       -12.4416
  35   0.0000       0.096246         2.6190
  36   0.0000       0.125546         3.4163
  37   0.0000       0.141551         3.8518
  38   0.0000       0.158327         4.3083
  39   0.0000       0.163980         4.4621

MULLIKEN ATOMIC CHARGES
-----------------------
   0 O :   -0.721889
   1 H :    0.362914
   2 H :    0.383319
   3 O :   -0.742197
   4 H :    0.339612
   5 H :    0.368396
   6 O :   -0.689690
   7 H :    0.334736
   8 H :    0.354738
   9 O :   -0.721734
  10 H :    0.344536
  11 H :    0.377887
  12 O :   -0.739022
  13 H :    0.351552
  14 H :    0.340764
  15 O :   -0.702026
  16 H :    0.378852
  17 H :    0.344581
  18 O :   -0.701596
  19 H :    0.356923
  20 H :    0.379344
Sum of atomic charges:   -0.0000000

LOEWDIN ATOMIC CHARGES
----------------------
   0 O :   -0.287763
   1 H :    0.167528
   2 H :    0.196381
   3 O :   -0.342829
   4 H :    0.154985
   5 H :    0.142347
   6 O :   -0.341442
   7 H :    0.156186
   8 H :    0.184905
   9 O :   -0.316396
  10 H :    0.165037
  11 H :    0.147255
  12 O :   -0.373450
  13 H :    0.139695
  14 H :    0.134742
  15 O :   -0.296632
  16 H :    0.152722
  17 H :    0.169739
  18 O :   -0.279056
  19 H :    0.171018
  20 H :    0.155029

  Mayer bond orders larger than 0.100000
B(  0-O ,  1-H ) :   0.8323 B(  0-O ,  2-H ) :   0.8102 B(  3-O ,  4-H ) :   0.8492
B(  3-O ,  5-H ) :   0.7570 B(  5-H , 18-O ) :   0.1021 B(  6-O ,  7-H ) :   0.8550
B(  6-O ,  8-H ) :   0.8359 B(  9-O , 10-H ) :   0.8457 B(  9-O , 11-H ) :   0.7642
B(  9-O , 14-H ) :   0.1017 B( 11-H , 15-O ) :   0.1003 B( 12-O , 13-H ) :   0.8377
B( 12-O , 14-H ) :   0.7931 B( 15-O , 16-H ) :   0.7950 B( 15-O , 17-H ) :   0.8372
B( 18-O , 19-H ) :   0.8364 B( 18-O , 20-H ) :   0.7966

MP2 TOTAL ENERGY:     -534.249610702 Eh
FINAL SINGLE POINT ENERGY      -534.249610701983

DIPOLE MOMENT
-------------
                                X             Y             Z
Electronic contribution:     -0.07787      -0.13578       0.23666
Nuclear contribution   :      0.79086       0.30955       0.72077
                        -----------------------------------------
Total Dipole Moment    :      0.71299       0.17378       0.95742
                        -----------------------------------------
Magnitude (a.u.)       :      1.20632
Magnitude (Debye)      :      3.06622

Rotational constants in cm-1:     0.034943     0.024274     0.021428
Rotational constants in MHz :  1047.558177   727.717044   642.388845

                             ****ORCA TERMINATED NORMALLY****
TOTAL RUN TIME: 0 days 0 hours 2 minutes 10 seconds 589 msec
