                         Program Version 4.2.0 -  RELEASE  -
|  1> # 12mecn.remya.etal.2.mol4,10,11
|  2> ! MP2 def2-TZVP EnGrad TightSCF
|  3>
|  4> %pal
|  5>     nprocs 6
|  6> end
|  7>
|  8> %maxcore 8000
|  9>
| 10> %scf
| 11>     ConvForced true
| 12> end
| 13>
| 14> *xyz 0 1
| 15> C  -1.509690000  -0.693960000  -1.610140000
| 16> H  -1.327010000  -1.692700000  -2.017370000
| 17> H  -0.742170000  -0.000650000  -1.964400000
| 18> H  -2.491920000  -0.334310000  -1.929350000
| 19> C  -1.473570000  -0.748120000  -0.167200000
| 20> N  -1.447490000  -0.793720000   0.998938000
| 21> C   4.602033000   0.321019000  -1.784800000
| 22> H   4.827650000  -0.662160000  -2.207910000
| 23> H   5.320558000   1.057980000  -2.148500000
| 24> H   3.601982000   0.643751000  -2.087520000
| 25> C   4.654967000   0.244048000  -0.343060000
| 26> N   4.691648000   0.166590000   0.820757000
| 27> C   4.214163000   3.378139000   1.593627000
| 28> H   3.242643000   3.657109000   2.012358000
| 29> H   4.969258000   4.086643000   1.941290000
| 30> H   4.482966000   2.372549000   1.931698000
| 31> C   4.130759000   3.388436000   0.150192000
| 32> N   4.050180000   3.381449000  -1.013420000
| 33> *
| 34>
| 35>                          ****END OF INPUT****

CARTESIAN COORDINATES (ANGSTROEM)
---------------------------------
  C     -1.509690   -0.693960   -1.610140
  H     -1.327010   -1.692700   -2.017370
  H     -0.742170   -0.000650   -1.964400
  H     -2.491920   -0.334310   -1.929350
  C     -1.473570   -0.748120   -0.167200
  N     -1.447490   -0.793720    0.998938
  C      4.602033    0.321019   -1.784800
  H      4.827650   -0.662160   -2.207910
  H      5.320558    1.057980   -2.148500
  H      3.601982    0.643751   -2.087520
  C      4.654967    0.244048   -0.343060
  N      4.691648    0.166590    0.820757
  C      4.214163    3.378139    1.593627
  H      3.242643    3.657109    2.012358
  H      4.969258    4.086643    1.941290
  H      4.482966    2.372549    1.931698
  C      4.130759    3.388436    0.150192
  N      4.050180    3.381449   -1.013420

 Total Charge           Charge          ....    0
 Multiplicity           Mult            ....    1
 Number of Electrons    NEL             ....   66
 Basis Dimension        Dim             ....  333

ORBITAL ENERGIES
----------------

  NO   OCC          E(Eh)            E(eV)
   0   2.0000     -15.572840      -423.7585
   1   2.0000     -15.571436      -423.7203
   2   2.0000     -15.570840      -423.7041
   3   2.0000     -11.285628      -307.0975
   4   2.0000     -11.283417      -307.0374
   5   2.0000     -11.282616      -307.0156
   6   2.0000     -11.279623      -306.9341
   7   2.0000     -11.274583      -306.7970
   8   2.0000     -11.270801      -306.6941
   9   2.0000      -1.218639       -33.1609
  10   2.0000      -1.213783       -33.0287
  11   2.0000      -1.213711       -33.0267
  12   2.0000      -1.044609       -28.4253
  13   2.0000      -1.037345       -28.2276
  14   2.0000      -1.033400       -28.1202
  15   2.0000      -0.699397       -19.0316
  16   2.0000      -0.695512       -18.9258
  17   2.0000      -0.690916       -18.8008
  18   2.0000      -0.633808       -17.2468
  19   2.0000      -0.632458       -17.2101
  20   2.0000      -0.632132       -17.2012
  21   2.0000      -0.622533       -16.9400
  22   2.0000      -0.619308       -16.8522
  23   2.0000      -0.616039       -16.7633
  24   2.0000      -0.559451       -15.2234
  25   2.0000      -0.555946       -15.1281
  26   2.0000      -0.555199       -15.1077
  27   2.0000      -0.462837       -12.5944
  28   2.0000      -0.459092       -12.4925
  29   2.0000      -0.457271       -12.4430
  30   2.0000      -0.457093       -12.4381
  31   2.0000      -0.456724       -12.4281
  32   2.0000      -0.453445       -12.3389
  33   0.0000       0.106648         2.9021
  34   0.0000       0.130572         3.5530
  35   0.0000       0.144671         3.9367
  36   0.0000       0.164420         4.4741
  37   0.0000       0.171039         4.6542

MULLIKEN ATOMIC CHARGES
-----------------------
   0 C :   -0.278724
   1 H :    0.171834
   2 H :    0.171024
   3 H :    0.172449
   4 C :   -0.145369
   5 N :   -0.091228
   6 C :   -0.257782
   7 H :    0.171601
   8 H :    0.180398
   9 H :    0.169600
  10 C :   -0.117814
  11 N :   -0.145733
  12 C :   -0.286791
  13 H :    0.168637
  14 H :    0.166003
  15 H :    0.206683
  16 C :   -0.113116
  17 N :   -0.141673
Sum of atomic charges:   -0.0000000

LOEWDIN ATOMIC CHARGES
----------------------
   0 C :   -0.284032
   1 H :    0.152430
   2 H :    0.152233
   3 H :    0.153124
   4 C :   -0.220642
   5 N :    0.046884
   6 C :   -0.285535
   7 H :    0.149719
   8 H :    0.155805
   9 H :    0.155179
  10 C :   -0.210679
  11 N :    0.032109
  12 C :   -0.281689
  13 H :    0.153607
  14 H :    0.149984
  15 H :    0.157892
  16 C :   -0.208706
  17 N :    0.032319

  Mayer bond orders larger than 0.100000
B(  0-C ,  1-H ) :   0.9165 B(  0-C ,  2-H ) :   0.9171 B(  0-C ,  3-H ) :   0.9165
B(  0-C ,  4-C ) :   0.9003 B(  4-C ,  5-N ) :   2.8356 B(  6-C ,  7-H ) :   0.9100
B(  6-C ,  8-H ) :   0.9121 B(  6-C ,  9-H ) :   0.9147 B(  6-C , 10-C ) :   0.9118
B( 10-C , 11-N ) :   2.7684 B( 12-C , 13-H ) :   0.9138 B( 12-C , 14-H ) :   0.9162
B( 12-C , 15-H ) :   0.9013 B( 12-C , 16-C ) :   0.9006 B( 16-C , 17-N ) :   2.7935

MP2 TOTAL ENERGY:     -397.458865291 Eh
FINAL SINGLE POINT ENERGY      -397.458865290911

DIPOLE MOMENT
-------------
                                X             Y             Z
Electronic contribution:      0.03254      -0.29380       3.12723
Nuclear contribution   :     -0.02392       0.43756      -4.60980
                        -----------------------------------------
Total Dipole Moment    :      0.00862       0.14377      -1.48258
                        -----------------------------------------
Magnitude (a.u.)       :      1.48956
Magnitude (Debye)      :      3.78615

Rotational constants in cm-1:     0.045942     0.013109     0.012286
Rotational constants in MHz :  1377.305002   393.000672   368.317005

                             ****ORCA TERMINATED NORMALLY****
TOTAL RUN TIME: 0 days 0 hours 3 minutes 2 seconds 800 msec
