                         Program Version 3.0.3 - RELEASE   -
|  1> ! wB97X-D3 MA-Def2-TZVP def2-TZVP/J RIJCOSX TightSCF Grid4
|  2>
|  3> %pal nprocs 1 end
|  4>
|  5> %scf
|  6>         maxiter 400
|  7> end
|  8>
|  9> %cosmo
| 10>         SMD true
| 11>         solvent "WATER"
| 12> end
| 13>
| 14> * xyz  0  1
| 15> O  1.841681	0.348023	0.252624
| 16> H  1.352643	0.084417	-0.571634
| 17> H  2.276161	-0.473965	0.530403
| 18> O  0.316962	-0.388749	-1.884680
| 19> H  -0.513499	-0.424471	-1.337790
| 20> H  0.213645	0.421299	-2.407154
| 21> O  -0.322080	0.448354	1.850770
| 22> H  0.525832	0.431448	1.332051
| 23> H  -0.523018	1.394601	1.925487
| 24> O  -1.812769	-0.412809	-0.235866
| 25> H  -2.017971	-1.338101	-0.029838
| 26> H  -1.337587	-0.090048	0.575626
| 27> **                         ****END OF INPUT****

CARTESIAN COORDINATES (ANGSTROEM)
---------------------------------
  O      1.841681    0.348023    0.252624
  H      1.352643    0.084417   -0.571634
  H      2.276161   -0.473965    0.530403
  O      0.316962   -0.388749   -1.884680
  H     -0.513499   -0.424471   -1.337790
  H      0.213645    0.421299   -2.407154
  O     -0.322080    0.448354    1.850770
  H      0.525832    0.431448    1.332051
  H     -0.523018    1.394601    1.925487
  O     -1.812769   -0.412809   -0.235866
  H     -2.017971   -1.338101   -0.029838
  H     -1.337587   -0.090048    0.575626

 Total Charge           Charge          ....    0
 Multiplicity           Mult            ....    1
 Number of Electrons    NEL             ....   40
 Basis Dimension        Dim             ....  188

ORBITAL ENERGIES
----------------

  NO   OCC          E(Eh)            E(eV)
   0   2.0000     -19.236826      -523.4606
   1   2.0000     -19.235014      -523.4113
   2   2.0000     -19.234607      -523.4003
   3   2.0000     -19.234010      -523.3840
   4   2.0000      -1.141176       -31.0530
   5   2.0000      -1.124532       -30.6001
   6   2.0000      -1.122916       -30.5561
   7   2.0000      -1.106821       -30.1181
   8   2.0000      -0.634642       -17.2695
   9   2.0000      -0.628024       -17.0894
  10   2.0000      -0.625764       -17.0279
  11   2.0000      -0.625398       -17.0180
  12   2.0000      -0.538171       -14.6444
  13   2.0000      -0.508405       -13.8344
  14   2.0000      -0.505258       -13.7488
  15   2.0000      -0.483303       -13.1513
  16   2.0000      -0.423384       -11.5209
  17   2.0000      -0.422344       -11.4926
  18   2.0000      -0.422029       -11.4840
  19   2.0000      -0.417606       -11.3636
  20   0.0000       0.073085         1.9888
  21   0.0000       0.112823         3.0701
  22   0.0000       0.113131         3.0784
  23   0.0000       0.126634         3.4459
  24   0.0000       0.146183         3.9778

MULLIKEN ATOMIC CHARGES
-----------------------
   0 O :   -0.804855
   1 H :    0.388793
   2 H :    0.411775
   3 O :   -0.794167
   4 H :    0.391901
   5 H :    0.408011
   6 O :   -0.795874
   7 H :    0.391165
   8 H :    0.409274
   9 O :   -0.805440
  10 H :    0.409016
  11 H :    0.390402
Sum of atomic charges:   -0.0000000

LOEWDIN ATOMIC CHARGES
----------------------
   0 O :   -0.395660
   1 H :    0.189545
   2 H :    0.212678
   3 O :   -0.403674
   4 H :    0.186456
   5 H :    0.210920
   6 O :   -0.400039
   7 H :    0.185424
   8 H :    0.211994
   9 O :   -0.397218
  10 H :    0.211955
  11 H :    0.187619

  Mayer bond orders larger than 0.1
B(  0-O ,  1-H ) :   0.7979 B(  0-O ,  2-H ) :   0.8501 B(  3-O ,  4-H ) :   0.7933
B(  3-O ,  5-H ) :   0.8515 B(  6-O ,  7-H ) :   0.7921 B(  6-O ,  8-H ) :   0.8510
B(  9-O , 10-H ) :   0.8490 B(  9-O , 11-H ) :   0.7928

Dispersion correction           -0.003069515
FINAL SINGLE POINT ENERGY      -305.832382933637

DIPOLE MOMENT
-------------
                                X             Y             Z
Electronic contribution:      0.00711       0.00965       0.00885
Nuclear contribution   :     -0.05942       0.01294       0.04283
                        -----------------------------------------
Total Dipole Moment    :     -0.05231       0.02258       0.05168
                        -----------------------------------------
Magnitude (a.u.)       :      0.07693
Magnitude (Debye)      :      0.19553

                             ****ORCA TERMINATED NORMALLY****
TOTAL RUN TIME: 0 days 0 hours 1 minutes 12 seconds 954 msec
