                         Program Version 3.0.3 - RELEASE   -
|  1> ! wB97X-D3 Def2-TZVP def2-TZVP/J RIJCOSX TightSCF Grid4 COSMO
|  2>
|  3> %pal nprocs 12 end
|  4>
|  5> %scf
|  6>         maxiter 400
|  7> end
|  8>
|  9> %cosmo
| 10>         SMD true
| 11>         solvent "WATER"
| 12> end
| 13>
| 14> * xyz  0  1
| 15> O  1.841681	0.348023	0.252624
| 16> H  1.352643	0.084417	-0.571634
| 17> H  2.276161	-0.473965	0.530403
| 18> O  0.316962	-0.388749	-1.884680
| 19> H  -0.513499	-0.424471	-1.337790
| 20> H  0.213645	0.421299	-2.407154
| 21> O  -0.322080	0.448354	1.850770
| 22> H  0.525832	0.431448	1.332051
| 23> H  -0.523018	1.394601	1.925487
| 24> O  -1.812769	-0.412809	-0.235866
| 25> H  -2.017971	-1.338101	-0.029838
| 26> H  -1.337587	-0.090048	0.575626
| 27> **                         ****END OF INPUT****

CARTESIAN COORDINATES (ANGSTROEM)
---------------------------------
  O      1.841681    0.348023    0.252624
  H      1.352643    0.084417   -0.571634
  H      2.276161   -0.473965    0.530403
  O      0.316962   -0.388749   -1.884680
  H     -0.513499   -0.424471   -1.337790
  H      0.213645    0.421299   -2.407154
  O     -0.322080    0.448354    1.850770
  H      0.525832    0.431448    1.332051
  H     -0.523018    1.394601    1.925487
  O     -1.812769   -0.412809   -0.235866
  H     -2.017971   -1.338101   -0.029838
  H     -1.337587   -0.090048    0.575626

 Total Charge           Charge          ....    0
 Multiplicity           Mult            ....    1
 Number of Electrons    NEL             ....   40
 Basis Dimension        Dim             ....  172

ORBITAL ENERGIES
----------------

  NO   OCC          E(Eh)            E(eV)
   0   2.0000     -19.233707      -523.3758
   1   2.0000     -19.231740      -523.3222
   2   2.0000     -19.231448      -523.3143
   3   2.0000     -19.230818      -523.2972
   4   2.0000      -1.139142       -30.9976
   5   2.0000      -1.122489       -30.5445
   6   2.0000      -1.120889       -30.5010
   7   2.0000      -1.104778       -30.0626
   8   2.0000      -0.632783       -17.2189
   9   2.0000      -0.626176       -17.0391
  10   2.0000      -0.623894       -16.9770
  11   2.0000      -0.623539       -16.9674
  12   2.0000      -0.536182       -14.5902
  13   2.0000      -0.506511       -13.7829
  14   2.0000      -0.503369       -13.6974
  15   2.0000      -0.481454       -13.1010
  16   2.0000      -0.421410       -11.4671
  17   2.0000      -0.420364       -11.4387
  18   2.0000      -0.419951       -11.4274
  19   2.0000      -0.415528       -11.3071
  20   0.0000       0.109660         2.9840
  21   0.0000       0.160638         4.3712
  22   0.0000       0.160901         4.3784
  23   0.0000       0.180808         4.9200
  24   0.0000       0.277297         7.5456

MULLIKEN ATOMIC CHARGES
-----------------------
   0 O :   -0.763026
   1 H :    0.366148
   2 H :    0.398407
   3 O :   -0.768332
   4 H :    0.370668
   5 H :    0.396585
   6 O :   -0.766158
   7 H :    0.369126
   8 H :    0.397258
   9 O :   -0.765597
  10 H :    0.397387
  11 H :    0.367534
Sum of atomic charges:   -0.0000000

LOEWDIN ATOMIC CHARGES
----------------------
   0 O :   -0.320804
   1 H :    0.143960
   2 H :    0.183520
   3 O :   -0.329617
   4 H :    0.140913
   5 H :    0.181713
   6 O :   -0.325656
   7 H :    0.140437
   8 H :    0.182678
   9 O :   -0.322233
  10 H :    0.182899
  11 H :    0.142190

  Mayer bond orders larger than 0.1
B(  0-O ,  1-H ) :   0.7904 B(  0-O ,  2-H ) :   0.8500 B(  0-O ,  7-H ) :   0.1326
B(  1-H ,  3-O ) :   0.1301 B(  3-O ,  4-H ) :   0.7861 B(  3-O ,  5-H ) :   0.8516
B(  4-H ,  9-O ) :   0.1304 B(  6-O ,  7-H ) :   0.7861 B(  6-O ,  8-H ) :   0.8509
B(  6-O , 11-H ) :   0.1323 B(  9-O , 10-H ) :   0.8505 B(  9-O , 11-H ) :   0.7867

Dispersion correction           -0.003069515
FINAL SINGLE POINT ENERGY      -305.829584528997

DIPOLE MOMENT
-------------
                                X             Y             Z
Electronic contribution:      0.00685       0.00610       0.00884
Nuclear contribution   :     -0.05942       0.01294       0.04283
                        -----------------------------------------
Total Dipole Moment    :     -0.05256       0.01904       0.05167
                        -----------------------------------------
Magnitude (a.u.)       :      0.07612
Magnitude (Debye)      :      0.19349

                             ****ORCA TERMINATED NORMALLY****
TOTAL RUN TIME: 0 days 0 hours 0 minutes 54 seconds 677 msec
