                         Program Version 4.2.0 -  RELEASE  -
|  1> # 12h2o.su.etal.mol4,7,8,10
|  2> ! MP2 def2-TZVP EnGrad TightSCF
|  3>
|  4> %pal
|  5>     nprocs 6
|  6> end
|  7>
|  8> %maxcore 8000
|  9>
| 10> %scf
| 11>     ConvForced true
| 12> end
| 13>
| 14> *xyz 0 1
| 15> O  -0.885520000   1.737840000   0.052730000
| 16> H  -1.032320000   2.090180000  -0.841890000
| 17> H  -1.284090000   0.839590000   0.017130000
| 18> O  -1.737840000  -0.885520000  -0.052730000
| 19> H  -2.090180000  -1.032320000   0.841890000
| 20> H  -0.839590000  -1.284090000  -0.017130000
| 21> O   1.752130000   0.741530000  -2.896280000
| 22> H   2.036450000   0.920500000  -1.984040000
| 23> H   0.921210000   1.242140000  -2.984230000
| 24> O  -0.923410000   1.794470000  -2.768350000
| 25> H  -1.359750000   2.338250000  -3.430940000
| 26> H  -1.303000000   0.879480000  -2.865760000
| 27> *
| 28>
| 29>                          ****END OF INPUT****

CARTESIAN COORDINATES (ANGSTROEM)
---------------------------------
  O     -0.885520    1.737840    0.052730
  H     -1.032320    2.090180   -0.841890
  H     -1.284090    0.839590    0.017130
  O     -1.737840   -0.885520   -0.052730
  H     -2.090180   -1.032320    0.841890
  H     -0.839590   -1.284090   -0.017130
  O      1.752130    0.741530   -2.896280
  H      2.036450    0.920500   -1.984040
  H      0.921210    1.242140   -2.984230
  O     -0.923410    1.794470   -2.768350
  H     -1.359750    2.338250   -3.430940
  H     -1.303000    0.879480   -2.865760

 Total Charge           Charge          ....    0
 Multiplicity           Mult            ....    1
 Number of Electrons    NEL             ....   40
 Basis Dimension        Dim             ....  172

ORBITAL ENERGIES
----------------

  NO   OCC          E(Eh)            E(eV)
   0   2.0000     -20.604985      -560.6901
   1   2.0000     -20.599414      -560.5386
   2   2.0000     -20.531706      -558.6961
   3   2.0000     -20.509396      -558.0890
   4   2.0000      -1.385230       -37.6940
   5   2.0000      -1.379895       -37.5489
   6   2.0000      -1.314167       -35.7603
   7   2.0000      -1.293999       -35.2115
   8   2.0000      -0.750845       -20.4315
   9   2.0000      -0.738097       -20.0846
  10   2.0000      -0.685310       -18.6482
  11   2.0000      -0.680016       -18.5042
  12   2.0000      -0.627801       -17.0833
  13   2.0000      -0.613840       -16.7034
  14   2.0000      -0.574366       -15.6293
  15   2.0000      -0.549921       -14.9641
  16   2.0000      -0.533689       -14.5224
  17   2.0000      -0.511621       -13.9219
  18   2.0000      -0.479514       -13.0483
  19   2.0000      -0.459972       -12.5165
  20   0.0000       0.095531         2.5995
  21   0.0000       0.122129         3.3233
  22   0.0000       0.165720         4.5095
  23   0.0000       0.185957         5.0601
  24   0.0000       0.196049         5.3348

MULLIKEN ATOMIC CHARGES
-----------------------
   0 O :   -0.729407
   1 H :    0.355856
   2 H :    0.335776
   3 O :   -0.687230
   4 H :    0.360444
   5 H :    0.361301
   6 O :   -0.708871
   7 H :    0.335163
   8 H :    0.356100
   9 O :   -0.711276
  10 H :    0.360476
  11 H :    0.371667
Sum of atomic charges:   -0.0000000

LOEWDIN ATOMIC CHARGES
----------------------
   0 O :   -0.368976
   1 H :    0.141707
   2 H :    0.134178
   3 O :   -0.293839
   4 H :    0.174828
   5 H :    0.181633
   6 O :   -0.349013
   7 H :    0.162381
   8 H :    0.145687
   9 O :   -0.286431
  10 H :    0.166094
  11 H :    0.191751

  Mayer bond orders larger than 0.100000
B(  0-O ,  1-H ) :   0.8336 B(  0-O ,  2-H ) :   0.8155 B(  3-O ,  4-H ) :   0.8365
B(  3-O ,  5-H ) :   0.8325 B(  6-O ,  7-H ) :   0.8534 B(  6-O ,  8-H ) :   0.8244
B(  9-O , 10-H ) :   0.8338 B(  9-O , 11-H ) :   0.8199

MP2 TOTAL ENERGY:     -305.272215449 Eh
FINAL SINGLE POINT ENERGY      -305.272215448752

DIPOLE MOMENT
-------------
                                X             Y             Z
Electronic contribution:     -0.06422      -0.04753      -0.12058
Nuclear contribution   :     -1.13367      -0.65166       0.05351
                        -----------------------------------------
Total Dipole Moment    :     -1.19788      -0.69920      -0.06707
                        -----------------------------------------
Magnitude (a.u.)       :      1.38863
Magnitude (Debye)      :      3.52963

Rotational constants in cm-1:     0.139946     0.060050     0.053288
Rotational constants in MHz :  4195.475013  1800.254536  1597.542928

                             ****ORCA TERMINATED NORMALLY****
TOTAL RUN TIME: 0 days 0 hours 0 minutes 20 seconds 594 msec
