                         Program Version 4.2.0 -  RELEASE  -
|  1> # 12h2o.su.etal.mol1,3,4,6,7,8,9,10
|  2> ! MP2 def2-TZVP EnGrad TightSCF
|  3>
|  4> %pal
|  5>     nprocs 6
|  6> end
|  7>
|  8> %maxcore 8000
|  9>
| 10> %scf
| 11>     ConvForced true
| 12> end
| 13>
| 14> *xyz 0 1
| 15> O  -1.794470000  -0.923410000   2.768350000
| 16> H  -2.338250000  -1.359750000   3.430940000
| 17> H  -0.879480000  -1.303000000   2.865760000
| 18> O  -1.752130000  -0.741530000  -2.896280000
| 19> H  -2.036450000  -0.920500000  -1.984040000
| 20> H  -0.921210000  -1.242140000  -2.984230000
| 21> O  -0.885520000   1.737840000   0.052730000
| 22> H  -1.032320000   2.090180000  -0.841890000
| 23> H  -1.284090000   0.839590000   0.017130000
| 24> O   1.737840000   0.885520000  -0.052730000
| 25> H   2.090180000   1.032320000   0.841890000
| 26> H   0.839590000   1.284090000  -0.017130000
| 27> O  -1.737840000  -0.885520000  -0.052730000
| 28> H  -2.090180000  -1.032320000   0.841890000
| 29> H  -0.839590000  -1.284090000  -0.017130000
| 30> O   1.752130000   0.741530000  -2.896280000
| 31> H   2.036450000   0.920500000  -1.984040000
| 32> H   0.921210000   1.242140000  -2.984230000
| 33> O   0.741530000  -1.752130000   2.896280000
| 34> H   0.920500000  -2.036450000   1.984040000
| 35> H   1.242140000  -0.921210000   2.984230000
| 36> O  -0.923410000   1.794470000  -2.768350000
| 37> H  -1.359750000   2.338250000  -3.430940000
| 38> H  -1.303000000   0.879480000  -2.865760000
| 39> *
| 40>
| 41>                          ****END OF INPUT****

CARTESIAN COORDINATES (ANGSTROEM)
---------------------------------
  O     -1.794470   -0.923410    2.768350
  H     -2.338250   -1.359750    3.430940
  H     -0.879480   -1.303000    2.865760
  O     -1.752130   -0.741530   -2.896280
  H     -2.036450   -0.920500   -1.984040
  H     -0.921210   -1.242140   -2.984230
  O     -0.885520    1.737840    0.052730
  H     -1.032320    2.090180   -0.841890
  H     -1.284090    0.839590    0.017130
  O      1.737840    0.885520   -0.052730
  H      2.090180    1.032320    0.841890
  H      0.839590    1.284090   -0.017130
  O     -1.737840   -0.885520   -0.052730
  H     -2.090180   -1.032320    0.841890
  H     -0.839590   -1.284090   -0.017130
  O      1.752130    0.741530   -2.896280
  H      2.036450    0.920500   -1.984040
  H      0.921210    1.242140   -2.984230
  O      0.741530   -1.752130    2.896280
  H      0.920500   -2.036450    1.984040
  H      1.242140   -0.921210    2.984230
  O     -0.923410    1.794470   -2.768350
  H     -1.359750    2.338250   -3.430940
  H     -1.303000    0.879480   -2.865760

 Total Charge           Charge          ....    0
 Multiplicity           Mult            ....    1
 Number of Electrons    NEL             ....   80
 Basis Dimension        Dim             ....  344

ORBITAL ENERGIES
----------------

  NO   OCC          E(Eh)            E(eV)
   0   2.0000     -20.623931      -561.2057
   1   2.0000     -20.599898      -560.5517
   2   2.0000     -20.580493      -560.0237
   3   2.0000     -20.567016      -559.6570
   4   2.0000     -20.556937      -559.3827
   5   2.0000     -20.550475      -559.2068
   6   2.0000     -20.534947      -558.7843
   7   2.0000     -20.499009      -557.8064
   8   2.0000      -1.409503       -38.3545
   9   2.0000      -1.388567       -37.7848
  10   2.0000      -1.369767       -37.2733
  11   2.0000      -1.349415       -36.7194
  12   2.0000      -1.343893       -36.5692
  13   2.0000      -1.337184       -36.3866
  14   2.0000      -1.317795       -35.8590
  15   2.0000      -1.283942       -34.9378
  16   2.0000      -0.766500       -20.8575
  17   2.0000      -0.751149       -20.4398
  18   2.0000      -0.736166       -20.0321
  19   2.0000      -0.727943       -19.8083
  20   2.0000      -0.723821       -19.6962
  21   2.0000      -0.704028       -19.1576
  22   2.0000      -0.699451       -19.0330
  23   2.0000      -0.661616       -18.0035
  24   2.0000      -0.652269       -17.7491
  25   2.0000      -0.639028       -17.3888
  26   2.0000      -0.612204       -16.6589
  27   2.0000      -0.598054       -16.2739
  28   2.0000      -0.593948       -16.1621
  29   2.0000      -0.579797       -15.7771
  30   2.0000      -0.566501       -15.4153
  31   2.0000      -0.551208       -14.9991
  32   2.0000      -0.534328       -14.5398
  33   2.0000      -0.524783       -14.2801
  34   2.0000      -0.517012       -14.0686
  35   2.0000      -0.516487       -14.0543
  36   2.0000      -0.501182       -13.6379
  37   2.0000      -0.496279       -13.5044
  38   2.0000      -0.481827       -13.1112
  39   2.0000      -0.449190       -12.2231
  40   0.0000       0.070221         1.9108
  41   0.0000       0.118978         3.2376
  42   0.0000       0.135642         3.6910
  43   0.0000       0.143000         3.8912
  44   0.0000       0.165109         4.4928

MULLIKEN ATOMIC CHARGES
-----------------------
   0 O :   -0.734943
   1 H :    0.344672
   2 H :    0.370984
   3 O :   -0.701232
   4 H :    0.388281
   5 H :    0.357879
   6 O :   -0.727983
   7 H :    0.375552
   8 H :    0.364283
   9 O :   -0.732960
  10 H :    0.321630
  11 H :    0.362341
  12 O :   -0.730693
  13 H :    0.397003
  14 H :    0.339466
  15 O :   -0.736375
  16 H :    0.366723
  17 H :    0.346886
  18 O :   -0.674651
  19 H :    0.356953
  20 H :    0.365790
  21 O :   -0.750829
  22 H :    0.347457
  23 H :    0.383765
Sum of atomic charges:   -0.0000000

LOEWDIN ATOMIC CHARGES
----------------------
   0 O :   -0.336520
   1 H :    0.158105
   2 H :    0.143727
   3 O :   -0.274414
   4 H :    0.157672
   5 H :    0.174066
   6 O :   -0.315017
   7 H :    0.148775
   8 H :    0.140016
   9 O :   -0.345585
  10 H :    0.153471
  11 H :    0.143827
  12 O :   -0.284411
  13 H :    0.160466
  14 H :    0.168440
  15 O :   -0.359867
  16 H :    0.149590
  17 H :    0.139998
  18 O :   -0.264498
  19 H :    0.172175
  20 H :    0.179300
  21 O :   -0.313832
  22 H :    0.157789
  23 H :    0.146724

  Mayer bond orders larger than 0.100000
B(  0-O ,  1-H ) :   0.8466 B(  0-O ,  2-H ) :   0.7676 B(  3-O ,  4-H ) :   0.8010
B(  3-O ,  5-H ) :   0.8329 B(  6-O ,  7-H ) :   0.8034 B(  6-O ,  8-H ) :   0.7939
B(  6-O , 11-H ) :   0.1211 B(  9-O , 10-H ) :   0.8571 B(  9-O , 11-H ) :   0.7537
B( 12-O , 13-H ) :   0.7749 B( 12-O , 14-H ) :   0.8371 B( 15-O , 16-H ) :   0.8236
B( 15-O , 17-H ) :   0.8249 B( 18-O , 19-H ) :   0.8366 B( 18-O , 20-H ) :   0.8302
B( 21-O , 22-H ) :   0.8420 B( 21-O , 23-H ) :   0.7432

MP2 TOTAL ENERGY:     -610.585434276 Eh
FINAL SINGLE POINT ENERGY      -610.585434275643

DIPOLE MOMENT
-------------
                                X             Y             Z
Electronic contribution:     -0.32025      -0.27368       0.17526
Nuclear contribution   :     -0.25846      -0.98755       1.46039
                        -----------------------------------------
Total Dipole Moment    :     -0.57871      -1.26124       1.63564
                        -----------------------------------------
Magnitude (a.u.)       :      2.14498
Magnitude (Debye)      :      5.45211

Rotational constants in cm-1:     0.038196     0.018026     0.015190
Rotational constants in MHz :  1145.076884   540.409391   455.397796

                             ****ORCA TERMINATED NORMALLY****
TOTAL RUN TIME: 0 days 0 hours 3 minutes 9 seconds 599 msec
