                         Program Version 4.2.0 -  RELEASE  -
|  1> # 12h2o.su.etal.mol0,5,6,7,8,9,11
|  2> ! MP2 def2-TZVP EnGrad TightSCF
|  3>
|  4> %pal
|  5>     nprocs 6
|  6> end
|  7>
|  8> %maxcore 8000
|  9>
| 10> %scf
| 11>     ConvForced true
| 12> end
| 13>
| 14> *xyz 0 1
| 15> O   1.794470000   0.923410000   2.768350000
| 16> H   2.338250000   1.359750000   3.430940000
| 17> H   0.879480000   1.303000000   2.865760000
| 18> O   0.885520000  -1.737840000   0.052730000
| 19> H   1.284090000  -0.839590000   0.017130000
| 20> H   1.032320000  -2.090180000  -0.841890000
| 21> O   1.737840000   0.885520000  -0.052730000
| 22> H   2.090180000   1.032320000   0.841890000
| 23> H   0.839590000   1.284090000  -0.017130000
| 24> O  -1.737840000  -0.885520000  -0.052730000
| 25> H  -2.090180000  -1.032320000   0.841890000
| 26> H  -0.839590000  -1.284090000  -0.017130000
| 27> O   1.752130000   0.741530000  -2.896280000
| 28> H   2.036450000   0.920500000  -1.984040000
| 29> H   0.921210000   1.242140000  -2.984230000
| 30> O   0.741530000  -1.752130000   2.896280000
| 31> H   0.920500000  -2.036450000   1.984040000
| 32> H   1.242140000  -0.921210000   2.984230000
| 33> O  -0.741530000   1.752130000   2.896280000
| 34> H  -0.920500000   2.036450000   1.984040000
| 35> H  -1.242140000   0.921210000   2.984230000
| 36> *
| 37>
| 38>                          ****END OF INPUT****

CARTESIAN COORDINATES (ANGSTROEM)
---------------------------------
  O      1.794470    0.923410    2.768350
  H      2.338250    1.359750    3.430940
  H      0.879480    1.303000    2.865760
  O      0.885520   -1.737840    0.052730
  H      1.284090   -0.839590    0.017130
  H      1.032320   -2.090180   -0.841890
  O      1.737840    0.885520   -0.052730
  H      2.090180    1.032320    0.841890
  H      0.839590    1.284090   -0.017130
  O     -1.737840   -0.885520   -0.052730
  H     -2.090180   -1.032320    0.841890
  H     -0.839590   -1.284090   -0.017130
  O      1.752130    0.741530   -2.896280
  H      2.036450    0.920500   -1.984040
  H      0.921210    1.242140   -2.984230
  O      0.741530   -1.752130    2.896280
  H      0.920500   -2.036450    1.984040
  H      1.242140   -0.921210    2.984230
  O     -0.741530    1.752130    2.896280
  H     -0.920500    2.036450    1.984040
  H     -1.242140    0.921210    2.984230

 Total Charge           Charge          ....    0
 Multiplicity           Mult            ....    1
 Number of Electrons    NEL             ....   70
 Basis Dimension        Dim             ....  301

ORBITAL ENERGIES
----------------

  NO   OCC          E(Eh)            E(eV)
   0   2.0000     -20.624933      -561.2330
   1   2.0000     -20.607751      -560.7654
   2   2.0000     -20.589653      -560.2729
   3   2.0000     -20.577496      -559.9421
   4   2.0000     -20.546844      -559.1081
   5   2.0000     -20.542102      -558.9790
   6   2.0000     -20.521940      -558.4304
   7   2.0000      -1.411683       -38.4138
   8   2.0000      -1.396604       -38.0035
   9   2.0000      -1.373191       -37.3664
  10   2.0000      -1.364778       -37.1375
  11   2.0000      -1.328761       -36.1574
  12   2.0000      -1.322339       -35.9827
  13   2.0000      -1.306960       -35.5642
  14   2.0000      -0.767103       -20.8739
  15   2.0000      -0.759437       -20.6653
  16   2.0000      -0.754213       -20.5232
  17   2.0000      -0.733794       -19.9676
  18   2.0000      -0.700705       -19.0671
  19   2.0000      -0.696557       -18.9543
  20   2.0000      -0.686063       -18.6687
  21   2.0000      -0.659226       -17.9385
  22   2.0000      -0.636725       -17.3262
  23   2.0000      -0.615103       -16.7378
  24   2.0000      -0.611240       -16.6327
  25   2.0000      -0.575084       -15.6488
  26   2.0000      -0.568559       -15.4713
  27   2.0000      -0.561845       -15.2886
  28   2.0000      -0.547759       -14.9053
  29   2.0000      -0.543037       -14.7768
  30   2.0000      -0.527699       -14.3594
  31   2.0000      -0.515831       -14.0365
  32   2.0000      -0.493114       -13.4183
  33   2.0000      -0.490175       -13.3383
  34   2.0000      -0.471696       -12.8355
  35   0.0000       0.069764         1.8984
  36   0.0000       0.125103         3.4042
  37   0.0000       0.131452         3.5770
  38   0.0000       0.138485         3.7684
  39   0.0000       0.168535         4.5861

MULLIKEN ATOMIC CHARGES
-----------------------
   0 O :   -0.755026
   1 H :    0.358417
   2 H :    0.383321
   3 O :   -0.736951
   4 H :    0.373284
   5 H :    0.365404
   6 O :   -0.723193
   7 H :    0.394991
   8 H :    0.341079
   9 O :   -0.722517
  10 H :    0.324911
  11 H :    0.360729
  12 O :   -0.693876
  13 H :    0.369073
  14 H :    0.325349
  15 O :   -0.730588
  16 H :    0.369802
  17 H :    0.346748
  18 O :   -0.681690
  19 H :    0.356015
  20 H :    0.374717
Sum of atomic charges:   -0.0000000

LOEWDIN ATOMIC CHARGES
----------------------
   0 O :   -0.313032
   1 H :    0.163225
   2 H :    0.145977
   3 O :   -0.293707
   4 H :    0.146283
   5 H :    0.173809
   6 O :   -0.280256
   7 H :    0.158277
   8 H :    0.169476
   9 O :   -0.362744
  10 H :    0.154638
  11 H :    0.141174
  12 O :   -0.337877
  13 H :    0.149612
  14 H :    0.160828
  15 O :   -0.354233
  16 H :    0.149348
  17 H :    0.139869
  18 O :   -0.264021
  19 H :    0.171672
  20 H :    0.181682

  Mayer bond orders larger than 0.100000
B(  0-O ,  1-H ) :   0.8361 B(  0-O ,  2-H ) :   0.7476 B(  3-O ,  4-H ) :   0.7686
B(  3-O ,  5-H ) :   0.8296 B(  6-O ,  7-H ) :   0.7811 B(  6-O ,  8-H ) :   0.8357
B(  9-O , 10-H ) :   0.8584 B(  9-O , 11-H ) :   0.7887 B( 12-O , 13-H ) :   0.8234
B( 12-O , 14-H ) :   0.8593 B( 15-O , 16-H ) :   0.8226 B( 15-O , 17-H ) :   0.8275
B( 18-O , 19-H ) :   0.8370 B( 18-O , 20-H ) :   0.8207

MP2 TOTAL ENERGY:     -534.253151795 Eh
FINAL SINGLE POINT ENERGY      -534.253151795133

DIPOLE MOMENT
-------------
                                X             Y             Z
Electronic contribution:      0.18359       0.06448       0.11780
Nuclear contribution   :     -0.31000       1.69920       0.72077
                        -----------------------------------------
Total Dipole Moment    :     -0.12642       1.76368       0.83857
                        -----------------------------------------
Magnitude (a.u.)       :      1.95697
Magnitude (Debye)      :      4.97423

Rotational constants in cm-1:     0.040657     0.024579     0.022126
Rotational constants in MHz :  1218.862574   736.846858   663.324865

                             ****ORCA TERMINATED NORMALLY****
TOTAL RUN TIME: 0 days 0 hours 2 minutes 24 seconds 954 msec
