                         Program Version 4.2.0 -  RELEASE  -
|  1> # 12h2o.su.etal.mol0,1,2,3,8,10,11
|  2> ! MP2 def2-TZVP EnGrad TightSCF
|  3>
|  4> %pal
|  5>     nprocs 6
|  6> end
|  7>
|  8> %maxcore 8000
|  9>
| 10> %scf
| 11>     ConvForced true
| 12> end
| 13>
| 14> *xyz 0 1
| 15> O   1.794470000   0.923410000   2.768350000
| 16> H   2.338250000   1.359750000   3.430940000
| 17> H   0.879480000   1.303000000   2.865760000
| 18> O  -1.794470000  -0.923410000   2.768350000
| 19> H  -2.338250000  -1.359750000   3.430940000
| 20> H  -0.879480000  -1.303000000   2.865760000
| 21> O   0.923410000  -1.794470000  -2.768350000
| 22> H   1.359750000  -2.338250000  -3.430940000
| 23> H   1.303000000  -0.879480000  -2.865760000
| 24> O  -1.752130000  -0.741530000  -2.896280000
| 25> H  -2.036450000  -0.920500000  -1.984040000
| 26> H  -0.921210000  -1.242140000  -2.984230000
| 27> O   1.752130000   0.741530000  -2.896280000
| 28> H   2.036450000   0.920500000  -1.984040000
| 29> H   0.921210000   1.242140000  -2.984230000
| 30> O  -0.923410000   1.794470000  -2.768350000
| 31> H  -1.359750000   2.338250000  -3.430940000
| 32> H  -1.303000000   0.879480000  -2.865760000
| 33> O  -0.741530000   1.752130000   2.896280000
| 34> H  -0.920500000   2.036450000   1.984040000
| 35> H  -1.242140000   0.921210000   2.984230000
| 36> *
| 37>
| 38>                          ****END OF INPUT****

CARTESIAN COORDINATES (ANGSTROEM)
---------------------------------
  O      1.794470    0.923410    2.768350
  H      2.338250    1.359750    3.430940
  H      0.879480    1.303000    2.865760
  O     -1.794470   -0.923410    2.768350
  H     -2.338250   -1.359750    3.430940
  H     -0.879480   -1.303000    2.865760
  O      0.923410   -1.794470   -2.768350
  H      1.359750   -2.338250   -3.430940
  H      1.303000   -0.879480   -2.865760
  O     -1.752130   -0.741530   -2.896280
  H     -2.036450   -0.920500   -1.984040
  H     -0.921210   -1.242140   -2.984230
  O      1.752130    0.741530   -2.896280
  H      2.036450    0.920500   -1.984040
  H      0.921210    1.242140   -2.984230
  O     -0.923410    1.794470   -2.768350
  H     -1.359750    2.338250   -3.430940
  H     -1.303000    0.879480   -2.865760
  O     -0.741530    1.752130    2.896280
  H     -0.920500    2.036450    1.984040
  H     -1.242140    0.921210    2.984230

 Total Charge           Charge          ....    0
 Multiplicity           Mult            ....    1
 Number of Electrons    NEL             ....   70
 Basis Dimension        Dim             ....  301

ORBITAL ENERGIES
----------------

  NO   OCC          E(Eh)            E(eV)
   0   2.0000     -20.597771      -560.4939
   1   2.0000     -20.568535      -559.6983
   2   2.0000     -20.567526      -559.6708
   3   2.0000     -20.563832      -559.5703
   4   2.0000     -20.547055      -559.1138
   5   2.0000     -20.543978      -559.0301
   6   2.0000     -20.516689      -558.2875
   7   2.0000      -1.376366       -37.4528
   8   2.0000      -1.361682       -37.0532
   9   2.0000      -1.356429       -36.9103
  10   2.0000      -1.353582       -36.8328
  11   2.0000      -1.330065       -36.1929
  12   2.0000      -1.322462       -35.9860
  13   2.0000      -1.298622       -35.3373
  14   2.0000      -0.743413       -20.2293
  15   2.0000      -0.721133       -19.6230
  16   2.0000      -0.718476       -19.5507
  17   2.0000      -0.718129       -19.5413
  18   2.0000      -0.708781       -19.2869
  19   2.0000      -0.704814       -19.1790
  20   2.0000      -0.686315       -18.6756
  21   2.0000      -0.620394       -16.8818
  22   2.0000      -0.618818       -16.8389
  23   2.0000      -0.592147       -16.1131
  24   2.0000      -0.591952       -16.1078
  25   2.0000      -0.578318       -15.7368
  26   2.0000      -0.553749       -15.0683
  27   2.0000      -0.549477       -14.9520
  28   2.0000      -0.536283       -14.5930
  29   2.0000      -0.508108       -13.8263
  30   2.0000      -0.504664       -13.7326
  31   2.0000      -0.500419       -13.6171
  32   2.0000      -0.497338       -13.5333
  33   2.0000      -0.494088       -13.4448
  34   2.0000      -0.467482       -12.7208
  35   0.0000       0.102296         2.7836
  36   0.0000       0.124082         3.3764
  37   0.0000       0.151973         4.1354
  38   0.0000       0.159129         4.3301
  39   0.0000       0.165621         4.5068

MULLIKEN ATOMIC CHARGES
-----------------------
   0 O :   -0.739409
   1 H :    0.325049
   2 H :    0.364545
   3 O :   -0.704695
   4 H :    0.356276
   5 H :    0.371915
   6 O :   -0.743157
   7 H :    0.340275
   8 H :    0.380075
   9 O :   -0.709555
  10 H :    0.353935
  11 H :    0.378426
  12 O :   -0.711736
  13 H :    0.359266
  14 H :    0.377037
  15 O :   -0.744570
  16 H :    0.341096
  17 H :    0.378739
  18 O :   -0.701576
  19 H :    0.355735
  20 H :    0.372329
Sum of atomic charges:    0.0000000

LOEWDIN ATOMIC CHARGES
----------------------
   0 O :   -0.376905
   1 H :    0.148187
   2 H :    0.140720
   3 O :   -0.311936
   4 H :    0.165533
   5 H :    0.192882
   6 O :   -0.341555
   7 H :    0.155197
   8 H :    0.145317
   9 O :   -0.284987
  10 H :    0.171332
  11 H :    0.154493
  12 O :   -0.285142
  13 H :    0.173642
  14 H :    0.153876
  15 O :   -0.342593
  16 H :    0.155463
  17 H :    0.144862
  18 O :   -0.283617
  19 H :    0.172334
  20 H :    0.152896

  Mayer bond orders larger than 0.100000
B(  0-O ,  1-H ) :   0.8607 B(  0-O ,  2-H ) :   0.7770 B(  3-O ,  4-H ) :   0.8395
B(  3-O ,  5-H ) :   0.8215 B(  6-O ,  7-H ) :   0.8489 B(  6-O ,  8-H ) :   0.7484
B(  8-H , 12-O ) :   0.1095 B(  9-O , 10-H ) :   0.8400 B(  9-O , 11-H ) :   0.7803
B(  9-O , 17-H ) :   0.1098 B( 12-O , 13-H ) :   0.8367 B( 12-O , 14-H ) :   0.7836
B( 15-O , 16-H ) :   0.8485 B( 15-O , 17-H ) :   0.7491 B( 18-O , 19-H ) :   0.8391
B( 18-O , 20-H ) :   0.7993

MP2 TOTAL ENERGY:     -534.257128852 Eh
FINAL SINGLE POINT ENERGY      -534.257128852353

DIPOLE MOMENT
-------------
                                X             Y             Z
Electronic contribution:     -0.28862      -0.04665      -0.09335
Nuclear contribution   :     -0.56566      -0.45497       0.68611
                        -----------------------------------------
Total Dipole Moment    :     -0.85427      -0.50162       0.59276
                        -----------------------------------------
Magnitude (a.u.)       :      1.15446
Magnitude (Debye)      :      2.93439

Rotational constants in cm-1:     0.035736     0.014067     0.013098
Rotational constants in MHz :  1071.352930   421.712726   392.676553

                             ****ORCA TERMINATED NORMALLY****
TOTAL RUN TIME: 0 days 0 hours 1 minutes 26 seconds 248 msec
