                         Program Version 4.2.0 -  RELEASE  -
|  1> # 12h2o.su.etal.mol1,5,8,9
|  2> ! MP2 def2-TZVP EnGrad TightSCF
|  3>
|  4> %pal
|  5>     nprocs 6
|  6> end
|  7>
|  8> %maxcore 8000
|  9>
| 10> %scf
| 11>     ConvForced true
| 12> end
| 13>
| 14> *xyz 0 1
| 15> O  -1.794470000  -0.923410000   2.768350000
| 16> H  -2.338250000  -1.359750000   3.430940000
| 17> H  -0.879480000  -1.303000000   2.865760000
| 18> O   0.885520000  -1.737840000   0.052730000
| 19> H   1.284090000  -0.839590000   0.017130000
| 20> H   1.032320000  -2.090180000  -0.841890000
| 21> O   1.752130000   0.741530000  -2.896280000
| 22> H   2.036450000   0.920500000  -1.984040000
| 23> H   0.921210000   1.242140000  -2.984230000
| 24> O   0.741530000  -1.752130000   2.896280000
| 25> H   0.920500000  -2.036450000   1.984040000
| 26> H   1.242140000  -0.921210000   2.984230000
| 27> *
| 28>
| 29>                          ****END OF INPUT****

CARTESIAN COORDINATES (ANGSTROEM)
---------------------------------
  O     -1.794470   -0.923410    2.768350
  H     -2.338250   -1.359750    3.430940
  H     -0.879480   -1.303000    2.865760
  O      0.885520   -1.737840    0.052730
  H      1.284090   -0.839590    0.017130
  H      1.032320   -2.090180   -0.841890
  O      1.752130    0.741530   -2.896280
  H      2.036450    0.920500   -1.984040
  H      0.921210    1.242140   -2.984230
  O      0.741530   -1.752130    2.896280
  H      0.920500   -2.036450    1.984040
  H      1.242140   -0.921210    2.984230

 Total Charge           Charge          ....    0
 Multiplicity           Mult            ....    1
 Number of Electrons    NEL             ....   40
 Basis Dimension        Dim             ....  172

ORBITAL ENERGIES
----------------

  NO   OCC          E(Eh)            E(eV)
   0   2.0000     -20.596532      -560.4601
   1   2.0000     -20.583419      -560.1033
   2   2.0000     -20.570965      -559.7644
   3   2.0000     -20.505709      -557.9887
   4   2.0000      -1.375871       -37.4393
   5   2.0000      -1.362367       -37.0719
   6   2.0000      -1.357752       -36.9463
   7   2.0000      -1.287975       -35.0476
   8   2.0000      -0.739567       -20.1247
   9   2.0000      -0.725279       -19.7358
  10   2.0000      -0.718589       -19.5538
  11   2.0000      -0.677170       -18.4267
  12   2.0000      -0.623522       -16.9669
  13   2.0000      -0.599473       -16.3125
  14   2.0000      -0.588138       -16.0040
  15   2.0000      -0.540864       -14.7176
  16   2.0000      -0.538982       -14.6664
  17   2.0000      -0.526830       -14.3358
  18   2.0000      -0.496625       -13.5139
  19   2.0000      -0.456198       -12.4138
  20   0.0000       0.078581         2.1383
  21   0.0000       0.129979         3.5369
  22   0.0000       0.156766         4.2658
  23   0.0000       0.167195         4.5496
  24   0.0000       0.184934         5.0323

MULLIKEN ATOMIC CHARGES
-----------------------
   0 O :   -0.734679
   1 H :    0.320901
   2 H :    0.367610
   3 O :   -0.686439
   4 H :    0.331915
   5 H :    0.362116
   6 O :   -0.668998
   7 H :    0.325895
   8 H :    0.346787
   9 O :   -0.689647
  10 H :    0.385624
  11 H :    0.338914
Sum of atomic charges:   -0.0000000

LOEWDIN ATOMIC CHARGES
----------------------
   0 O :   -0.374171
   1 H :    0.146314
   2 H :    0.142094
   3 O :   -0.312982
   4 H :    0.168756
   5 H :    0.176067
   6 O :   -0.327348
   7 H :    0.158808
   8 H :    0.171341
   9 O :   -0.275623
  10 H :    0.159599
  11 H :    0.167144

  Mayer bond orders larger than 0.100000
B(  0-O ,  1-H ) :   0.8630 B(  0-O ,  2-H ) :   0.7835 B(  3-O ,  4-H ) :   0.8475
B(  3-O ,  5-H ) :   0.8353 B(  6-O ,  7-H ) :   0.8582 B(  6-O ,  8-H ) :   0.8470
B(  9-O , 10-H ) :   0.8023 B(  9-O , 11-H ) :   0.8485

MP2 TOTAL ENERGY:     -305.266138274 Eh
FINAL SINGLE POINT ENERGY      -305.266138273686

DIPOLE MOMENT
-------------
                                X             Y             Z
Electronic contribution:      0.14972      -0.24768      -0.24645
Nuclear contribution   :      0.87361       0.79587      -0.14168
                        -----------------------------------------
Total Dipole Moment    :      1.02334       0.54819      -0.38813
                        -----------------------------------------
Magnitude (a.u.)       :      1.22408
Magnitude (Debye)      :      3.11137

Rotational constants in cm-1:     0.185479     0.031649     0.028691
Rotational constants in MHz :  5560.515911   948.809993   860.132557

                             ****ORCA TERMINATED NORMALLY****
TOTAL RUN TIME: 0 days 0 hours 0 minutes 15 seconds 921 msec
