                         Program Version 4.2.0 -  RELEASE  -
|  1> # Functional Basis-set
|  2> ! MP2 def2-TZVP
|  3>
|  4> # Type of calculation
|  5> ! SP
|  6>
|  7> # Options
|  8> ! TightSCF Grid4
|  9> %maxcore 8000
| 10>
| 11> %pal nprocs 24 end
| 12>
| 13> *xyz  0  1
| 14> O    -1.7761088738    -2.7413847974    -1.0193082976
| 15> H    -2.5200940348    -2.4522959873    -0.4207783018
| 16> C    -2.1740251664    -3.9527009644    -1.6470045808
| 17> H    -1.3598038953    -4.2726734156    -2.3041492359
| 18> H    -3.0759739715    -3.8086924202    -2.2567511121
| 19> H    -2.3702253931    -4.7527847609    -0.9189661370
| 20> O     0.6660451926    -2.6005031716     0.1383175207
| 21> H    -0.2271150486    -2.7120519816    -0.2818680037
| 22> C     0.4900212320    -1.8512476783     1.3411894590
| 23> H     1.4665005022    -1.4661760224     1.6458444148
| 24> H     0.0975645275    -2.4883646833     2.1469027402
| 25> H    -0.1875881124    -1.0007874991     1.2007395706
| 26> O    -3.8397774015     2.2335950978     0.6604367629
| 27> H    -2.9583458966     1.9070362035     0.9735884490
| 28> C    -3.6003680587     3.1687906819    -0.3904804523
| 29> H    -4.5517091930     3.3441489667    -0.9012548629
| 30> H    -2.8682375942     2.7892401992    -1.1136175247
| 31> H    -3.2435949148     4.1289986074     0.0095494801
| 32> O    -3.8214059764    -2.1180916370     0.5967953462
| 33> H    -4.3429891170    -1.3443030296     0.2519663832
| 34> C    -3.4438835864    -1.8096412313     1.9348893934
| 35> H    -2.8314943488    -2.6374296004     2.3052017643
| 36> H    -4.3256011461    -1.7193643714     2.5850746665
| 37> H    -2.8585271264    -0.8826447912     1.9961106939
| 38> O    -1.3585789143     1.2323604212     1.1897210004
| 39> H    -1.0582501826     1.2164593609     0.2385913070
| 40> C    -0.3897634520     1.9578725668     1.9430723625
| 41> H    -0.7472207705     2.0128065783     2.9752003427
| 42> H    -0.2604105847     2.9827632092     1.5653665401
| 43> H     0.5852206380     1.4537541785     1.9340707930
| 44> O    -0.6627217498     1.4490946183    -1.3830820650
| 45> H     0.0641882996     2.1198676081    -1.4656506597
| 46> C    -0.3533192389     0.3412187759    -2.2293267712
| 47> H    -1.0723585304    -0.4547432809    -2.0199064950
| 48> H     0.6576367458    -0.0444721385    -2.0427367715
| 49> H    -0.4346166074     0.6247339011    -3.2877930209
| 50> O     2.6222092725    -1.7030025895    -1.4458597233
| 51> H     1.8285514322    -1.9865137810    -0.9097549680
| 52> C     2.7811176752    -2.6158222387    -2.5254728896
| 53> H     3.6910636259    -2.3390035435    -3.0651434545
| 54> H     1.9347273229    -2.5595203673    -3.2232266611
| 55> H     2.8799483380    -3.6538462112    -2.1777501704
| 56> O     4.3105355856    -1.5883227997     0.6561282987
| 57> H     3.8043721988    -1.6304047348    -0.1968498190
| 58> C     4.3122981367    -2.8949808537     1.2221126909
| 59> H     4.7131778333    -2.8199070763     2.2370667730
| 60> H     4.9577967342    -3.5746993039     0.6482111803
| 61> H     3.3027359887    -3.3244332047     1.2697567734
| 62> O     3.5700847537     2.3616625768    -0.2024167280
| 63> H     3.3932809333     1.7556699772     0.5606340730
| 64> C     4.3680828826     1.6447417925    -1.1431128069
| 65> H     4.5528517166     2.3118017385    -1.9896324208
| 66> H     3.8624274942     0.7408516633    -1.5080956898
| 67> H     5.3339496739     1.3572890924    -0.7062880998
| 68> O     1.3906100238     3.1940807703    -1.5366588821
| 69> H     2.1629322987     2.8815627305    -0.9935250557
| 70> C     1.2029771886     4.5803671824    -1.3028802193
| 71> H     0.3747731145     4.9157648308    -1.9341646428
| 72> H     2.0986493397     5.1577108754    -1.5704723479
| 73> H     0.9503204009     4.8004360146    -0.2543288268
| 74> O    -5.2011436183     0.0645827259    -0.1722237719
| 75> H    -4.6868915298     0.8692588904     0.1078061428
| 76> C    -6.5131921679     0.1713917985     0.3598834493
| 77> H    -7.0493813122    -0.7492341903     0.1113611739
| 78> H    -7.0577411628     1.0178011009    -0.0818194200
| 79> H    -6.5147705751     0.2922649280     1.4530588338
| 80> O     3.2529555588     0.5885962421     1.8589343148
| 81> H     3.6212091771    -0.2516051992     1.4760633636
| 82> C     4.0408245282     0.9442884223     2.9896394597
| 83> H     3.6705214357     1.9025735491     3.3638473909
| 84> H     5.1037499339     1.0558686191     2.7342775589
| 85> H     3.9485406823     0.2002795903     3.7929085181
| 86> *
| 87>
| 88>                          ****END OF INPUT****

CARTESIAN COORDINATES (ANGSTROEM)
---------------------------------
  O     -1.776109   -2.741385   -1.019308
  H     -2.520094   -2.452296   -0.420778
  C     -2.174025   -3.952701   -1.647005
  H     -1.359804   -4.272673   -2.304149
  H     -3.075974   -3.808692   -2.256751
  H     -2.370225   -4.752785   -0.918966
  O      0.666045   -2.600503    0.138318
  H     -0.227115   -2.712052   -0.281868
  C      0.490021   -1.851248    1.341189
  H      1.466501   -1.466176    1.645844
  H      0.097565   -2.488365    2.146903
  H     -0.187588   -1.000787    1.200740
  O     -3.839777    2.233595    0.660437
  H     -2.958346    1.907036    0.973588
  C     -3.600368    3.168791   -0.390480
  H     -4.551709    3.344149   -0.901255
  H     -2.868238    2.789240   -1.113618
  H     -3.243595    4.128999    0.009549
  O     -3.821406   -2.118092    0.596795
  H     -4.342989   -1.344303    0.251966
  C     -3.443884   -1.809641    1.934889
  H     -2.831494   -2.637430    2.305202
  H     -4.325601   -1.719364    2.585075
  H     -2.858527   -0.882645    1.996111
  O     -1.358579    1.232360    1.189721
  H     -1.058250    1.216459    0.238591
  C     -0.389763    1.957873    1.943072
  H     -0.747221    2.012807    2.975200
  H     -0.260411    2.982763    1.565367
  H      0.585221    1.453754    1.934071
  O     -0.662722    1.449095   -1.383082
  H      0.064188    2.119868   -1.465651
  C     -0.353319    0.341219   -2.229327
  H     -1.072359   -0.454743   -2.019906
  H      0.657637   -0.044472   -2.042737
  H     -0.434617    0.624734   -3.287793
  O      2.622209   -1.703003   -1.445860
  H      1.828551   -1.986514   -0.909755
  C      2.781118   -2.615822   -2.525473
  H      3.691064   -2.339004   -3.065143
  H      1.934727   -2.559520   -3.223227
  H      2.879948   -3.653846   -2.177750
  O      4.310536   -1.588323    0.656128
  H      3.804372   -1.630405   -0.196850
  C      4.312298   -2.894981    1.222113
  H      4.713178   -2.819907    2.237067
  H      4.957797   -3.574699    0.648211
  H      3.302736   -3.324433    1.269757
  O      3.570085    2.361663   -0.202417
  H      3.393281    1.755670    0.560634
  C      4.368083    1.644742   -1.143113
  H      4.552852    2.311802   -1.989632
  H      3.862427    0.740852   -1.508096
  H      5.333950    1.357289   -0.706288
  O      1.390610    3.194081   -1.536659
  H      2.162932    2.881563   -0.993525
  C      1.202977    4.580367   -1.302880
  H      0.374773    4.915765   -1.934165
  H      2.098649    5.157711   -1.570472
  H      0.950320    4.800436   -0.254329
  O     -5.201144    0.064583   -0.172224
  H     -4.686892    0.869259    0.107806
  C     -6.513192    0.171392    0.359883
  H     -7.049381   -0.749234    0.111361
  H     -7.057741    1.017801   -0.081819
  H     -6.514771    0.292265    1.453059
  O      3.252956    0.588596    1.858934
  H      3.621209   -0.251605    1.476063
  C      4.040825    0.944288    2.989639
  H      3.670521    1.902574    3.363847
  H      5.103750    1.055869    2.734278
  H      3.948541    0.200280    3.792909

 Total Charge           Charge          ....    0
 Multiplicity           Mult            ....    1
 Number of Electrons    NEL             ....  216
 Basis Dimension        Dim             .... 1032

ORBITAL ENERGIES
----------------

  NO   OCC          E(Eh)            E(eV)
   0   2.0000     -20.553745      -559.2958
   1   2.0000     -20.552763      -559.2691
   2   2.0000     -20.550861      -559.2174
   3   2.0000     -20.547278      -559.1199
   4   2.0000     -20.546072      -559.0870
   5   2.0000     -20.544675      -559.0490
   6   2.0000     -20.543926      -559.0286
   7   2.0000     -20.543912      -559.0283
   8   2.0000     -20.543871      -559.0271
   9   2.0000     -20.542150      -558.9803
  10   2.0000     -20.541815      -558.9712
  11   2.0000     -20.539622      -558.9115
  12   2.0000     -11.273004      -306.7540
  13   2.0000     -11.272464      -306.7394
  14   2.0000     -11.272355      -306.7364
  15   2.0000     -11.267084      -306.5929
  16   2.0000     -11.265104      -306.5391
  17   2.0000     -11.263531      -306.4963
  18   2.0000     -11.263354      -306.4915
  19   2.0000     -11.261601      -306.4437
  20   2.0000     -11.260345      -306.4096
  21   2.0000     -11.259383      -306.3834
  22   2.0000     -11.259059      -306.3746
  23   2.0000     -11.251046      -306.1565
  24   2.0000      -1.367196       -37.2033
  25   2.0000      -1.360515       -37.0215
  26   2.0000      -1.359255       -36.9872
  27   2.0000      -1.354531       -36.8587
  28   2.0000      -1.354091       -36.8467
  29   2.0000      -1.347020       -36.6543
  30   2.0000      -1.345870       -36.6230
  31   2.0000      -1.338880       -36.4328
  32   2.0000      -1.337491       -36.3950
  33   2.0000      -1.333247       -36.2795
  34   2.0000      -1.329281       -36.1716
  35   2.0000      -1.326702       -36.1014
  36   2.0000      -0.929053       -25.2808
  37   2.0000      -0.923820       -25.1384
  38   2.0000      -0.918377       -24.9903
  39   2.0000      -0.917895       -24.9772
  40   2.0000      -0.917655       -24.9707
  41   2.0000      -0.916807       -24.9476
  42   2.0000      -0.914962       -24.8974
  43   2.0000      -0.912223       -24.8229
  44   2.0000      -0.911256       -24.7965
  45   2.0000      -0.910496       -24.7758
  46   2.0000      -0.907261       -24.6878
  47   2.0000      -0.903271       -24.5793
  48   2.0000      -0.716257       -19.4903
  49   2.0000      -0.714000       -19.4289
  50   2.0000      -0.710382       -19.3305
  51   2.0000      -0.706091       -19.2137
  52   2.0000      -0.699151       -19.0249
  53   2.0000      -0.694385       -18.8952
  54   2.0000      -0.690024       -18.7765
  55   2.0000      -0.681422       -18.5424
  56   2.0000      -0.680067       -18.5056
  57   2.0000      -0.675259       -18.3747
  58   2.0000      -0.670657       -18.2495
  59   2.0000      -0.668671       -18.1955
  60   2.0000      -0.621838       -16.9211
  61   2.0000      -0.619359       -16.8536
  62   2.0000      -0.616818       -16.7845
  63   2.0000      -0.614967       -16.7341
  64   2.0000      -0.612694       -16.6723
  65   2.0000      -0.610391       -16.6096
  66   2.0000      -0.608986       -16.5714
  67   2.0000      -0.607993       -16.5443
  68   2.0000      -0.607616       -16.5341
  69   2.0000      -0.604788       -16.4571
  70   2.0000      -0.603136       -16.4122
  71   2.0000      -0.599356       -16.3093
  72   2.0000      -0.597802       -16.2670
  73   2.0000      -0.594372       -16.1737
  74   2.0000      -0.588951       -16.0262
  75   2.0000      -0.587845       -15.9961
  76   2.0000      -0.587112       -15.9761
  77   2.0000      -0.586271       -15.9533
  78   2.0000      -0.585200       -15.9241
  79   2.0000      -0.583435       -15.8761
  80   2.0000      -0.581875       -15.8336
  81   2.0000      -0.580775       -15.8037
  82   2.0000      -0.578609       -15.7447
  83   2.0000      -0.574179       -15.6242
  84   2.0000      -0.524347       -14.2682
  85   2.0000      -0.518465       -14.1082
  86   2.0000      -0.517027       -14.0690
  87   2.0000      -0.510864       -13.9013
  88   2.0000      -0.509028       -13.8514
  89   2.0000      -0.502826       -13.6826
  90   2.0000      -0.499834       -13.6012
  91   2.0000      -0.489932       -13.3317
  92   2.0000      -0.487420       -13.2634
  93   2.0000      -0.482022       -13.1165
  94   2.0000      -0.477768       -13.0007
  95   2.0000      -0.476035       -12.9536
  96   2.0000      -0.451626       -12.2894
  97   2.0000      -0.450975       -12.2717
  98   2.0000      -0.447007       -12.1637
  99   2.0000      -0.445451       -12.1213
 100   2.0000      -0.443040       -12.0557
 101   2.0000      -0.440938       -11.9985
 102   2.0000      -0.439448       -11.9580
 103   2.0000      -0.438609       -11.9352
 104   2.0000      -0.437968       -11.9177
 105   2.0000      -0.436037       -11.8652
 106   2.0000      -0.435022       -11.8375
 107   2.0000      -0.430795       -11.7225
 108   0.0000       0.124067         3.3760
 109   0.0000       0.129133         3.5139
 110   0.0000       0.138292         3.7631
 111   0.0000       0.145075         3.9477
 112   0.0000       0.157931         4.2975

MULLIKEN ATOMIC CHARGES
-----------------------
   0 O :   -0.647489
   1 H :    0.413691
   2 C :   -0.067370
   3 H :    0.099347
   4 H :    0.104073
   5 H :    0.097678
   6 O :   -0.644975
   7 H :    0.408910
   8 C :   -0.095062
   9 H :    0.105238
  10 H :    0.091139
  11 H :    0.131346
  12 O :   -0.625815
  13 H :    0.403258
  14 C :   -0.106429
  15 H :    0.103320
  16 H :    0.137276
  17 H :    0.090793
  18 O :   -0.637055
  19 H :    0.415527
  20 C :   -0.106570
  21 H :    0.100997
  22 H :    0.100485
  23 H :    0.128718
  24 O :   -0.653856
  25 H :    0.417805
  26 C :   -0.100724
  27 H :    0.105031
  28 H :    0.093491
  29 H :    0.134244
  30 O :   -0.655363
  31 H :    0.407109
  32 C :   -0.089304
  33 H :    0.135252
  34 H :    0.112859
  35 H :    0.092090
  36 O :   -0.645789
  37 H :    0.413175
  38 C :   -0.084097
  39 H :    0.107604
  40 H :    0.103936
  41 H :    0.104627
  42 O :   -0.630064
  43 H :    0.403793
  44 C :   -0.100121
  45 H :    0.104872
  46 H :    0.102241
  47 H :    0.120919
  48 O :   -0.631237
  49 H :    0.406714
  50 C :   -0.108144
  51 H :    0.110177
  52 H :    0.126103
  53 H :    0.102263
  54 O :   -0.637014
  55 H :    0.408449
  56 C :   -0.071097
  57 H :    0.105910
  58 H :    0.104502
  59 H :    0.086921
  60 O :   -0.632261
  61 H :    0.404591
  62 C :   -0.078547
  63 H :    0.107015
  64 H :    0.097315
  65 H :    0.097357
  66 O :   -0.634520
  67 H :    0.408699
  68 C :   -0.087574
  69 H :    0.109597
  70 H :    0.106674
  71 H :    0.097348
Sum of atomic charges:   -0.0000000

LOEWDIN ATOMIC CHARGES
----------------------
   0 O :   -0.120923
   1 H :    0.177409
   2 C :   -0.341234
   3 H :    0.096648
   4 H :    0.096104
   5 H :    0.092497
   6 O :   -0.122961
   7 H :    0.176164
   8 C :   -0.340584
   9 H :    0.097772
  10 H :    0.091661
  11 H :    0.100537
  12 O :   -0.120172
  13 H :    0.174790
  14 C :   -0.341098
  15 H :    0.097428
  16 H :    0.097799
  17 H :    0.091396
  18 O :   -0.118465
  19 H :    0.176919
  20 C :   -0.345276
  21 H :    0.096833
  22 H :    0.093032
  23 H :    0.095694
  24 O :   -0.124503
  25 H :    0.173243
  26 C :   -0.346352
  27 H :    0.098505
  28 H :    0.090587
  29 H :    0.098893
  30 O :   -0.120971
  31 H :    0.173624
  32 C :   -0.339597
  33 H :    0.103113
  34 H :    0.095558
  35 H :    0.092380
  36 O :   -0.119548
  37 H :    0.174733
  38 C :   -0.343104
  39 H :    0.099367
  40 H :    0.094597
  41 H :    0.092683
  42 O :   -0.119437
  43 H :    0.174287
  44 C :   -0.340156
  45 H :    0.098132
  46 H :    0.094244
  47 H :    0.095739
  48 O :   -0.121486
  49 H :    0.175668
  50 C :   -0.341039
  51 H :    0.099628
  52 H :    0.096042
  53 H :    0.094869
  54 O :   -0.116284
  55 H :    0.176815
  56 C :   -0.342775
  57 H :    0.099174
  58 H :    0.095558
  59 H :    0.087472
  60 O :   -0.115883
  61 H :    0.175672
  62 C :   -0.343172
  63 H :    0.099387
  64 H :    0.093661
  65 H :    0.090873
  66 O :   -0.119867
  67 H :    0.171828
  68 C :   -0.341597
  69 H :    0.100301
  70 H :    0.094289
  71 H :    0.092880

  Mayer bond orders larger than 0.100000
B(  0-O ,  1-H ) :   0.7645 B(  0-O ,  2-C ) :   0.9047 B(  2-C ,  3-H ) :   0.9886
B(  2-C ,  4-H ) :   0.9880 B(  2-C ,  5-H ) :   0.9885 B(  6-O ,  7-H ) :   0.7796
B(  6-O ,  8-C ) :   0.8812 B(  8-C ,  9-H ) :   0.9872 B(  8-C , 10-H ) :   0.9933
B(  8-C , 11-H ) :   0.9871 B( 12-O , 13-H ) :   0.7934 B( 12-O , 14-C ) :   0.8926
B( 14-C , 15-H ) :   0.9894 B( 14-C , 16-H ) :   0.9812 B( 14-C , 17-H ) :   0.9876
B( 18-O , 19-H ) :   0.7759 B( 18-O , 20-C ) :   0.8955 B( 20-C , 21-H ) :   0.9905
B( 20-C , 22-H ) :   0.9883 B( 20-C , 23-H ) :   0.9833 B( 24-O , 25-H ) :   0.7599
B( 24-O , 26-C ) :   0.8903 B( 26-C , 27-H ) :   0.9895 B( 26-C , 28-H ) :   0.9891
B( 26-C , 29-H ) :   0.9837 B( 30-O , 31-H ) :   0.7809 B( 30-O , 32-C ) :   0.8779
B( 32-C , 33-H ) :   0.9817 B( 32-C , 34-H ) :   0.9883 B( 32-C , 35-H ) :   0.9880
B( 36-O , 37-H ) :   0.7616 B( 36-O , 38-C ) :   0.9015 B( 38-C , 39-H ) :   0.9888
B( 38-C , 40-H ) :   0.9874 B( 38-C , 41-H ) :   0.9879 B( 42-O , 43-H ) :   0.7878
B( 42-O , 44-C ) :   0.8956 B( 44-C , 45-H ) :   0.9881 B( 44-C , 46-H ) :   0.9907
B( 44-C , 47-H ) :   0.9841 B( 48-O , 49-H ) :   0.7898 B( 48-O , 50-C ) :   0.8920
B( 50-C , 51-H ) :   0.9875 B( 50-C , 52-H ) :   0.9879 B( 50-C , 53-H ) :   0.9849
B( 54-O , 55-H ) :   0.7729 B( 54-O , 56-C ) :   0.9105 B( 56-C , 57-H ) :   0.9879
B( 56-C , 58-H ) :   0.9894 B( 56-C , 59-H ) :   0.9890 B( 60-O , 61-H ) :   0.7724
B( 60-O , 62-C ) :   0.9094 B( 62-C , 63-H ) :   0.9878 B( 62-C , 64-H ) :   0.9883
B( 62-C , 65-H ) :   0.9892 B( 66-O , 67-H ) :   0.7730 B( 66-O , 68-C ) :   0.9090
B( 68-C , 69-H ) :   0.9892 B( 68-C , 70-H ) :   0.9866 B( 68-C , 71-H ) :   0.9870

MP2 TOTAL ENERGY:    -1386.274536243 Eh
FINAL SINGLE POINT ENERGY     -1386.274536243016

DIPOLE MOMENT
-------------
                                X             Y             Z
Electronic contribution:     -1.85920       0.81369      -1.63868
Nuclear contribution   :      2.57469      -1.14063       2.05550
                        -----------------------------------------
Total Dipole Moment    :      0.71549      -0.32694       0.41682
                        -----------------------------------------
Magnitude (a.u.)       :      0.89026
Magnitude (Debye)      :      2.26286

Rotational constants in cm-1:     0.005936     0.003500     0.002806
Rotational constants in MHz :   177.968518   104.929481    84.118243

                             ****ORCA TERMINATED NORMALLY****
TOTAL RUN TIME: 0 days 0 hours 10 minutes 27 seconds 377 msec
