                         Program Version 4.2.0 -  RELEASE  -
|  1> # 12mecn.remya.etal.2.mol1,2,11
|  2> ! MP2 def2-TZVP EnGrad TightSCF
|  3>
|  4> %pal
|  5>     nprocs 6
|  6> end
|  7>
|  8> %maxcore 8000
|  9>
| 10> %scf
| 11>     ConvForced true
| 12> end
| 13>
| 14> *xyz 0 1
| 15> C  -4.697980000  -0.249690000   1.746215000
| 16> H  -4.927570000   0.755530000   2.111799000
| 17> H  -3.709180000  -0.561560000   2.093253000
| 18> H  -5.432280000  -0.961520000   2.128066000
| 19> C  -4.714100000  -0.247110000   0.301670000
| 20> N  -4.729750000  -0.234960000  -0.865260000
| 21> C  -4.219070000  -3.477410000  -1.501740000
| 22> H  -3.251530000  -3.803540000  -1.893830000
| 23> H  -4.452920000  -2.481700000  -1.890840000
| 24> H  -4.992170000  -4.178130000  -1.824640000
| 25> C  -4.154550000  -3.418790000  -0.058340000
| 26> N  -4.091140000  -3.354840000   1.104432000
| 27> C   4.214163000   3.378139000   1.593627000
| 28> H   3.242643000   3.657109000   2.012358000
| 29> H   4.969258000   4.086643000   1.941290000
| 30> H   4.482966000   2.372549000   1.931698000
| 31> C   4.130759000   3.388436000   0.150192000
| 32> N   4.050180000   3.381449000  -1.013420000
| 33> *
| 34>
| 35>                          ****END OF INPUT****

CARTESIAN COORDINATES (ANGSTROEM)
---------------------------------
  C     -4.697980   -0.249690    1.746215
  H     -4.927570    0.755530    2.111799
  H     -3.709180   -0.561560    2.093253
  H     -5.432280   -0.961520    2.128066
  C     -4.714100   -0.247110    0.301670
  N     -4.729750   -0.234960   -0.865260
  C     -4.219070   -3.477410   -1.501740
  H     -3.251530   -3.803540   -1.893830
  H     -4.452920   -2.481700   -1.890840
  H     -4.992170   -4.178130   -1.824640
  C     -4.154550   -3.418790   -0.058340
  N     -4.091140   -3.354840    1.104432
  C      4.214163    3.378139    1.593627
  H      3.242643    3.657109    2.012358
  H      4.969258    4.086643    1.941290
  H      4.482966    2.372549    1.931698
  C      4.130759    3.388436    0.150192
  N      4.050180    3.381449   -1.013420

 Total Charge           Charge          ....    0
 Multiplicity           Mult            ....    1
 Number of Electrons    NEL             ....   66
 Basis Dimension        Dim             ....  333

ORBITAL ENERGIES
----------------

  NO   OCC          E(Eh)            E(eV)
   0   2.0000     -15.573186      -423.7679
   1   2.0000     -15.570781      -423.7025
   2   2.0000     -15.570386      -423.6917
   3   2.0000     -11.285508      -307.0943
   4   2.0000     -11.282578      -307.0146
   5   2.0000     -11.282476      -307.0118
   6   2.0000     -11.280095      -306.9470
   7   2.0000     -11.273113      -306.7570
   8   2.0000     -11.271261      -306.7066
   9   2.0000      -1.217987       -33.1431
  10   2.0000      -1.214678       -33.0531
  11   2.0000      -1.213211       -33.0131
  12   2.0000      -1.043896       -28.4059
  13   2.0000      -1.036456       -28.2034
  14   2.0000      -1.033307       -28.1177
  15   2.0000      -0.700786       -19.0694
  16   2.0000      -0.694803       -18.9065
  17   2.0000      -0.690687       -18.7945
  18   2.0000      -0.632195       -17.2029
  19   2.0000      -0.631264       -17.1776
  20   2.0000      -0.631234       -17.1768
  21   2.0000      -0.622342       -16.9348
  22   2.0000      -0.618702       -16.8357
  23   2.0000      -0.615861       -16.7584
  24   2.0000      -0.558753       -15.2044
  25   2.0000      -0.555892       -15.1266
  26   2.0000      -0.555681       -15.1208
  27   2.0000      -0.462642       -12.5891
  28   2.0000      -0.458627       -12.4799
  29   2.0000      -0.457809       -12.4576
  30   2.0000      -0.457696       -12.4545
  31   2.0000      -0.456778       -12.4295
  32   2.0000      -0.452566       -12.3150
  33   0.0000       0.118739         3.2310
  34   0.0000       0.126306         3.4370
  35   0.0000       0.145157         3.9499
  36   0.0000       0.170942         4.6516
  37   0.0000       0.171239         4.6596

MULLIKEN ATOMIC CHARGES
-----------------------
   0 C :   -0.258577
   1 H :    0.171109
   2 H :    0.175744
   3 H :    0.178605
   4 C :   -0.116916
   5 N :   -0.149100
   6 C :   -0.287559
   7 H :    0.166763
   8 H :    0.206284
   9 H :    0.166130
  10 C :   -0.113821
  11 N :   -0.138662
  12 C :   -0.280572
  13 H :    0.171785
  14 H :    0.172206
  15 H :    0.172379
  16 C :   -0.145474
  17 N :   -0.090323
Sum of atomic charges:    0.0000000

LOEWDIN ATOMIC CHARGES
----------------------
   0 C :   -0.284632
   1 H :    0.150000
   2 H :    0.156731
   3 H :    0.155725
   4 C :   -0.209764
   5 N :    0.029472
   6 C :   -0.282303
   7 H :    0.152490
   8 H :    0.157527
   9 H :    0.150106
  10 C :   -0.209337
  11 N :    0.033986
  12 C :   -0.284266
  13 H :    0.152767
  14 H :    0.151036
  15 H :    0.153027
  16 C :   -0.219471
  17 N :    0.046907

  Mayer bond orders larger than 0.100000
B(  0-C ,  1-H ) :   0.9099 B(  0-C ,  2-H ) :   0.9130 B(  0-C ,  3-H ) :   0.9125
B(  0-C ,  4-C ) :   0.9121 B(  4-C ,  5-N ) :   2.7711 B(  6-C ,  7-H ) :   0.9148
B(  6-C ,  8-H ) :   0.9017 B(  6-C ,  9-H ) :   0.9160 B(  6-C , 10-C ) :   0.9004
B( 10-C , 11-N ) :   2.7941 B( 12-C , 13-H ) :   0.9166 B( 12-C , 14-H ) :   0.9166
B( 12-C , 15-H ) :   0.9164 B( 12-C , 16-C ) :   0.9024 B( 16-C , 17-N ) :   2.8364

MP2 TOTAL ENERGY:     -397.459033580 Eh
FINAL SINGLE POINT ENERGY      -397.459033579680

DIPOLE MOMENT
-------------
                                X             Y             Z
Electronic contribution:     -0.08527       0.17766      -3.11632
Nuclear contribution   :      0.12668      -0.25237       4.64238
                        -----------------------------------------
Total Dipole Moment    :      0.04141      -0.07471       1.52606
                        -----------------------------------------
Magnitude (a.u.)       :      1.52845
Magnitude (Debye)      :      3.88501

Rotational constants in cm-1:     0.047524     0.005754     0.005603
Rotational constants in MHz :  1424.719381   172.494717   167.977387

                             ****ORCA TERMINATED NORMALLY****
TOTAL RUN TIME: 0 days 0 hours 2 minutes 32 seconds 566 msec
