                         Program Version 4.2.0 -  RELEASE  -
|  1> # 12h2o.su.etal.mol0,2,3,6,7,11
|  2> ! MP2 def2-TZVP EnGrad TightSCF
|  3>
|  4> %pal
|  5>     nprocs 6
|  6> end
|  7>
|  8> %maxcore 8000
|  9>
| 10> %scf
| 11>     ConvForced true
| 12> end
| 13>
| 14> *xyz 0 1
| 15> O   1.794470000   0.923410000   2.768350000
| 16> H   2.338250000   1.359750000   3.430940000
| 17> H   0.879480000   1.303000000   2.865760000
| 18> O   0.923410000  -1.794470000  -2.768350000
| 19> H   1.359750000  -2.338250000  -3.430940000
| 20> H   1.303000000  -0.879480000  -2.865760000
| 21> O  -1.752130000  -0.741530000  -2.896280000
| 22> H  -2.036450000  -0.920500000  -1.984040000
| 23> H  -0.921210000  -1.242140000  -2.984230000
| 24> O   1.737840000   0.885520000  -0.052730000
| 25> H   2.090180000   1.032320000   0.841890000
| 26> H   0.839590000   1.284090000  -0.017130000
| 27> O  -1.737840000  -0.885520000  -0.052730000
| 28> H  -2.090180000  -1.032320000   0.841890000
| 29> H  -0.839590000  -1.284090000  -0.017130000
| 30> O  -0.741530000   1.752130000   2.896280000
| 31> H  -0.920500000   2.036450000   1.984040000
| 32> H  -1.242140000   0.921210000   2.984230000
| 33> *
| 34>
| 35>                          ****END OF INPUT****

CARTESIAN COORDINATES (ANGSTROEM)
---------------------------------
  O      1.794470    0.923410    2.768350
  H      2.338250    1.359750    3.430940
  H      0.879480    1.303000    2.865760
  O      0.923410   -1.794470   -2.768350
  H      1.359750   -2.338250   -3.430940
  H      1.303000   -0.879480   -2.865760
  O     -1.752130   -0.741530   -2.896280
  H     -2.036450   -0.920500   -1.984040
  H     -0.921210   -1.242140   -2.984230
  O      1.737840    0.885520   -0.052730
  H      2.090180    1.032320    0.841890
  H      0.839590    1.284090   -0.017130
  O     -1.737840   -0.885520   -0.052730
  H     -2.090180   -1.032320    0.841890
  H     -0.839590   -1.284090   -0.017130
  O     -0.741530    1.752130    2.896280
  H     -0.920500    2.036450    1.984040
  H     -1.242140    0.921210    2.984230

 Total Charge           Charge          ....    0
 Multiplicity           Mult            ....    1
 Number of Electrons    NEL             ....   60
 Basis Dimension        Dim             ....  258

ORBITAL ENERGIES
----------------

  NO   OCC          E(Eh)            E(eV)
   0   2.0000     -20.618915      -561.0692
   1   2.0000     -20.589079      -560.2573
   2   2.0000     -20.574768      -559.8679
   3   2.0000     -20.553331      -559.2846
   4   2.0000     -20.537819      -558.8625
   5   2.0000     -20.500446      -557.8455
   6   2.0000      -1.404294       -38.2128
   7   2.0000      -1.367240       -37.2045
   8   2.0000      -1.352446       -36.8019
   9   2.0000      -1.338823       -36.4312
  10   2.0000      -1.315601       -35.7993
  11   2.0000      -1.285798       -34.9883
  12   2.0000      -0.761503       -20.7216
  13   2.0000      -0.728969       -19.8362
  14   2.0000      -0.724608       -19.7176
  15   2.0000      -0.719422       -19.5765
  16   2.0000      -0.684815       -18.6348
  17   2.0000      -0.664842       -18.0913
  18   2.0000      -0.641526       -17.4568
  19   2.0000      -0.609182       -16.5767
  20   2.0000      -0.590730       -16.0746
  21   2.0000      -0.587286       -15.9809
  22   2.0000      -0.562601       -15.3092
  23   2.0000      -0.540671       -14.7124
  24   2.0000      -0.539418       -14.6783
  25   2.0000      -0.526270       -14.3205
  26   2.0000      -0.505211       -13.7475
  27   2.0000      -0.500470       -13.6185
  28   2.0000      -0.483054       -13.1446
  29   2.0000      -0.450443       -12.2572
  30   0.0000       0.071509         1.9459
  31   0.0000       0.125105         3.4043
  32   0.0000       0.129472         3.5231
  33   0.0000       0.153633         4.1806
  34   0.0000       0.165120         4.4931

MULLIKEN ATOMIC CHARGES
-----------------------
   0 O :   -0.734868
   1 H :    0.339293
   2 H :    0.365815
   3 O :   -0.700165
   4 H :    0.348964
   5 H :    0.370838
   6 O :   -0.725882
   7 H :    0.360054
   8 H :    0.342918
   9 O :   -0.697810
  10 H :    0.371446
  11 H :    0.311661
  12 O :   -0.697905
  13 H :    0.332545
  14 H :    0.367458
  15 O :   -0.671870
  16 H :    0.360548
  17 H :    0.356958
Sum of atomic charges:   -0.0000000

LOEWDIN ATOMIC CHARGES
----------------------
   0 O :   -0.339647
   1 H :    0.154841
   2 H :    0.142337
   3 O :   -0.312935
   4 H :    0.161866
   5 H :    0.191649
   6 O :   -0.356198
   7 H :    0.147821
   8 H :    0.141150
   9 O :   -0.347483
  10 H :    0.150601
  11 H :    0.155773
  12 O :   -0.317589
  13 H :    0.161384
  14 H :    0.181948
  15 O :   -0.264592
  16 H :    0.173892
  17 H :    0.175184

  Mayer bond orders larger than 0.100000
B(  0-O ,  1-H ) :   0.8493 B(  0-O ,  2-H ) :   0.7733 B(  3-O ,  4-H ) :   0.8437
B(  3-O ,  5-H ) :   0.8222 B(  6-O ,  7-H ) :   0.8332 B(  6-O ,  8-H ) :   0.8283
B(  9-O , 10-H ) :   0.8084 B(  9-O , 11-H ) :   0.8620 B( 12-O , 13-H ) :   0.8504
B( 12-O , 14-H ) :   0.8232 B( 15-O , 16-H ) :   0.8340 B( 15-O , 17-H ) :   0.8364

MP2 TOTAL ENERGY:     -457.909645251 Eh
FINAL SINGLE POINT ENERGY      -457.909645251078

DIPOLE MOMENT
-------------
                                X             Y             Z
Electronic contribution:     -0.08461       0.01714       0.08193
Nuclear contribution   :      0.25948      -0.03250       1.54856
                        -----------------------------------------
Total Dipole Moment    :      0.17487      -0.01536       1.63048
                        -----------------------------------------
Magnitude (a.u.)       :      1.63991
Magnitude (Debye)      :      4.16831

Rotational constants in cm-1:     0.063902     0.021782     0.017544
Rotational constants in MHz :  1915.741020   653.014929   525.953117

                             ****ORCA TERMINATED NORMALLY****
TOTAL RUN TIME: 0 days 0 hours 0 minutes 54 seconds 793 msec
