                         Program Version 4.2.0 -  RELEASE  -
|  1> # 12mecn.remya.etal.2.mol4,9,10
|  2> ! MP2 def2-TZVP EnGrad TightSCF
|  3>
|  4> %pal
|  5>     nprocs 6
|  6> end
|  7>
|  8> %maxcore 8000
|  9>
| 10> %scf
| 11>     ConvForced true
| 12> end
| 13>
| 14> *xyz 0 1
| 15> C  -1.509690000  -0.693960000  -1.610140000
| 16> H  -1.327010000  -1.692700000  -2.017370000
| 17> H  -0.742170000  -0.000650000  -1.964400000
| 18> H  -2.491920000  -0.334310000  -1.929350000
| 19> C  -1.473570000  -0.748120000  -0.167200000
| 20> N  -1.447490000  -0.793720000   0.998938000
| 21> C   0.923766000   4.000693000  -1.575910000
| 22> H   0.011949000   4.478423000  -1.939550000
| 23> H   0.947903000   2.966558000  -1.929960000
| 24> H   1.805950000   4.519548000  -1.956520000
| 25> C   0.942834000   3.994846000  -0.131200000
| 26> N   0.960035000   3.982544000   1.035639000
| 27> C   4.602033000   0.321019000  -1.784800000
| 28> H   4.827650000  -0.662160000  -2.207910000
| 29> H   5.320558000   1.057980000  -2.148500000
| 30> H   3.601982000   0.643751000  -2.087520000
| 31> C   4.654967000   0.244048000  -0.343060000
| 32> N   4.691648000   0.166590000   0.820757000
| 33> *
| 34>
| 35>                          ****END OF INPUT****

CARTESIAN COORDINATES (ANGSTROEM)
---------------------------------
  C     -1.509690   -0.693960   -1.610140
  H     -1.327010   -1.692700   -2.017370
  H     -0.742170   -0.000650   -1.964400
  H     -2.491920   -0.334310   -1.929350
  C     -1.473570   -0.748120   -0.167200
  N     -1.447490   -0.793720    0.998938
  C      0.923766    4.000693   -1.575910
  H      0.011949    4.478423   -1.939550
  H      0.947903    2.966558   -1.929960
  H      1.805950    4.519548   -1.956520
  C      0.942834    3.994846   -0.131200
  N      0.960035    3.982544    1.035639
  C      4.602033    0.321019   -1.784800
  H      4.827650   -0.662160   -2.207910
  H      5.320558    1.057980   -2.148500
  H      3.601982    0.643751   -2.087520
  C      4.654967    0.244048   -0.343060
  N      4.691648    0.166590    0.820757

 Total Charge           Charge          ....    0
 Multiplicity           Mult            ....    1
 Number of Electrons    NEL             ....   66
 Basis Dimension        Dim             ....  333

ORBITAL ENERGIES
----------------

  NO   OCC          E(Eh)            E(eV)
   0   2.0000     -15.574674      -423.8084
   1   2.0000     -15.574131      -423.7936
   2   2.0000     -15.573769      -423.7838
   3   2.0000     -11.292036      -307.2719
   4   2.0000     -11.290726      -307.2363
   5   2.0000     -11.290656      -307.2344
   6   2.0000     -11.279848      -306.9403
   7   2.0000     -11.279647      -306.9348
   8   2.0000     -11.279293      -306.9252
   9   2.0000      -1.214739       -33.0547
  10   2.0000      -1.214496       -33.0481
  11   2.0000      -1.213951       -33.0333
  12   2.0000      -1.049982       -28.5715
  13   2.0000      -1.048615       -28.5343
  14   2.0000      -1.048404       -28.5285
  15   2.0000      -0.705671       -19.2023
  16   2.0000      -0.704056       -19.1583
  17   2.0000      -0.702908       -19.1271
  18   2.0000      -0.640676       -17.4337
  19   2.0000      -0.639680       -17.4066
  20   2.0000      -0.638759       -17.3815
  21   2.0000      -0.637412       -17.3448
  22   2.0000      -0.636283       -17.3141
  23   2.0000      -0.635214       -17.2851
  24   2.0000      -0.555410       -15.1135
  25   2.0000      -0.555200       -15.1078
  26   2.0000      -0.554749       -15.0955
  27   2.0000      -0.458678       -12.4813
  28   2.0000      -0.458336       -12.4720
  29   2.0000      -0.457765       -12.4564
  30   2.0000      -0.457310       -12.4441
  31   2.0000      -0.457131       -12.4392
  32   2.0000      -0.456768       -12.4293
  33   0.0000       0.072842         1.9821
  34   0.0000       0.119761         3.2589
  35   0.0000       0.130999         3.5647
  36   0.0000       0.144345         3.9278
  37   0.0000       0.163095         4.4380

MULLIKEN ATOMIC CHARGES
-----------------------
   0 C :   -0.276562
   1 H :    0.174156
   2 H :    0.154379
   3 H :    0.173796
   4 C :   -0.144966
   5 N :   -0.080756
   6 C :   -0.284047
   7 H :    0.176009
   8 H :    0.153454
   9 H :    0.174474
  10 C :   -0.142460
  11 N :   -0.077532
  12 C :   -0.278935
  13 H :    0.174673
  14 H :    0.173297
  15 H :    0.155708
  16 C :   -0.144669
  17 N :   -0.080018
Sum of atomic charges:   -0.0000000

LOEWDIN ATOMIC CHARGES
----------------------
   0 C :   -0.285759
   1 H :    0.152590
   2 H :    0.146780
   3 H :    0.152931
   4 C :   -0.222279
   5 N :    0.055747
   6 C :   -0.286630
   7 H :    0.151690
   8 H :    0.146505
   9 H :    0.151508
  10 C :   -0.221807
  11 N :    0.058683
  12 C :   -0.285946
  13 H :    0.152964
  14 H :    0.151187
  15 H :    0.147496
  16 C :   -0.221785
  17 N :    0.056122

  Mayer bond orders larger than 0.100000
B(  0-C ,  1-H ) :   0.9172 B(  0-C ,  2-H ) :   0.9209 B(  0-C ,  3-H ) :   0.9174
B(  0-C ,  4-C ) :   0.9001 B(  4-C ,  5-N ) :   2.8272 B(  6-C ,  7-H ) :   0.9167
B(  6-C ,  8-H ) :   0.9221 B(  6-C ,  9-H ) :   0.9181 B(  6-C , 10-C ) :   0.8997
B( 10-C , 11-N ) :   2.8236 B( 12-C , 13-H ) :   0.9165 B( 12-C , 14-H ) :   0.9179
B( 12-C , 15-H ) :   0.9209 B( 12-C , 16-C ) :   0.9008 B( 16-C , 17-N ) :   2.8272

MP2 TOTAL ENERGY:     -397.445096158 Eh
FINAL SINGLE POINT ENERGY      -397.445096157520

DIPOLE MOMENT
-------------
                                X             Y             Z
Electronic contribution:      0.24421      -0.29730       9.53655
Nuclear contribution   :     -0.35033       0.45452     -13.89925
                        -----------------------------------------
Total Dipole Moment    :     -0.10612       0.15723      -4.36270
                        -----------------------------------------
Magnitude (a.u.)       :      4.36682
Magnitude (Debye)      :     11.09957

Rotational constants in cm-1:     0.025262     0.017656     0.012925
Rotational constants in MHz :   757.330127   529.308785   387.483137

                             ****ORCA TERMINATED NORMALLY****
TOTAL RUN TIME: 0 days 0 hours 2 minutes 35 seconds 38 msec
