                         Program Version 4.2.0 -  RELEASE  -
|  1> # 12h2o.su.etal.mol1,3,4,8,9,11
|  2> ! MP2 def2-TZVP EnGrad TightSCF
|  3>
|  4> %pal
|  5>     nprocs 6
|  6> end
|  7>
|  8> %maxcore 8000
|  9>
| 10> %scf
| 11>     ConvForced true
| 12> end
| 13>
| 14> *xyz 0 1
| 15> O  -1.794470000  -0.923410000   2.768350000
| 16> H  -2.338250000  -1.359750000   3.430940000
| 17> H  -0.879480000  -1.303000000   2.865760000
| 18> O  -1.752130000  -0.741530000  -2.896280000
| 19> H  -2.036450000  -0.920500000  -1.984040000
| 20> H  -0.921210000  -1.242140000  -2.984230000
| 21> O  -0.885520000   1.737840000   0.052730000
| 22> H  -1.032320000   2.090180000  -0.841890000
| 23> H  -1.284090000   0.839590000   0.017130000
| 24> O   1.752130000   0.741530000  -2.896280000
| 25> H   2.036450000   0.920500000  -1.984040000
| 26> H   0.921210000   1.242140000  -2.984230000
| 27> O   0.741530000  -1.752130000   2.896280000
| 28> H   0.920500000  -2.036450000   1.984040000
| 29> H   1.242140000  -0.921210000   2.984230000
| 30> O  -0.741530000   1.752130000   2.896280000
| 31> H  -0.920500000   2.036450000   1.984040000
| 32> H  -1.242140000   0.921210000   2.984230000
| 33> *
| 34>
| 35>                          ****END OF INPUT****

CARTESIAN COORDINATES (ANGSTROEM)
---------------------------------
  O     -1.794470   -0.923410    2.768350
  H     -2.338250   -1.359750    3.430940
  H     -0.879480   -1.303000    2.865760
  O     -1.752130   -0.741530   -2.896280
  H     -2.036450   -0.920500   -1.984040
  H     -0.921210   -1.242140   -2.984230
  O     -0.885520    1.737840    0.052730
  H     -1.032320    2.090180   -0.841890
  H     -1.284090    0.839590    0.017130
  O      1.752130    0.741530   -2.896280
  H      2.036450    0.920500   -1.984040
  H      0.921210    1.242140   -2.984230
  O      0.741530   -1.752130    2.896280
  H      0.920500   -2.036450    1.984040
  H      1.242140   -0.921210    2.984230
  O     -0.741530    1.752130    2.896280
  H     -0.920500    2.036450    1.984040
  H     -1.242140    0.921210    2.984230

 Total Charge           Charge          ....    0
 Multiplicity           Mult            ....    1
 Number of Electrons    NEL             ....   60
 Basis Dimension        Dim             ....  258

ORBITAL ENERGIES
----------------

  NO   OCC          E(Eh)            E(eV)
   0   2.0000     -20.608035      -560.7731
   1   2.0000     -20.592659      -560.3547
   2   2.0000     -20.582157      -560.0690
   3   2.0000     -20.573155      -559.8240
   4   2.0000     -20.553651      -559.2933
   5   2.0000     -20.507625      -558.0408
   6   2.0000      -1.393779       -37.9267
   7   2.0000      -1.370743       -37.2998
   8   2.0000      -1.361129       -37.0382
   9   2.0000      -1.352192       -36.7950
  10   2.0000      -1.337767       -36.4025
  11   2.0000      -1.292679       -35.1756
  12   2.0000      -0.750327       -20.4174
  13   2.0000      -0.732950       -19.9446
  14   2.0000      -0.723697       -19.6928
  15   2.0000      -0.723080       -19.6760
  16   2.0000      -0.714683       -19.4475
  17   2.0000      -0.671382       -18.2692
  18   2.0000      -0.633182       -17.2298
  19   2.0000      -0.610388       -16.6095
  20   2.0000      -0.598517       -16.2865
  21   2.0000      -0.589964       -16.0537
  22   2.0000      -0.584735       -15.9114
  23   2.0000      -0.545273       -14.8376
  24   2.0000      -0.536787       -14.6067
  25   2.0000      -0.527634       -14.3577
  26   2.0000      -0.524900       -14.2833
  27   2.0000      -0.516235       -14.0475
  28   2.0000      -0.498217       -13.5572
  29   2.0000      -0.457701       -12.4547
  30   0.0000       0.071652         1.9497
  31   0.0000       0.106989         2.9113
  32   0.0000       0.127664         3.4739
  33   0.0000       0.146967         3.9992
  34   0.0000       0.161322         4.3898

MULLIKEN ATOMIC CHARGES
-----------------------
   0 O :   -0.742537
   1 H :    0.343212
   2 H :    0.377265
   3 O :   -0.677165
   4 H :    0.330439
   5 H :    0.349221
   6 O :   -0.690980
   7 H :    0.346208
   8 H :    0.342741
   9 O :   -0.678332
  10 H :    0.339844
  11 H :    0.337915
  12 O :   -0.683899
  13 H :    0.355477
  14 H :    0.373149
  15 O :   -0.733682
  16 H :    0.364083
  17 H :    0.347039
Sum of atomic charges:   -0.0000000

LOEWDIN ATOMIC CHARGES
----------------------
   0 O :   -0.342841
   1 H :    0.156596
   2 H :    0.144369
   3 O :   -0.328453
   4 H :    0.160444
   5 H :    0.170089
   6 O :   -0.315082
   7 H :    0.166683
   8 H :    0.171788
   9 O :   -0.330469
  10 H :    0.165646
  11 H :    0.163882
  12 O :   -0.269219
  13 H :    0.173564
  14 H :    0.181496
  15 O :   -0.357889
  16 H :    0.148743
  17 H :    0.140652

  Mayer bond orders larger than 0.100000
B(  0-O ,  1-H ) :   0.8476 B(  0-O ,  2-H ) :   0.7664 B(  3-O ,  4-H ) :   0.8551
B(  3-O ,  5-H ) :   0.8419 B(  6-O ,  7-H ) :   0.8425 B(  6-O ,  8-H ) :   0.8387
B(  9-O , 10-H ) :   0.8506 B(  9-O , 11-H ) :   0.8492 B( 12-O , 13-H ) :   0.8389
B( 12-O , 14-H ) :   0.8230 B( 15-O , 16-H ) :   0.8298 B( 15-O , 17-H ) :   0.8201

MP2 TOTAL ENERGY:     -457.907776530 Eh
FINAL SINGLE POINT ENERGY      -457.907776529593

DIPOLE MOMENT
-------------
                                X             Y             Z
Electronic contribution:      0.27321      -0.06533      -0.09589
Nuclear contribution   :     -0.14496      -1.13354      -0.14168
                        -----------------------------------------
Total Dipole Moment    :      0.12825      -1.19887      -0.23758
                        -----------------------------------------
Magnitude (a.u.)       :      1.22889
Magnitude (Debye)      :      3.12360

Rotational constants in cm-1:     0.045904     0.018806     0.018388
Rotational constants in MHz :  1376.179886   563.780160   551.265083

                             ****ORCA TERMINATED NORMALLY****
TOTAL RUN TIME: 0 days 0 hours 1 minutes 6 seconds 748 msec
