                         Program Version 4.2.0 -  RELEASE  -
|  1> # 12mecn.remya.etal.2.mol2,7,10
|  2> ! MP2 def2-TZVP EnGrad TightSCF
|  3>
|  4> %pal
|  5>     nprocs 6
|  6> end
|  7>
|  8> %maxcore 8000
|  9>
| 10> %scf
| 11>     ConvForced true
| 12> end
| 13>
| 14> *xyz 0 1
| 15> C  -4.219070000  -3.477410000  -1.501740000
| 16> H  -3.251530000  -3.803540000  -1.893830000
| 17> H  -4.452920000  -2.481700000  -1.890840000
| 18> H  -4.992170000  -4.178130000  -1.824640000
| 19> C  -4.154550000  -3.418790000  -0.058340000
| 20> N  -4.091140000  -3.354840000   1.104432000
| 21> C   1.502241000   0.651296000   1.710523000
| 22> H   1.309219000   1.637164000   2.143202000
| 23> H   2.493408000   0.297996000   2.009069000
| 24> H   0.746597000  -0.059850000   2.055508000
| 25> C   1.447974000   0.738517000   0.269805000
| 26> N   1.405612000   0.808047000  -0.894380000
| 27> C   4.602033000   0.321019000  -1.784800000
| 28> H   4.827650000  -0.662160000  -2.207910000
| 29> H   5.320558000   1.057980000  -2.148500000
| 30> H   3.601982000   0.643751000  -2.087520000
| 31> C   4.654967000   0.244048000  -0.343060000
| 32> N   4.691648000   0.166590000   0.820757000
| 33> *
| 34>
| 35>                          ****END OF INPUT****

CARTESIAN COORDINATES (ANGSTROEM)
---------------------------------
  C     -4.219070   -3.477410   -1.501740
  H     -3.251530   -3.803540   -1.893830
  H     -4.452920   -2.481700   -1.890840
  H     -4.992170   -4.178130   -1.824640
  C     -4.154550   -3.418790   -0.058340
  N     -4.091140   -3.354840    1.104432
  C      1.502241    0.651296    1.710523
  H      1.309219    1.637164    2.143202
  H      2.493408    0.297996    2.009069
  H      0.746597   -0.059850    2.055508
  C      1.447974    0.738517    0.269805
  N      1.405612    0.808047   -0.894380
  C      4.602033    0.321019   -1.784800
  H      4.827650   -0.662160   -2.207910
  H      5.320558    1.057980   -2.148500
  H      3.601982    0.643751   -2.087520
  C      4.654967    0.244048   -0.343060
  N      4.691648    0.166590    0.820757

 Total Charge           Charge          ....    0
 Multiplicity           Mult            ....    1
 Number of Electrons    NEL             ....   66
 Basis Dimension        Dim             ....  333

ORBITAL ENERGIES
----------------

  NO   OCC          E(Eh)            E(eV)
   0   2.0000     -15.573194      -423.7682
   1   2.0000     -15.570703      -423.7004
   2   2.0000     -15.569773      -423.6751
   3   2.0000     -11.284556      -307.0684
   4   2.0000     -11.282587      -307.0148
   5   2.0000     -11.282156      -307.0031
   6   2.0000     -11.280437      -306.9563
   7   2.0000     -11.271865      -306.7230
   8   2.0000     -11.269554      -306.6602
   9   2.0000      -1.217308       -33.1246
  10   2.0000      -1.215001       -33.0619
  11   2.0000      -1.212972       -33.0066
  12   2.0000      -1.043264       -28.3887
  13   2.0000      -1.036155       -28.1952
  14   2.0000      -1.032756       -28.1027
  15   2.0000      -0.700177       -19.0528
  16   2.0000      -0.693866       -18.8811
  17   2.0000      -0.688663       -18.7395
  18   2.0000      -0.631289       -17.1783
  19   2.0000      -0.630607       -17.1597
  20   2.0000      -0.629493       -17.1294
  21   2.0000      -0.624432       -16.9917
  22   2.0000      -0.620949       -16.8969
  23   2.0000      -0.612891       -16.6776
  24   2.0000      -0.558369       -15.1940
  25   2.0000      -0.556332       -15.1386
  26   2.0000      -0.555208       -15.1080
  27   2.0000      -0.459574       -12.5056
  28   2.0000      -0.458824       -12.4852
  29   2.0000      -0.458129       -12.4663
  30   2.0000      -0.457929       -12.4609
  31   2.0000      -0.455923       -12.4063
  32   2.0000      -0.454011       -12.3543
  33   0.0000       0.119527         3.2525
  34   0.0000       0.129416         3.5216
  35   0.0000       0.143802         3.9131
  36   0.0000       0.171233         4.6595
  37   0.0000       0.171488         4.6664

MULLIKEN ATOMIC CHARGES
-----------------------
   0 C :   -0.279414
   1 H :    0.173025
   2 H :    0.173422
   3 H :    0.171682
   4 C :   -0.145514
   5 N :   -0.093192
   6 C :   -0.284239
   7 H :    0.165995
   8 H :    0.205058
   9 H :    0.171539
  10 C :   -0.102599
  11 N :   -0.155435
  12 C :   -0.285220
  13 H :    0.165936
  14 H :    0.166258
  15 H :    0.205142
  16 C :   -0.101988
  17 N :   -0.150456
Sum of atomic charges:    0.0000000

LOEWDIN ATOMIC CHARGES
----------------------
   0 C :   -0.283491
   1 H :    0.153177
   2 H :    0.153638
   3 H :    0.150956
   4 C :   -0.218897
   5 N :    0.044620
   6 C :   -0.281212
   7 H :    0.152788
   8 H :    0.157296
   9 H :    0.153131
  10 C :   -0.208033
  11 N :    0.026026
  12 C :   -0.282357
  13 H :    0.152543
  14 H :    0.150275
  15 H :    0.157113
  16 C :   -0.207864
  17 N :    0.030290

  Mayer bond orders larger than 0.100000
B(  0-C ,  1-H ) :   0.9159 B(  0-C ,  2-H ) :   0.9159 B(  0-C ,  3-H ) :   0.9166
B(  0-C ,  4-C ) :   0.9027 B(  4-C ,  5-N ) :   2.8385 B(  6-C ,  7-H ) :   0.9140
B(  6-C ,  8-H ) :   0.9016 B(  6-C ,  9-H ) :   0.9150 B(  6-C , 10-C ) :   0.9009
B( 10-C , 11-N ) :   2.7750 B( 12-C , 13-H ) :   0.9143 B( 12-C , 14-H ) :   0.9166
B( 12-C , 15-H ) :   0.9019 B( 12-C , 16-C ) :   0.9019 B( 16-C , 17-N ) :   2.7716

MP2 TOTAL ENERGY:     -397.459888640 Eh
FINAL SINGLE POINT ENERGY      -397.459888639586

DIPOLE MOMENT
-------------
                                X             Y             Z
Electronic contribution:      0.13726       0.13353       3.14253
Nuclear contribution   :     -0.21371      -0.20515      -4.65657
                        -----------------------------------------
Total Dipole Moment    :     -0.07644      -0.07162      -1.51404
                        -----------------------------------------
Magnitude (a.u.)       :      1.51766
Magnitude (Debye)      :      3.85758

Rotational constants in cm-1:     0.066305     0.008201     0.007761
Rotational constants in MHz :  1987.786371   245.861142   232.661176

                             ****ORCA TERMINATED NORMALLY****
TOTAL RUN TIME: 0 days 0 hours 2 minutes 43 seconds 385 msec
