                         Program Version 4.2.0 -  RELEASE  -
|  1> # 12mecn.remya.etal.2.mol2,5,8
|  2> ! MP2 def2-TZVP EnGrad TightSCF
|  3>
|  4> %pal
|  5>     nprocs 6
|  6> end
|  7>
|  8> %maxcore 8000
|  9>
| 10> %scf
| 11>     ConvForced true
| 12> end
| 13>
| 14> *xyz 0 1
| 15> C  -4.219070000  -3.477410000  -1.501740000
| 16> H  -3.251530000  -3.803540000  -1.893830000
| 17> H  -4.452920000  -2.481700000  -1.890840000
| 18> H  -4.992170000  -4.178130000  -1.824640000
| 19> C  -4.154550000  -3.418790000  -0.058340000
| 20> N  -4.091140000  -3.354840000   1.104432000
| 21> C  -1.955700000   2.515080000   1.698463000
| 22> H  -2.923830000   2.883163000   2.049269000
| 23> H  -1.154850000   3.171830000   2.050990000
| 24> H  -1.790380000   1.506115000   2.087896000
| 25> C  -1.948230000   2.482156000   0.253672000
| 26> N  -1.937550000   2.462523000  -0.913150000
| 27> C   1.912641000  -2.468050000  -1.750510000
| 28> H   2.876947000  -2.793500000  -2.151200000
| 29> H   1.688016000  -1.463720000  -2.122170000
| 30> H   1.123460000  -3.154780000  -2.069590000
| 31> C   1.977850000  -2.444240000  -0.306900000
| 32> N   2.036566000  -2.426130000   0.858249000
| 33> *
| 34>
| 35>                          ****END OF INPUT****

CARTESIAN COORDINATES (ANGSTROEM)
---------------------------------
  C     -4.219070   -3.477410   -1.501740
  H     -3.251530   -3.803540   -1.893830
  H     -4.452920   -2.481700   -1.890840
  H     -4.992170   -4.178130   -1.824640
  C     -4.154550   -3.418790   -0.058340
  N     -4.091140   -3.354840    1.104432
  C     -1.955700    2.515080    1.698463
  H     -2.923830    2.883163    2.049269
  H     -1.154850    3.171830    2.050990
  H     -1.790380    1.506115    2.087896
  C     -1.948230    2.482156    0.253672
  N     -1.937550    2.462523   -0.913150
  C      1.912641   -2.468050   -1.750510
  H      2.876947   -2.793500   -2.151200
  H      1.688016   -1.463720   -2.122170
  H      1.123460   -3.154780   -2.069590
  C      1.977850   -2.444240   -0.306900
  N      2.036566   -2.426130    0.858249

 Total Charge           Charge          ....    0
 Multiplicity           Mult            ....    1
 Number of Electrons    NEL             ....   66
 Basis Dimension        Dim             ....  333

ORBITAL ENERGIES
----------------

  NO   OCC          E(Eh)            E(eV)
   0   2.0000     -15.573277      -423.7704
   1   2.0000     -15.572463      -423.7483
   2   2.0000     -15.572049      -423.7370
   3   2.0000     -11.285534      -307.0950
   4   2.0000     -11.284934      -307.0787
   5   2.0000     -11.280998      -306.9716
   6   2.0000     -11.280255      -306.9513
   7   2.0000     -11.279990      -306.9441
   8   2.0000     -11.279423      -306.9287
   9   2.0000      -1.214909       -33.0594
  10   2.0000      -1.213870       -33.0311
  11   2.0000      -1.213806       -33.0293
  12   2.0000      -1.043986       -28.4083
  13   2.0000      -1.043485       -28.3947
  14   2.0000      -1.040445       -28.3120
  15   2.0000      -0.700831       -19.0706
  16   2.0000      -0.699214       -19.0266
  17   2.0000      -0.696484       -18.9523
  18   2.0000      -0.632835       -17.2203
  19   2.0000      -0.632307       -17.2060
  20   2.0000      -0.631327       -17.1793
  21   2.0000      -0.630430       -17.1549
  22   2.0000      -0.629094       -17.1185
  23   2.0000      -0.626600       -17.0507
  24   2.0000      -0.556125       -15.1329
  25   2.0000      -0.555930       -15.1276
  26   2.0000      -0.555156       -15.1066
  27   2.0000      -0.458068       -12.4647
  28   2.0000      -0.457893       -12.4599
  29   2.0000      -0.457039       -12.4367
  30   2.0000      -0.457011       -12.4359
  31   2.0000      -0.456769       -12.4293
  32   2.0000      -0.456682       -12.4269
  33   0.0000       0.101160         2.7527
  34   0.0000       0.123554         3.3621
  35   0.0000       0.128759         3.5037
  36   0.0000       0.159686         4.3453
  37   0.0000       0.170655         4.6438

MULLIKEN ATOMIC CHARGES
-----------------------
   0 C :   -0.279638
   1 H :    0.166311
   2 H :    0.177224
   3 H :    0.172203
   4 C :   -0.144931
   5 N :   -0.091155
   6 C :   -0.278196
   7 H :    0.171045
   8 H :    0.171371
   9 H :    0.182754
  10 C :   -0.144380
  11 N :   -0.102591
  12 C :   -0.279360
  13 H :    0.172073
  14 H :    0.178137
  15 H :    0.166066
  16 C :   -0.145036
  17 N :   -0.091895
Sum of atomic charges:    0.0000000

LOEWDIN ATOMIC CHARGES
----------------------
   0 C :   -0.283951
   1 H :    0.151172
   2 H :    0.154463
   3 H :    0.151036
   4 C :   -0.219224
   5 N :    0.046508
   6 C :   -0.281944
   7 H :    0.152736
   8 H :    0.153061
   9 H :    0.156241
  10 C :   -0.218066
  11 N :    0.037973
  12 C :   -0.284010
  13 H :    0.152671
  14 H :    0.154268
  15 H :    0.150815
  16 C :   -0.219875
  17 N :    0.046126

  Mayer bond orders larger than 0.100000
B(  0-C ,  1-H ) :   0.9176 B(  0-C ,  2-H ) :   0.9153 B(  0-C ,  3-H ) :   0.9166
B(  0-C ,  4-C ) :   0.9026 B(  4-C ,  5-N ) :   2.8364 B(  6-C ,  7-H ) :   0.9157
B(  6-C ,  8-H ) :   0.9158 B(  6-C ,  9-H ) :   0.9131 B(  6-C , 10-C ) :   0.9024
B( 10-C , 11-N ) :   2.8426 B( 12-C , 13-H ) :   0.9164 B( 12-C , 14-H ) :   0.9154
B( 12-C , 15-H ) :   0.9176 B( 12-C , 16-C ) :   0.9015 B( 16-C , 17-N ) :   2.8366

MP2 TOTAL ENERGY:     -397.450998816 Eh
FINAL SINGLE POINT ENERGY      -397.450998816218

DIPOLE MOMENT
-------------
                                X             Y             Z
Electronic contribution:      0.29201       0.10722       3.16888
Nuclear contribution   :     -0.45046      -0.16802      -4.63866
                        -----------------------------------------
Total Dipole Moment    :     -0.15845      -0.06080      -1.46978
                        -----------------------------------------
Magnitude (a.u.)       :      1.47955
Magnitude (Debye)      :      3.76071

Rotational constants in cm-1:     0.017725     0.016792     0.010240
Rotational constants in MHz :   531.386132   503.401889   306.976347

                             ****ORCA TERMINATED NORMALLY****
TOTAL RUN TIME: 0 days 0 hours 2 minutes 55 seconds 271 msec
