                         Program Version 4.2.0 -  RELEASE  -
|  1> # 12h2o.su.etal.mol0,3,5,6,9
|  2> ! MP2 def2-TZVP EnGrad TightSCF
|  3>
|  4> %pal
|  5>     nprocs 6
|  6> end
|  7>
|  8> %maxcore 8000
|  9>
| 10> %scf
| 11>     ConvForced true
| 12> end
| 13>
| 14> *xyz 0 1
| 15> O   1.794470000   0.923410000   2.768350000
| 16> H   2.338250000   1.359750000   3.430940000
| 17> H   0.879480000   1.303000000   2.865760000
| 18> O  -1.752130000  -0.741530000  -2.896280000
| 19> H  -2.036450000  -0.920500000  -1.984040000
| 20> H  -0.921210000  -1.242140000  -2.984230000
| 21> O   0.885520000  -1.737840000   0.052730000
| 22> H   1.284090000  -0.839590000   0.017130000
| 23> H   1.032320000  -2.090180000  -0.841890000
| 24> O   1.737840000   0.885520000  -0.052730000
| 25> H   2.090180000   1.032320000   0.841890000
| 26> H   0.839590000   1.284090000  -0.017130000
| 27> O   0.741530000  -1.752130000   2.896280000
| 28> H   0.920500000  -2.036450000   1.984040000
| 29> H   1.242140000  -0.921210000   2.984230000
| 30> *
| 31>
| 32>                          ****END OF INPUT****

CARTESIAN COORDINATES (ANGSTROEM)
---------------------------------
  O      1.794470    0.923410    2.768350
  H      2.338250    1.359750    3.430940
  H      0.879480    1.303000    2.865760
  O     -1.752130   -0.741530   -2.896280
  H     -2.036450   -0.920500   -1.984040
  H     -0.921210   -1.242140   -2.984230
  O      0.885520   -1.737840    0.052730
  H      1.284090   -0.839590    0.017130
  H      1.032320   -2.090180   -0.841890
  O      1.737840    0.885520   -0.052730
  H      2.090180    1.032320    0.841890
  H      0.839590    1.284090   -0.017130
  O      0.741530   -1.752130    2.896280
  H      0.920500   -2.036450    1.984040
  H      1.242140   -0.921210    2.984230

 Total Charge           Charge          ....    0
 Multiplicity           Mult            ....    1
 Number of Electrons    NEL             ....   50
 Basis Dimension        Dim             ....  215

ORBITAL ENERGIES
----------------

  NO   OCC          E(Eh)            E(eV)
   0   2.0000     -20.623731      -561.2002
   1   2.0000     -20.584434      -560.1309
   2   2.0000     -20.561984      -559.5200
   3   2.0000     -20.551783      -559.2424
   4   2.0000     -20.508437      -558.0629
   5   2.0000      -1.404277       -38.2123
   6   2.0000      -1.368444       -37.2372
   7   2.0000      -1.341120       -36.4937
   8   2.0000      -1.334411       -36.3112
   9   2.0000      -1.293565       -35.1997
  10   2.0000      -0.769627       -20.9426
  11   2.0000      -0.731696       -19.9105
  12   2.0000      -0.708108       -19.2686
  13   2.0000      -0.703968       -19.1559
  14   2.0000      -0.675284       -18.3754
  15   2.0000      -0.645094       -17.5539
  16   2.0000      -0.605615       -16.4796
  17   2.0000      -0.592852       -16.1323
  18   2.0000      -0.578744       -15.7484
  19   2.0000      -0.558145       -15.1879
  20   2.0000      -0.527276       -14.3479
  21   2.0000      -0.520507       -14.1637
  22   2.0000      -0.506249       -13.7757
  23   2.0000      -0.498775       -13.5724
  24   2.0000      -0.458124       -12.4662
  25   0.0000       0.082078         2.2335
  26   0.0000       0.107708         2.9309
  27   0.0000       0.144920         3.9435
  28   0.0000       0.173028         4.7083
  29   0.0000       0.179329         4.8798

MULLIKEN ATOMIC CHARGES
-----------------------
   0 O :   -0.714602
   1 H :    0.368593
   2 H :    0.368731
   3 O :   -0.674981
   4 H :    0.341766
   5 H :    0.331627
   6 O :   -0.722763
   7 H :    0.357589
   8 H :    0.328433
   9 O :   -0.691459
  10 H :    0.379868
  11 H :    0.344566
  12 O :   -0.722761
  13 H :    0.370099
  14 H :    0.335294
Sum of atomic charges:    0.0000000

LOEWDIN ATOMIC CHARGES
----------------------
   0 O :   -0.287023
   1 H :    0.169826
   2 H :    0.191334
   3 O :   -0.331313
   4 H :    0.166480
   5 H :    0.163212
   6 O :   -0.340442
   7 H :    0.143767
   8 H :    0.157673
   9 O :   -0.294714
  10 H :    0.153027
  11 H :    0.173532
  12 O :   -0.354222
  13 H :    0.151681
  14 H :    0.137181

  Mayer bond orders larger than 0.100000
B(  0-O ,  1-H ) :   0.8294 B(  0-O ,  2-H ) :   0.8217 B(  3-O ,  4-H ) :   0.8497
B(  3-O ,  5-H ) :   0.8556 B(  6-O ,  7-H ) :   0.7766 B(  6-O ,  8-H ) :   0.8537
B(  9-O , 10-H ) :   0.8048 B(  9-O , 11-H ) :   0.8426 B( 12-O , 13-H ) :   0.8201
B( 12-O , 14-H ) :   0.8434

MP2 TOTAL ENERGY:     -381.593041664 Eh
FINAL SINGLE POINT ENERGY      -381.593041663611

DIPOLE MOMENT
-------------
                                X             Y             Z
Electronic contribution:      0.04786       0.16206      -0.03351
Nuclear contribution   :      0.71119       1.47680       0.63259
                        -----------------------------------------
Total Dipole Moment    :      0.75905       1.63886       0.59909
                        -----------------------------------------
Magnitude (a.u.)       :      1.90288
Magnitude (Debye)      :      4.83672

Rotational constants in cm-1:     0.093822     0.030842     0.025722
Rotational constants in MHz :  2812.705993   924.613396   771.113640

                             ****ORCA TERMINATED NORMALLY****
TOTAL RUN TIME: 0 days 0 hours 0 minutes 34 seconds 540 msec
