                         Program Version 4.2.0 -  RELEASE  -
|  1> # 12h2o.su.etal.mol1,2,4,6,9,10,11
|  2> ! MP2 def2-TZVP EnGrad TightSCF
|  3>
|  4> %pal
|  5>     nprocs 6
|  6> end
|  7>
|  8> %maxcore 8000
|  9>
| 10> %scf
| 11>     ConvForced true
| 12> end
| 13>
| 14> *xyz 0 1
| 15> O  -1.794470000  -0.923410000   2.768350000
| 16> H  -2.338250000  -1.359750000   3.430940000
| 17> H  -0.879480000  -1.303000000   2.865760000
| 18> O   0.923410000  -1.794470000  -2.768350000
| 19> H   1.359750000  -2.338250000  -3.430940000
| 20> H   1.303000000  -0.879480000  -2.865760000
| 21> O  -0.885520000   1.737840000   0.052730000
| 22> H  -1.032320000   2.090180000  -0.841890000
| 23> H  -1.284090000   0.839590000   0.017130000
| 24> O   1.737840000   0.885520000  -0.052730000
| 25> H   2.090180000   1.032320000   0.841890000
| 26> H   0.839590000   1.284090000  -0.017130000
| 27> O   0.741530000  -1.752130000   2.896280000
| 28> H   0.920500000  -2.036450000   1.984040000
| 29> H   1.242140000  -0.921210000   2.984230000
| 30> O  -0.923410000   1.794470000  -2.768350000
| 31> H  -1.359750000   2.338250000  -3.430940000
| 32> H  -1.303000000   0.879480000  -2.865760000
| 33> O  -0.741530000   1.752130000   2.896280000
| 34> H  -0.920500000   2.036450000   1.984040000
| 35> H  -1.242140000   0.921210000   2.984230000
| 36> *
| 37>
| 38>                          ****END OF INPUT****

CARTESIAN COORDINATES (ANGSTROEM)
---------------------------------
  O     -1.794470   -0.923410    2.768350
  H     -2.338250   -1.359750    3.430940
  H     -0.879480   -1.303000    2.865760
  O      0.923410   -1.794470   -2.768350
  H      1.359750   -2.338250   -3.430940
  H      1.303000   -0.879480   -2.865760
  O     -0.885520    1.737840    0.052730
  H     -1.032320    2.090180   -0.841890
  H     -1.284090    0.839590    0.017130
  O      1.737840    0.885520   -0.052730
  H      2.090180    1.032320    0.841890
  H      0.839590    1.284090   -0.017130
  O      0.741530   -1.752130    2.896280
  H      0.920500   -2.036450    1.984040
  H      1.242140   -0.921210    2.984230
  O     -0.923410    1.794470   -2.768350
  H     -1.359750    2.338250   -3.430940
  H     -1.303000    0.879480   -2.865760
  O     -0.741530    1.752130    2.896280
  H     -0.920500    2.036450    1.984040
  H     -1.242140    0.921210    2.984230

 Total Charge           Charge          ....    0
 Multiplicity           Mult            ....    1
 Number of Electrons    NEL             ....   70
 Basis Dimension        Dim             ....  301

ORBITAL ENERGIES
----------------

  NO   OCC          E(Eh)            E(eV)
   0   2.0000     -20.602312      -560.6174
   1   2.0000     -20.592116      -560.3400
   2   2.0000     -20.577842      -559.9516
   3   2.0000     -20.563083      -559.5499
   4   2.0000     -20.542218      -558.9822
   5   2.0000     -20.527026      -558.5688
   6   2.0000     -20.503659      -557.9329
   7   2.0000      -1.381353       -37.5885
   8   2.0000      -1.377994       -37.4971
   9   2.0000      -1.362666       -37.0800
  10   2.0000      -1.338438       -36.4208
  11   2.0000      -1.326279       -36.0899
  12   2.0000      -1.307609       -35.5819
  13   2.0000      -1.288624       -35.0652
  14   2.0000      -0.747400       -20.3378
  15   2.0000      -0.734527       -19.9875
  16   2.0000      -0.726634       -19.7727
  17   2.0000      -0.711076       -19.3494
  18   2.0000      -0.706451       -19.2235
  19   2.0000      -0.683146       -18.5893
  20   2.0000      -0.666380       -18.1331
  21   2.0000      -0.625845       -17.0301
  22   2.0000      -0.617922       -16.8145
  23   2.0000      -0.599039       -16.3007
  24   2.0000      -0.575418       -15.6579
  25   2.0000      -0.574296       -15.6274
  26   2.0000      -0.560850       -15.2615
  27   2.0000      -0.545376       -14.8404
  28   2.0000      -0.529495       -14.4083
  29   2.0000      -0.519620       -14.1396
  30   2.0000      -0.510327       -13.8867
  31   2.0000      -0.506459       -13.7815
  32   2.0000      -0.488178       -13.2840
  33   2.0000      -0.474999       -12.9254
  34   2.0000      -0.453816       -12.3490
  35   0.0000       0.089863         2.4453
  36   0.0000       0.113693         3.0937
  37   0.0000       0.136135         3.7044
  38   0.0000       0.156707         4.2642
  39   0.0000       0.167760         4.5650

MULLIKEN ATOMIC CHARGES
-----------------------
   0 O :   -0.739848
   1 H :    0.339320
   2 H :    0.379267
   3 O :   -0.696054
   4 H :    0.337658
   5 H :    0.357661
   6 O :   -0.722878
   7 H :    0.384770
   8 H :    0.355818
   9 O :   -0.720253
  10 H :    0.323704
  11 H :    0.364734
  12 O :   -0.688908
  13 H :    0.367004
  14 H :    0.364617
  15 O :   -0.699750
  16 H :    0.356264
  17 H :    0.361033
  18 O :   -0.737057
  19 H :    0.363852
  20 H :    0.349046
Sum of atomic charges:   -0.0000000

LOEWDIN ATOMIC CHARGES
----------------------
   0 O :   -0.341650
   1 H :    0.154939
   2 H :    0.145214
   3 O :   -0.343854
   4 H :    0.157647
   5 H :    0.184989
   6 O :   -0.282669
   7 H :    0.155864
   8 H :    0.176962
   9 O :   -0.361890
  10 H :    0.154862
  11 H :    0.143028
  12 O :   -0.270360
  13 H :    0.177803
  14 H :    0.176756
  15 O :   -0.309850
  16 H :    0.165713
  17 H :    0.187558
  18 O :   -0.358860
  19 H :    0.146265
  20 H :    0.141535

  Mayer bond orders larger than 0.100000
B(  0-O ,  1-H ) :   0.8495 B(  0-O ,  2-H ) :   0.7637 B(  3-O ,  4-H ) :   0.8534
B(  3-O ,  5-H ) :   0.8326 B(  6-O ,  7-H ) :   0.7948 B(  6-O ,  8-H ) :   0.8300
B(  9-O , 10-H ) :   0.8590 B(  9-O , 11-H ) :   0.7933 B( 12-O , 13-H ) :   0.8303
B( 12-O , 14-H ) :   0.8280 B( 15-O , 16-H ) :   0.8395 B( 15-O , 17-H ) :   0.8280
B( 18-O , 19-H ) :   0.8283 B( 18-O , 20-H ) :   0.8165

MP2 TOTAL ENERGY:     -534.238516995 Eh
FINAL SINGLE POINT ENERGY      -534.238516995453

DIPOLE MOMENT
-------------
                                X             Y             Z
Electronic contribution:      0.09793      -0.02412      -0.05469
Nuclear contribution   :     -0.59936      -0.67960      -2.00481
                        -----------------------------------------
Total Dipole Moment    :     -0.50143      -0.70371      -2.05949
                        -----------------------------------------
Magnitude (a.u.)       :      2.23342
Magnitude (Debye)      :      5.67690

Rotational constants in cm-1:     0.036262     0.019848     0.015928
Rotational constants in MHz :  1087.096788   595.034928   477.497805

                             ****ORCA TERMINATED NORMALLY****
TOTAL RUN TIME: 0 days 0 hours 1 minutes 33 seconds 500 msec
