                         Program Version 3.0.3 - RELEASE   -
|  1> ! BP86 Def2-SVP TightSCF Opt D3BJ
|  2>
|  3> %pal nprocs 12 end
|  4>
|  5> %scf
|  6>         maxiter 800
|  7> end
|  8>
|  9> * xyz  0  1
| 10> O  -0.05783621	-1.04237199	-0.56841322
| 11> H  0.11456881	-0.74470054	-1.46166574
| 12> H  0.49967732	-1.81292280	-0.46042258
| 13> O  0.12905323	1.34046811	0.86259881
| 14> H  0.04878069	0.49667135	0.41785709
| 15> H  -0.77313272	1.60007710	1.04940226
| 16> **                         ****END OF INPUT****
 Total Charge           Charge          ....    0
 Multiplicity           Mult            ....    1
 Number of Electrons    NEL             ....   20
Dispersion correction           -0.001912089
FINAL SINGLE POINT ENERGY      -152.733691308341
Dispersion correction            ...
Dispersion correction           -0.001881373
FINAL SINGLE POINT ENERGY      -152.735274013348
Dispersion correction            ...
Dispersion correction           -0.001883268
FINAL SINGLE POINT ENERGY      -152.735360343893
Dispersion correction            ...
FINAL SINGLE POINT ENERGY      -152.735450502673
FINAL SINGLE POINT ENERGY      -152.735485008082
FINAL SINGLE POINT ENERGY      -152.735686276401
FINAL SINGLE POINT ENERGY      -152.735824707175
FINAL SINGLE POINT ENERGY      -152.735921987925
FINAL SINGLE POINT ENERGY      -152.735990877152
FINAL SINGLE POINT ENERGY      -152.736087374688
FINAL SINGLE POINT ENERGY      -152.736245661156
FINAL SINGLE POINT ENERGY      -152.736379527677
FINAL SINGLE POINT ENERGY      -152.736457767863
Dispersion correction            ...
Dispersion correction           -0.001946264
FINAL SINGLE POINT ENERGY      -152.736474417299
Dispersion correction            ...
Dispersion correction           -0.001944983
FINAL SINGLE POINT ENERGY      -152.736475779777
Dispersion correction            ...
                    ***********************HURRAY********************

CARTESIAN COORDINATES (ANGSTROEM)
---------------------------------
  O     -0.194107   -1.114378   -0.642827
  H      0.151227   -0.694600   -1.454474
  H      0.555326   -1.666912   -0.347884
  O      0.167277    1.314379    0.814409
  H      0.021976    0.425477    0.413558
  H     -0.740588    1.573255    1.056575

 Multiplicity           Mult            ....    1
 Number of Electrons    NEL             ....   20
 Basis Dimension        Dim             ....   48

ORBITAL ENERGIES
----------------

  NO   OCC          E(Eh)            E(eV)
   0   2.0000     -18.804544      -511.6977
   1   2.0000     -18.727701      -509.6066
   2   2.0000      -0.931409       -25.3449
   3   2.0000      -0.856251       -23.2998
   4   2.0000      -0.493216       -13.4211
   5   2.0000      -0.425625       -11.5818
   6   2.0000      -0.355371        -9.6701
   7   2.0000      -0.295847        -8.0504
   8   2.0000      -0.264880        -7.2078
   9   2.0000      -0.204460        -5.5636
  10   0.0000       0.005206         0.1417
  11   0.0000       0.075932         2.0662
  12   0.0000       0.084253         2.2927
  13   0.0000       0.198707         5.4071
  14   0.0000       0.475497        12.9389

MULLIKEN ATOMIC CHARGES
-----------------------
   0 O :   -0.256746
   1 H :    0.172041
   2 H :    0.174368
   3 O :   -0.338207
   4 H :    0.104831
   5 H :    0.143713
Sum of atomic charges:   -0.0000000

LOEWDIN ATOMIC CHARGES
----------------------
   0 O :   -0.095085
   1 H :    0.090243
   2 H :    0.091896
   3 O :   -0.187519
   4 H :    0.030533
   5 H :    0.069933

  Mayer bond orders larger than 0.1
B(  0-O ,  1-H ) :   0.9892 B(  0-O ,  2-H ) :   0.9918 B(  0-O ,  4-H ) :   0.1692
B(  3-O ,  4-H ) :   0.9487 B(  3-O ,  5-H ) :   1.0085

Dispersion correction           -0.001945263
FINAL SINGLE POINT ENERGY      -152.736477918761

DIPOLE MOMENT
-------------
                                X             Y             Z
Electronic contribution:     -0.00643      -0.12168      -0.04427
Nuclear contribution   :      0.03463      -0.63491      -0.56217
                        -----------------------------------------
Total Dipole Moment    :      0.02820      -0.75659      -0.60644
                        -----------------------------------------
Magnitude (a.u.)       :      0.97005
Magnitude (Debye)      :      2.46567

                             ****ORCA TERMINATED NORMALLY****
TOTAL RUN TIME: 0 days 0 hours 12 minutes 40 seconds 726 msec
