                         Program Version 3.0.3 - RELEASE   -
|  1> ! BP86 Def2-SVP TightSCF Opt D3BJ COSMO
|  2>
|  3> %pal nprocs 12 end
|  4>
|  5> %scf
|  6>         maxiter 800
|  7> end
|  8>
|  9> %cosmo
| 10> 	SMD true
| 11>         solvent "WATER"
| 12> end
| 13>
| 14> * xyz  0  1
| 15> O  -0.05783621	-1.04237199	-0.56841322
| 16> H  0.11456881	-0.74470054	-1.46166574
| 17> H  0.49967732	-1.81292280	-0.46042258
| 18> O  0.12905323	1.34046811	0.86259881
| 19> H  0.04878069	0.49667135	0.41785709
| 20> H  -0.77313272	1.60007710	1.04940226
| 21> **                         ****END OF INPUT****
 Total Charge           Charge          ....    0
 Multiplicity           Mult            ....    1
 Number of Electrons    NEL             ....   20
Dispersion correction           -0.001912089
FINAL SINGLE POINT ENERGY      -152.753943895285
Dispersion correction            ...
Dispersion correction           -0.001902163
FINAL SINGLE POINT ENERGY      -152.756006884639
Dispersion correction            ...
Dispersion correction           -0.001922208
FINAL SINGLE POINT ENERGY      -152.756202224356
Dispersion correction            ...
FINAL SINGLE POINT ENERGY      -152.756281629277
FINAL SINGLE POINT ENERGY      -152.756323604140
FINAL SINGLE POINT ENERGY      -152.756501189640
FINAL SINGLE POINT ENERGY      -152.756660136740
FINAL SINGLE POINT ENERGY      -152.756835149550
FINAL SINGLE POINT ENERGY      -152.756944393329
FINAL SINGLE POINT ENERGY      -152.756994228042
FINAL SINGLE POINT ENERGY      -152.757177345419
FINAL SINGLE POINT ENERGY      -152.757194537814
FINAL SINGLE POINT ENERGY      -152.757189060414
FINAL SINGLE POINT ENERGY      -152.757196546162
FINAL SINGLE POINT ENERGY      -152.757218717292
FINAL SINGLE POINT ENERGY      -152.757225011467
FINAL SINGLE POINT ENERGY      -152.761026612419
Dispersion correction            ...
Dispersion correction           -0.001976327
FINAL SINGLE POINT ENERGY      -152.757225580676
Dispersion correction            ...
Dispersion correction           -0.001976148
FINAL SINGLE POINT ENERGY      -152.757226135947
Dispersion correction            ...
                    ***********************HURRAY********************

CARTESIAN COORDINATES (ANGSTROEM)
---------------------------------
  O     -0.192751   -1.048039   -0.618304
  H      0.134862   -0.731892   -1.484700
  H      0.547202   -1.608250   -0.307015
  O      0.175552    1.259186    0.870962
  H      0.041252    0.421075    0.350277
  H     -0.745006    1.545142    1.028135

 Multiplicity           Mult            ....    1
 Number of Electrons    NEL             ....   20
 Basis Dimension        Dim             ....   48

ORBITAL ENERGIES
----------------

  NO   OCC          E(Eh)            E(eV)
   0   2.0000     -18.785716      -511.1853
   1   2.0000     -18.742758      -510.0164
   2   2.0000      -0.910004       -24.7625
   3   2.0000      -0.866952       -23.5910
   4   2.0000      -0.466519       -12.6946
   5   2.0000      -0.435489       -11.8503
   6   2.0000      -0.346563        -9.4305
   7   2.0000      -0.309433        -8.4201
   8   2.0000      -0.259471        -7.0606
   9   2.0000      -0.226805        -6.1717
  10   0.0000       0.038817         1.0563
  11   0.0000       0.086775         2.3613
  12   0.0000       0.123333         3.3561
  13   0.0000       0.212971         5.7952
  14   0.0000       0.495792        13.4912

MULLIKEN ATOMIC CHARGES
-----------------------
   0 O :   -0.316935
   1 H :    0.214351
   2 H :    0.216211
   3 O :   -0.432124
   4 H :    0.130028
   5 H :    0.188469
Sum of atomic charges:   -0.0000000

LOEWDIN ATOMIC CHARGES
----------------------
   0 O :   -0.114303
   1 H :    0.115696
   2 H :    0.116853
   3 O :   -0.244675
   4 H :    0.034172
   5 H :    0.092258

  Mayer bond orders larger than 0.1
B(  0-O ,  1-H ) :   0.9708 B(  0-O ,  2-H ) :   0.9710 B(  0-O ,  4-H ) :   0.2007
B(  3-O ,  4-H ) :   0.9162 B(  3-O ,  5-H ) :   0.9897

Dispersion correction           -0.001976019
FINAL SINGLE POINT ENERGY      -152.757229122242

DIPOLE MOMENT
-------------
                                X             Y             Z
Electronic contribution:     -0.01215      -0.24556      -0.13342
Nuclear contribution   :      0.01058      -0.66274      -0.76462
                        -----------------------------------------
Total Dipole Moment    :     -0.00157      -0.90830      -0.89804
                        -----------------------------------------
Magnitude (a.u.)       :      1.27730
Magnitude (Debye)      :      3.24663

                             ****ORCA TERMINATED NORMALLY****
TOTAL RUN TIME: 0 days 0 hours 20 minutes 15 seconds 975 msec
