                         Program Version 4.2.0 -  RELEASE  -
|  1> # 12mecn.remya.etal.2.mol3,8,10
|  2> ! MP2 def2-TZVP EnGrad TightSCF
|  3>
|  4> %pal
|  5>     nprocs 6
|  6> end
|  7>
|  8> %maxcore 8000
|  9>
| 10> %scf
| 11>     ConvForced true
| 12> end
| 13>
| 14> *xyz 0 1
| 15> C  -5.181310000   2.853865000  -1.626100000
| 16> H  -5.488260000   3.811434000  -2.053310000
| 17> H  -5.857590000   2.068112000  -1.968630000
| 18> H  -4.170750000   2.611402000  -1.966640000
| 19> C  -5.187260000   2.919160000  -0.181450000
| 20> N  -5.181700000   2.970641000   0.983640000
| 21> C   1.912641000  -2.468050000  -1.750510000
| 22> H   2.876947000  -2.793500000  -2.151200000
| 23> H   1.688016000  -1.463720000  -2.122170000
| 24> H   1.123460000  -3.154780000  -2.069590000
| 25> C   1.977850000  -2.444240000  -0.306900000
| 26> N   2.036566000  -2.426130000   0.858249000
| 27> C   4.602033000   0.321019000  -1.784800000
| 28> H   4.827650000  -0.662160000  -2.207910000
| 29> H   5.320558000   1.057980000  -2.148500000
| 30> H   3.601982000   0.643751000  -2.087520000
| 31> C   4.654967000   0.244048000  -0.343060000
| 32> N   4.691648000   0.166590000   0.820757000
| 33> *
| 34>
| 35>                          ****END OF INPUT****

CARTESIAN COORDINATES (ANGSTROEM)
---------------------------------
  C     -5.181310    2.853865   -1.626100
  H     -5.488260    3.811434   -2.053310
  H     -5.857590    2.068112   -1.968630
  H     -4.170750    2.611402   -1.966640
  C     -5.187260    2.919160   -0.181450
  N     -5.181700    2.970641    0.983640
  C      1.912641   -2.468050   -1.750510
  H      2.876947   -2.793500   -2.151200
  H      1.688016   -1.463720   -2.122170
  H      1.123460   -3.154780   -2.069590
  C      1.977850   -2.444240   -0.306900
  N      2.036566   -2.426130    0.858249
  C      4.602033    0.321019   -1.784800
  H      4.827650   -0.662160   -2.207910
  H      5.320558    1.057980   -2.148500
  H      3.601982    0.643751   -2.087520
  C      4.654967    0.244048   -0.343060
  N      4.691648    0.166590    0.820757

 Total Charge           Charge          ....    0
 Multiplicity           Mult            ....    1
 Number of Electrons    NEL             ....   66
 Basis Dimension        Dim             ....  333

ORBITAL ENERGIES
----------------

  NO   OCC          E(Eh)            E(eV)
   0   2.0000     -15.573868      -423.7865
   1   2.0000     -15.572233      -423.7420
   2   2.0000     -15.572112      -423.7387
   3   2.0000     -11.291265      -307.2509
   4   2.0000     -11.290636      -307.2338
   5   2.0000     -11.286725      -307.1274
   6   2.0000     -11.280512      -306.9583
   7   2.0000     -11.276844      -306.8585
   8   2.0000     -11.276786      -306.8569
   9   2.0000      -1.215276       -33.0693
  10   2.0000      -1.212886       -33.0043
  11   2.0000      -1.211593       -32.9691
  12   2.0000      -1.049582       -28.5606
  13   2.0000      -1.046858       -28.4865
  14   2.0000      -1.045255       -28.4428
  15   2.0000      -0.704693       -19.1757
  16   2.0000      -0.702601       -19.1187
  17   2.0000      -0.701984       -19.1019
  18   2.0000      -0.644028       -17.5249
  19   2.0000      -0.640686       -17.4339
  20   2.0000      -0.635567       -17.2947
  21   2.0000      -0.634185       -17.2571
  22   2.0000      -0.631986       -17.1972
  23   2.0000      -0.630197       -17.1485
  24   2.0000      -0.556325       -15.1384
  25   2.0000      -0.554068       -15.0770
  26   2.0000      -0.551438       -15.0054
  27   2.0000      -0.463147       -12.6029
  28   2.0000      -0.458655       -12.4806
  29   2.0000      -0.458158       -12.4671
  30   2.0000      -0.457322       -12.4444
  31   2.0000      -0.454291       -12.3619
  32   2.0000      -0.447413       -12.1747
  33   0.0000       0.093989         2.5576
  34   0.0000       0.116949         3.1824
  35   0.0000       0.141556         3.8519
  36   0.0000       0.145793         3.9672
  37   0.0000       0.154820         4.2129

MULLIKEN ATOMIC CHARGES
-----------------------
   0 C :   -0.281009
   1 H :    0.172613
   2 H :    0.172088
   3 H :    0.169365
   4 C :   -0.145611
   5 N :   -0.087446
   6 C :   -0.283667
   7 H :    0.166293
   8 H :    0.161150
   9 H :    0.182102
  10 C :   -0.155401
  11 N :   -0.070491
  12 C :   -0.284121
  13 H :    0.163666
  14 H :    0.182298
  15 H :    0.164048
  16 C :   -0.154620
  17 N :   -0.071256
Sum of atomic charges:    0.0000000

LOEWDIN ATOMIC CHARGES
----------------------
   0 C :   -0.284607
   1 H :    0.151367
   2 H :    0.151340
   3 H :    0.152112
   4 C :   -0.219276
   5 N :    0.049063
   6 C :   -0.288637
   7 H :    0.149759
   8 H :    0.148118
   9 H :    0.153219
  10 C :   -0.225274
  11 N :    0.062785
  12 C :   -0.288350
  13 H :    0.149186
  14 H :    0.152400
  15 H :    0.149414
  16 C :   -0.224948
  17 N :    0.062329

  Mayer bond orders larger than 0.100000
B(  0-C ,  1-H ) :   0.9163 B(  0-C ,  2-H ) :   0.9170 B(  0-C ,  3-H ) :   0.9175
B(  0-C ,  4-C ) :   0.9030 B(  4-C ,  5-N ) :   2.8349 B(  6-C ,  7-H ) :   0.9225
B(  6-C ,  8-H ) :   0.9215 B(  6-C ,  9-H ) :   0.9113 B(  6-C , 10-C ) :   0.8974
B( 10-C , 11-N ) :   2.8249 B( 12-C , 13-H ) :   0.9203 B( 12-C , 14-H ) :   0.9115
B( 12-C , 15-H ) :   0.9232 B( 12-C , 16-C ) :   0.8981 B( 16-C , 17-N ) :   2.8251

MP2 TOTAL ENERGY:     -397.446409827 Eh
FINAL SINGLE POINT ENERGY      -397.446409827110

DIPOLE MOMENT
-------------
                                X             Y             Z
Electronic contribution:      0.24807       0.01237       9.54395
Nuclear contribution   :     -0.36433      -0.01582     -13.91745
                        -----------------------------------------
Total Dipole Moment    :     -0.11626      -0.00345      -4.37350
                        -----------------------------------------
Magnitude (a.u.)       :      4.37504
Magnitude (Debye)      :     11.12047

Rotational constants in cm-1:     0.039880     0.006446     0.006197
Rotational constants in MHz :  1195.557807   193.241248   185.770400

                             ****ORCA TERMINATED NORMALLY****
TOTAL RUN TIME: 0 days 0 hours 2 minutes 16 seconds 733 msec
