                         Program Version 4.2.0 -  RELEASE  -
|  1> # 12h2o.su.etal.mol5,6,7,8,10,11
|  2> ! MP2 def2-TZVP EnGrad TightSCF
|  3>
|  4> %pal
|  5>     nprocs 6
|  6> end
|  7>
|  8> %maxcore 8000
|  9>
| 10> %scf
| 11>     ConvForced true
| 12> end
| 13>
| 14> *xyz 0 1
| 15> O   0.885520000  -1.737840000   0.052730000
| 16> H   1.284090000  -0.839590000   0.017130000
| 17> H   1.032320000  -2.090180000  -0.841890000
| 18> O   1.737840000   0.885520000  -0.052730000
| 19> H   2.090180000   1.032320000   0.841890000
| 20> H   0.839590000   1.284090000  -0.017130000
| 21> O  -1.737840000  -0.885520000  -0.052730000
| 22> H  -2.090180000  -1.032320000   0.841890000
| 23> H  -0.839590000  -1.284090000  -0.017130000
| 24> O   1.752130000   0.741530000  -2.896280000
| 25> H   2.036450000   0.920500000  -1.984040000
| 26> H   0.921210000   1.242140000  -2.984230000
| 27> O  -0.923410000   1.794470000  -2.768350000
| 28> H  -1.359750000   2.338250000  -3.430940000
| 29> H  -1.303000000   0.879480000  -2.865760000
| 30> O  -0.741530000   1.752130000   2.896280000
| 31> H  -0.920500000   2.036450000   1.984040000
| 32> H  -1.242140000   0.921210000   2.984230000
| 33> *
| 34>
| 35>                          ****END OF INPUT****

CARTESIAN COORDINATES (ANGSTROEM)
---------------------------------
  O      0.885520   -1.737840    0.052730
  H      1.284090   -0.839590    0.017130
  H      1.032320   -2.090180   -0.841890
  O      1.737840    0.885520   -0.052730
  H      2.090180    1.032320    0.841890
  H      0.839590    1.284090   -0.017130
  O     -1.737840   -0.885520   -0.052730
  H     -2.090180   -1.032320    0.841890
  H     -0.839590   -1.284090   -0.017130
  O      1.752130    0.741530   -2.896280
  H      2.036450    0.920500   -1.984040
  H      0.921210    1.242140   -2.984230
  O     -0.923410    1.794470   -2.768350
  H     -1.359750    2.338250   -3.430940
  H     -1.303000    0.879480   -2.865760
  O     -0.741530    1.752130    2.896280
  H     -0.920500    2.036450    1.984040
  H     -1.242140    0.921210    2.984230

 Total Charge           Charge          ....    0
 Multiplicity           Mult            ....    1
 Number of Electrons    NEL             ....   60
 Basis Dimension        Dim             ....  258

ORBITAL ENERGIES
----------------

  NO   OCC          E(Eh)            E(eV)
   0   2.0000     -20.614972      -560.9619
   1   2.0000     -20.588568      -560.2434
   2   2.0000     -20.579269      -559.9904
   3   2.0000     -20.564080      -559.5771
   4   2.0000     -20.543183      -559.0084
   5   2.0000     -20.518863      -558.3466
   6   2.0000      -1.398216       -38.0474
   7   2.0000      -1.366270       -37.1781
   8   2.0000      -1.358180       -36.9580
   9   2.0000      -1.350638       -36.7527
  10   2.0000      -1.322601       -35.9898
  11   2.0000      -1.304079       -35.4858
  12   2.0000      -0.755490       -20.5579
  13   2.0000      -0.733315       -19.9545
  14   2.0000      -0.721230       -19.6257
  15   2.0000      -0.719784       -19.5863
  16   2.0000      -0.696874       -18.9629
  17   2.0000      -0.684624       -18.6296
  18   2.0000      -0.636589       -17.3225
  19   2.0000      -0.607082       -16.5195
  20   2.0000      -0.599095       -16.3022
  21   2.0000      -0.595623       -16.2077
  22   2.0000      -0.571971       -15.5641
  23   2.0000      -0.551498       -15.0070
  24   2.0000      -0.541902       -14.7459
  25   2.0000      -0.523121       -14.2349
  26   2.0000      -0.521033       -14.1780
  27   2.0000      -0.505810       -13.7638
  28   2.0000      -0.490997       -13.3607
  29   2.0000      -0.468510       -12.7488
  30   0.0000       0.079642         2.1672
  31   0.0000       0.118558         3.2261
  32   0.0000       0.131279         3.5723
  33   0.0000       0.149210         4.0602
  34   0.0000       0.170429         4.6376

MULLIKEN ATOMIC CHARGES
-----------------------
   0 O :   -0.715260
   1 H :    0.369069
   2 H :    0.356911
   3 O :   -0.712993
   4 H :    0.372872
   5 H :    0.367424
   6 O :   -0.721511
   7 H :    0.320775
   8 H :    0.357501
   9 O :   -0.723505
  10 H :    0.361149
  11 H :    0.346574
  12 O :   -0.705227
  13 H :    0.353532
  14 H :    0.371218
  15 O :   -0.672969
  16 H :    0.334840
  17 H :    0.339600
Sum of atomic charges:    0.0000000

LOEWDIN ATOMIC CHARGES
----------------------
   0 O :   -0.309546
   1 H :    0.144591
   2 H :    0.170316
   3 O :   -0.273215
   4 H :    0.178642
   5 H :    0.180454
   6 O :   -0.364796
   7 H :    0.153978
   8 H :    0.141379
   9 O :   -0.352591
  10 H :    0.146328
  11 H :    0.142525
  12 O :   -0.314636
  13 H :    0.163989
  14 H :    0.191868
  15 O :   -0.328029
  16 H :    0.161708
  17 H :    0.167035

  Mayer bond orders larger than 0.100000
B(  0-O ,  1-H ) :   0.7860 B(  0-O ,  2-H ) :   0.8371 B(  0-O ,  8-H ) :   0.1031
B(  3-O ,  4-H ) :   0.8248 B(  3-O ,  5-H ) :   0.8189 B(  6-O ,  7-H ) :   0.8613
B(  6-O ,  8-H ) :   0.7812 B(  9-O , 10-H ) :   0.8338 B(  9-O , 11-H ) :   0.8249
B( 12-O , 13-H ) :   0.8411 B( 12-O , 14-H ) :   0.8215 B( 15-O , 16-H ) :   0.8524
B( 15-O , 17-H ) :   0.8501

MP2 TOTAL ENERGY:     -457.916016300 Eh
FINAL SINGLE POINT ENERGY      -457.916016300386

DIPOLE MOMENT
-------------
                                X             Y             Z
Electronic contribution:      0.35977       0.16771       0.06757
Nuclear contribution   :     -1.24583       0.25610       0.14168
                        -----------------------------------------
Total Dipole Moment    :     -0.88606       0.42381       0.20926
                        -----------------------------------------
Magnitude (a.u.)       :      1.00424
Magnitude (Debye)      :      2.55258

Rotational constants in cm-1:     0.045926     0.027802     0.026454
Rotational constants in MHz :  1376.813700   833.492744   793.068248

                             ****ORCA TERMINATED NORMALLY****
TOTAL RUN TIME: 0 days 0 hours 0 minutes 59 seconds 778 msec
