                         Program Version 3.0.3 - RELEASE   -
|  1> ! BP86 Def2-SVP TightSCF Opt D3BJ
|  2>
|  3> %pal nprocs 12 end
|  4>
|  5> %scf
|  6>         maxiter 800
|  7> end
|  8>
|  9> * xyz  0  1
| 10>   O      1.208431   -1.399531    0.315561
| 11>   H      0.893756   -2.306868    0.143361
| 12>   H      0.475250   -1.001908    0.899762
| 13>   O     -1.161328    1.467439   -0.261324
| 14>   H     -2.011265    1.195495   -0.655802
| 15>   H     -0.478252    1.052053   -0.888497
| 16>   O      0.580328    0.137049   -1.739901
| 17>   H      1.376367    0.655740   -1.958747
| 18>   H      0.901772   -0.502767   -1.017668
| 19>   O     -0.650930   -0.181279    1.739390
| 20>   H     -0.911936    0.506996    1.035962
| 21>   H     -0.180657    0.348638    2.409988
| 22> **                         ****END OF INPUT****
 Total Charge           Charge          ....    0
 Multiplicity           Mult            ....    1
 Number of Electrons    NEL             ....   40
Dispersion correction           -0.007315835
FINAL SINGLE POINT ENERGY      -305.524736887266
Dispersion correction            ...
                    ***********************HURRAY********************

CARTESIAN COORDINATES (ANGSTROEM)
---------------------------------
  O      1.207940   -1.399164    0.315023
  H      0.893517   -2.306586    0.142832
  H      0.475050   -1.001883    0.899830
  O     -1.161193    1.466910   -0.261679
  H     -2.011260    1.195014   -0.655828
  H     -0.478020    1.051450   -0.888968
  O      0.580453    0.137264   -1.740469
  H      1.377009    0.655683   -1.958338
  H      0.901498   -0.502548   -1.017754
  O     -0.650895   -0.180892    1.740035
  H     -0.912111    0.507134    1.036657
  H     -0.180452    0.348675    2.410744

 Multiplicity           Mult            ....    1
 Number of Electrons    NEL             ....   40
 Basis Dimension        Dim             ....   96

ORBITAL ENERGIES
----------------

  NO   OCC          E(Eh)            E(eV)
   0   2.0000     -18.767100      -510.6788
   1   2.0000     -18.766988      -510.6757
   2   2.0000     -18.766949      -510.6747
   3   2.0000     -18.766507      -510.6626
   4   2.0000      -0.911168       -24.7941
   5   2.0000      -0.891688       -24.2641
   6   2.0000      -0.891435       -24.2572
   7   2.0000      -0.872338       -23.7375
   8   2.0000      -0.470429       -12.8010
   9   2.0000      -0.458579       -12.4786
  10   2.0000      -0.457586       -12.4516
  11   2.0000      -0.452106       -12.3024
  12   2.0000      -0.368200       -10.0192
  13   2.0000      -0.331970        -9.0334
  14   2.0000      -0.329507        -8.9663
  15   2.0000      -0.296848        -8.0776
  16   2.0000      -0.252463        -6.8699
  17   2.0000      -0.249512        -6.7896
  18   2.0000      -0.248737        -6.7685
  19   2.0000      -0.243267        -6.6196
  20   0.0000       0.020578         0.5600
  21   0.0000       0.057196         1.5564
  22   0.0000       0.057419         1.5624
  23   0.0000       0.076884         2.0921
  24   0.0000       0.186116         5.0645

MULLIKEN ATOMIC CHARGES
-----------------------
   0 O :   -0.314615
   1 H :    0.170281
   2 H :    0.141670
   3 O :   -0.310508
   4 H :    0.169011
   5 H :    0.145864
   6 O :   -0.318779
   7 H :    0.171231
   8 H :    0.142594
   9 O :   -0.312774
  10 H :    0.145603
  11 H :    0.170423
Sum of atomic charges:   -0.0000000

LOEWDIN ATOMIC CHARGES
----------------------
   0 O :   -0.115080
   1 H :    0.081252
   2 H :    0.030349
   3 O :   -0.111250
   4 H :    0.081935
   5 H :    0.031818
   6 O :   -0.115207
   7 H :    0.081692
   8 H :    0.031516
   9 O :   -0.111298
  10 H :    0.032230
  11 H :    0.082044

  Mayer bond orders larger than 0.1
B(  0-O ,  1-H ) :   0.9910 B(  0-O ,  2-H ) :   0.8452 B(  0-O ,  8-H ) :   0.2560
B(  2-H ,  9-O ) :   0.2572 B(  3-O ,  4-H ) :   0.9916 B(  3-O ,  5-H ) :   0.8519
B(  3-O , 10-H ) :   0.2549 B(  5-H ,  6-O ) :   0.2498 B(  6-O ,  7-H ) :   0.9902
B(  6-O ,  8-H ) :   0.8469 B(  9-O , 10-H ) :   0.8468 B(  9-O , 11-H ) :   0.9906

Dispersion correction           -0.007315655
FINAL SINGLE POINT ENERGY      -305.524739938027

DIPOLE MOMENT
-------------
                                X             Y             Z
Electronic contribution:     -0.02687       0.02618       0.03359
Nuclear contribution   :      0.09374      -0.08432      -0.11374
                        -----------------------------------------
Total Dipole Moment    :      0.06687      -0.05813      -0.08015
                        -----------------------------------------
Magnitude (a.u.)       :      0.11948
Magnitude (Debye)      :      0.30369

                             ****ORCA TERMINATED NORMALLY****
TOTAL RUN TIME: 0 days 0 hours 1 minutes 36 seconds 399 msec
