                         Program Version 4.2.0 -  RELEASE  -
|  1> # 12meoh.boyd.etal.mol0,8
|  2> ! MP2 def2-TZVP EnGrad TightSCF
|  3>
|  4> %pal
|  5>     nprocs 6
|  6> end
|  7>
|  8> %maxcore 8000
|  9>
| 10> %scf
| 11>     ConvForced true
| 12> end
| 13>
| 14> *xyz 0 1
| 15> O  -1.776108874  -2.741384797  -1.019308298
| 16> H  -2.520094035  -2.452295987  -0.420778302
| 17> C  -2.174025166  -3.952700964  -1.647004581
| 18> H  -1.359803895  -4.272673416  -2.304149236
| 19> H  -3.075973971  -3.808692420  -2.256751112
| 20> H  -2.370225393  -4.752784761  -0.918966137
| 21> O   3.570084754   2.361662577  -0.202416728
| 22> H   3.393280933   1.755669977   0.560634073
| 23> C   4.368082883   1.644741793  -1.143112807
| 24> H   4.552851717   2.311801738  -1.989632421
| 25> H   3.862427494   0.740851663  -1.508095690
| 26> H   5.333949674   1.357289092  -0.706288100
| 27> *
| 28>
| 29>                          ****END OF INPUT****

CARTESIAN COORDINATES (ANGSTROEM)
---------------------------------
  O     -1.776109   -2.741385   -1.019308
  H     -2.520094   -2.452296   -0.420778
  C     -2.174025   -3.952701   -1.647005
  H     -1.359804   -4.272673   -2.304149
  H     -3.075974   -3.808692   -2.256751
  H     -2.370225   -4.752785   -0.918966
  O      3.570085    2.361663   -0.202417
  H      3.393281    1.755670    0.560634
  C      4.368083    1.644742   -1.143113
  H      4.552852    2.311802   -1.989632
  H      3.862427    0.740852   -1.508096
  H      5.333950    1.357289   -0.706288

 Total Charge           Charge          ....    0
 Multiplicity           Mult            ....    1
 Number of Electrons    NEL             ....   36
 Basis Dimension        Dim             ....  172

ORBITAL ENERGIES
----------------

  NO   OCC          E(Eh)            E(eV)
   0   2.0000     -20.559174      -559.4436
   1   2.0000     -20.553523      -559.2898
   2   2.0000     -11.272571      -306.7422
   3   2.0000     -11.268287      -306.6257
   4   2.0000      -1.348286       -36.6887
   5   2.0000      -1.343015       -36.5453
   6   2.0000      -0.920163       -25.0389
   7   2.0000      -0.916364       -24.9355
   8   2.0000      -0.682708       -18.5774
   9   2.0000      -0.678217       -18.4552
  10   2.0000      -0.618362       -16.8265
  11   2.0000      -0.613424       -16.6921
  12   2.0000      -0.592351       -16.1187
  13   2.0000      -0.586108       -15.9488
  14   2.0000      -0.501404       -13.6439
  15   2.0000      -0.498063       -13.5530
  16   2.0000      -0.450074       -12.2471
  17   2.0000      -0.446134       -12.1399
  18   0.0000       0.133684         3.6377
  19   0.0000       0.139112         3.7854
  20   0.0000       0.174843         4.7577
  21   0.0000       0.179746         4.8911
  22   0.0000       0.228317         6.2128

MULLIKEN ATOMIC CHARGES
-----------------------
   0 O :   -0.496063
   1 H :    0.321917
   2 C :   -0.173377
   3 H :    0.128913
   4 H :    0.109736
   5 H :    0.108875
   6 O :   -0.496421
   7 H :    0.320884
   8 C :   -0.174758
   9 H :    0.128630
  10 H :    0.113222
  11 H :    0.108442
Sum of atomic charges:    0.0000000

LOEWDIN ATOMIC CHARGES
----------------------
   0 O :   -0.109078
   1 H :    0.192621
   2 C :   -0.384333
   3 H :    0.110334
   4 H :    0.095335
   5 H :    0.095121
   6 O :   -0.110162
   7 H :    0.187754
   8 C :   -0.379008
   9 H :    0.110129
  10 H :    0.096249
  11 H :    0.095038

  Mayer bond orders larger than 0.100000
B(  0-O ,  1-H ) :   0.8416 B(  0-O ,  2-C ) :   0.9268 B(  2-C ,  3-H ) :   0.9375
B(  2-C ,  4-H ) :   0.9398 B(  2-C ,  5-H ) :   0.9381 B(  6-O ,  7-H ) :   0.8439
B(  6-O ,  8-C ) :   0.9252 B(  8-C ,  9-H ) :   0.9379 B(  8-C , 10-H ) :   0.9381
B(  8-C , 11-H ) :   0.9392

MP2 TOTAL ENERGY:     -231.013479363 Eh
FINAL SINGLE POINT ENERGY      -231.013479363485

DIPOLE MOMENT
-------------
                                X             Y             Z
Electronic contribution:     -0.36847       2.52621       1.79603
Nuclear contribution   :     -0.04002      -3.50782      -1.60228
                        -----------------------------------------
Total Dipole Moment    :     -0.40849      -0.98161       0.19376
                        -----------------------------------------
Magnitude (a.u.)       :      1.08073
Magnitude (Debye)      :      2.74699

Rotational constants in cm-1:     0.533350     0.016103     0.015744
Rotational constants in MHz : 15989.430974   482.759758   471.981445

                             ****ORCA TERMINATED NORMALLY****
TOTAL RUN TIME: 0 days 0 hours 0 minutes 15 seconds 562 msec
