                         Program Version 4.2.0 -  RELEASE  -
|  1> # 12mecn.remya.etal.2.mol3,6,9
|  2> ! MP2 def2-TZVP EnGrad TightSCF
|  3>
|  4> %pal
|  5>     nprocs 6
|  6> end
|  7>
|  8> %maxcore 8000
|  9>
| 10> %scf
| 11>     ConvForced true
| 12> end
| 13>
| 14> *xyz 0 1
| 15> C  -5.181310000   2.853865000  -1.626100000
| 16> H  -5.488260000   3.811434000  -2.053310000
| 17> H  -5.857590000   2.068112000  -1.968630000
| 18> H  -4.170750000   2.611402000  -1.966640000
| 19> C  -5.187260000   2.919160000  -0.181450000
| 20> N  -5.181700000   2.970641000   0.983640000
| 21> C   5.300864000  -2.920090000   1.401103000
| 22> H   5.986071000  -2.139770000   1.737487000
| 23> H   5.636642000  -3.888750000   1.778233000
| 24> H   4.307359000  -2.697240000   1.799307000
| 25> C   5.234791000  -2.933140000  -0.043290000
| 26> N   5.170868000  -2.941760000  -1.207750000
| 27> C   0.923766000   4.000693000  -1.575910000
| 28> H   0.011949000   4.478423000  -1.939550000
| 29> H   0.947903000   2.966558000  -1.929960000
| 30> H   1.805950000   4.519548000  -1.956520000
| 31> C   0.942834000   3.994846000  -0.131200000
| 32> N   0.960035000   3.982544000   1.035639000
| 33> *
| 34>
| 35>                          ****END OF INPUT****

CARTESIAN COORDINATES (ANGSTROEM)
---------------------------------
  C     -5.181310    2.853865   -1.626100
  H     -5.488260    3.811434   -2.053310
  H     -5.857590    2.068112   -1.968630
  H     -4.170750    2.611402   -1.966640
  C     -5.187260    2.919160   -0.181450
  N     -5.181700    2.970641    0.983640
  C      5.300864   -2.920090    1.401103
  H      5.986071   -2.139770    1.737487
  H      5.636642   -3.888750    1.778233
  H      4.307359   -2.697240    1.799307
  C      5.234791   -2.933140   -0.043290
  N      5.170868   -2.941760   -1.207750
  C      0.923766    4.000693   -1.575910
  H      0.011949    4.478423   -1.939550
  H      0.947903    2.966558   -1.929960
  H      1.805950    4.519548   -1.956520
  C      0.942834    3.994846   -0.131200
  N      0.960035    3.982544    1.035639

 Total Charge           Charge          ....    0
 Multiplicity           Mult            ....    1
 Number of Electrons    NEL             ....   66
 Basis Dimension        Dim             ....  333

ORBITAL ENERGIES
----------------

  NO   OCC          E(Eh)            E(eV)
   0   2.0000     -15.573729      -423.7827
   1   2.0000     -15.573517      -423.7770
   2   2.0000     -15.573413      -423.7741
   3   2.0000     -11.287074      -307.1369
   4   2.0000     -11.286027      -307.1084
   5   2.0000     -11.284066      -307.0550
   6   2.0000     -11.280804      -306.9663
   7   2.0000     -11.280189      -306.9496
   8   2.0000     -11.280054      -306.9459
   9   2.0000      -1.215337       -33.0710
  10   2.0000      -1.215029       -33.0626
  11   2.0000      -1.214370       -33.0447
  12   2.0000      -1.045461       -28.4484
  13   2.0000      -1.045344       -28.4453
  14   2.0000      -1.043425       -28.3930
  15   2.0000      -0.702740       -19.1225
  16   2.0000      -0.701415       -19.0865
  17   2.0000      -0.700860       -19.0714
  18   2.0000      -0.635445       -17.2913
  19   2.0000      -0.634458       -17.2645
  20   2.0000      -0.632327       -17.2065
  21   2.0000      -0.632225       -17.2037
  22   2.0000      -0.631305       -17.1787
  23   2.0000      -0.629424       -17.1275
  24   2.0000      -0.556755       -15.1501
  25   2.0000      -0.556005       -15.1297
  26   2.0000      -0.555716       -15.1218
  27   2.0000      -0.458678       -12.4813
  28   2.0000      -0.458439       -12.4747
  29   2.0000      -0.458051       -12.4642
  30   2.0000      -0.458014       -12.4632
  31   2.0000      -0.457800       -12.4574
  32   2.0000      -0.457158       -12.4399
  33   0.0000       0.103237         2.8092
  34   0.0000       0.120191         3.2706
  35   0.0000       0.126575         3.4443
  36   0.0000       0.165684         4.5085
  37   0.0000       0.169828         4.6213

MULLIKEN ATOMIC CHARGES
-----------------------
   0 C :   -0.281219
   1 H :    0.172447
   2 H :    0.173273
   3 H :    0.167074
   4 C :   -0.145477
   5 N :   -0.086091
   6 C :   -0.280008
   7 H :    0.172899
   8 H :    0.172210
   9 H :    0.174196
  10 C :   -0.145738
  11 N :   -0.093559
  12 C :   -0.280839
  13 H :    0.168134
  14 H :    0.173322
  15 H :    0.173453
  16 C :   -0.144834
  17 N :   -0.089242
Sum of atomic charges:    0.0000000

LOEWDIN ATOMIC CHARGES
----------------------
   0 C :   -0.284834
   1 H :    0.151120
   2 H :    0.151772
   3 H :    0.151368
   4 C :   -0.219633
   5 N :    0.050209
   6 C :   -0.283163
   7 H :    0.152016
   8 H :    0.151472
   9 H :    0.153892
  10 C :   -0.218472
  11 N :    0.044254
  12 C :   -0.284278
  13 H :    0.150049
  14 H :    0.153445
  15 H :    0.152333
  16 C :   -0.219879
  17 N :    0.048329

  Mayer bond orders larger than 0.100000
B(  0-C ,  1-H ) :   0.9167 B(  0-C ,  2-H ) :   0.9168 B(  0-C ,  3-H ) :   0.9183
B(  0-C ,  4-C ) :   0.9023 B(  4-C ,  5-N ) :   2.8338 B(  6-C ,  7-H ) :   0.9164
B(  6-C ,  8-H ) :   0.9161 B(  6-C ,  9-H ) :   0.9161 B(  6-C , 10-C ) :   0.9025
B( 10-C , 11-N ) :   2.8391 B( 12-C , 13-H ) :   0.9177 B( 12-C , 14-H ) :   0.9172
B( 12-C , 15-H ) :   0.9161 B( 12-C , 16-C ) :   0.9011 B( 16-C , 17-N ) :   2.8348

MP2 TOTAL ENERGY:     -397.449099074 Eh
FINAL SINGLE POINT ENERGY      -397.449099074081

DIPOLE MOMENT
-------------
                                X             Y             Z
Electronic contribution:     -0.12085       0.12563       3.16994
Nuclear contribution   :      0.17658      -0.17593      -4.64453
                        -----------------------------------------
Total Dipole Moment    :      0.05573      -0.05031      -1.47459
                        -----------------------------------------
Magnitude (a.u.)       :      1.47650
Magnitude (Debye)      :      3.75298

Rotational constants in cm-1:     0.028958     0.005367     0.004950
Rotational constants in MHz :   868.131740   160.900660   148.395003

                             ****ORCA TERMINATED NORMALLY****
TOTAL RUN TIME: 0 days 0 hours 2 minutes 31 seconds 375 msec
