                         Program Version 4.2.0 -  RELEASE  -
|  1> # 12mecn.remya.etal.2.mol2,10
|  2> ! MP2 def2-TZVP EnGrad TightSCF
|  3>
|  4> %pal
|  5>     nprocs 6
|  6> end
|  7>
|  8> %maxcore 8000
|  9>
| 10> %scf
| 11>     ConvForced true
| 12> end
| 13>
| 14> *xyz 0 1
| 15> C  -4.219070000  -3.477410000  -1.501740000
| 16> H  -3.251530000  -3.803540000  -1.893830000
| 17> H  -4.452920000  -2.481700000  -1.890840000
| 18> H  -4.992170000  -4.178130000  -1.824640000
| 19> C  -4.154550000  -3.418790000  -0.058340000
| 20> N  -4.091140000  -3.354840000   1.104432000
| 21> C   4.602033000   0.321019000  -1.784800000
| 22> H   4.827650000  -0.662160000  -2.207910000
| 23> H   5.320558000   1.057980000  -2.148500000
| 24> H   3.601982000   0.643751000  -2.087520000
| 25> C   4.654967000   0.244048000  -0.343060000
| 26> N   4.691648000   0.166590000   0.820757000
| 27> *
| 28>
| 29>                          ****END OF INPUT****

CARTESIAN COORDINATES (ANGSTROEM)
---------------------------------
  C     -4.219070   -3.477410   -1.501740
  H     -3.251530   -3.803540   -1.893830
  H     -4.452920   -2.481700   -1.890840
  H     -4.992170   -4.178130   -1.824640
  C     -4.154550   -3.418790   -0.058340
  N     -4.091140   -3.354840    1.104432
  C      4.602033    0.321019   -1.784800
  H      4.827650   -0.662160   -2.207910
  H      5.320558    1.057980   -2.148500
  H      3.601982    0.643751   -2.087520
  C      4.654967    0.244048   -0.343060
  N      4.691648    0.166590    0.820757

 Total Charge           Charge          ....    0
 Multiplicity           Mult            ....    1
 Number of Electrons    NEL             ....   44
 Basis Dimension        Dim             ....  222

ORBITAL ENERGIES
----------------

  NO   OCC          E(Eh)            E(eV)
   0   2.0000     -15.573340      -423.7721
   1   2.0000     -15.573308      -423.7713
   2   2.0000     -11.286048      -307.1090
   3   2.0000     -11.285799      -307.1022
   4   2.0000     -11.280131      -306.9480
   5   2.0000     -11.280069      -306.9463
   6   2.0000      -1.214888       -33.0588
   7   2.0000      -1.214440       -33.0466
   8   2.0000      -1.044902       -28.4332
   9   2.0000      -1.044384       -28.4191
  10   2.0000      -0.701182       -19.0801
  11   2.0000      -0.700654       -19.0658
  12   2.0000      -0.635178       -17.2841
  13   2.0000      -0.632703       -17.2167
  14   2.0000      -0.631958       -17.1965
  15   2.0000      -0.630761       -17.1639
  16   2.0000      -0.555950       -15.1282
  17   2.0000      -0.555734       -15.1223
  18   2.0000      -0.458040       -12.4639
  19   2.0000      -0.457888       -12.4598
  20   2.0000      -0.457838       -12.4584
  21   2.0000      -0.457263       -12.4428
  22   0.0000       0.118057         3.2125
  23   0.0000       0.118137         3.2147
  24   0.0000       0.170588         4.6419
  25   0.0000       0.170655         4.6437
  26   0.0000       0.170709         4.6452

MULLIKEN ATOMIC CHARGES
-----------------------
   0 C :   -0.280779
   1 H :    0.171350
   2 H :    0.171840
   3 H :    0.172349
   4 C :   -0.145755
   5 N :   -0.089006
   6 C :   -0.279179
   7 H :    0.171983
   8 H :    0.172132
   9 H :    0.171102
  10 C :   -0.145824
  11 N :   -0.090213
Sum of atomic charges:   -0.0000000

LOEWDIN ATOMIC CHARGES
----------------------
   0 C :   -0.284407
   1 H :    0.152371
   2 H :    0.152850
   3 H :    0.151045
   4 C :   -0.219657
   5 N :    0.047798
   6 C :   -0.284080
   7 H :    0.152740
   8 H :    0.151446
   9 H :    0.152699
  10 C :   -0.220155
  11 N :    0.047350

  Mayer bond orders larger than 0.100000
B(  0-C ,  1-H ) :   0.9168 B(  0-C ,  2-H ) :   0.9167 B(  0-C ,  3-H ) :   0.9166
B(  0-C ,  4-C ) :   0.9023 B(  4-C ,  5-N ) :   2.8359 B(  6-C ,  7-H ) :   0.9161
B(  6-C ,  8-H ) :   0.9170 B(  6-C ,  9-H ) :   0.9170 B(  6-C , 10-C ) :   0.9016
B( 10-C , 11-N ) :   2.8357

MP2 TOTAL ENERGY:     -264.965818885 Eh
FINAL SINGLE POINT ENERGY      -264.965818885460

DIPOLE MOMENT
-------------
                                X             Y             Z
Electronic contribution:      0.25959      -0.06101       6.23417
Nuclear contribution   :     -0.38785       0.08505      -9.27245
                        -----------------------------------------
Total Dipole Moment    :     -0.12826       0.02404      -3.03828
                        -----------------------------------------
Magnitude (a.u.)       :      3.04108
Magnitude (Debye)      :      7.72981

Rotational constants in cm-1:     0.154281     0.008989     0.008523
Rotational constants in MHz :  4625.233388   269.468476   255.524598

                             ****ORCA TERMINATED NORMALLY****
TOTAL RUN TIME: 0 days 0 hours 0 minutes 33 seconds 455 msec
