                         Program Version 3.0.3 - RELEASE   -
|  1> ! BP86 Def2-SVP TightSCF Opt D3BJ COSMO
|  2>
|  3> %pal nprocs 12 end
|  4>
|  5> %scf
|  6>         maxiter 800
|  7> end
|  8>
|  9> %cosmo
| 10> 	SMD true
| 11>         solvent "WATER"
| 12> end
| 13>
| 14> * xyz  0  1
| 15>   O      1.867911   -0.281618   -0.361414
| 16>   H      2.613905   -0.185777   -0.953478
| 17>   H      1.111748   -0.373568   -0.941065
| 18>   O     -0.417740   -0.452165   -1.836270
| 19>   H     -0.929509   -1.104664   -2.314359
| 20>   H     -1.000721   -0.154626   -1.137817
| 21>   O     -1.867923    0.281029    0.361768
| 22>   H     -1.111683    0.373431    0.941247
| 23>   H     -2.613590    0.183669    0.953996
| 24>   O      0.417806    0.452767    1.836284
| 25>   H      1.000769    0.154691    1.138046
| 26>   H      0.928997    1.106824    2.312860
| 27> **                         ****END OF INPUT****
 Total Charge           Charge          ....    0
 Multiplicity           Mult            ....    1
 Number of Electrons    NEL             ....   40
Dispersion correction           -0.006702517
FINAL SINGLE POINT ENERGY      -305.525111679619
Dispersion correction            ...
Dispersion correction           -0.006599260
FINAL SINGLE POINT ENERGY      -305.530906573899
Dispersion correction            ...
Dispersion correction           -0.006697156
FINAL SINGLE POINT ENERGY      -305.531736609057
Dispersion correction            ...
FINAL SINGLE POINT ENERGY      -305.538563371935
FINAL SINGLE POINT ENERGY      -305.533162646543
FINAL SINGLE POINT ENERGY      -305.533776958177
FINAL SINGLE POINT ENERGY      -305.534705509573
FINAL SINGLE POINT ENERGY      -305.535350462055
FINAL SINGLE POINT ENERGY      -305.535869207707
FINAL SINGLE POINT ENERGY      -305.536314118964
FINAL SINGLE POINT ENERGY      -305.545773191574
FINAL SINGLE POINT ENERGY      -305.545996021741
FINAL SINGLE POINT ENERGY      -305.546323816388
FINAL SINGLE POINT ENERGY      -305.546435392036
FINAL SINGLE POINT ENERGY      -305.546468021681
FINAL SINGLE POINT ENERGY      -305.546487705168
FINAL SINGLE POINT ENERGY      -305.546598892563
Dispersion correction            ...
Dispersion correction           -0.007428824
FINAL SINGLE POINT ENERGY      -305.546615201963
Dispersion correction            ...
Dispersion correction           -0.007430813
FINAL SINGLE POINT ENERGY      -305.546619156383
Dispersion correction            ...
                    ***********************HURRAY********************

CARTESIAN COORDINATES (ANGSTROEM)
---------------------------------
  O      1.744082   -0.595891   -0.374912
  H      2.318017    0.157298   -0.621374
  H      0.937967   -0.473602   -0.982694
  O     -0.476056   -0.265192   -1.795583
  H     -0.791044   -1.184464   -1.907292
  H     -1.034207    0.075177   -1.017178
  O     -1.743522    0.595862    0.374372
  H     -0.937873    0.473649    0.982601
  H     -2.319110   -0.155246    0.623313
  O      0.476681    0.264358    1.795533
  H      1.033643   -0.075716    1.016073
  H      0.791391    1.183760    1.906940

 Multiplicity           Mult            ....    1
 Number of Electrons    NEL             ....   40
 Basis Dimension        Dim             ....   96

ORBITAL ENERGIES
----------------

  NO   OCC          E(Eh)            E(eV)
   0   2.0000     -18.768667      -510.7214
   1   2.0000     -18.768599      -510.7195
   2   2.0000     -18.768488      -510.7165
   3   2.0000     -18.768414      -510.7145
   4   2.0000      -0.911043       -24.7908
   5   2.0000      -0.891327       -24.2542
   6   2.0000      -0.890976       -24.2447
   7   2.0000      -0.871626       -23.7182
   8   2.0000      -0.464568       -12.6415
   9   2.0000      -0.457063       -12.4373
  10   2.0000      -0.451851       -12.2955
  11   2.0000      -0.451425       -12.2839
  12   2.0000      -0.361638        -9.8407
  13   2.0000      -0.340759        -9.2725
  14   2.0000      -0.330726        -8.9995
  15   2.0000      -0.315399        -8.5824
  16   2.0000      -0.256237        -6.9726
  17   2.0000      -0.255728        -6.9587
  18   2.0000      -0.253202        -6.8900
  19   2.0000      -0.246326        -6.7029
  20   0.0000       0.031634         0.8608
  21   0.0000       0.071784         1.9533
  22   0.0000       0.081220         2.2101
  23   0.0000       0.107951         2.9375
  24   0.0000       0.180645         4.9156

MULLIKEN ATOMIC CHARGES
-----------------------
   0 O :   -0.355192
   1 H :    0.208905
   2 H :    0.144812
   3 O :   -0.354053
   4 H :    0.208498
   5 H :    0.147294
   6 O :   -0.355116
   7 H :    0.144637
   8 H :    0.208906
   9 O :   -0.354150
  10 H :    0.146949
  11 H :    0.208512
Sum of atomic charges:   -0.0000000

LOEWDIN ATOMIC CHARGES
----------------------
   0 O :   -0.138192
   1 H :    0.104593
   2 H :    0.033409
   3 O :   -0.136152
   4 H :    0.104188
   5 H :    0.032275
   6 O :   -0.138082
   7 H :    0.033431
   8 H :    0.104607
   9 O :   -0.136381
  10 H :    0.032127
  11 H :    0.104176

  Mayer bond orders larger than 0.1
B(  0-O ,  1-H ) :   0.9725 B(  0-O ,  2-H ) :   0.8468 B(  0-O , 10-H ) :   0.2561
B(  2-H ,  3-O ) :   0.2572 B(  3-O ,  4-H ) :   0.9735 B(  3-O ,  5-H ) :   0.8483
B(  5-H ,  6-O ) :   0.2557 B(  6-O ,  7-H ) :   0.8470 B(  6-O ,  8-H ) :   0.9725
B(  7-H ,  9-O ) :   0.2570 B(  9-O , 10-H ) :   0.8482 B(  9-O , 11-H ) :   0.9735

Dispersion correction           -0.007432508
FINAL SINGLE POINT ENERGY      -305.546617197997

DIPOLE MOMENT
-------------
                                X             Y             Z
Electronic contribution:     -0.00022       0.00005      -0.00094
Nuclear contribution   :     -0.00298       0.00215       0.00131
                        -----------------------------------------
Total Dipole Moment    :     -0.00321       0.00220       0.00036
                        -----------------------------------------
Magnitude (a.u.)       :      0.00391
Magnitude (Debye)      :      0.00994

                             ****ORCA TERMINATED NORMALLY****
TOTAL RUN TIME: 0 days 0 hours 26 minutes 35 seconds 19 msec
