                         Program Version 3.0.3 - RELEASE   -
|  1> ! BP86 Def2-SVP TightSCF Opt D3BJ
|  2>
|  3> %pal nprocs 12 end
|  4>
|  5> %scf
|  6>         maxiter 800
|  7> end
|  8>
|  9> * xyz  0  1
| 10>   O      1.867911   -0.281618   -0.361414
| 11>   H      2.613905   -0.185777   -0.953478
| 12>   H      1.111748   -0.373568   -0.941065
| 13>   O     -0.417740   -0.452165   -1.836270
| 14>   H     -0.929509   -1.104664   -2.314359
| 15>   H     -1.000721   -0.154626   -1.137817
| 16>   O     -1.867923    0.281029    0.361768
| 17>   H     -1.111683    0.373431    0.941247
| 18>   H     -2.613590    0.183669    0.953996
| 19>   O      0.417806    0.452767    1.836284
| 20>   H      1.000769    0.154691    1.138046
| 21>   H      0.928997    1.106824    2.312860
| 22> **                         ****END OF INPUT****
 Total Charge           Charge          ....    0
 Multiplicity           Mult            ....    1
 Number of Electrons    NEL             ....   40
Dispersion correction           -0.006702517
FINAL SINGLE POINT ENERGY      -305.504633855777
Dispersion correction            ...
Dispersion correction           -0.006623722
FINAL SINGLE POINT ENERGY      -305.510239059997
Dispersion correction            ...
Dispersion correction           -0.006746472
FINAL SINGLE POINT ENERGY      -305.511515122325
Dispersion correction            ...
FINAL SINGLE POINT ENERGY      -305.512725521943
FINAL SINGLE POINT ENERGY      -305.513360825152
FINAL SINGLE POINT ENERGY      -305.513894897997
FINAL SINGLE POINT ENERGY      -305.514629499061
FINAL SINGLE POINT ENERGY      -305.515029989597
FINAL SINGLE POINT ENERGY      -305.515376045486
FINAL SINGLE POINT ENERGY      -305.515742794425
FINAL SINGLE POINT ENERGY      -305.522557766143
FINAL SINGLE POINT ENERGY      -305.522605152941
FINAL SINGLE POINT ENERGY      -305.522657839567
FINAL SINGLE POINT ENERGY      -305.522698476788
FINAL SINGLE POINT ENERGY      -305.522760934231
FINAL SINGLE POINT ENERGY      -305.522830188772
FINAL SINGLE POINT ENERGY      -305.522881025218
Dispersion correction            ...
Dispersion correction           -0.007324237
FINAL SINGLE POINT ENERGY      -305.522899328380
Dispersion correction            ...
Dispersion correction           -0.007324928
FINAL SINGLE POINT ENERGY      -305.522905293557
Dispersion correction            ...
                    ***********************HURRAY********************

CARTESIAN COORDINATES (ANGSTROEM)
---------------------------------
  O      1.742989   -0.547808   -0.356012
  H      2.381645    0.102124   -0.703683
  H      0.949081   -0.458314   -0.986364
  O     -0.454856   -0.283420   -1.800847
  H     -0.788266   -1.184648   -1.966945
  H     -1.047046    0.057965   -1.048242
  O     -1.743420    0.547024    0.356353
  H     -0.949224    0.458284    0.986451
  H     -2.381244   -0.103691    0.704094
  O      0.454921    0.284485    1.800779
  H      1.046780   -0.057795    1.048325
  H      0.788610    1.185788    1.965889

 Multiplicity           Mult            ....    1
 Number of Electrons    NEL             ....   40
 Basis Dimension        Dim             ....   96

ORBITAL ENERGIES
----------------

  NO   OCC          E(Eh)            E(eV)
   0   2.0000     -18.768337      -510.7124
   1   2.0000     -18.768329      -510.7122
   2   2.0000     -18.766680      -510.6673
   3   2.0000     -18.766666      -510.6669
   4   2.0000      -0.911523       -24.8038
   5   2.0000      -0.893103       -24.3026
   6   2.0000      -0.891240       -24.2519
   7   2.0000      -0.873239       -23.7620
   8   2.0000      -0.473079       -12.8731
   9   2.0000      -0.463097       -12.6015
  10   2.0000      -0.455588       -12.3972
  11   2.0000      -0.451597       -12.2886
  12   2.0000      -0.364403        -9.9159
  13   2.0000      -0.334371        -9.0987
  14   2.0000      -0.328422        -8.9368
  15   2.0000      -0.301661        -8.2086
  16   2.0000      -0.254493        -6.9251
  17   2.0000      -0.252448        -6.8694
  18   2.0000      -0.245882        -6.6908
  19   2.0000      -0.240056        -6.5323
  20   0.0000       0.015719         0.4277
  21   0.0000       0.049826         1.3558
  22   0.0000       0.057519         1.5652
  23   0.0000       0.079715         2.1691
  24   0.0000       0.176688         4.8079

MULLIKEN ATOMIC CHARGES
-----------------------
   0 O :   -0.313986
   1 H :    0.164920
   2 H :    0.140446
   3 O :   -0.307343
   4 H :    0.163966
   5 H :    0.151984
   6 O :   -0.313984
   7 H :    0.140483
   8 H :    0.164914
   9 O :   -0.307348
  10 H :    0.151982
  11 H :    0.163966
Sum of atomic charges:   -0.0000000

LOEWDIN ATOMIC CHARGES
----------------------
   0 O :   -0.113711
   1 H :    0.078264
   2 H :    0.031014
   3 O :   -0.107470
   4 H :    0.077756
   5 H :    0.034140
   6 O :   -0.113706
   7 H :    0.031024
   8 H :    0.078262
   9 O :   -0.107465
  10 H :    0.034134
  11 H :    0.077758

  Mayer bond orders larger than 0.1
B(  0-O ,  1-H ) :   0.9917 B(  0-O ,  2-H ) :   0.8456 B(  0-O , 10-H ) :   0.2438
B(  2-H ,  3-O ) :   0.2568 B(  3-O ,  4-H ) :   0.9925 B(  3-O ,  5-H ) :   0.8507
B(  5-H ,  6-O ) :   0.2438 B(  6-O ,  7-H ) :   0.8456 B(  6-O ,  8-H ) :   0.9917
B(  7-H ,  9-O ) :   0.2568 B(  9-O , 10-H ) :   0.8508 B(  9-O , 11-H ) :   0.9925

Dispersion correction           -0.007327287
FINAL SINGLE POINT ENERGY      -305.522906972886

DIPOLE MOMENT
-------------
                                X             Y             Z
Electronic contribution:     -0.00021       0.00022       0.00023
Nuclear contribution   :      0.00089      -0.00071      -0.00085
                        -----------------------------------------
Total Dipole Moment    :      0.00067      -0.00049      -0.00062
                        -----------------------------------------
Magnitude (a.u.)       :      0.00104
Magnitude (Debye)      :      0.00263

                             ****ORCA TERMINATED NORMALLY****
TOTAL RUN TIME: 0 days 0 hours 31 minutes 26 seconds 728 msec
