                         Program Version 4.2.0 -  RELEASE  -
|  1> # 12mecn.remya.etal.2.mol6,7
|  2> ! MP2 def2-TZVP EnGrad TightSCF
|  3>
|  4> %pal
|  5>     nprocs 6
|  6> end
|  7>
|  8> %maxcore 8000
|  9>
| 10> %scf
| 11>     ConvForced true
| 12> end
| 13>
| 14> *xyz 0 1
| 15> C   5.300864000  -2.920090000   1.401103000
| 16> H   5.986071000  -2.139770000   1.737487000
| 17> H   5.636642000  -3.888750000   1.778233000
| 18> H   4.307359000  -2.697240000   1.799307000
| 19> C   5.234791000  -2.933140000  -0.043290000
| 20> N   5.170868000  -2.941760000  -1.207750000
| 21> C   1.502241000   0.651296000   1.710523000
| 22> H   1.309219000   1.637164000   2.143202000
| 23> H   2.493408000   0.297996000   2.009069000
| 24> H   0.746597000  -0.059850000   2.055508000
| 25> C   1.447974000   0.738517000   0.269805000
| 26> N   1.405612000   0.808047000  -0.894380000
| 27> *
| 28>
| 29>                          ****END OF INPUT****

CARTESIAN COORDINATES (ANGSTROEM)
---------------------------------
  C      5.300864   -2.920090    1.401103
  H      5.986071   -2.139770    1.737487
  H      5.636642   -3.888750    1.778233
  H      4.307359   -2.697240    1.799307
  C      5.234791   -2.933140   -0.043290
  N      5.170868   -2.941760   -1.207750
  C      1.502241    0.651296    1.710523
  H      1.309219    1.637164    2.143202
  H      2.493408    0.297996    2.009069
  H      0.746597   -0.059850    2.055508
  C      1.447974    0.738517    0.269805
  N      1.405612    0.808047   -0.894380

 Total Charge           Charge          ....    0
 Multiplicity           Mult            ....    1
 Number of Electrons    NEL             ....   44
 Basis Dimension        Dim             ....  222

ORBITAL ENERGIES
----------------

  NO   OCC          E(Eh)            E(eV)
   0   2.0000     -15.573933      -423.7883
   1   2.0000     -15.573878      -423.7868
   2   2.0000     -11.289150      -307.1934
   3   2.0000     -11.288625      -307.1791
   4   2.0000     -11.280000      -306.9444
   5   2.0000     -11.279900      -306.9417
   6   2.0000      -1.214981       -33.0613
   7   2.0000      -1.214620       -33.0515
   8   2.0000      -1.047452       -28.5026
   9   2.0000      -1.046816       -28.4853
  10   2.0000      -0.703946       -19.1553
  11   2.0000      -0.701787       -19.0966
  12   2.0000      -0.637632       -17.3508
  13   2.0000      -0.636082       -17.3087
  14   2.0000      -0.635410       -17.2904
  15   2.0000      -0.633594       -17.2410
  16   2.0000      -0.555819       -15.1246
  17   2.0000      -0.555495       -15.1158
  18   2.0000      -0.458721       -12.4824
  19   2.0000      -0.458126       -12.4663
  20   2.0000      -0.457740       -12.4557
  21   2.0000      -0.457290       -12.4435
  22   0.0000       0.091787         2.4977
  23   0.0000       0.132352         3.6015
  24   0.0000       0.163902         4.4600
  25   0.0000       0.167364         4.5542
  26   0.0000       0.169235         4.6051

MULLIKEN ATOMIC CHARGES
-----------------------
   0 C :   -0.284982
   1 H :    0.172680
   2 H :    0.175508
   3 H :    0.163538
   4 C :   -0.143722
   5 N :   -0.083056
   6 C :   -0.279920
   7 H :    0.174863
   8 H :    0.162162
   9 H :    0.172923
  10 C :   -0.145225
  11 N :   -0.084770
Sum of atomic charges:   -0.0000000

LOEWDIN ATOMIC CHARGES
----------------------
   0 C :   -0.285621
   1 H :    0.151025
   2 H :    0.151794
   3 H :    0.149654
   4 C :   -0.220001
   5 N :    0.053138
   6 C :   -0.285111
   7 H :    0.153027
   8 H :    0.149373
   9 H :    0.152537
  10 C :   -0.222003
  11 N :    0.052188

  Mayer bond orders larger than 0.100000
B(  0-C ,  1-H ) :   0.9179 B(  0-C ,  2-H ) :   0.9158 B(  0-C ,  3-H ) :   0.9196
B(  0-C ,  4-C ) :   0.9015 B(  4-C ,  5-N ) :   2.8308 B(  6-C ,  7-H ) :   0.9163
B(  6-C ,  8-H ) :   0.9195 B(  6-C ,  9-H ) :   0.9176 B(  6-C , 10-C ) :   0.8994
B( 10-C , 11-N ) :   2.8308

MP2 TOTAL ENERGY:     -264.964649857 Eh
FINAL SINGLE POINT ENERGY      -264.964649857260

DIPOLE MOMENT
-------------
                                X             Y             Z
Electronic contribution:     -0.25101       0.15443      -6.29972
Nuclear contribution   :      0.37690      -0.22872       9.26942
                        -----------------------------------------
Total Dipole Moment    :      0.12589      -0.07429       2.96970
                        -----------------------------------------
Magnitude (a.u.)       :      2.97329
Magnitude (Debye)      :      7.55751

Rotational constants in cm-1:     0.154362     0.029208     0.024798
Rotational constants in MHz :  4627.641851   875.643533   743.421385

                             ****ORCA TERMINATED NORMALLY****
TOTAL RUN TIME: 0 days 0 hours 1 minutes 9 seconds 894 msec
