                         Program Version 4.2.0 -  RELEASE  -
|  1> # 12h2o.su.etal.mol0,1,2,6,10,11
|  2> ! MP2 def2-TZVP EnGrad TightSCF
|  3>
|  4> %pal
|  5>     nprocs 6
|  6> end
|  7>
|  8> %maxcore 8000
|  9>
| 10> %scf
| 11>     ConvForced true
| 12> end
| 13>
| 14> *xyz 0 1
| 15> O   1.794470000   0.923410000   2.768350000
| 16> H   2.338250000   1.359750000   3.430940000
| 17> H   0.879480000   1.303000000   2.865760000
| 18> O  -1.794470000  -0.923410000   2.768350000
| 19> H  -2.338250000  -1.359750000   3.430940000
| 20> H  -0.879480000  -1.303000000   2.865760000
| 21> O   0.923410000  -1.794470000  -2.768350000
| 22> H   1.359750000  -2.338250000  -3.430940000
| 23> H   1.303000000  -0.879480000  -2.865760000
| 24> O   1.737840000   0.885520000  -0.052730000
| 25> H   2.090180000   1.032320000   0.841890000
| 26> H   0.839590000   1.284090000  -0.017130000
| 27> O  -0.923410000   1.794470000  -2.768350000
| 28> H  -1.359750000   2.338250000  -3.430940000
| 29> H  -1.303000000   0.879480000  -2.865760000
| 30> O  -0.741530000   1.752130000   2.896280000
| 31> H  -0.920500000   2.036450000   1.984040000
| 32> H  -1.242140000   0.921210000   2.984230000
| 33> *
| 34>
| 35>                          ****END OF INPUT****

CARTESIAN COORDINATES (ANGSTROEM)
---------------------------------
  O      1.794470    0.923410    2.768350
  H      2.338250    1.359750    3.430940
  H      0.879480    1.303000    2.865760
  O     -1.794470   -0.923410    2.768350
  H     -2.338250   -1.359750    3.430940
  H     -0.879480   -1.303000    2.865760
  O      0.923410   -1.794470   -2.768350
  H      1.359750   -2.338250   -3.430940
  H      1.303000   -0.879480   -2.865760
  O      1.737840    0.885520   -0.052730
  H      2.090180    1.032320    0.841890
  H      0.839590    1.284090   -0.017130
  O     -0.923410    1.794470   -2.768350
  H     -1.359750    2.338250   -3.430940
  H     -1.303000    0.879480   -2.865760
  O     -0.741530    1.752130    2.896280
  H     -0.920500    2.036450    1.984040
  H     -1.242140    0.921210    2.984230

 Total Charge           Charge          ....    0
 Multiplicity           Mult            ....    1
 Number of Electrons    NEL             ....   60
 Basis Dimension        Dim             ....  258

ORBITAL ENERGIES
----------------

  NO   OCC          E(Eh)            E(eV)
   0   2.0000     -20.594785      -560.4126
   1   2.0000     -20.576405      -559.9124
   2   2.0000     -20.561472      -559.5061
   3   2.0000     -20.544761      -559.0514
   4   2.0000     -20.537355      -558.8499
   5   2.0000     -20.514226      -558.2205
   6   2.0000      -1.374980       -37.4151
   7   2.0000      -1.363040       -37.0902
   8   2.0000      -1.336760       -36.3751
   9   2.0000      -1.321759       -35.9669
  10   2.0000      -1.320148       -35.9231
  11   2.0000      -1.292577       -35.1728
  12   2.0000      -0.741673       -20.1820
  13   2.0000      -0.724095       -19.7036
  14   2.0000      -0.705624       -19.2010
  15   2.0000      -0.705025       -19.1847
  16   2.0000      -0.687988       -18.7211
  17   2.0000      -0.661903       -18.0113
  18   2.0000      -0.622642       -16.9429
  19   2.0000      -0.597900       -16.2697
  20   2.0000      -0.573109       -15.5951
  21   2.0000      -0.567039       -15.4299
  22   2.0000      -0.556711       -15.1489
  23   2.0000      -0.538441       -14.6517
  24   2.0000      -0.534828       -14.5534
  25   2.0000      -0.511442       -13.9170
  26   2.0000      -0.504885       -13.7386
  27   2.0000      -0.488141       -13.2830
  28   2.0000      -0.483830       -13.1657
  29   2.0000      -0.459817       -12.5123
  30   0.0000       0.101781         2.7696
  31   0.0000       0.120096         3.2680
  32   0.0000       0.142000         3.8640
  33   0.0000       0.153815         4.1855
  34   0.0000       0.166666         4.5352

MULLIKEN ATOMIC CHARGES
-----------------------
   0 O :   -0.737612
   1 H :    0.333930
   2 H :    0.365275
   3 O :   -0.702071
   4 H :    0.355295
   5 H :    0.372714
   6 O :   -0.691483
   7 H :    0.331346
   8 H :    0.358932
   9 O :   -0.696397
  10 H :    0.365426
  11 H :    0.313344
  12 O :   -0.688439
  13 H :    0.337743
  14 H :    0.351967
  15 O :   -0.699290
  16 H :    0.351503
  17 H :    0.377818
Sum of atomic charges:   -0.0000000

LOEWDIN ATOMIC CHARGES
----------------------
   0 O :   -0.342727
   1 H :    0.152059
   2 H :    0.141709
   3 O :   -0.310176
   4 H :    0.165254
   5 H :    0.193363
   6 O :   -0.341941
   7 H :    0.154681
   8 H :    0.185594
   9 O :   -0.348619
  10 H :    0.148179
  11 H :    0.157451
  12 O :   -0.339928
  13 H :    0.157694
  14 H :    0.183703
  15 O :   -0.280358
  16 H :    0.169008
  17 H :    0.155055

  Mayer bond orders larger than 0.100000
B(  0-O ,  1-H ) :   0.8521 B(  0-O ,  2-H ) :   0.7615 B(  3-O ,  4-H ) :   0.8399
B(  3-O ,  5-H ) :   0.8213 B(  6-O ,  7-H ) :   0.8568 B(  6-O ,  8-H ) :   0.8319
B(  9-O , 10-H ) :   0.8139 B(  9-O , 11-H ) :   0.8615 B( 12-O , 13-H ) :   0.8530
B( 12-O , 14-H ) :   0.8372 B( 15-O , 16-H ) :   0.8408 B( 15-O , 17-H ) :   0.7931

MP2 TOTAL ENERGY:     -457.907347694 Eh
FINAL SINGLE POINT ENERGY      -457.907347694078

DIPOLE MOMENT
-------------
                                X             Y             Z
Electronic contribution:     -0.20109      -0.14565       0.20332
Nuclear contribution   :     -1.02005      -0.00102       0.08817
                        -----------------------------------------
Total Dipole Moment    :     -1.22114      -0.14667       0.29149
                        -----------------------------------------
Magnitude (a.u.)       :      1.26399
Magnitude (Debye)      :      3.21281

Rotational constants in cm-1:     0.042397     0.018788     0.018411
Rotational constants in MHz :  1271.041841   563.237305   551.938849

                             ****ORCA TERMINATED NORMALLY****
TOTAL RUN TIME: 0 days 0 hours 0 minutes 59 seconds 983 msec
