                         Program Version 4.2.0 -  RELEASE  -
|  1> # 12h2o.su.etal.mol0,1,2,3,7,8,9
|  2> ! MP2 def2-TZVP EnGrad TightSCF
|  3>
|  4> %pal
|  5>     nprocs 6
|  6> end
|  7>
|  8> %maxcore 8000
|  9>
| 10> %scf
| 11>     ConvForced true
| 12> end
| 13>
| 14> *xyz 0 1
| 15> O   1.794470000   0.923410000   2.768350000
| 16> H   2.338250000   1.359750000   3.430940000
| 17> H   0.879480000   1.303000000   2.865760000
| 18> O  -1.794470000  -0.923410000   2.768350000
| 19> H  -2.338250000  -1.359750000   3.430940000
| 20> H  -0.879480000  -1.303000000   2.865760000
| 21> O   0.923410000  -1.794470000  -2.768350000
| 22> H   1.359750000  -2.338250000  -3.430940000
| 23> H   1.303000000  -0.879480000  -2.865760000
| 24> O  -1.752130000  -0.741530000  -2.896280000
| 25> H  -2.036450000  -0.920500000  -1.984040000
| 26> H  -0.921210000  -1.242140000  -2.984230000
| 27> O  -1.737840000  -0.885520000  -0.052730000
| 28> H  -2.090180000  -1.032320000   0.841890000
| 29> H  -0.839590000  -1.284090000  -0.017130000
| 30> O   1.752130000   0.741530000  -2.896280000
| 31> H   2.036450000   0.920500000  -1.984040000
| 32> H   0.921210000   1.242140000  -2.984230000
| 33> O   0.741530000  -1.752130000   2.896280000
| 34> H   0.920500000  -2.036450000   1.984040000
| 35> H   1.242140000  -0.921210000   2.984230000
| 36> *
| 37>
| 38>                          ****END OF INPUT****

CARTESIAN COORDINATES (ANGSTROEM)
---------------------------------
  O      1.794470    0.923410    2.768350
  H      2.338250    1.359750    3.430940
  H      0.879480    1.303000    2.865760
  O     -1.794470   -0.923410    2.768350
  H     -2.338250   -1.359750    3.430940
  H     -0.879480   -1.303000    2.865760
  O      0.923410   -1.794470   -2.768350
  H      1.359750   -2.338250   -3.430940
  H      1.303000   -0.879480   -2.865760
  O     -1.752130   -0.741530   -2.896280
  H     -2.036450   -0.920500   -1.984040
  H     -0.921210   -1.242140   -2.984230
  O     -1.737840   -0.885520   -0.052730
  H     -2.090180   -1.032320    0.841890
  H     -0.839590   -1.284090   -0.017130
  O      1.752130    0.741530   -2.896280
  H      2.036450    0.920500   -1.984040
  H      0.921210    1.242140   -2.984230
  O      0.741530   -1.752130    2.896280
  H      0.920500   -2.036450    1.984040
  H      1.242140   -0.921210    2.984230

 Total Charge           Charge          ....    0
 Multiplicity           Mult            ....    1
 Number of Electrons    NEL             ....   70
 Basis Dimension        Dim             ....  301

ORBITAL ENERGIES
----------------

  NO   OCC          E(Eh)            E(eV)
   0   2.0000     -20.609452      -560.8117
   1   2.0000     -20.596410      -560.4568
   2   2.0000     -20.588109      -560.2309
   3   2.0000     -20.549847      -559.1898
   4   2.0000     -20.541956      -558.9750
   5   2.0000     -20.541693      -558.9679
   6   2.0000     -20.488792      -557.5284
   7   2.0000      -1.388998       -37.7966
   8   2.0000      -1.382167       -37.6107
   9   2.0000      -1.375449       -37.4279
  10   2.0000      -1.335647       -36.3448
  11   2.0000      -1.325864       -36.0786
  12   2.0000      -1.321175       -35.9510
  13   2.0000      -1.273857       -34.6634
  14   2.0000      -0.755894       -20.5689
  15   2.0000      -0.738790       -20.1035
  16   2.0000      -0.736316       -20.0362
  17   2.0000      -0.718072       -19.5397
  18   2.0000      -0.711111       -19.3503
  19   2.0000      -0.691637       -18.8204
  20   2.0000      -0.650538       -17.7020
  21   2.0000      -0.636110       -17.3094
  22   2.0000      -0.620594       -16.8872
  23   2.0000      -0.611721       -16.6458
  24   2.0000      -0.584268       -15.8987
  25   2.0000      -0.575386       -15.6570
  26   2.0000      -0.562232       -15.2991
  27   2.0000      -0.550116       -14.9694
  28   2.0000      -0.528898       -14.3921
  29   2.0000      -0.523853       -14.2548
  30   2.0000      -0.515532       -14.0283
  31   2.0000      -0.497558       -13.5392
  32   2.0000      -0.488963       -13.3054
  33   2.0000      -0.482613       -13.1326
  34   2.0000      -0.439165       -11.9503
  35   0.0000       0.085318         2.3216
  36   0.0000       0.113626         3.0919
  37   0.0000       0.128836         3.5058
  38   0.0000       0.155190         4.2229
  39   0.0000       0.166021         4.5177

MULLIKEN ATOMIC CHARGES
-----------------------
   0 O :   -0.707140
   1 H :    0.359792
   2 H :    0.372151
   3 O :   -0.741124
   4 H :    0.338902
   5 H :    0.367292
   6 O :   -0.738349
   7 H :    0.338624
   8 H :    0.376635
   9 O :   -0.740042
  10 H :    0.368530
  11 H :    0.343849
  12 O :   -0.708502
  13 H :    0.375211
  14 H :    0.317853
  15 O :   -0.687235
  16 H :    0.357323
  17 H :    0.374159
  18 O :   -0.697407
  19 H :    0.351406
  20 H :    0.378071
Sum of atomic charges:    0.0000000

LOEWDIN ATOMIC CHARGES
----------------------
   0 O :   -0.312325
   1 H :    0.167214
   2 H :    0.192892
   3 O :   -0.343143
   4 H :    0.154598
   5 H :    0.141833
   6 O :   -0.341711
   7 H :    0.154425
   8 H :    0.144481
   9 O :   -0.362429
  10 H :    0.149368
  11 H :    0.139183
  12 O :   -0.327285
  13 H :    0.152506
  14 H :    0.159852
  15 O :   -0.270942
  16 H :    0.174312
  17 H :    0.181941
  18 O :   -0.278679
  19 H :    0.168853
  20 H :    0.155053

  Mayer bond orders larger than 0.100000
B(  0-O ,  1-H ) :   0.8374 B(  0-O ,  2-H ) :   0.8215 B(  3-O ,  4-H ) :   0.8496
B(  3-O ,  5-H ) :   0.7606 B(  6-O ,  7-H ) :   0.8500 B(  6-O ,  8-H ) :   0.7672
B(  9-O , 10-H ) :   0.8214 B(  9-O , 11-H ) :   0.8237 B( 12-O , 13-H ) :   0.8010
B( 12-O , 14-H ) :   0.8539 B( 15-O , 16-H ) :   0.8378 B( 15-O , 17-H ) :   0.8223
B( 18-O , 19-H ) :   0.8411 B( 18-O , 20-H ) :   0.7939

MP2 TOTAL ENERGY:     -534.245878729 Eh
FINAL SINGLE POINT ENERGY      -534.245878728885

DIPOLE MOMENT
-------------
                                X             Y             Z
Electronic contribution:      0.32325       0.35540       0.07718
Nuclear contribution   :      1.69920       0.31000       2.09298
                        -----------------------------------------
Total Dipole Moment    :      2.02245       0.66541       2.17016
                        -----------------------------------------
Magnitude (a.u.)       :      3.04018
Magnitude (Debye)      :      7.72751

Rotational constants in cm-1:     0.038346     0.017361     0.013933
Rotational constants in MHz :  1149.584342   520.454899   417.711803

                             ****ORCA TERMINATED NORMALLY****
TOTAL RUN TIME: 0 days 0 hours 1 minutes 55 seconds 370 msec
