                         Program Version 4.2.0 -  RELEASE  -
|  1> # 12meoh.boyd.etal.mol0,3,11
|  2> ! MP2 def2-TZVP EnGrad TightSCF
|  3>
|  4> %pal
|  5>     nprocs 6
|  6> end
|  7>
|  8> %maxcore 8000
|  9>
| 10> %scf
| 11>     ConvForced true
| 12> end
| 13>
| 14> *xyz 0 1
| 15> O  -1.776108874  -2.741384797  -1.019308298
| 16> H  -2.520094035  -2.452295987  -0.420778302
| 17> C  -2.174025166  -3.952700964  -1.647004581
| 18> H  -1.359803895  -4.272673416  -2.304149236
| 19> H  -3.075973971  -3.808692420  -2.256751112
| 20> H  -2.370225393  -4.752784761  -0.918966137
| 21> O  -3.821405976  -2.118091637   0.596795346
| 22> H  -4.342989117  -1.344303030   0.251966383
| 23> C  -3.443883586  -1.809641231   1.934889393
| 24> H  -2.831494349  -2.637429600   2.305201764
| 25> H  -4.325601146  -1.719364371   2.585074667
| 26> H  -2.858527126  -0.882644791   1.996110694
| 27> O   3.252955559   0.588596242   1.858934315
| 28> H   3.621209177  -0.251605199   1.476063364
| 29> C   4.040824528   0.944288422   2.989639460
| 30> H   3.670521436   1.902573549   3.363847391
| 31> H   5.103749934   1.055868619   2.734277559
| 32> H   3.948540682   0.200279590   3.792908518
| 33> *
| 34>
| 35>                          ****END OF INPUT****

CARTESIAN COORDINATES (ANGSTROEM)
---------------------------------
  O     -1.776109   -2.741385   -1.019308
  H     -2.520094   -2.452296   -0.420778
  C     -2.174025   -3.952701   -1.647005
  H     -1.359804   -4.272673   -2.304149
  H     -3.075974   -3.808692   -2.256751
  H     -2.370225   -4.752785   -0.918966
  O     -3.821406   -2.118092    0.596795
  H     -4.342989   -1.344303    0.251966
  C     -3.443884   -1.809641    1.934889
  H     -2.831494   -2.637430    2.305202
  H     -4.325601   -1.719364    2.585075
  H     -2.858527   -0.882645    1.996111
  O      3.252956    0.588596    1.858934
  H      3.621209   -0.251605    1.476063
  C      4.040825    0.944288    2.989639
  H      3.670521    1.902574    3.363847
  H      5.103750    1.055869    2.734278
  H      3.948541    0.200280    3.792909

 Total Charge           Charge          ....    0
 Multiplicity           Mult            ....    1
 Number of Electrons    NEL             ....   54
 Basis Dimension        Dim             ....  258

ORBITAL ENERGIES
----------------

  NO   OCC          E(Eh)            E(eV)
   0   2.0000     -20.589869      -560.2788
   1   2.0000     -20.554084      -559.3051
   2   2.0000     -20.510545      -558.1203
   3   2.0000     -11.288547      -307.1770
   4   2.0000     -11.269447      -306.6572
   5   2.0000     -11.245418      -306.0034
   6   2.0000      -1.383111       -37.6364
   7   2.0000      -1.343457       -36.5573
   8   2.0000      -1.307554       -35.5804
   9   2.0000      -0.940180       -25.5836
  10   2.0000      -0.917323       -24.9616
  11   2.0000      -0.891591       -24.2614
  12   2.0000      -0.715030       -19.4569
  13   2.0000      -0.678724       -18.4690
  14   2.0000      -0.671317       -18.2675
  15   2.0000      -0.633292       -17.2327
  16   2.0000      -0.614499       -16.7214
  17   2.0000      -0.607386       -16.5278
  18   2.0000      -0.588164       -16.0048
  19   2.0000      -0.587184       -15.9781
  20   2.0000      -0.558248       -15.1907
  21   2.0000      -0.527315       -14.3490
  22   2.0000      -0.497447       -13.5362
  23   2.0000      -0.487002       -13.2520
  24   2.0000      -0.453168       -12.3313
  25   2.0000      -0.446277       -12.1438
  26   2.0000      -0.413090       -11.2407
  27   0.0000       0.120051         3.2668
  28   0.0000       0.138684         3.7738
  29   0.0000       0.163987         4.4623
  30   0.0000       0.175459         4.7745
  31   0.0000       0.178267         4.8509

MULLIKEN ATOMIC CHARGES
-----------------------
   0 O :   -0.535694
   1 H :    0.340380
   2 C :   -0.155084
   3 H :    0.118252
   4 H :    0.094291
   5 H :    0.095236
   6 O :   -0.513458
   7 H :    0.342129
   8 C :   -0.189019
   9 H :    0.144164
  10 H :    0.124463
  11 H :    0.134340
  12 O :   -0.495842
  13 H :    0.323505
  14 C :   -0.172830
  15 H :    0.127731
  16 H :    0.109280
  17 H :    0.108157
Sum of atomic charges:   -0.0000000

LOEWDIN ATOMIC CHARGES
----------------------
   0 O :   -0.126905
   1 H :    0.157609
   2 C :   -0.396474
   3 H :    0.104612
   4 H :    0.090744
   5 H :    0.091282
   6 O :   -0.073432
   7 H :    0.200073
   8 C :   -0.372249
   9 H :    0.116774
  10 H :    0.103675
  11 H :    0.104292
  12 O :   -0.108298
  13 H :    0.191087
  14 C :   -0.382622
  15 H :    0.109707
  16 H :    0.095278
  17 H :    0.094849

  Mayer bond orders larger than 0.100000
B(  0-O ,  1-H ) :   0.7889 B(  0-O ,  2-C ) :   0.9423 B(  1-H ,  6-O ) :   0.1012
B(  2-C ,  3-H ) :   0.9410 B(  2-C ,  4-H ) :   0.9436 B(  2-C ,  5-H ) :   0.9360
B(  6-O ,  7-H ) :   0.8277 B(  6-O ,  8-C ) :   0.8673 B(  8-C ,  9-H ) :   0.9386
B(  8-C , 10-H ) :   0.9337 B(  8-C , 11-H ) :   0.9390 B( 12-O , 13-H ) :   0.8411
B( 12-O , 14-C ) :   0.9291 B( 14-C , 15-H ) :   0.9378 B( 14-C , 16-H ) :   0.9389
B( 14-C , 17-H ) :   0.9387

MP2 TOTAL ENERGY:     -346.529259099 Eh
FINAL SINGLE POINT ENERGY      -346.529259099015

DIPOLE MOMENT
-------------
                                X             Y             Z
Electronic contribution:     -1.03720       0.87125      -2.02379
Nuclear contribution   :      0.58622      -0.76784       3.02202
                        -----------------------------------------
Total Dipole Moment    :     -0.45098       0.10341       0.99823
                        -----------------------------------------
Magnitude (a.u.)       :      1.10024
Magnitude (Debye)      :      2.79659

Rotational constants in cm-1:     0.078104     0.012843     0.011228
Rotational constants in MHz :  2341.507706   385.030840   336.602252

                             ****ORCA TERMINATED NORMALLY****
TOTAL RUN TIME: 0 days 0 hours 0 minutes 54 seconds 797 msec
