                         Program Version 4.2.0 -  RELEASE  -
|  1> # 12h2o.su.etal.mol4,7,8,11
|  2> ! MP2 def2-TZVP EnGrad TightSCF
|  3>
|  4> %pal
|  5>     nprocs 6
|  6> end
|  7>
|  8> %maxcore 8000
|  9>
| 10> %scf
| 11>     ConvForced true
| 12> end
| 13>
| 14> *xyz 0 1
| 15> O  -0.885520000   1.737840000   0.052730000
| 16> H  -1.032320000   2.090180000  -0.841890000
| 17> H  -1.284090000   0.839590000   0.017130000
| 18> O  -1.737840000  -0.885520000  -0.052730000
| 19> H  -2.090180000  -1.032320000   0.841890000
| 20> H  -0.839590000  -1.284090000  -0.017130000
| 21> O   1.752130000   0.741530000  -2.896280000
| 22> H   2.036450000   0.920500000  -1.984040000
| 23> H   0.921210000   1.242140000  -2.984230000
| 24> O  -0.741530000   1.752130000   2.896280000
| 25> H  -0.920500000   2.036450000   1.984040000
| 26> H  -1.242140000   0.921210000   2.984230000
| 27> *
| 28>
| 29>                          ****END OF INPUT****

CARTESIAN COORDINATES (ANGSTROEM)
---------------------------------
  O     -0.885520    1.737840    0.052730
  H     -1.032320    2.090180   -0.841890
  H     -1.284090    0.839590    0.017130
  O     -1.737840   -0.885520   -0.052730
  H     -2.090180   -1.032320    0.841890
  H     -0.839590   -1.284090   -0.017130
  O      1.752130    0.741530   -2.896280
  H      2.036450    0.920500   -1.984040
  H      0.921210    1.242140   -2.984230
  O     -0.741530    1.752130    2.896280
  H     -0.920500    2.036450    1.984040
  H     -1.242140    0.921210    2.984230

 Total Charge           Charge          ....    0
 Multiplicity           Mult            ....    1
 Number of Electrons    NEL             ....   40
 Basis Dimension        Dim             ....  172

ORBITAL ENERGIES
----------------

  NO   OCC          E(Eh)            E(eV)
   0   2.0000     -20.615699      -560.9817
   1   2.0000     -20.566796      -559.6510
   2   2.0000     -20.566592      -559.6454
   3   2.0000     -20.537581      -558.8560
   4   2.0000      -1.396504       -38.0008
   5   2.0000      -1.350166       -36.7399
   6   2.0000      -1.345697       -36.6183
   7   2.0000      -1.318926       -35.8898
   8   2.0000      -0.753702       -20.5093
   9   2.0000      -0.724400       -19.7119
  10   2.0000      -0.708549       -19.2806
  11   2.0000      -0.688394       -18.7321
  12   2.0000      -0.637288       -17.3415
  13   2.0000      -0.600585       -16.3427
  14   2.0000      -0.583192       -15.8695
  15   2.0000      -0.558018       -15.1844
  16   2.0000      -0.544085       -14.8053
  17   2.0000      -0.514955       -14.0126
  18   2.0000      -0.510345       -13.8872
  19   2.0000      -0.483667       -13.1613
  20   0.0000       0.077983         2.1220
  21   0.0000       0.110596         3.0095
  22   0.0000       0.148869         4.0509
  23   0.0000       0.175790         4.7835
  24   0.0000       0.197807         5.3826

MULLIKEN ATOMIC CHARGES
-----------------------
   0 O :   -0.720598
   1 H :    0.334532
   2 H :    0.352693
   3 O :   -0.678048
   4 H :    0.354550
   5 H :    0.366763
   6 O :   -0.673373
   7 H :    0.342030
   8 H :    0.330083
   9 O :   -0.686964
  10 H :    0.374305
  11 H :    0.304028
Sum of atomic charges:    0.0000000

LOEWDIN ATOMIC CHARGES
----------------------
   0 O :   -0.338817
   1 H :    0.160705
   2 H :    0.142487
   3 O :   -0.286154
   4 H :    0.171273
   5 H :    0.184539
   6 O :   -0.330496
   7 H :    0.166621
   8 H :    0.162533
   9 O :   -0.337547
  10 H :    0.154190
  11 H :    0.150666

  Mayer bond orders larger than 0.100000
B(  0-O ,  1-H ) :   0.8509 B(  0-O ,  2-H ) :   0.7835 B(  3-O ,  4-H ) :   0.8387
B(  3-O ,  5-H ) :   0.8293 B(  6-O ,  7-H ) :   0.8495 B(  6-O ,  8-H ) :   0.8565
B(  9-O , 10-H ) :   0.8156 B(  9-O , 11-H ) :   0.8708

MP2 TOTAL ENERGY:     -305.266897704 Eh
FINAL SINGLE POINT ENERGY      -305.266897703753

DIPOLE MOMENT
-------------
                                X             Y             Z
Electronic contribution:      0.11906      -0.10761      -0.17153
Nuclear contribution   :     -1.02017      -0.79765       0.00000
                        -----------------------------------------
Total Dipole Moment    :     -0.90111      -0.90526      -0.17153
                        -----------------------------------------
Magnitude (a.u.)       :      1.28877
Magnitude (Debye)      :      3.27579

Rotational constants in cm-1:     0.124479     0.043404     0.035045
Rotational constants in MHz :  3731.797322  1301.230137  1050.634627

                             ****ORCA TERMINATED NORMALLY****
TOTAL RUN TIME: 0 days 0 hours 0 minutes 26 seconds 799 msec
