                         Program Version 4.2.0 -  RELEASE  -
|  1> ! MP2 def2-TZVP EnGrad TightSCF FrozenCore
|  2>
|  3> %pal
|  4>     nprocs 12
|  5> end
|  6>
|  7> %maxcore 8000
|  8>
|  9> %scf
| 10>     ConvForced true
| 11> end
| 12>
| 13> *xyz 0 1
| 14> O    -0.5417324176    -0.1457217865    -1.4728567926
| 15> H     0.3989459048    -0.2303937877    -1.1270388057
| 16> C    -0.4863102539     0.1076584566    -2.8790552163
| 17> H    -1.513610837      0.2083056276    -3.2381919013
| 18> H    -0.0052170077    -0.7225125811    -3.4101914446
| 19> H     0.0582698986     1.0350206903    -3.0971630186
| 20> O    -1.1130609376     1.8866514199     0.2882722634
| 21> H    -1.0324640325     1.197096769     -0.4151750217
| 22> C    -2.0624104483     1.4317592413     1.2436386258
| 23> H    -2.1326609671     2.191392524      2.0273056132
| 24> H    -1.7691656514     0.4776254589     1.7065326734
| 25> H    -3.0569937709     1.3086061396     0.7937446135
| 26> O     1.5509350803     2.004508939      0.9128600202
| 27> H     0.5741276252     2.0731356914     0.7680457682
| 28> C     1.8588897933     2.3822286629     2.2452776512
| 29> H     2.94162133       2.2948113729     2.3721162414
| 30> H     1.3699972277     1.7371594342     2.9912486125
| 31> H     1.5726543414     3.4243934452     2.4444703201
| 32> O     1.8699388263    -0.329028123     -0.4058545638
| 33> H     1.9581773098     0.5213432651     0.0932197383
| 34> C     1.9235991345    -1.4100164727     0.5288318315
| 35> H     1.355277886     -2.245265018      0.1117580732
| 36> H     1.4742284664    -1.1305070333     1.49165308
| 37> H     2.9617127057    -1.7219971578     0.7032018694
| 38> O    -0.91729024      -2.8790134496    -0.8132924404
| 39> H    -0.9299888141    -1.9389571303    -1.0866330683
| 40> C    -1.9518774243    -3.0693093063     0.1299859516
| 41> H    -1.9212668195    -4.1169898369     0.445681198
| 42> H    -2.9518260597    -2.8726339748    -0.2900893182
| 43> H    -1.8334860355    -2.442733388      1.0304038207
| 44> *
| 45>
| 46>                          ****END OF INPUT****

CARTESIAN COORDINATES (ANGSTROEM)
---------------------------------
  O     -0.541732   -0.145722   -1.472857
  H      0.398946   -0.230394   -1.127039
  C     -0.486310    0.107658   -2.879055
  H     -1.513611    0.208306   -3.238192
  H     -0.005217   -0.722513   -3.410191
  H      0.058270    1.035021   -3.097163
  O     -1.113061    1.886651    0.288272
  H     -1.032464    1.197097   -0.415175
  C     -2.062410    1.431759    1.243639
  H     -2.132661    2.191393    2.027306
  H     -1.769166    0.477625    1.706533
  H     -3.056994    1.308606    0.793745
  O      1.550935    2.004509    0.912860
  H      0.574128    2.073136    0.768046
  C      1.858890    2.382229    2.245278
  H      2.941621    2.294811    2.372116
  H      1.369997    1.737159    2.991249
  H      1.572654    3.424393    2.444470
  O      1.869939   -0.329028   -0.405855
  H      1.958177    0.521343    0.093220
  C      1.923599   -1.410016    0.528832
  H      1.355278   -2.245265    0.111758
  H      1.474228   -1.130507    1.491653
  H      2.961713   -1.721997    0.703202
  O     -0.917290   -2.879013   -0.813292
  H     -0.929989   -1.938957   -1.086633
  C     -1.951877   -3.069309    0.129986
  H     -1.921267   -4.116990    0.445681
  H     -2.951826   -2.872634   -0.290089
  H     -1.833486   -2.442733    1.030404

 Total Charge           Charge          ....    0
 Multiplicity           Mult            ....    1
 Number of Electrons    NEL             ....   90
 Basis Dimension        Dim             ....  430

ORBITAL ENERGIES
----------------

  NO   OCC          E(Eh)            E(eV)
   0   2.0000     -20.563591      -559.5638
   1   2.0000     -20.558819      -559.4339
   2   2.0000     -20.555341      -559.3393
   3   2.0000     -20.554211      -559.3085
   4   2.0000     -20.532768      -558.7250
   5   2.0000     -11.278446      -306.9021
   6   2.0000     -11.276997      -306.8627
   7   2.0000     -11.276516      -306.8496
   8   2.0000     -11.266259      -306.5705
   9   2.0000     -11.261227      -306.4336
  10   2.0000      -1.375241       -37.4222
  11   2.0000      -1.360040       -37.0086
  12   2.0000      -1.356379       -36.9089
  13   2.0000      -1.341720       -36.5100
  14   2.0000      -1.333634       -36.2900
  15   2.0000      -0.934676       -25.4338
  16   2.0000      -0.928989       -25.2791
  17   2.0000      -0.925188       -25.1757
  18   2.0000      -0.916537       -24.9402
  19   2.0000      -0.907944       -24.7064
  20   2.0000      -0.720168       -19.5968
  21   2.0000      -0.703521       -19.1438
  22   2.0000      -0.696729       -18.9590
  23   2.0000      -0.689887       -18.7728
  24   2.0000      -0.680396       -18.5145
  25   2.0000      -0.624811       -17.0020
  26   2.0000      -0.622254       -16.9324
  27   2.0000      -0.619893       -16.8682
  28   2.0000      -0.616449       -16.7744
  29   2.0000      -0.604923       -16.4608
  30   2.0000      -0.602812       -16.4033
  31   2.0000      -0.598618       -16.2892
  32   2.0000      -0.595439       -16.2027
  33   2.0000      -0.586956       -15.9719
  34   2.0000      -0.577228       -15.7072
  35   2.0000      -0.529097       -14.3975
  36   2.0000      -0.512837       -13.9550
  37   2.0000      -0.507936       -13.8216
  38   2.0000      -0.495097       -13.4723
  39   2.0000      -0.485689       -13.2163
  40   2.0000      -0.456641       -12.4258
  41   2.0000      -0.453865       -12.3503
  42   2.0000      -0.452000       -12.2995
  43   2.0000      -0.446427       -12.1479
  44   2.0000      -0.430351       -11.7104
  45   0.0000       0.115518         3.1434
  46   0.0000       0.145506         3.9594
  47   0.0000       0.151692         4.1278
  48   0.0000       0.167137         4.5480
  49   0.0000       0.182717         4.9720

MULLIKEN ATOMIC CHARGES
-----------------------
   0 O :   -0.621022
   1 H :    0.383370
   2 C :   -0.176782
   3 H :    0.132561
   4 H :    0.140110
   5 H :    0.134432
   6 O :   -0.554516
   7 H :    0.367151
   8 C :   -0.175884
   9 H :    0.131420
  10 H :    0.112732
  11 H :    0.124728
  12 O :   -0.560688
  13 H :    0.367984
  14 C :   -0.176387
  15 H :    0.132122
  16 H :    0.110660
  17 H :    0.125048
  18 O :   -0.549237
  19 H :    0.377633
  20 C :   -0.210936
  21 H :    0.167825
  22 H :    0.109658
  23 H :    0.120744
  24 O :   -0.514902
  25 H :    0.346404
  26 C :   -0.167203
  27 H :    0.124445
  28 H :    0.107564
  29 H :    0.090966
Sum of atomic charges:   -0.0000000

LOEWDIN ATOMIC CHARGES
----------------------
   0 O :   -0.096013
   1 H :    0.163415
   2 C :   -0.378240
   3 H :    0.110190
   4 H :    0.108503
   5 H :    0.106197
   6 O :   -0.087776
   7 H :    0.165850
   8 C :   -0.386075
   9 H :    0.109330
  10 H :    0.096909
  11 H :    0.104325
  12 O :   -0.088166
  13 H :    0.166866
  14 C :   -0.385379
  15 H :    0.110289
  16 H :    0.096174
  17 H :    0.103802
  18 O :   -0.080141
  19 H :    0.165869
  20 C :   -0.380906
  21 H :    0.112824
  22 H :    0.098546
  23 H :    0.102070
  24 O :   -0.094609
  25 H :    0.162139
  26 C :   -0.399420
  27 H :    0.107692
  28 H :    0.095771
  29 H :    0.089965

  Mayer bond orders larger than 0.100000
B(  0-O ,  1-H ) :   0.6936 B(  0-O ,  2-C ) :   0.8466 B(  1-H , 18-O ) :   0.1470
B(  2-C ,  3-H ) :   0.9425 B(  2-C ,  4-H ) :   0.9378 B(  2-C ,  5-H ) :   0.9381
B(  6-O ,  7-H ) :   0.7625 B(  6-O ,  8-C ) :   0.8865 B(  8-C ,  9-H ) :   0.9417
B(  8-C , 10-H ) :   0.9349 B(  8-C , 11-H ) :   0.9405 B( 12-O , 13-H ) :   0.7550
B( 12-O , 14-C ) :   0.8909 B( 14-C , 15-H ) :   0.9423 B( 14-C , 16-H ) :   0.9357
B( 14-C , 17-H ) :   0.9400 B( 18-O , 19-H ) :   0.7562 B( 18-O , 20-C ) :   0.8729
B( 20-C , 21-H ) :   0.9286 B( 20-C , 22-H ) :   0.9378 B( 20-C , 23-H ) :   0.9392
B( 24-O , 25-H ) :   0.7980 B( 24-O , 26-C ) :   0.9361 B( 26-C , 27-H ) :   0.9418
B( 26-C , 28-H ) :   0.9410 B( 26-C , 29-H ) :   0.9336

MP2 TOTAL ENERGY:     -577.600304845 Eh
FINAL SINGLE POINT ENERGY      -577.600304844598

DIPOLE MOMENT
-------------
                                X             Y             Z
Electronic contribution:      2.19141       1.42235      -3.70828
Nuclear contribution   :     -2.60412      -0.99661       4.52756
                        -----------------------------------------
Total Dipole Moment    :     -0.41271       0.42573       0.81928
                        -----------------------------------------
Magnitude (a.u.)       :      1.01133
Magnitude (Debye)      :      2.57060

Rotational constants in cm-1:     0.031025     0.017902     0.016185
Rotational constants in MHz :   930.094449   536.697883   485.214523

                             ****ORCA TERMINATED NORMALLY****
TOTAL RUN TIME: 0 days 0 hours 5 minutes 53 seconds 989 msec
