                         Program Version 3.0.3 - RELEASE   -
|  1> ! wB97X-D3 MA-Def2-TZVP def2-TZVP/J RIJCOSX TightSCF Grid4
|  2>
|  3> %pal nprocs 1 end
|  4>
|  5> %scf
|  6>         maxiter 400
|  7> end
|  8>
|  9> * xyz  0  1
| 10> O  1.506892	-2.630239	2.219880
| 11> H  1.045303	-2.923479	1.402751
| 12> H  0.829469	-2.205051	2.790602
| 13> O  2.713004	0.319673	-0.666626
| 14> H  2.652800	1.301201	-0.539321
| 15> H  3.070539	-0.063465	0.172596
| 16> O  1.149850	-3.069284	-2.742090
| 17> H  1.541568	-2.143485	-2.897033
| 18> H  1.712218	-3.682474	-3.232799
| 19> O  1.149396	2.916279	1.996855
| 20> H  1.357965	2.189148	2.645704
| 21> H  0.192378	3.100698	2.056855
| 22> O  1.852519	0.912518	3.604862
| 23> H  2.415135	0.400805	2.984723
| 24> H  1.186433	0.257729	3.893203
| 25> O  -3.259319	0.858592	-1.653766
| 26> H  -2.431210	0.664089	-2.138699
| 27> H  -3.080023	1.738684	-1.265446
| 28> O  1.950901	-0.628361	-3.092068
| 29> H  2.393124	-0.287853	-2.281561
| 30> H  1.074971	-0.186640	-3.081936
| 31> O  -1.231605	0.435012	1.931771
| 32> H  -1.401739	1.403213	1.974583
| 33> H  -0.577129	0.281406	1.195725
| 34> O  -3.019404	-0.958875	0.309741
| 35> H  -2.453756	-0.493380	0.961888
| 36> H  -3.187892	-0.291329	-0.409905
| 37> O  -1.589911	3.162051	1.852756
| 38> H  -2.217242	3.603173	2.439997
| 39> H  -1.909620	3.319820	0.918494
| 40> O  2.095821	2.877544	-0.352700
| 41> H  1.720596	2.900725	0.603303
| 42> H  2.695549	3.631985	-0.425335
| 43> O  0.229197	-0.368100	-0.084692
| 44> H  0.238983	-1.363900	-0.058810
| 45> H  1.169648	-0.102638	-0.284357
| 46> O  0.272666	-3.043510	-0.175429
| 47> H  -0.685088	-3.266892	-0.305204
| 48> H  0.697521	-3.191869	-1.055000
| 49> O  -1.446876	-2.257653	-3.145395
| 50> H  -1.896087	-2.637646	-2.359193
| 51> H  -0.577404	-2.708530	-3.168075
| 52> O  -0.680180	0.183464	-2.530281
| 53> H  -1.032584	-0.691852	-2.884593
| 54> H  -0.452951	-0.039071	-1.588918
| 55> O  3.177085	-0.724854	1.740334
| 56> H  4.030663	-1.034397	2.074402
| 57> H  2.537371	-1.505938	1.897346
| 58> O  -0.134279	2.865445	-2.018608
| 59> H  -0.242127	1.970264	-2.401527
| 60> H  0.692364	2.854824	-1.482187
| 61> O  -0.116945	-1.067068	3.767694
| 62> H  -0.736834	-1.352292	4.451129
| 63> H  -0.630900	-0.479157	3.140491
| 64> O  -2.277701	3.332078	-0.700956
| 65> H  -1.407299	3.178995	-1.215831
| 66> H  -2.696429	4.090648	-1.130933
| 67> O  -2.315847	-3.179740	-0.696961
| 68> H  -2.618516	-2.303183	-0.256059
| 69> H  -2.996432	-3.836715	-0.503022
| 70> **                         ****END OF INPUT****

CARTESIAN COORDINATES (ANGSTROEM)
---------------------------------
  O      1.506892   -2.630239    2.219880
  H      1.045303   -2.923479    1.402751
  H      0.829469   -2.205051    2.790602
  O      2.713004    0.319673   -0.666626
  H      2.652800    1.301201   -0.539321
  H      3.070539   -0.063465    0.172596
  O      1.149850   -3.069284   -2.742090
  H      1.541568   -2.143485   -2.897033
  H      1.712218   -3.682474   -3.232799
  O      1.149396    2.916279    1.996855
  H      1.357965    2.189148    2.645704
  H      0.192378    3.100698    2.056855
  O      1.852519    0.912518    3.604862
  H      2.415135    0.400805    2.984723
  H      1.186433    0.257729    3.893203
  O     -3.259319    0.858592   -1.653766
  H     -2.431210    0.664089   -2.138699
  H     -3.080023    1.738684   -1.265446
  O      1.950901   -0.628361   -3.092068
  H      2.393124   -0.287853   -2.281561
  H      1.074971   -0.186640   -3.081936
  O     -1.231605    0.435012    1.931771
  H     -1.401739    1.403213    1.974583
  H     -0.577129    0.281406    1.195725
  O     -3.019404   -0.958875    0.309741
  H     -2.453756   -0.493380    0.961888
  H     -3.187892   -0.291329   -0.409905
  O     -1.589911    3.162051    1.852756
  H     -2.217242    3.603173    2.439997
  H     -1.909620    3.319820    0.918494
  O      2.095821    2.877544   -0.352700
  H      1.720596    2.900725    0.603303
  H      2.695549    3.631985   -0.425335
  O      0.229197   -0.368100   -0.084692
  H      0.238983   -1.363900   -0.058810
  H      1.169648   -0.102638   -0.284357
  O      0.272666   -3.043510   -0.175429
  H     -0.685088   -3.266892   -0.305204
  H      0.697521   -3.191869   -1.055000
  O     -1.446876   -2.257653   -3.145395
  H     -1.896087   -2.637646   -2.359193
  H     -0.577404   -2.708530   -3.168075
  O     -0.680180    0.183464   -2.530281
  H     -1.032584   -0.691852   -2.884593
  H     -0.452951   -0.039071   -1.588918
  O      3.177085   -0.724854    1.740334
  H      4.030663   -1.034397    2.074402
  H      2.537371   -1.505938    1.897346
  O     -0.134279    2.865445   -2.018608
  H     -0.242127    1.970264   -2.401527
  H      0.692364    2.854824   -1.482187
  O     -0.116945   -1.067068    3.767694
  H     -0.736834   -1.352292    4.451129
  H     -0.630900   -0.479157    3.140491
  O     -2.277701    3.332078   -0.700956
  H     -1.407299    3.178995   -1.215831
  H     -2.696429    4.090648   -1.130933
  O     -2.315847   -3.179740   -0.696961
  H     -2.618516   -2.303183   -0.256059
  H     -2.996432   -3.836715   -0.503022

 Total Charge           Charge          ....    0
 Multiplicity           Mult            ....    1
 Number of Electrons    NEL             ....  200
 Basis Dimension        Dim             ....  940

ORBITAL ENERGIES
----------------

  NO   OCC          E(Eh)            E(eV)
   0   2.0000     -19.265697      -524.2463
   1   2.0000     -19.255931      -523.9805
   2   2.0000     -19.253690      -523.9195
   3   2.0000     -19.249273      -523.7993
   4   2.0000     -19.248490      -523.7780
   5   2.0000     -19.247752      -523.7580
   6   2.0000     -19.242345      -523.6108
   7   2.0000     -19.240306      -523.5553
   8   2.0000     -19.238493      -523.5060
   9   2.0000     -19.238198      -523.4980
  10   2.0000     -19.237294      -523.4734
  11   2.0000     -19.236148      -523.4422
  12   2.0000     -19.228921      -523.2455
  13   2.0000     -19.227023      -523.1939
  14   2.0000     -19.226739      -523.1862
  15   2.0000     -19.223004      -523.0845
  16   2.0000     -19.221376      -523.0402
  17   2.0000     -19.218797      -522.9701
  18   2.0000     -19.218187      -522.9534
  19   2.0000     -19.217348      -522.9306
  20   2.0000      -1.163142       -31.6507
  21   2.0000      -1.156035       -31.4573
  22   2.0000      -1.150341       -31.3024
  23   2.0000      -1.147209       -31.2172
  24   2.0000      -1.145248       -31.1638
  25   2.0000      -1.141829       -31.0707
  26   2.0000      -1.139392       -31.0044
  27   2.0000      -1.137926       -30.9645
  28   2.0000      -1.129560       -30.7369
  29   2.0000      -1.127018       -30.6677
  30   2.0000      -1.125261       -30.6199
  31   2.0000      -1.120946       -30.5025
  32   2.0000      -1.117362       -30.4050
  33   2.0000      -1.114486       -30.3267
  34   2.0000      -1.112090       -30.2615
  35   2.0000      -1.108136       -30.1539
  36   2.0000      -1.107072       -30.1250
  37   2.0000      -1.100924       -29.9577
  38   2.0000      -1.097006       -29.8510
  39   2.0000      -1.095111       -29.7995
  40   2.0000      -0.674073       -18.3425
  41   2.0000      -0.666987       -18.1496
  42   2.0000      -0.660059       -17.9611
  43   2.0000      -0.658543       -17.9199
  44   2.0000      -0.655541       -17.8382
  45   2.0000      -0.654614       -17.8130
  46   2.0000      -0.652170       -17.7465
  47   2.0000      -0.650507       -17.7012
  48   2.0000      -0.648543       -17.6477
  49   2.0000      -0.646193       -17.5838
  50   2.0000      -0.642386       -17.4802
  51   2.0000      -0.639610       -17.4047
  52   2.0000      -0.637238       -17.3401
  53   2.0000      -0.634998       -17.2792
  54   2.0000      -0.628468       -17.1015
  55   2.0000      -0.626601       -17.0507
  56   2.0000      -0.622309       -16.9339
  57   2.0000      -0.619134       -16.8475
  58   2.0000      -0.617226       -16.7956
  59   2.0000      -0.611802       -16.6480
  60   2.0000      -0.571032       -15.5386
  61   2.0000      -0.565997       -15.4016
  62   2.0000      -0.558140       -15.1878
  63   2.0000      -0.549934       -14.9645
  64   2.0000      -0.547559       -14.8998
  65   2.0000      -0.544018       -14.8035
  66   2.0000      -0.525890       -14.3102
  67   2.0000      -0.525399       -14.2968
  68   2.0000      -0.515196       -14.0192
  69   2.0000      -0.507545       -13.8110
  70   2.0000      -0.505762       -13.7625
  71   2.0000      -0.495468       -13.4824
  72   2.0000      -0.493069       -13.4171
  73   2.0000      -0.490581       -13.3494
  74   2.0000      -0.484329       -13.1793
  75   2.0000      -0.483018       -13.1436
  76   2.0000      -0.475072       -12.9274
  77   2.0000      -0.471256       -12.8235
  78   2.0000      -0.466881       -12.7045
  79   2.0000      -0.450518       -12.2592
  80   2.0000      -0.447754       -12.1840
  81   2.0000      -0.437102       -11.8941
  82   2.0000      -0.435720       -11.8565
  83   2.0000      -0.433648       -11.8002
  84   2.0000      -0.433152       -11.7867
  85   2.0000      -0.430937       -11.7264
  86   2.0000      -0.430832       -11.7235
  87   2.0000      -0.428604       -11.6629
  88   2.0000      -0.427611       -11.6359
  89   2.0000      -0.425615       -11.5816
  90   2.0000      -0.424737       -11.5577
  91   2.0000      -0.423214       -11.5162
  92   2.0000      -0.418628       -11.3915
  93   2.0000      -0.414890       -11.2897
  94   2.0000      -0.412409       -11.2222
  95   2.0000      -0.409349       -11.1390
  96   2.0000      -0.408863       -11.1257
  97   2.0000      -0.404246       -11.0001
  98   2.0000      -0.402362       -10.9488
  99   2.0000      -0.398844       -10.8531
 100   0.0000       0.046117         1.2549
 101   0.0000       0.060382         1.6431
 102   0.0000       0.067356         1.8329
 103   0.0000       0.070158         1.9091
 104   0.0000       0.081218         2.2101

MULLIKEN ATOMIC CHARGES
-----------------------
   0 O :   -0.753737
   1 H :    0.414006
   2 H :    0.404358
   3 O :   -0.806825
   4 H :    0.425962
   5 H :    0.410288
   6 O :   -0.845519
   7 H :    0.417560
   8 H :    0.362277
   9 O :   -0.810592
  10 H :    0.438938
  11 H :    0.404282
  12 O :   -0.733866
  13 H :    0.373984
  14 H :    0.390002
  15 O :   -0.764602
  16 H :    0.400201
  17 H :    0.384045
  18 O :   -0.753516
  19 H :    0.424046
  20 H :    0.398959
  21 O :   -0.830960
  22 H :    0.427196
  23 H :    0.423328
  24 O :   -0.777195
  25 H :    0.376453
  26 H :    0.444068
  27 O :   -0.786322
  28 H :    0.364371
  29 H :    0.401089
  30 O :   -0.824582
  31 H :    0.439132
  32 H :    0.362737
  33 O :   -0.734683
  34 H :    0.358825
  35 H :    0.324220
  36 O :   -0.809861
  37 H :    0.434290
  38 H :    0.424512
  39 O :   -0.725171
  40 H :    0.403430
  41 H :    0.391470
  42 O :   -1.088345
  43 H :    0.497602
  44 H :    0.418423
  45 O :   -0.818769
  46 H :    0.361272
  47 H :    0.403016
  48 O :   -0.758473
  49 H :    0.419928
  50 H :    0.408276
  51 O :   -0.821824
  52 H :    0.361310
  53 H :    0.410314
  54 O :   -0.791380
  55 H :    0.422678
  56 H :    0.362488
  57 O :   -0.853092
  58 H :    0.436149
  59 H :    0.363828
Sum of atomic charges:    0.0000000

LOEWDIN ATOMIC CHARGES
----------------------
   0 O :   -0.356993
   1 H :    0.191343
   2 H :    0.189553
   3 O :   -0.383780
   4 H :    0.188076
   5 H :    0.189721
   6 O :   -0.396794
   7 H :    0.190078
   8 H :    0.190724
   9 O :   -0.362080
  10 H :    0.192200
  11 H :    0.186503
  12 O :   -0.374317
  13 H :    0.189401
  14 H :    0.191000
  15 O :   -0.372061
  16 H :    0.187355
  17 H :    0.187166
  18 O :   -0.356515
  19 H :    0.193460
  20 H :    0.191780
  21 O :   -0.388194
  22 H :    0.191456
  23 H :    0.191233
  24 O :   -0.364522
  25 H :    0.189342
  26 H :    0.192493
  27 O :   -0.373382
  28 H :    0.193807
  29 H :    0.194491
  30 O :   -0.389178
  31 H :    0.184655
  32 H :    0.192390
  33 O :   -0.397798
  34 H :    0.190528
  35 H :    0.183404
  36 O :   -0.387323
  37 H :    0.191194
  38 H :    0.196418
  39 O :   -0.367123
  40 H :    0.190827
  41 H :    0.188207
  42 O :   -0.443687
  43 H :    0.194730
  44 H :    0.184153
  45 O :   -0.392417
  46 H :    0.192203
  47 H :    0.189100
  48 O :   -0.345055
  49 H :    0.198807
  50 H :    0.195270
  51 O :   -0.385102
  52 H :    0.191471
  53 H :    0.189997
  54 O :   -0.388121
  55 H :    0.185864
  56 H :    0.193381
  57 O :   -0.394702
  58 H :    0.185294
  59 H :    0.190070

  Mayer bond orders larger than 0.1
B(  0-O ,  1-H ) :   0.8451 B(  0-O ,  2-H ) :   0.8493 B(  0-O , 47-H ) :   0.1571
B(  3-O ,  4-H ) :   0.8077 B(  3-O ,  5-H ) :   0.8126 B(  3-O , 33-O ) :  -0.1694
B(  3-O , 35-H ) :   0.2239 B(  6-O ,  7-H ) :   0.7449 B(  6-O ,  8-H ) :   0.8750
B(  7-H , 18-O ) :   0.1247 B(  9-O , 10-H ) :   0.7839 B(  9-O , 11-H ) :   0.8481
B(  9-O , 31-H ) :   0.1151 B( 12-O , 13-H ) :   0.8627 B( 12-O , 14-H ) :   0.8618
B( 15-O , 16-H ) :   0.8581 B( 15-O , 17-H ) :   0.8681 B( 15-O , 42-O ) :   0.1023
B( 18-O , 19-H ) :   0.8366 B( 18-O , 20-H ) :   0.8487 B( 21-O , 22-H ) :   0.8202
B( 21-O , 23-H ) :   0.8193 B( 24-O , 25-H ) :   0.8394 B( 24-O , 26-H ) :   0.7920
B( 24-O , 58-H ) :   0.1204 B( 27-O , 28-H ) :   0.8751 B( 27-O , 29-H ) :   0.7891
B( 30-O , 31-H ) :   0.7239 B( 30-O , 32-H ) :   0.8768 B( 33-O , 34-H ) :   0.7986
B( 33-O , 35-H ) :   0.7635 B( 34-H , 36-O ) :   0.1464 B( 36-O , 37-H ) :   0.8015
B( 36-O , 38-H ) :   0.8193 B( 39-O , 40-H ) :   0.8555 B( 39-O , 41-H ) :   0.8614
B( 39-O , 42-O ) :   0.1493 B( 42-O , 43-H ) :   0.7746 B( 42-O , 44-H ) :   0.8307
B( 45-O , 46-H ) :   0.8800 B( 45-O , 47-H ) :   0.7395 B( 48-O , 49-H ) :   0.8290
B( 48-O , 50-H ) :   0.8374 B( 48-O , 55-H ) :   0.1160 B( 51-O , 52-H ) :   0.8758
B( 51-O , 53-H ) :   0.7851 B( 54-O , 55-H ) :   0.7463 B( 54-O , 56-H ) :   0.8796
B( 57-O , 58-H ) :   0.7249 B( 57-O , 59-H ) :   0.8755

Dispersion correction           -0.041331313
FINAL SINGLE POINT ENERGY     -1529.167772484345

DIPOLE MOMENT
-------------
                                X             Y             Z
Electronic contribution:      0.03787       0.19045      -0.04281
Nuclear contribution   :     -0.02263       0.18830       1.25637
                        -----------------------------------------
Total Dipole Moment    :      0.01523       0.37875       1.21356
                        -----------------------------------------
Magnitude (a.u.)       :      1.27138
Magnitude (Debye)      :      3.23160

                             ****ORCA TERMINATED NORMALLY****
TOTAL RUN TIME: 0 days 0 hours 48 minutes 27 seconds 264 msec
