                         Program Version 4.2.0 -  RELEASE  -
|  1> # 12mecn.remya.etal.2.mol5,7,10
|  2> ! MP2 def2-TZVP EnGrad TightSCF
|  3>
|  4> %pal
|  5>     nprocs 6
|  6> end
|  7>
|  8> %maxcore 8000
|  9>
| 10> %scf
| 11>     ConvForced true
| 12> end
| 13>
| 14> *xyz 0 1
| 15> C  -1.955700000   2.515080000   1.698463000
| 16> H  -2.923830000   2.883163000   2.049269000
| 17> H  -1.154850000   3.171830000   2.050990000
| 18> H  -1.790380000   1.506115000   2.087896000
| 19> C  -1.948230000   2.482156000   0.253672000
| 20> N  -1.937550000   2.462523000  -0.913150000
| 21> C   1.502241000   0.651296000   1.710523000
| 22> H   1.309219000   1.637164000   2.143202000
| 23> H   2.493408000   0.297996000   2.009069000
| 24> H   0.746597000  -0.059850000   2.055508000
| 25> C   1.447974000   0.738517000   0.269805000
| 26> N   1.405612000   0.808047000  -0.894380000
| 27> C   4.602033000   0.321019000  -1.784800000
| 28> H   4.827650000  -0.662160000  -2.207910000
| 29> H   5.320558000   1.057980000  -2.148500000
| 30> H   3.601982000   0.643751000  -2.087520000
| 31> C   4.654967000   0.244048000  -0.343060000
| 32> N   4.691648000   0.166590000   0.820757000
| 33> *
| 34>
| 35>                          ****END OF INPUT****

CARTESIAN COORDINATES (ANGSTROEM)
---------------------------------
  C     -1.955700    2.515080    1.698463
  H     -2.923830    2.883163    2.049269
  H     -1.154850    3.171830    2.050990
  H     -1.790380    1.506115    2.087896
  C     -1.948230    2.482156    0.253672
  N     -1.937550    2.462523   -0.913150
  C      1.502241    0.651296    1.710523
  H      1.309219    1.637164    2.143202
  H      2.493408    0.297996    2.009069
  H      0.746597   -0.059850    2.055508
  C      1.447974    0.738517    0.269805
  N      1.405612    0.808047   -0.894380
  C      4.602033    0.321019   -1.784800
  H      4.827650   -0.662160   -2.207910
  H      5.320558    1.057980   -2.148500
  H      3.601982    0.643751   -2.087520
  C      4.654967    0.244048   -0.343060
  N      4.691648    0.166590    0.820757

 Total Charge           Charge          ....    0
 Multiplicity           Mult            ....    1
 Number of Electrons    NEL             ....   66
 Basis Dimension        Dim             ....  333

ORBITAL ENERGIES
----------------

  NO   OCC          E(Eh)            E(eV)
   0   2.0000     -15.570735      -423.7013
   1   2.0000     -15.570524      -423.6955
   2   2.0000     -15.569608      -423.6706
   3   2.0000     -11.288004      -307.1622
   4   2.0000     -11.282853      -307.0220
   5   2.0000     -11.279550      -306.9322
   6   2.0000     -11.276607      -306.8521
   7   2.0000     -11.276048      -306.8369
   8   2.0000     -11.270256      -306.6793
   9   2.0000      -1.216854       -33.1123
  10   2.0000      -1.212208       -32.9858
  11   2.0000      -1.210756       -32.9463
  12   2.0000      -1.045662       -28.4539
  13   2.0000      -1.038938       -28.2709
  14   2.0000      -1.033792       -28.1309
  15   2.0000      -0.700987       -19.0748
  16   2.0000      -0.695171       -18.9166
  17   2.0000      -0.690528       -18.7902
  18   2.0000      -0.639054       -17.3895
  19   2.0000      -0.635067       -17.2810
  20   2.0000      -0.628944       -17.1144
  21   2.0000      -0.626957       -17.0604
  22   2.0000      -0.622745       -16.9457
  23   2.0000      -0.614041       -16.7089
  24   2.0000      -0.558152       -15.1881
  25   2.0000      -0.554236       -15.0815
  26   2.0000      -0.551353       -15.0031
  27   2.0000      -0.462575       -12.5873
  28   2.0000      -0.459476       -12.5030
  29   2.0000      -0.456970       -12.4348
  30   2.0000      -0.455685       -12.3998
  31   2.0000      -0.453493       -12.3402
  32   2.0000      -0.446528       -12.1506
  33   0.0000       0.101397         2.7592
  34   0.0000       0.135810         3.6956
  35   0.0000       0.147740         4.0202
  36   0.0000       0.154922         4.2156
  37   0.0000       0.166011         4.5174

MULLIKEN ATOMIC CHARGES
-----------------------
   0 C :   -0.287442
   1 H :    0.181256
   2 H :    0.169176
   3 H :    0.165882
   4 C :   -0.152002
   5 N :   -0.076996
   6 C :   -0.297226
   7 H :    0.157268
   8 H :    0.216001
   9 H :    0.164166
  10 C :   -0.104600
  11 N :   -0.136060
  12 C :   -0.285510
  13 H :    0.166409
  14 H :    0.166112
  15 H :    0.208711
  16 C :   -0.100297
  17 N :   -0.154847
Sum of atomic charges:    0.0000000

LOEWDIN ATOMIC CHARGES
----------------------
   0 C :   -0.287812
   1 H :    0.153231
   2 H :    0.150668
   3 H :    0.149317
   4 C :   -0.223893
   5 N :    0.057877
   6 C :   -0.286309
   7 H :    0.148226
   8 H :    0.158385
   9 H :    0.149267
  10 C :   -0.213720
  11 N :    0.043960
  12 C :   -0.281345
  13 H :    0.152951
  14 H :    0.150473
  15 H :    0.158347
  16 C :   -0.207014
  17 N :    0.027390

  Mayer bond orders larger than 0.100000
B(  0-C ,  1-H ) :   0.9117 B(  0-C ,  2-H ) :   0.9219 B(  0-C ,  3-H ) :   0.9195
B(  0-C ,  4-C ) :   0.8969 B(  4-C ,  5-N ) :   2.8292 B(  6-C ,  7-H ) :   0.9191
B(  6-C ,  8-H ) :   0.8953 B(  6-C ,  9-H ) :   0.9232 B(  6-C , 10-C ) :   0.8921
B( 10-C , 11-N ) :   2.7546 B( 12-C , 13-H ) :   0.9139 B( 12-C , 14-H ) :   0.9163
B( 12-C , 15-H ) :   0.9008 B( 12-C , 16-C ) :   0.9015 B( 16-C , 17-N ) :   2.7713

MP2 TOTAL ENERGY:     -397.457991248 Eh
FINAL SINGLE POINT ENERGY      -397.457991248152

DIPOLE MOMENT
-------------
                                X             Y             Z
Electronic contribution:      0.02680      -0.04982      -3.27369
Nuclear contribution   :     -0.02907       0.07876       4.62700
                        -----------------------------------------
Total Dipole Moment    :     -0.00227       0.02894       1.35331
                        -----------------------------------------
Magnitude (a.u.)       :      1.35362
Magnitude (Debye)      :      3.44062

Rotational constants in cm-1:     0.094702     0.016304     0.014216
Rotational constants in MHz :  2839.099109   488.788014   426.191762

                             ****ORCA TERMINATED NORMALLY****
TOTAL RUN TIME: 0 days 0 hours 3 minutes 43 seconds 968 msec
