                         Program Version 4.2.0 -  RELEASE  -
|  1> # 12h2o.su.etal.mol0,1,3,4,6,7,9,10
|  2> ! MP2 def2-TZVP EnGrad TightSCF
|  3>
|  4> %pal
|  5>     nprocs 6
|  6> end
|  7>
|  8> %maxcore 8000
|  9>
| 10> %scf
| 11>     ConvForced true
| 12> end
| 13>
| 14> *xyz 0 1
| 15> O   1.794470000   0.923410000   2.768350000
| 16> H   2.338250000   1.359750000   3.430940000
| 17> H   0.879480000   1.303000000   2.865760000
| 18> O  -1.794470000  -0.923410000   2.768350000
| 19> H  -2.338250000  -1.359750000   3.430940000
| 20> H  -0.879480000  -1.303000000   2.865760000
| 21> O  -1.752130000  -0.741530000  -2.896280000
| 22> H  -2.036450000  -0.920500000  -1.984040000
| 23> H  -0.921210000  -1.242140000  -2.984230000
| 24> O  -0.885520000   1.737840000   0.052730000
| 25> H  -1.032320000   2.090180000  -0.841890000
| 26> H  -1.284090000   0.839590000   0.017130000
| 27> O   1.737840000   0.885520000  -0.052730000
| 28> H   2.090180000   1.032320000   0.841890000
| 29> H   0.839590000   1.284090000  -0.017130000
| 30> O  -1.737840000  -0.885520000  -0.052730000
| 31> H  -2.090180000  -1.032320000   0.841890000
| 32> H  -0.839590000  -1.284090000  -0.017130000
| 33> O   0.741530000  -1.752130000   2.896280000
| 34> H   0.920500000  -2.036450000   1.984040000
| 35> H   1.242140000  -0.921210000   2.984230000
| 36> O  -0.923410000   1.794470000  -2.768350000
| 37> H  -1.359750000   2.338250000  -3.430940000
| 38> H  -1.303000000   0.879480000  -2.865760000
| 39> *
| 40>
| 41>                          ****END OF INPUT****

CARTESIAN COORDINATES (ANGSTROEM)
---------------------------------
  O      1.794470    0.923410    2.768350
  H      2.338250    1.359750    3.430940
  H      0.879480    1.303000    2.865760
  O     -1.794470   -0.923410    2.768350
  H     -2.338250   -1.359750    3.430940
  H     -0.879480   -1.303000    2.865760
  O     -1.752130   -0.741530   -2.896280
  H     -2.036450   -0.920500   -1.984040
  H     -0.921210   -1.242140   -2.984230
  O     -0.885520    1.737840    0.052730
  H     -1.032320    2.090180   -0.841890
  H     -1.284090    0.839590    0.017130
  O      1.737840    0.885520   -0.052730
  H      2.090180    1.032320    0.841890
  H      0.839590    1.284090   -0.017130
  O     -1.737840   -0.885520   -0.052730
  H     -2.090180   -1.032320    0.841890
  H     -0.839590   -1.284090   -0.017130
  O      0.741530   -1.752130    2.896280
  H      0.920500   -2.036450    1.984040
  H      1.242140   -0.921210    2.984230
  O     -0.923410    1.794470   -2.768350
  H     -1.359750    2.338250   -3.430940
  H     -1.303000    0.879480   -2.865760

 Total Charge           Charge          ....    0
 Multiplicity           Mult            ....    1
 Number of Electrons    NEL             ....   80
 Basis Dimension        Dim             ....  344

ORBITAL ENERGIES
----------------

  NO   OCC          E(Eh)            E(eV)
   0   2.0000     -20.609794      -560.8210
   1   2.0000     -20.590011      -560.2827
   2   2.0000     -20.589838      -560.2780
   3   2.0000     -20.574604      -559.8634
   4   2.0000     -20.560196      -559.4714
   5   2.0000     -20.528930      -558.6206
   6   2.0000     -20.518184      -558.3282
   7   2.0000     -20.495792      -557.7189
   8   2.0000      -1.391799       -37.8728
   9   2.0000      -1.380072       -37.5537
  10   2.0000      -1.376617       -37.4597
  11   2.0000      -1.361923       -37.0598
  12   2.0000      -1.341554       -36.5055
  13   2.0000      -1.316512       -35.8241
  14   2.0000      -1.304731       -35.5035
  15   2.0000      -1.278708       -34.7954
  16   2.0000      -0.757426       -20.6106
  17   2.0000      -0.742237       -20.1973
  18   2.0000      -0.738159       -20.0863
  19   2.0000      -0.726361       -19.7653
  20   2.0000      -0.721532       -19.6339
  21   2.0000      -0.697736       -18.9864
  22   2.0000      -0.683539       -18.6000
  23   2.0000      -0.665821       -18.1179
  24   2.0000      -0.640237       -17.4217
  25   2.0000      -0.627959       -17.0876
  26   2.0000      -0.614212       -16.7136
  27   2.0000      -0.596419       -16.2294
  28   2.0000      -0.580544       -15.7974
  29   2.0000      -0.579309       -15.7638
  30   2.0000      -0.560842       -15.2613
  31   2.0000      -0.545910       -14.8550
  32   2.0000      -0.528571       -14.3831
  33   2.0000      -0.524001       -14.2588
  34   2.0000      -0.512998       -13.9594
  35   2.0000      -0.509902       -13.8751
  36   2.0000      -0.507138       -13.7999
  37   2.0000      -0.477015       -12.9802
  38   2.0000      -0.462675       -12.5900
  39   2.0000      -0.446562       -12.1516
  40   0.0000       0.089575         2.4374
  41   0.0000       0.116218         3.1625
  42   0.0000       0.139698         3.8014
  43   0.0000       0.149585         4.0704
  44   0.0000       0.173331         4.7166

MULLIKEN ATOMIC CHARGES
-----------------------
   0 O :   -0.722526
   1 H :    0.362810
   2 H :    0.384107
   3 O :   -0.741151
   4 H :    0.342463
   5 H :    0.370368
   6 O :   -0.694787
   7 H :    0.387339
   8 H :    0.350208
   9 O :   -0.738195
  10 H :    0.376417
  11 H :    0.358361
  12 O :   -0.743722
  13 H :    0.346096
  14 H :    0.352816
  15 O :   -0.730314
  16 H :    0.394680
  17 H :    0.340796
  18 O :   -0.699154
  19 H :    0.350459
  20 H :    0.382538
  21 O :   -0.731529
  22 H :    0.331394
  23 H :    0.370526
Sum of atomic charges:    0.0000000

LOEWDIN ATOMIC CHARGES
----------------------
   0 O :   -0.288038
   1 H :    0.167459
   2 H :    0.196549
   3 O :   -0.340714
   4 H :    0.156686
   5 H :    0.142754
   6 O :   -0.275812
   7 H :    0.157642
   8 H :    0.172180
   9 O :   -0.322699
  10 H :    0.149955
  11 H :    0.138115
  12 O :   -0.374789
  13 H :    0.137098
  14 H :    0.137029
  15 O :   -0.285427
  16 H :    0.159550
  17 H :    0.169096
  18 O :   -0.278165
  19 H :    0.168083
  20 H :    0.156385
  21 O :   -0.338596
  22 H :    0.151401
  23 H :    0.144257

  Mayer bond orders larger than 0.100000
B(  0-O ,  1-H ) :   0.8322 B(  0-O ,  2-H ) :   0.8094 B(  3-O ,  4-H ) :   0.8477
B(  3-O ,  5-H ) :   0.7552 B(  5-H , 18-O ) :   0.1040 B(  6-O ,  7-H ) :   0.8006
B(  6-O ,  8-H ) :   0.8418 B(  9-O , 10-H ) :   0.7996 B(  9-O , 11-H ) :   0.7984
B(  9-O , 14-H ) :   0.1034 B( 12-O , 13-H ) :   0.8416 B( 12-O , 14-H ) :   0.7848
B( 15-O , 16-H ) :   0.7772 B( 15-O , 17-H ) :   0.8351 B( 18-O , 19-H ) :   0.8406
B( 18-O , 20-H ) :   0.7918 B( 21-O , 22-H ) :   0.8535 B( 21-O , 23-H ) :   0.7642

MP2 TOTAL ENERGY:     -610.583547385 Eh
FINAL SINGLE POINT ENERGY      -610.583547384924

DIPOLE MOMENT
-------------
                                X             Y             Z
Electronic contribution:     -0.02174      -0.12910       0.11842
Nuclear contribution   :     -0.11247      -0.87406       1.40687
                        -----------------------------------------
Total Dipole Moment    :     -0.13421      -1.00317       1.52529
                        -----------------------------------------
Magnitude (a.u.)       :      1.83054
Magnitude (Debye)      :      4.65286

Rotational constants in cm-1:     0.038243     0.018401     0.014778
Rotational constants in MHz :  1146.497155   551.642584   443.021677

                             ****ORCA TERMINATED NORMALLY****
TOTAL RUN TIME: 0 days 0 hours 3 minutes 14 seconds 584 msec
