                         Program Version 4.2.0 -  RELEASE  -
|  1> # 12meoh.boyd.etal.mol1,6
|  2> ! MP2 def2-TZVP EnGrad TightSCF
|  3>
|  4> %pal
|  5>     nprocs 6
|  6> end
|  7>
|  8> %maxcore 8000
|  9>
| 10> %scf
| 11>     ConvForced true
| 12> end
| 13>
| 14> *xyz 0 1
| 15> O   0.666045193  -2.600503172   0.138317521
| 16> H  -0.227115049  -2.712051982  -0.281868004
| 17> C   0.490021232  -1.851247678   1.341189459
| 18> H   1.466500502  -1.466176022   1.645844415
| 19> H   0.097564527  -2.488364683   2.146902740
| 20> H  -0.187588112  -1.000787499   1.200739571
| 21> O   2.622209273  -1.703002590  -1.445859723
| 22> H   1.828551432  -1.986513781  -0.909754968
| 23> C   2.781117675  -2.615822239  -2.525472890
| 24> H   3.691063626  -2.339003544  -3.065143454
| 25> H   1.934727323  -2.559520367  -3.223226661
| 26> H   2.879948338  -3.653846211  -2.177750170
| 27> *
| 28>
| 29>                          ****END OF INPUT****

CARTESIAN COORDINATES (ANGSTROEM)
---------------------------------
  O      0.666045   -2.600503    0.138318
  H     -0.227115   -2.712052   -0.281868
  C      0.490021   -1.851248    1.341189
  H      1.466501   -1.466176    1.645844
  H      0.097565   -2.488365    2.146903
  H     -0.187588   -1.000787    1.200740
  O      2.622209   -1.703003   -1.445860
  H      1.828551   -1.986514   -0.909755
  C      2.781118   -2.615822   -2.525473
  H      3.691064   -2.339004   -3.065143
  H      1.934727   -2.559520   -3.223227
  H      2.879948   -3.653846   -2.177750

 Total Charge           Charge          ....    0
 Multiplicity           Mult            ....    1
 Number of Electrons    NEL             ....   36
 Basis Dimension        Dim             ....  172

ORBITAL ENERGIES
----------------

  NO   OCC          E(Eh)            E(eV)
   0   2.0000     -20.590922      -560.3075
   1   2.0000     -20.511527      -558.1470
   2   2.0000     -11.290172      -307.2212
   3   2.0000     -11.247832      -306.0691
   4   2.0000      -1.383168       -37.6379
   5   2.0000      -1.307770       -35.5862
   6   2.0000      -0.942329       -25.6421
   7   2.0000      -0.894208       -24.3326
   8   2.0000      -0.716624       -19.5003
   9   2.0000      -0.671629       -18.2760
  10   2.0000      -0.634545       -17.2669
  11   2.0000      -0.608499       -16.5581
  12   2.0000      -0.588967       -16.0266
  13   2.0000      -0.559779       -15.2324
  14   2.0000      -0.529402       -14.4057
  15   2.0000      -0.487692       -13.2708
  16   2.0000      -0.455129       -12.3847
  17   2.0000      -0.414596       -11.2817
  18   0.0000       0.116290         3.1644
  19   0.0000       0.158513         4.3134
  20   0.0000       0.181169         4.9299
  21   0.0000       0.215310         5.8589
  22   0.0000       0.217471         5.9177

MULLIKEN ATOMIC CHARGES
-----------------------
   0 O :   -0.514846
   1 H :    0.340654
   2 C :   -0.187531
   3 H :    0.152762
   4 H :    0.125408
   5 H :    0.125822
   6 O :   -0.534108
   7 H :    0.343190
   8 C :   -0.164849
   9 H :    0.120715
  10 H :    0.090878
  11 H :    0.101904
Sum of atomic charges:   -0.0000000

LOEWDIN ATOMIC CHARGES
----------------------
   0 O :   -0.076989
   1 H :    0.197613
   2 C :   -0.366447
   3 H :    0.117827
   4 H :    0.104086
   5 H :    0.102081
   6 O :   -0.128282
   7 H :    0.159306
   8 C :   -0.396240
   9 H :    0.105654
  10 H :    0.088840
  11 H :    0.092550

  Mayer bond orders larger than 0.100000
B(  0-O ,  1-H ) :   0.8288 B(  0-O ,  2-C ) :   0.8695 B(  2-C ,  3-H ) :   0.9385
B(  2-C ,  4-H ) :   0.9334 B(  2-C ,  5-H ) :   0.9402 B(  6-O ,  7-H ) :   0.7872
B(  6-O ,  8-C ) :   0.9447 B(  8-C ,  9-H ) :   0.9415 B(  8-C , 10-H ) :   0.9413
B(  8-C , 11-H ) :   0.9369

MP2 TOTAL ENERGY:     -231.021494243 Eh
FINAL SINGLE POINT ENERGY      -231.021494243324

DIPOLE MOMENT
-------------
                                X             Y             Z
Electronic contribution:      0.04352       0.27390       0.19614
Nuclear contribution   :     -1.34413      -0.58230       0.28978
                        -----------------------------------------
Total Dipole Moment    :     -1.30062      -0.30840       0.48592
                        -----------------------------------------
Magnitude (a.u.)       :      1.42226
Magnitude (Debye)      :      3.61511

Rotational constants in cm-1:     0.707058     0.078885     0.073341
Rotational constants in MHz : 21197.078264  2364.923758  2198.715711

                             ****ORCA TERMINATED NORMALLY****
TOTAL RUN TIME: 0 days 0 hours 0 minutes 28 seconds 68 msec
