                         Program Version 4.2.0 -  RELEASE  -
|  1> # 12h2o.su.etal.mol1,2,3,5,6,8,9
|  2> ! MP2 def2-TZVP EnGrad TightSCF
|  3>
|  4> %pal
|  5>     nprocs 6
|  6> end
|  7>
|  8> %maxcore 8000
|  9>
| 10> %scf
| 11>     ConvForced true
| 12> end
| 13>
| 14> *xyz 0 1
| 15> O  -1.794470000  -0.923410000   2.768350000
| 16> H  -2.338250000  -1.359750000   3.430940000
| 17> H  -0.879480000  -1.303000000   2.865760000
| 18> O   0.923410000  -1.794470000  -2.768350000
| 19> H   1.359750000  -2.338250000  -3.430940000
| 20> H   1.303000000  -0.879480000  -2.865760000
| 21> O  -1.752130000  -0.741530000  -2.896280000
| 22> H  -2.036450000  -0.920500000  -1.984040000
| 23> H  -0.921210000  -1.242140000  -2.984230000
| 24> O   0.885520000  -1.737840000   0.052730000
| 25> H   1.284090000  -0.839590000   0.017130000
| 26> H   1.032320000  -2.090180000  -0.841890000
| 27> O   1.737840000   0.885520000  -0.052730000
| 28> H   2.090180000   1.032320000   0.841890000
| 29> H   0.839590000   1.284090000  -0.017130000
| 30> O   1.752130000   0.741530000  -2.896280000
| 31> H   2.036450000   0.920500000  -1.984040000
| 32> H   0.921210000   1.242140000  -2.984230000
| 33> O   0.741530000  -1.752130000   2.896280000
| 34> H   0.920500000  -2.036450000   1.984040000
| 35> H   1.242140000  -0.921210000   2.984230000
| 36> *
| 37>
| 38>                          ****END OF INPUT****

CARTESIAN COORDINATES (ANGSTROEM)
---------------------------------
  O     -1.794470   -0.923410    2.768350
  H     -2.338250   -1.359750    3.430940
  H     -0.879480   -1.303000    2.865760
  O      0.923410   -1.794470   -2.768350
  H      1.359750   -2.338250   -3.430940
  H      1.303000   -0.879480   -2.865760
  O     -1.752130   -0.741530   -2.896280
  H     -2.036450   -0.920500   -1.984040
  H     -0.921210   -1.242140   -2.984230
  O      0.885520   -1.737840    0.052730
  H      1.284090   -0.839590    0.017130
  H      1.032320   -2.090180   -0.841890
  O      1.737840    0.885520   -0.052730
  H      2.090180    1.032320    0.841890
  H      0.839590    1.284090   -0.017130
  O      1.752130    0.741530   -2.896280
  H      2.036450    0.920500   -1.984040
  H      0.921210    1.242140   -2.984230
  O      0.741530   -1.752130    2.896280
  H      0.920500   -2.036450    1.984040
  H      1.242140   -0.921210    2.984230

 Total Charge           Charge          ....    0
 Multiplicity           Mult            ....    1
 Number of Electrons    NEL             ....   70
 Basis Dimension        Dim             ....  301

ORBITAL ENERGIES
----------------

  NO   OCC          E(Eh)            E(eV)
   0   2.0000     -20.640402      -561.6539
   1   2.0000     -20.595649      -560.4361
   2   2.0000     -20.568604      -559.7002
   3   2.0000     -20.568264      -559.6909
   4   2.0000     -20.541846      -558.9720
   5   2.0000     -20.529489      -558.6358
   6   2.0000     -20.508446      -558.0632
   7   2.0000      -1.423653       -38.7396
   8   2.0000      -1.385189       -37.6929
   9   2.0000      -1.358455       -36.9655
  10   2.0000      -1.353890       -36.8412
  11   2.0000      -1.326335       -36.0914
  12   2.0000      -1.311662       -35.6921
  13   2.0000      -1.290574       -35.1183
  14   2.0000      -0.782693       -21.2982
  15   2.0000      -0.745907       -20.2972
  16   2.0000      -0.735671       -20.0186
  17   2.0000      -0.721224       -19.6255
  18   2.0000      -0.709136       -19.2966
  19   2.0000      -0.681770       -18.5519
  20   2.0000      -0.679003       -18.4766
  21   2.0000      -0.666777       -18.1439
  22   2.0000      -0.623951       -16.9786
  23   2.0000      -0.615611       -16.7516
  24   2.0000      -0.595919       -16.2158
  25   2.0000      -0.582046       -15.8383
  26   2.0000      -0.558590       -15.2000
  27   2.0000      -0.549732       -14.9590
  28   2.0000      -0.539157       -14.6712
  29   2.0000      -0.531759       -14.4699
  30   2.0000      -0.511641       -13.9225
  31   2.0000      -0.498759       -13.5719
  32   2.0000      -0.491526       -13.3751
  33   2.0000      -0.477421       -12.9913
  34   2.0000      -0.459016       -12.4905
  35   0.0000       0.068274         1.8578
  36   0.0000       0.116390         3.1671
  37   0.0000       0.142150         3.8681
  38   0.0000       0.162531         4.4227
  39   0.0000       0.172572         4.6959

MULLIKEN ATOMIC CHARGES
-----------------------
   0 O :   -0.739689
   1 H :    0.322858
   2 H :    0.369339
   3 O :   -0.750198
   4 H :    0.349756
   5 H :    0.383791
   6 O :   -0.719767
   7 H :    0.340010
   8 H :    0.360250
   9 O :   -0.737835
  10 H :    0.333987
  11 H :    0.375124
  12 O :   -0.713636
  13 H :    0.369910
  14 H :    0.379497
  15 O :   -0.697371
  16 H :    0.385710
  17 H :    0.360611
  18 O :   -0.687722
  19 H :    0.392090
  20 H :    0.323284
Sum of atomic charges:   -0.0000000

LOEWDIN ATOMIC CHARGES
----------------------
   0 O :   -0.376597
   1 H :    0.147145
   2 H :    0.142240
   3 O :   -0.312566
   4 H :    0.159091
   5 H :    0.146397
   6 O :   -0.352133
   7 H :    0.163906
   8 H :    0.145489
   9 O :   -0.343517
  10 H :    0.134404
  11 H :    0.150913
  12 O :   -0.277376
  13 H :    0.177852
  14 H :    0.189352
  15 O :   -0.271065
  16 H :    0.158063
  17 H :    0.175555
  18 O :   -0.276711
  19 H :    0.160211
  20 H :    0.159347

  Mayer bond orders larger than 0.100000
B(  0-O ,  1-H ) :   0.8621 B(  0-O ,  2-H ) :   0.7802 B(  3-O ,  4-H ) :   0.8408
B(  3-O ,  5-H ) :   0.7454 B(  6-O ,  7-H ) :   0.8504 B(  6-O ,  8-H ) :   0.8144
B(  9-O , 10-H ) :   0.8077 B(  9-O , 11-H ) :   0.8062 B( 12-O , 13-H ) :   0.8282
B( 12-O , 14-H ) :   0.8174 B( 15-O , 16-H ) :   0.8078 B( 15-O , 17-H ) :   0.8316
B( 18-O , 19-H ) :   0.7883 B( 18-O , 20-H ) :   0.8568

MP2 TOTAL ENERGY:     -534.249189622 Eh
FINAL SINGLE POINT ENERGY      -534.249189621903

DIPOLE MOMENT
-------------
                                X             Y             Z
Electronic contribution:      0.36493       0.15568      -0.40725
Nuclear contribution   :      1.55333       0.99314       0.68611
                        -----------------------------------------
Total Dipole Moment    :      1.91827       1.14882       0.27885
                        -----------------------------------------
Magnitude (a.u.)       :      2.25328
Magnitude (Debye)      :      5.72739

Rotational constants in cm-1:     0.046013     0.019739     0.017115
Rotational constants in MHz :  1379.444629   591.751287   513.099613

                             ****ORCA TERMINATED NORMALLY****
TOTAL RUN TIME: 0 days 0 hours 1 minutes 43 seconds 106 msec
