                         Program Version 4.2.0 -  RELEASE  -
|  1> # 12h2o.su.etal.mol0,2,3,7,8,9,11
|  2> ! MP2 def2-TZVP EnGrad TightSCF
|  3>
|  4> %pal
|  5>     nprocs 6
|  6> end
|  7>
|  8> %maxcore 8000
|  9>
| 10> %scf
| 11>     ConvForced true
| 12> end
| 13>
| 14> *xyz 0 1
| 15> O   1.794470000   0.923410000   2.768350000
| 16> H   2.338250000   1.359750000   3.430940000
| 17> H   0.879480000   1.303000000   2.865760000
| 18> O   0.923410000  -1.794470000  -2.768350000
| 19> H   1.359750000  -2.338250000  -3.430940000
| 20> H   1.303000000  -0.879480000  -2.865760000
| 21> O  -1.752130000  -0.741530000  -2.896280000
| 22> H  -2.036450000  -0.920500000  -1.984040000
| 23> H  -0.921210000  -1.242140000  -2.984230000
| 24> O  -1.737840000  -0.885520000  -0.052730000
| 25> H  -2.090180000  -1.032320000   0.841890000
| 26> H  -0.839590000  -1.284090000  -0.017130000
| 27> O   1.752130000   0.741530000  -2.896280000
| 28> H   2.036450000   0.920500000  -1.984040000
| 29> H   0.921210000   1.242140000  -2.984230000
| 30> O   0.741530000  -1.752130000   2.896280000
| 31> H   0.920500000  -2.036450000   1.984040000
| 32> H   1.242140000  -0.921210000   2.984230000
| 33> O  -0.741530000   1.752130000   2.896280000
| 34> H  -0.920500000   2.036450000   1.984040000
| 35> H  -1.242140000   0.921210000   2.984230000
| 36> *
| 37>
| 38>                          ****END OF INPUT****

CARTESIAN COORDINATES (ANGSTROEM)
---------------------------------
  O      1.794470    0.923410    2.768350
  H      2.338250    1.359750    3.430940
  H      0.879480    1.303000    2.865760
  O      0.923410   -1.794470   -2.768350
  H      1.359750   -2.338250   -3.430940
  H      1.303000   -0.879480   -2.865760
  O     -1.752130   -0.741530   -2.896280
  H     -2.036450   -0.920500   -1.984040
  H     -0.921210   -1.242140   -2.984230
  O     -1.737840   -0.885520   -0.052730
  H     -2.090180   -1.032320    0.841890
  H     -0.839590   -1.284090   -0.017130
  O      1.752130    0.741530   -2.896280
  H      2.036450    0.920500   -1.984040
  H      0.921210    1.242140   -2.984230
  O      0.741530   -1.752130    2.896280
  H      0.920500   -2.036450    1.984040
  H      1.242140   -0.921210    2.984230
  O     -0.741530    1.752130    2.896280
  H     -0.920500    2.036450    1.984040
  H     -1.242140    0.921210    2.984230

 Total Charge           Charge          ....    0
 Multiplicity           Mult            ....    1
 Number of Electrons    NEL             ....   70
 Basis Dimension        Dim             ....  301

ORBITAL ENERGIES
----------------

  NO   OCC          E(Eh)            E(eV)
   0   2.0000     -20.612212      -560.8868
   1   2.0000     -20.602485      -560.6221
   2   2.0000     -20.590335      -560.2915
   3   2.0000     -20.559273      -559.4463
   4   2.0000     -20.548483      -559.1526
   5   2.0000     -20.547866      -559.1359
   6   2.0000     -20.505228      -557.9756
   7   2.0000      -1.397966       -38.0406
   8   2.0000      -1.388275       -37.7769
   9   2.0000      -1.368435       -37.2370
  10   2.0000      -1.344623       -36.5891
  11   2.0000      -1.332621       -36.2625
  12   2.0000      -1.328464       -36.1494
  13   2.0000      -1.290250       -35.1095
  14   2.0000      -0.754583       -20.5332
  15   2.0000      -0.744758       -20.2659
  16   2.0000      -0.730576       -19.8800
  17   2.0000      -0.728812       -19.8320
  18   2.0000      -0.717873       -19.5343
  19   2.0000      -0.697741       -18.9865
  20   2.0000      -0.668826       -18.1997
  21   2.0000      -0.637504       -17.3474
  22   2.0000      -0.628029       -17.0895
  23   2.0000      -0.607700       -16.5363
  24   2.0000      -0.595472       -16.2036
  25   2.0000      -0.579866       -15.7790
  26   2.0000      -0.567777       -15.4500
  27   2.0000      -0.542247       -14.7553
  28   2.0000      -0.540590       -14.7102
  29   2.0000      -0.532577       -14.4922
  30   2.0000      -0.522590       -14.2204
  31   2.0000      -0.508354       -13.8330
  32   2.0000      -0.494855       -13.4657
  33   2.0000      -0.493577       -13.4309
  34   2.0000      -0.455363       -12.3910
  35   0.0000       0.075279         2.0484
  36   0.0000       0.109522         2.9802
  37   0.0000       0.131199         3.5701
  38   0.0000       0.142094         3.8666
  39   0.0000       0.162046         4.4095

MULLIKEN ATOMIC CHARGES
-----------------------
   0 O :   -0.741887
   1 H :    0.344251
   2 H :    0.378141
   3 O :   -0.741290
   4 H :    0.342065
   5 H :    0.378114
   6 O :   -0.734676
   7 H :    0.363377
   8 H :    0.347719
   9 O :   -0.695520
  10 H :    0.343755
  11 H :    0.349742
  12 O :   -0.686322
  13 H :    0.359996
  14 H :    0.370733
  15 O :   -0.710909
  16 H :    0.323671
  17 H :    0.364815
  18 O :   -0.681796
  19 H :    0.363803
  20 H :    0.362219
Sum of atomic charges:   -0.0000000

LOEWDIN ATOMIC CHARGES
----------------------
   0 O :   -0.341090
   1 H :    0.157066
   2 H :    0.144690
   3 O :   -0.342154
   4 H :    0.156147
   5 H :    0.144687
   6 O :   -0.358557
   7 H :    0.148466
   8 H :    0.140947
   9 O :   -0.316891
  10 H :    0.165384
  11 H :    0.174701
  12 O :   -0.269998
  13 H :    0.175407
  14 H :    0.180360
  15 O :   -0.348046
  16 H :    0.155496
  17 H :    0.148388
  18 O :   -0.267431
  19 H :    0.176651
  20 H :    0.175776

  Mayer bond orders larger than 0.100000
B(  0-O ,  1-H ) :   0.8468 B(  0-O ,  2-H ) :   0.7651 B(  3-O ,  4-H ) :   0.8482
B(  3-O ,  5-H ) :   0.7660 B(  6-O ,  7-H ) :   0.8303 B(  6-O ,  8-H ) :   0.8189
B(  9-O , 10-H ) :   0.8439 B(  9-O , 11-H ) :   0.8340 B( 12-O , 13-H ) :   0.8360
B( 12-O , 14-H ) :   0.8246 B( 15-O , 16-H ) :   0.8595 B( 15-O , 17-H ) :   0.8020
B( 18-O , 19-H ) :   0.8329 B( 18-O , 20-H ) :   0.8305

MP2 TOTAL ENERGY:     -534.240328254 Eh
FINAL SINGLE POINT ENERGY      -534.240328254446

DIPOLE MOMENT
-------------
                                X             Y             Z
Electronic contribution:     -0.09318       0.44473       0.01974
Nuclear contribution   :      0.82456       0.53418       0.77428
                        -----------------------------------------
Total Dipole Moment    :      0.73138       0.97891       0.79402
                        -----------------------------------------
Magnitude (a.u.)       :      1.45728
Magnitude (Debye)      :      3.70411

Rotational constants in cm-1:     0.038453     0.015550     0.014446
Rotational constants in MHz :  1152.805808   466.188154   433.079350

                             ****ORCA TERMINATED NORMALLY****
TOTAL RUN TIME: 0 days 0 hours 1 minutes 48 seconds 234 msec
