                         Program Version 4.2.0 -  RELEASE  -
|  1> # 12h2o.su.etal.mol1,2,3,4,9,10
|  2> ! MP2 def2-TZVP EnGrad TightSCF
|  3>
|  4> %pal
|  5>     nprocs 6
|  6> end
|  7>
|  8> %maxcore 8000
|  9>
| 10> %scf
| 11>     ConvForced true
| 12> end
| 13>
| 14> *xyz 0 1
| 15> O  -1.794470000  -0.923410000   2.768350000
| 16> H  -2.338250000  -1.359750000   3.430940000
| 17> H  -0.879480000  -1.303000000   2.865760000
| 18> O   0.923410000  -1.794470000  -2.768350000
| 19> H   1.359750000  -2.338250000  -3.430940000
| 20> H   1.303000000  -0.879480000  -2.865760000
| 21> O  -1.752130000  -0.741530000  -2.896280000
| 22> H  -2.036450000  -0.920500000  -1.984040000
| 23> H  -0.921210000  -1.242140000  -2.984230000
| 24> O  -0.885520000   1.737840000   0.052730000
| 25> H  -1.032320000   2.090180000  -0.841890000
| 26> H  -1.284090000   0.839590000   0.017130000
| 27> O   0.741530000  -1.752130000   2.896280000
| 28> H   0.920500000  -2.036450000   1.984040000
| 29> H   1.242140000  -0.921210000   2.984230000
| 30> O  -0.923410000   1.794470000  -2.768350000
| 31> H  -1.359750000   2.338250000  -3.430940000
| 32> H  -1.303000000   0.879480000  -2.865760000
| 33> *
| 34>
| 35>                          ****END OF INPUT****

CARTESIAN COORDINATES (ANGSTROEM)
---------------------------------
  O     -1.794470   -0.923410    2.768350
  H     -2.338250   -1.359750    3.430940
  H     -0.879480   -1.303000    2.865760
  O      0.923410   -1.794470   -2.768350
  H      1.359750   -2.338250   -3.430940
  H      1.303000   -0.879480   -2.865760
  O     -1.752130   -0.741530   -2.896280
  H     -2.036450   -0.920500   -1.984040
  H     -0.921210   -1.242140   -2.984230
  O     -0.885520    1.737840    0.052730
  H     -1.032320    2.090180   -0.841890
  H     -1.284090    0.839590    0.017130
  O      0.741530   -1.752130    2.896280
  H      0.920500   -2.036450    1.984040
  H      1.242140   -0.921210    2.984230
  O     -0.923410    1.794470   -2.768350
  H     -1.359750    2.338250   -3.430940
  H     -1.303000    0.879480   -2.865760

 Total Charge           Charge          ....    0
 Multiplicity           Mult            ....    1
 Number of Electrons    NEL             ....   60
 Basis Dimension        Dim             ....  258

ORBITAL ENERGIES
----------------

  NO   OCC          E(Eh)            E(eV)
   0   2.0000     -20.605316      -560.6992
   1   2.0000     -20.594257      -560.3982
   2   2.0000     -20.580957      -560.0363
   3   2.0000     -20.541056      -558.9506
   4   2.0000     -20.515850      -558.2647
   5   2.0000     -20.515734      -558.2615
   6   2.0000      -1.384393       -37.6712
   7   2.0000      -1.379546       -37.5393
   8   2.0000      -1.368721       -37.2448
   9   2.0000      -1.325457       -36.0675
  10   2.0000      -1.298109       -35.3233
  11   2.0000      -1.294215       -35.2174
  12   2.0000      -0.751356       -20.4454
  13   2.0000      -0.737078       -20.0569
  14   2.0000      -0.729689       -19.8559
  15   2.0000      -0.709493       -19.3063
  16   2.0000      -0.688912       -18.7463
  17   2.0000      -0.663515       -18.0551
  18   2.0000      -0.630352       -17.1527
  19   2.0000      -0.614649       -16.7254
  20   2.0000      -0.605013       -16.4632
  21   2.0000      -0.571349       -15.5472
  22   2.0000      -0.555397       -15.1131
  23   2.0000      -0.546290       -14.8653
  24   2.0000      -0.538968       -14.6661
  25   2.0000      -0.515595       -14.0300
  26   2.0000      -0.511926       -13.9302
  27   2.0000      -0.487288       -13.2598
  28   2.0000      -0.466076       -12.6826
  29   2.0000      -0.461553       -12.5595
  30   0.0000       0.091300         2.4844
  31   0.0000       0.115582         3.1451
  32   0.0000       0.135278         3.6811
  33   0.0000       0.161852         4.4042
  34   0.0000       0.178410         4.8548

MULLIKEN ATOMIC CHARGES
-----------------------
   0 O :   -0.727606
   1 H :    0.323594
   2 H :    0.363428
   3 O :   -0.706122
   4 H :    0.358277
   5 H :    0.372046
   6 O :   -0.698582
   7 H :    0.353155
   8 H :    0.376776
   9 O :   -0.697185
  10 H :    0.364672
  11 H :    0.313012
  12 O :   -0.679980
  13 H :    0.357637
  14 H :    0.365752
  15 O :   -0.739827
  16 H :    0.335573
  17 H :    0.365382
Sum of atomic charges:   -0.0000000

LOEWDIN ATOMIC CHARGES
----------------------
   0 O :   -0.370368
   1 H :    0.148336
   2 H :    0.141577
   3 O :   -0.312117
   4 H :    0.166482
   5 H :    0.192842
   6 O :   -0.279547
   7 H :    0.169687
   8 H :    0.154513
   9 O :   -0.349736
  10 H :    0.147615
  11 H :    0.157285
  12 O :   -0.271569
  13 H :    0.174589
  14 H :    0.179742
  15 O :   -0.343667
  16 H :    0.152773
  17 H :    0.141563

  Mayer bond orders larger than 0.100000
B(  0-O ,  1-H ) :   0.8611 B(  0-O ,  2-H ) :   0.7885 B(  3-O ,  4-H ) :   0.8382
B(  3-O ,  5-H ) :   0.8215 B(  6-O ,  7-H ) :   0.8396 B(  6-O ,  8-H ) :   0.7956
B(  9-O , 10-H ) :   0.8151 B(  9-O , 11-H ) :   0.8610 B( 12-O , 13-H ) :   0.8375
B( 12-O , 14-H ) :   0.8322 B( 15-O , 16-H ) :   0.8512 B( 15-O , 17-H ) :   0.7618

MP2 TOTAL ENERGY:     -457.913302704 Eh
FINAL SINGLE POINT ENERGY      -457.913302703858

DIPOLE MOMENT
-------------
                                X             Y             Z
Electronic contribution:      0.30577      -0.24031       0.03109
Nuclear contribution   :      0.87566      -1.24423      -1.40687
                        -----------------------------------------
Total Dipole Moment    :      1.18143      -1.48454      -1.37578
                        -----------------------------------------
Magnitude (a.u.)       :      2.34359
Magnitude (Debye)      :      5.95693

Rotational constants in cm-1:     0.048401     0.020663     0.017092
Rotational constants in MHz :  1451.031785   619.467204   512.409412

                             ****ORCA TERMINATED NORMALLY****
TOTAL RUN TIME: 0 days 0 hours 1 minutes 2 seconds 313 msec
