                         Program Version 4.2.0 -  RELEASE  -
|  1> # Functional Basis-set
|  2> ! MP2 def2-TZVP
|  3>
|  4> # Type of calculation
|  5> ! OPT
|  6>
|  7> # Options
|  8> ! TightSCF Grid4
|  9>
| 10> %pal nprocs 12 end
| 11>
| 12> *xyz  0  1
| 13> O                  0.04687300   -0.75769200    0.00000000
| 14> H                 -0.87618500   -1.05160900    0.00000000
| 15> C                  0.04687300    0.66094600    0.00000000
| 16> H                  1.09415100    0.97510200    0.00000000
| 17> H                 -0.43709600    1.08618600    0.89315300
| 18> H                 -0.43709600    1.08618600   -0.89315300
| 19> *
| 20>
| 21>                          ****END OF INPUT****
 Total Charge           Charge          ....    0
 Multiplicity           Mult            ....    1
 Number of Electrons    NEL             ....   18
MP2 TOTAL ENERGY:     -115.507508560 Eh
FINAL SINGLE POINT ENERGY      -115.507508559512
MP2 TOTAL ENERGY:     -115.507642735 Eh
FINAL SINGLE POINT ENERGY      -115.507642735160
MP2 TOTAL ENERGY:     -115.507650648 Eh
FINAL SINGLE POINT ENERGY      -115.507650648162
MP2 TOTAL ENERGY:     -115.507653415 Eh
FINAL SINGLE POINT ENERGY      -115.507653415025
                    ***********************HURRAY********************

CARTESIAN COORDINATES (ANGSTROEM)
---------------------------------
  O      0.044194   -0.754448   -0.000000
  H     -0.874480   -1.043721    0.000000
  C      0.048224    0.665550    0.000000
  H      1.090669    0.975611    0.000000
  H     -0.435544    1.078064    0.889793
  H     -0.435544    1.078064   -0.889793

 Multiplicity           Mult            ....    1
 Number of Electrons    NEL             ....   18
 Basis Dimension        Dim             ....   86

ORBITAL ENERGIES
----------------

  NO   OCC          E(Eh)            E(eV)
   0   2.0000     -20.554538      -559.3174
   1   2.0000     -11.269485      -306.6583
   2   2.0000      -1.354895       -36.8686
   3   2.0000      -0.924022       -25.1439
   4   2.0000      -0.689294       -18.7566
   5   2.0000      -0.619490       -16.8572
   6   2.0000      -0.591933       -16.1073
   7   2.0000      -0.503350       -13.6968
   8   2.0000      -0.450707       -12.2643
   9   0.0000       0.137043         3.7291
  10   0.0000       0.177655         4.8342
  11   0.0000       0.229747         6.2517
  12   0.0000       0.230584         6.2745
  13   0.0000       0.255641         6.9564

MULLIKEN ATOMIC CHARGES
-----------------------
   0 O :   -0.493023
   1 H :    0.317805
   2 C :   -0.171173
   3 H :    0.128576
   4 H :    0.108908
   5 H :    0.108908
Sum of atomic charges:    0.0000000

LOEWDIN ATOMIC CHARGES
----------------------
   0 O :   -0.091948
   1 H :    0.171723
   2 C :   -0.378959
   3 H :    0.109767
   4 H :    0.094709
   5 H :    0.094709

  Mayer bond orders larger than 0.100000
B(  0-O ,  1-H ) :   0.8511 B(  0-O ,  2-C ) :   0.9260 B(  2-C ,  3-H ) :   0.9395
B(  2-C ,  4-H ) :   0.9393 B(  2-C ,  5-H ) :   0.9393

MP2 TOTAL ENERGY:     -115.507653539 Eh
FINAL SINGLE POINT ENERGY      -115.507653539284

DIPOLE MOMENT
-------------
                                X             Y             Z
Electronic contribution:      0.11740      -1.78230      -0.00000
Nuclear contribution   :     -0.68738       2.17961       0.00000
                        -----------------------------------------
Total Dipole Moment    :     -0.56998       0.39731       0.00000
                        -----------------------------------------
Magnitude (a.u.)       :      0.69479
Magnitude (Debye)      :      1.76602

Rotational constants in cm-1:     4.276637     0.828149     0.798738
Rotational constants in MHz : 128210.343149 24827.282259 23945.559790

                             ****ORCA TERMINATED NORMALLY****
TOTAL RUN TIME: 0 days 0 hours 0 minutes 26 seconds 165 msec
