                         Program Version 4.2.0 -  RELEASE  -
|  1> # Functional Basis-set
|  2> ! MP2 def2-SVP
|  3>
|  4> # Type of calculation
|  5> ! OPT
|  6>
|  7> # Options
|  8> ! TightSCF Grid4
|  9>
| 10> %pal nprocs 12 end
| 11>
| 12> *xyz  0  1
| 13> O                  0.04687300   -0.75769200    0.00000000
| 14> H                 -0.87618500   -1.05160900    0.00000000
| 15> C                  0.04687300    0.66094600    0.00000000
| 16> H                  1.09415100    0.97510200    0.00000000
| 17> H                 -0.43709600    1.08618600    0.89315300
| 18> H                 -0.43709600    1.08618600   -0.89315300
| 19> *
| 20>
| 21>                          ****END OF INPUT****
 Total Charge           Charge          ....    0
 Multiplicity           Mult            ....    1
 Number of Electrons    NEL             ....   18
MP2 TOTAL ENERGY:     -115.291343743 Eh
FINAL SINGLE POINT ENERGY      -115.291343743454
MP2 TOTAL ENERGY:     -115.291477416 Eh
FINAL SINGLE POINT ENERGY      -115.291477416209
MP2 TOTAL ENERGY:     -115.291494843 Eh
FINAL SINGLE POINT ENERGY      -115.291494842571
MP2 TOTAL ENERGY:     -115.291498756 Eh
FINAL SINGLE POINT ENERGY      -115.291498756164
                    ***********************HURRAY********************

CARTESIAN COORDINATES (ANGSTROEM)
---------------------------------
  O      0.045533   -0.755580   -0.000000
  H     -0.873856   -1.040294    0.000000
  C      0.047434    0.651359   -0.000000
  H      1.094522    0.978860    0.000000
  H     -0.438057    1.082387    0.893393
  H     -0.438057    1.082387   -0.893393

 Multiplicity           Mult            ....    1
 Number of Electrons    NEL             ....   18
 Basis Dimension        Dim             ....   48

ORBITAL ENERGIES
----------------

  NO   OCC          E(Eh)            E(eV)
   0   2.0000     -20.545686      -559.0765
   1   2.0000     -11.278465      -306.9026
   2   2.0000      -1.337989       -36.4085
   3   2.0000      -0.910015       -24.7628
   4   2.0000      -0.688655       -18.7393
   5   2.0000      -0.617059       -16.7910
   6   2.0000      -0.592933       -16.1345
   7   2.0000      -0.497667       -13.5422
   8   2.0000      -0.445725       -12.1288
   9   0.0000       0.177465         4.8291
  10   0.0000       0.220241         5.9931
  11   0.0000       0.265767         7.2319
  12   0.0000       0.266431         7.2500
  13   0.0000       0.364646         9.9225

MULLIKEN ATOMIC CHARGES
-----------------------
   0 O :   -0.381531
   1 H :    0.178098
   2 C :    0.136887
   3 H :    0.037268
   4 H :    0.014638
   5 H :    0.014638
Sum of atomic charges:    0.0000000

LOEWDIN ATOMIC CHARGES
----------------------
   0 O :   -0.164462
   1 H :    0.073870
   2 C :    0.072821
   3 H :    0.018185
   4 H :   -0.000207
   5 H :   -0.000207

  Mayer bond orders larger than 0.100000
B(  0-O ,  1-H ) :   0.9429 B(  0-O ,  2-C ) :   0.9438 B(  2-C ,  3-H ) :   0.9520
B(  2-C ,  4-H ) :   0.9417 B(  2-C ,  5-H ) :   0.9417

MP2 TOTAL ENERGY:     -115.291498956 Eh
FINAL SINGLE POINT ENERGY      -115.291498955843

DIPOLE MOMENT
-------------
                                X             Y             Z
Electronic contribution:      0.11827      -1.84889      -0.00000
Nuclear contribution   :     -0.68921       2.21432       0.00000
                        -----------------------------------------
Total Dipole Moment    :     -0.57095       0.36544       0.00000
                        -----------------------------------------
Magnitude (a.u.)       :      0.67788
Magnitude (Debye)      :      1.72304

Rotational constants in cm-1:     4.246104     0.836011     0.805954
Rotational constants in MHz : 127295.007143 25062.980247 24161.901917

                             ****ORCA TERMINATED NORMALLY****
TOTAL RUN TIME: 0 days 0 hours 0 minutes 34 seconds 903 msec
