                         Program Version 4.2.0 -  RELEASE  -
|  1> # 12meoh.boyd.etal.mol0,2,7
|  2> ! MP2 def2-TZVP EnGrad TightSCF
|  3>
|  4> %pal
|  5>     nprocs 6
|  6> end
|  7>
|  8> %maxcore 8000
|  9>
| 10> %scf
| 11>     ConvForced true
| 12> end
| 13>
| 14> *xyz 0 1
| 15> O  -1.776108874  -2.741384797  -1.019308298
| 16> H  -2.520094035  -2.452295987  -0.420778302
| 17> C  -2.174025166  -3.952700964  -1.647004581
| 18> H  -1.359803895  -4.272673416  -2.304149236
| 19> H  -3.075973971  -3.808692420  -2.256751112
| 20> H  -2.370225393  -4.752784761  -0.918966137
| 21> O  -3.839777402   2.233595098   0.660436763
| 22> H  -2.958345897   1.907036203   0.973588449
| 23> C  -3.600368059   3.168790682  -0.390480452
| 24> H  -4.551709193   3.344148967  -0.901254863
| 25> H  -2.868237594   2.789240199  -1.113617525
| 26> H  -3.243594915   4.128998607   0.009549480
| 27> O   4.310535586  -1.588322800   0.656128299
| 28> H   3.804372199  -1.630404735  -0.196849819
| 29> C   4.312298137  -2.894980854   1.222112691
| 30> H   4.713177833  -2.819907076   2.237066773
| 31> H   4.957796734  -3.574699304   0.648211180
| 32> H   3.302735989  -3.324433205   1.269756773
| 33> *
| 34>
| 35>                          ****END OF INPUT****

CARTESIAN COORDINATES (ANGSTROEM)
---------------------------------
  O     -1.776109   -2.741385   -1.019308
  H     -2.520094   -2.452296   -0.420778
  C     -2.174025   -3.952701   -1.647005
  H     -1.359804   -4.272673   -2.304149
  H     -3.075974   -3.808692   -2.256751
  H     -2.370225   -4.752785   -0.918966
  O     -3.839777    2.233595    0.660437
  H     -2.958346    1.907036    0.973588
  C     -3.600368    3.168791   -0.390480
  H     -4.551709    3.344149   -0.901255
  H     -2.868238    2.789240   -1.113618
  H     -3.243595    4.128999    0.009549
  O      4.310536   -1.588323    0.656128
  H      3.804372   -1.630405   -0.196850
  C      4.312298   -2.894981    1.222113
  H      4.713178   -2.819907    2.237067
  H      4.957797   -3.574699    0.648211
  H      3.302736   -3.324433    1.269757

 Total Charge           Charge          ....    0
 Multiplicity           Mult            ....    1
 Number of Electrons    NEL             ....   54
 Basis Dimension        Dim             ....  258

ORBITAL ENERGIES
----------------

  NO   OCC          E(Eh)            E(eV)
   0   2.0000     -20.561445      -559.5054
   1   2.0000     -20.557096      -559.3870
   2   2.0000     -20.554527      -559.3171
   3   2.0000     -11.274591      -306.7972
   4   2.0000     -11.271434      -306.7113
   5   2.0000     -11.269116      -306.6482
   6   2.0000      -1.350594       -36.7515
   7   2.0000      -1.346538       -36.6412
   8   2.0000      -1.344242       -36.5787
   9   2.0000      -0.922245       -25.0956
  10   2.0000      -0.919396       -25.0180
  11   2.0000      -0.917000       -24.9528
  12   2.0000      -0.684926       -18.6378
  13   2.0000      -0.681593       -18.5471
  14   2.0000      -0.679094       -18.4791
  15   2.0000      -0.620435       -16.8829
  16   2.0000      -0.616494       -16.7757
  17   2.0000      -0.614333       -16.7169
  18   2.0000      -0.594726       -16.1833
  19   2.0000      -0.589972       -16.0539
  20   2.0000      -0.588230       -16.0066
  21   2.0000      -0.503738       -13.7074
  22   2.0000      -0.501588       -13.6489
  23   2.0000      -0.498318       -13.5599
  24   2.0000      -0.452286       -12.3073
  25   2.0000      -0.449220       -12.2239
  26   2.0000      -0.446386       -12.1468
  27   0.0000       0.122061         3.3215
  28   0.0000       0.138231         3.7615
  29   0.0000       0.143906         3.9159
  30   0.0000       0.171637         4.6705
  31   0.0000       0.178600         4.8599

MULLIKEN ATOMIC CHARGES
-----------------------
   0 O :   -0.500374
   1 H :    0.324508
   2 C :   -0.173098
   3 H :    0.127078
   4 H :    0.111770
   5 H :    0.110052
   6 O :   -0.499598
   7 H :    0.322305
   8 C :   -0.175811
   9 H :    0.128210
  10 H :    0.114332
  11 H :    0.110642
  12 O :   -0.497797
  13 H :    0.323168
  14 C :   -0.174776
  15 H :    0.127765
  16 H :    0.108082
  17 H :    0.113541
Sum of atomic charges:    0.0000000

LOEWDIN ATOMIC CHARGES
----------------------
   0 O :   -0.110835
   1 H :    0.193610
   2 C :   -0.384093
   3 H :    0.109715
   4 H :    0.096036
   5 H :    0.095524
   6 O :   -0.112342
   7 H :    0.188366
   8 C :   -0.378303
   9 H :    0.109466
  10 H :    0.096770
  11 H :    0.096095
  12 O :   -0.109767
  13 H :    0.190254
  14 C :   -0.381539
  15 H :    0.109502
  16 H :    0.095006
  17 H :    0.096536

  Mayer bond orders larger than 0.100000
B(  0-O ,  1-H ) :   0.8402 B(  0-O ,  2-C ) :   0.9257 B(  2-C ,  3-H ) :   0.9376
B(  2-C ,  4-H ) :   0.9400 B(  2-C ,  5-H ) :   0.9382 B(  6-O ,  7-H ) :   0.8435
B(  6-O ,  8-C ) :   0.9246 B(  8-C ,  9-H ) :   0.9380 B(  8-C , 10-H ) :   0.9410
B(  8-C , 11-H ) :   0.9378 B( 12-O , 13-H ) :   0.8422 B( 12-O , 14-C ) :   0.9270
B( 14-C , 15-H ) :   0.9378 B( 14-C , 16-H ) :   0.9382 B( 14-C , 17-H ) :   0.9401

MP2 TOTAL ENERGY:     -346.520712020 Eh
FINAL SINGLE POINT ENERGY      -346.520712019517

DIPOLE MOMENT
-------------
                                X             Y             Z
Electronic contribution:      0.24808       2.05718       1.41014
Nuclear contribution   :     -0.55608      -2.74988      -1.84110
                        -----------------------------------------
Total Dipole Moment    :     -0.30800      -0.69270      -0.43096
                        -----------------------------------------
Magnitude (a.u.)       :      0.87202
Magnitude (Debye)      :      2.21651

Rotational constants in cm-1:     0.033102     0.011527     0.008792
Rotational constants in MHz :   992.381209   345.563316   263.566911

                             ****ORCA TERMINATED NORMALLY****
TOTAL RUN TIME: 0 days 0 hours 0 minutes 40 seconds 970 msec
