                         Program Version 3.0.3 - RELEASE   -
|  1> ! B3LYP Def2-TZVP def2-TZVP/J RIJCOSX TightSCF Grid4 D3BJ
|  2>
|  3> %pal nprocs 12 end
|  4>
|  5> %scf
|  6>         maxiter 400
|  7> end
|  8>
|  9> * xyz  0  1
| 10> O  2.137170	-2.433554	2.057866
| 11> H  1.563513	-2.712280	1.289961
| 12> H  1.536342	-1.918500	2.666331
| 13> O  2.262862	0.734096	-0.243619
| 14> H  1.913080	1.520962	0.277678
| 15> H  2.899854	0.261645	0.385198
| 16> O  1.132728	-2.430176	-2.616296
| 17> H  1.522998	-1.427582	-2.705376
| 18> H  1.732204	-2.979117	-3.154542
| 19> O  1.261427	2.696421	1.285550
| 20> H  1.844952	2.306030	2.037737
| 21> H  0.330016	2.606573	1.646664
| 22> O  2.524865	1.368868	3.131902
| 23> H  3.168546	0.765751	2.672171
| 24> H  1.829776	0.714642	3.418520
| 25> O  -3.487869	0.867408	-0.898130
| 26> H  -4.273352	1.010339	-1.458823
| 27> H  -2.731768	0.526211	-1.543991
| 28> O  2.094211	-0.124360	-2.820005
| 29> H  2.307449	0.222101	-1.913371
| 30> H  1.436751	0.586493	-3.154441
| 31> O  -1.312494	-0.085890	2.148790
| 32> H  -1.442751	0.910059	2.252050
| 33> H  -0.801799	-0.153323	1.263290
| 34> O  -3.295244	-1.305487	0.745744
| 35> H  -2.667992	-0.906988	1.415304
| 36> H  -3.500332	-0.527338	0.152269
| 37> O  -1.314525	2.539602	2.119587
| 38> H  -1.589497	3.176176	2.804301
| 39> H  -1.795657	2.831661	1.216112
| 40> O  0.304069	3.407770	-1.077034
| 41> H  0.826923	3.207020	-0.238841
| 42> H  0.493680	4.345221	-1.268777
| 43> O  -0.055542	-0.406233	-0.097922
| 44> H  0.164139	-1.402236	-0.069912
| 45> H  0.871851	0.024233	-0.165199
| 46> O  0.537180	-2.951192	-0.100578
| 47> H  -0.430111	-3.219861	-0.168710
| 48> H  0.857976	-2.885835	-1.060228
| 49> O  -1.545717	-2.345062	-3.066318
| 50> H  -1.823017	-2.744008	-2.195332
| 51> H  -0.552359	-2.463014	-3.055806
| 52> O  -1.510922	0.083383	-2.246059
| 53> H  -1.589082	-0.861528	-2.677499
| 54> H  -0.910035	-0.093922	-1.447975
| 55> O  3.711594	-0.521629	1.551448
| 56> H  4.617624	-0.839314	1.387274
| 57> H  3.115428	-1.372556	1.728096
| 58> O  0.318885	1.724085	-3.367773
| 59> H  -0.467821	1.172028	-3.091930
| 60> H  0.414955	2.347731	-2.605757
| 61> O  0.726720	-0.679711	3.591098
| 62> H  0.456460	-0.945318	4.489185
| 63> H  -0.149905	-0.470019	3.083915
| 64> O  -2.274923	3.153817	-0.111406
| 65> H  -1.417372	3.217204	-0.615421
| 66> H  -2.751574	2.335700	-0.447494
| 67> O  -2.082217	-3.170472	-0.499925
| 68> H  -2.579527	-2.391222	0.002900
| 69> H  -2.636952	-3.958940	-0.354985
| 70> **                         ****END OF INPUT****

CARTESIAN COORDINATES (ANGSTROEM)
---------------------------------
  O      2.137170   -2.433554    2.057866
  H      1.563513   -2.712280    1.289961
  H      1.536342   -1.918500    2.666331
  O      2.262862    0.734096   -0.243619
  H      1.913080    1.520962    0.277678
  H      2.899854    0.261645    0.385198
  O      1.132728   -2.430176   -2.616296
  H      1.522998   -1.427582   -2.705376
  H      1.732204   -2.979117   -3.154542
  O      1.261427    2.696421    1.285550
  H      1.844952    2.306030    2.037737
  H      0.330016    2.606573    1.646664
  O      2.524865    1.368868    3.131902
  H      3.168546    0.765751    2.672171
  H      1.829776    0.714642    3.418520
  O     -3.487869    0.867408   -0.898130
  H     -4.273352    1.010339   -1.458823
  H     -2.731768    0.526211   -1.543991
  O      2.094211   -0.124360   -2.820005
  H      2.307449    0.222101   -1.913371
  H      1.436751    0.586493   -3.154441
  O     -1.312494   -0.085890    2.148790
  H     -1.442751    0.910059    2.252050
  H     -0.801799   -0.153323    1.263290
  O     -3.295244   -1.305487    0.745744
  H     -2.667992   -0.906988    1.415304
  H     -3.500332   -0.527338    0.152269
  O     -1.314525    2.539602    2.119587
  H     -1.589497    3.176176    2.804301
  H     -1.795657    2.831661    1.216112
  O      0.304069    3.407770   -1.077034
  H      0.826923    3.207020   -0.238841
  H      0.493680    4.345221   -1.268777
  O     -0.055542   -0.406233   -0.097922
  H      0.164139   -1.402236   -0.069912
  H      0.871851    0.024233   -0.165199
  O      0.537180   -2.951192   -0.100578
  H     -0.430111   -3.219861   -0.168710
  H      0.857976   -2.885835   -1.060228
  O     -1.545717   -2.345062   -3.066318
  H     -1.823017   -2.744008   -2.195332
  H     -0.552359   -2.463014   -3.055806
  O     -1.510922    0.083383   -2.246059
  H     -1.589082   -0.861528   -2.677499
  H     -0.910035   -0.093922   -1.447975
  O      3.711594   -0.521629    1.551448
  H      4.617624   -0.839314    1.387274
  H      3.115428   -1.372556    1.728096
  O      0.318885    1.724085   -3.367773
  H     -0.467821    1.172028   -3.091930
  H      0.414955    2.347731   -2.605757
  O      0.726720   -0.679711    3.591098
  H      0.456460   -0.945318    4.489185
  H     -0.149905   -0.470019    3.083915
  O     -2.274923    3.153817   -0.111406
  H     -1.417372    3.217204   -0.615421
  H     -2.751574    2.335700   -0.447494
  O     -2.082217   -3.170472   -0.499925
  H     -2.579527   -2.391222    0.002900
  H     -2.636952   -3.958940   -0.354985

 Total Charge           Charge          ....    0
 Multiplicity           Mult            ....    1
 Number of Electrons    NEL             ....  200
 Basis Dimension        Dim             ....  860

ORBITAL ENERGIES
----------------

  NO   OCC          E(Eh)            E(eV)
   0   2.0000     -19.155851      -521.2572
   1   2.0000     -19.146416      -521.0005
   2   2.0000     -19.144380      -520.9451
   3   2.0000     -19.140760      -520.8465
   4   2.0000     -19.140664      -520.8440
   5   2.0000     -19.139307      -520.8070
   6   2.0000     -19.131489      -520.5943
   7   2.0000     -19.131454      -520.5933
   8   2.0000     -19.130855      -520.5770
   9   2.0000     -19.130617      -520.5706
  10   2.0000     -19.130375      -520.5640
  11   2.0000     -19.129223      -520.5326
  12   2.0000     -19.124324      -520.3993
  13   2.0000     -19.124055      -520.3920
  14   2.0000     -19.121913      -520.3337
  15   2.0000     -19.120569      -520.2971
  16   2.0000     -19.117956      -520.2260
  17   2.0000     -19.113041      -520.0923
  18   2.0000     -19.108123      -519.9585
  19   2.0000     -19.103868      -519.8427
  20   2.0000      -1.043635       -28.3988
  21   2.0000      -1.037136       -28.2219
  22   2.0000      -1.031173       -28.0596
  23   2.0000      -1.031034       -28.0559
  24   2.0000      -1.025099       -27.8944
  25   2.0000      -1.022901       -27.8346
  26   2.0000      -1.020509       -27.7695
  27   2.0000      -1.016159       -27.6511
  28   2.0000      -1.012070       -27.5398
  29   2.0000      -1.007032       -27.4027
  30   2.0000      -1.005198       -27.3528
  31   2.0000      -1.003069       -27.2949
  32   2.0000      -0.997070       -27.1316
  33   2.0000      -0.992950       -27.0195
  34   2.0000      -0.991446       -26.9786
  35   2.0000      -0.986523       -26.8446
  36   2.0000      -0.984491       -26.7894
  37   2.0000      -0.980795       -26.6888
  38   2.0000      -0.973852       -26.4999
  39   2.0000      -0.969192       -26.3731
  40   2.0000      -0.564755       -15.3678
  41   2.0000      -0.554393       -15.0858
  42   2.0000      -0.553277       -15.0554
  43   2.0000      -0.549480       -14.9521
  44   2.0000      -0.547707       -14.9039
  45   2.0000      -0.546749       -14.8778
  46   2.0000      -0.543857       -14.7991
  47   2.0000      -0.539709       -14.6862
  48   2.0000      -0.537544       -14.6273
  49   2.0000      -0.536498       -14.5989
  50   2.0000      -0.531258       -14.4563
  51   2.0000      -0.530026       -14.4227
  52   2.0000      -0.525946       -14.3117
  53   2.0000      -0.521072       -14.1791
  54   2.0000      -0.517706       -14.0875
  55   2.0000      -0.515928       -14.0391
  56   2.0000      -0.515721       -14.0335
  57   2.0000      -0.512815       -13.9544
  58   2.0000      -0.509077       -13.8527
  59   2.0000      -0.501545       -13.6477
  60   2.0000      -0.474894       -12.9225
  61   2.0000      -0.467471       -12.7205
  62   2.0000      -0.460909       -12.5420
  63   2.0000      -0.451107       -12.2752
  64   2.0000      -0.448710       -12.2100
  65   2.0000      -0.441062       -12.0019
  66   2.0000      -0.428143       -11.6504
  67   2.0000      -0.425582       -11.5807
  68   2.0000      -0.420534       -11.4433
  69   2.0000      -0.408545       -11.1171
  70   2.0000      -0.403462       -10.9788
  71   2.0000      -0.399419       -10.8687
  72   2.0000      -0.395489       -10.7618
  73   2.0000      -0.392002       -10.6669
  74   2.0000      -0.389661       -10.6032
  75   2.0000      -0.382748       -10.4151
  76   2.0000      -0.373463       -10.1624
  77   2.0000      -0.370346       -10.0776
  78   2.0000      -0.367410        -9.9977
  79   2.0000      -0.351321        -9.5599
  80   2.0000      -0.343059        -9.3351
  81   2.0000      -0.340047        -9.2531
  82   2.0000      -0.336100        -9.1457
  83   2.0000      -0.334492        -9.1020
  84   2.0000      -0.331632        -9.0242
  85   2.0000      -0.331051        -9.0083
  86   2.0000      -0.328765        -8.9461
  87   2.0000      -0.327450        -8.9104
  88   2.0000      -0.325197        -8.8491
  89   2.0000      -0.324886        -8.8406
  90   2.0000      -0.324414        -8.8278
  91   2.0000      -0.322502        -8.7757
  92   2.0000      -0.319515        -8.6944
  93   2.0000      -0.316874        -8.6226
  94   2.0000      -0.315798        -8.5933
  95   2.0000      -0.315088        -8.5740
  96   2.0000      -0.306483        -8.3398
  97   2.0000      -0.304568        -8.2877
  98   2.0000      -0.302070        -8.2197
  99   2.0000      -0.292551        -7.9607
 100   0.0000      -0.009503        -0.2586
 101   0.0000       0.013144         0.3577
 102   0.0000       0.015046         0.4094
 103   0.0000       0.022340         0.6079
 104   0.0000       0.030945         0.8421

MULLIKEN ATOMIC CHARGES
-----------------------
   0 O :   -0.687476
   1 H :    0.393734
   2 H :    0.350025
   3 O :   -0.747417
   4 H :    0.362559
   5 H :    0.377809
   6 O :   -0.761178
   7 H :    0.384151
   8 H :    0.334799
   9 O :   -0.770253
  10 H :    0.393973
  11 H :    0.359671
  12 O :   -0.699341
  13 H :    0.361313
  14 H :    0.349329
  15 O :   -0.741735
  16 H :    0.335750
  17 H :    0.383285
  18 O :   -0.705708
  19 H :    0.370732
  20 H :    0.388377
  21 O :   -0.768792
  22 H :    0.381090
  23 H :    0.388123
  24 O :   -0.700954
  25 H :    0.382535
  26 H :    0.363612
  27 O :   -0.748372
  28 H :    0.338332
  29 H :    0.379656
  30 O :   -0.709688
  31 H :    0.379501
  32 H :    0.343489
  33 O :   -0.790444
  34 H :    0.356414
  35 H :    0.361846
  36 O :   -0.742567
  37 H :    0.373599
  38 H :    0.374333
  39 O :   -0.685397
  40 H :    0.346899
  41 H :    0.354591
  42 O :   -0.785976
  43 H :    0.398781
  44 H :    0.379925
  45 O :   -0.743977
  46 H :    0.336209
  47 H :    0.377976
  48 O :   -0.700884
  49 H :    0.371548
  50 H :    0.348982
  51 O :   -0.729784
  52 H :    0.335879
  53 H :    0.379231
  54 O :   -0.682867
  55 H :    0.357463
  56 H :    0.374234
  57 O :   -0.746682
  58 H :    0.382562
  59 H :    0.337176
Sum of atomic charges:   -0.0000000

LOEWDIN ATOMIC CHARGES
----------------------
   0 O :   -0.266968
   1 H :    0.152427
   2 H :    0.144218
   3 O :   -0.283577
   4 H :    0.140368
   5 H :    0.139438
   6 O :   -0.326006
   7 H :    0.141963
   8 H :    0.157328
   9 O :   -0.330025
  10 H :    0.150011
  11 H :    0.140452
  12 O :   -0.293607
  13 H :    0.148350
  14 H :    0.145561
  15 O :   -0.307858
  16 H :    0.160454
  17 H :    0.135038
  18 O :   -0.269052
  19 H :    0.144054
  20 H :    0.150568
  21 O :   -0.285763
  22 H :    0.141497
  23 H :    0.134204
  24 O :   -0.276900
  25 H :    0.149720
  26 H :    0.146482
  27 O :   -0.307644
  28 H :    0.159706
  29 H :    0.139228
  30 O :   -0.284897
  31 H :    0.155376
  32 H :    0.169888
  33 O :   -0.284584
  34 H :    0.132234
  35 H :    0.131366
  36 O :   -0.290697
  37 H :    0.143675
  38 H :    0.142342
  39 O :   -0.283150
  40 H :    0.140346
  41 H :    0.142592
  42 O :   -0.282686
  43 H :    0.144911
  44 H :    0.133672
  45 O :   -0.307486
  46 H :    0.159915
  47 H :    0.142482
  48 O :   -0.297588
  49 H :    0.142837
  50 H :    0.144345
  51 O :   -0.303593
  52 H :    0.161600
  53 H :    0.140786
  54 O :   -0.257694
  55 H :    0.148407
  56 H :    0.147557
  57 O :   -0.312421
  58 H :    0.145778
  59 H :    0.161019

  Mayer bond orders larger than 0.1
B(  0-O ,  1-H ) :   0.8052 B(  0-O ,  2-H ) :   0.8114 B(  0-O , 47-H ) :   0.2317
B(  2-H , 51-O ) :   0.1150 B(  3-O ,  4-H ) :   0.7830 B(  3-O ,  5-H ) :   0.7517
B(  3-O , 35-H ) :   0.2150 B(  4-H ,  9-O ) :   0.1369 B(  5-H , 45-O ) :   0.1559
B(  6-O ,  7-H ) :   0.6357 B(  6-O ,  8-H ) :   0.8887 B(  6-O , 38-H ) :   0.1527
B(  6-O , 41-H ) :   0.1141 B(  7-H , 18-O ) :   0.2716 B(  9-O , 10-H ) :   0.7314
B(  9-O , 11-H ) :   0.7850 B( 10-H , 12-O ) :   0.1659 B( 11-H , 27-O ) :   0.1196
B( 12-O , 13-H ) :   0.8264 B( 12-O , 14-H ) :   0.8252 B( 15-O , 16-H ) :   0.8861
B( 15-O , 17-H ) :   0.6881 B( 15-O , 26-H ) :   0.1064 B( 15-O , 56-H ) :   0.1295
B( 17-H , 42-O ) :   0.2040 B( 18-O , 19-H ) :   0.8264 B( 18-O , 20-H ) :   0.7415
B( 20-H , 48-O ) :   0.1626 B( 21-O , 22-H ) :   0.7656 B( 21-O , 23-H ) :   0.7411
B( 21-O , 53-H ) :   0.1744 B( 22-H , 27-O ) :   0.1362 B( 23-H , 33-O ) :   0.1408
B( 24-O , 25-H ) :   0.8077 B( 24-O , 26-H ) :   0.8060 B( 24-O , 58-H ) :   0.2280
B( 27-O , 28-H ) :   0.8842 B( 27-O , 29-H ) :   0.6602 B( 29-H , 54-O ) :   0.2548
B( 30-O , 31-H ) :   0.7822 B( 30-O , 32-H ) :   0.8840 B( 33-O , 34-H ) :   0.7212
B( 33-O , 35-H ) :   0.7096 B( 33-O , 44-H ) :   0.1065 B( 34-H , 36-O ) :   0.2181
B( 36-O , 37-H ) :   0.7811 B( 36-O , 38-H ) :   0.7608 B( 37-H , 57-O ) :   0.1298
B( 39-O , 40-H ) :   0.8243 B( 39-O , 41-H ) :   0.8122 B( 39-O , 43-H ) :   0.2137
B( 40-H , 57-O ) :   0.1044 B( 42-O , 43-H ) :   0.6892 B( 42-O , 44-H ) :   0.7658
B( 45-O , 46-H ) :   0.8852 B( 45-O , 47-H ) :   0.6806 B( 48-O , 49-H ) :   0.8169
B( 48-O , 50-H ) :   0.8495 B( 51-O , 52-H ) :   0.8868 B( 51-O , 53-H ) :   0.7196
B( 54-O , 55-H ) :   0.8169 B( 54-O , 56-H ) :   0.7818 B( 57-O , 58-H ) :   0.6778
B( 57-O , 59-H ) :   0.8877

Dispersion correction           -0.079581843
FINAL SINGLE POINT ENERGY     -1528.905602135135

DIPOLE MOMENT
-------------
                                X             Y             Z
Electronic contribution:     -0.02387       0.22543      -0.22497
Nuclear contribution   :     -0.39196      -0.35666       1.51548
                        -----------------------------------------
Total Dipole Moment    :     -0.41583      -0.13123       1.29052
                        -----------------------------------------
Magnitude (a.u.)       :      1.36219
Magnitude (Debye)      :      3.46242

                             ****ORCA TERMINATED NORMALLY****
TOTAL RUN TIME: 0 days 0 hours 2 minutes 36 seconds 191 msec
