                         Program Version 3.0.3 - RELEASE   -
|  1> ! wB97X-D3 MA-Def2-TZVP def2-TZVP/J RIJCOSX TightSCF Grid4
|  2>
|  3> %pal nprocs 1 end
|  4>
|  5> %scf
|  6>         maxiter 400
|  7> end
|  8>
|  9> %cosmo
| 10>         SMD true
| 11>         solvent "WATER"
| 12> end
| 13>
| 14> * xyz  0  1
| 15> O  2.101974	-2.470740	2.091179
| 16> H  1.523747	-2.696751	1.309762
| 17> H  1.522232	-1.907844	2.687613
| 18> O  2.274035	0.766942	-0.251291
| 19> H  1.927290	1.553200	0.278709
| 20> H  2.876959	0.258947	0.393666
| 21> O  1.134360	-2.409183	-2.612526
| 22> H  1.540008	-1.454679	-2.708512
| 23> H  1.735586	-2.996099	-3.112030
| 24> O  1.305382	2.700054	1.320957
| 25> H  1.837284	2.252550	2.073474
| 26> H  0.353049	2.616608	1.642346
| 27> O  2.538706	1.325794	3.194943
| 28> H  3.151491	0.733237	2.675871
| 29> H  1.821235	0.669906	3.445150
| 30> O  -3.474438	0.891733	-0.865930
| 31> H  -4.264598	1.031286	-1.425881
| 32> H  -2.750189	0.547879	-1.510472
| 33> O  2.151938	-0.047086	-2.829108
| 34> H  2.315996	0.267707	-1.897265
| 35> H  1.451488	0.626299	-3.133116
| 36> O  -1.337597	-0.103044	2.139053
| 37> H  -1.433791	0.901044	2.233965
| 38> H  -0.819316	-0.179155	1.264292
| 39> O  -3.359773	-1.267001	0.763205
| 40> H  -2.691689	-0.879884	1.403582
| 41> H  -3.523227	-0.491393	0.147670
| 42> O  -1.265453	2.513722	2.080006
| 43> H  -1.518330	3.116457	2.806945
| 44> H  -1.771706	2.847345	1.234702
| 45> O  0.248795	3.329460	-1.117736
| 46> H  0.789459	3.153473	-0.297573
| 47> H  0.442696	4.264590	-1.331874
| 48> O  -0.030756	-0.408724	-0.097027
| 49> H  0.199663	-1.400251	-0.055262
| 50> H  0.885903	0.042567	-0.165709
| 51> O  0.535987	-2.969420	-0.095652
| 52> H  -0.450872	-3.172379	-0.181176
| 53> H  0.858777	-2.875923	-1.050469
| 54> O  -1.521474	-2.412952	-3.095390
| 55> H  -1.804483	-2.754543	-2.194912
| 56> H  -0.521714	-2.490232	-3.047754
| 57> O  -1.476481	0.044722	-2.245632
| 58> H  -1.565555	-0.887312	-2.671854
| 59> H  -0.888923	-0.132834	-1.434143
| 60> O  3.671351	-0.506566	1.546096
| 61> H  4.567435	-0.806354	1.297442
| 62> H  3.112299	-1.360531	1.724111
| 63> O  0.260620	1.727149	-3.371707
| 64> H  -0.472664	1.112991	-3.058463
| 65> H  0.353293	2.341619	-2.592751
| 66> O  0.753170	-0.672224	3.574804
| 67> H  0.497767	-0.937523	4.480502
| 68> H  -0.128570	-0.476855	3.092346
| 69> O  -2.314721	3.224911	-0.144049
| 70> H  -1.433104	3.256194	-0.615392
| 71> H  -2.758249	2.377635	-0.455172
| 72> O  -2.069249	-3.100687	-0.536978
| 73> H  -2.593480	-2.365829	-0.025867
| 74> H  -2.573695	-3.925462	-0.392250
| 75> **                         ****END OF INPUT****

CARTESIAN COORDINATES (ANGSTROEM)
---------------------------------
  O      2.101974   -2.470740    2.091179
  H      1.523747   -2.696751    1.309762
  H      1.522232   -1.907844    2.687613
  O      2.274035    0.766942   -0.251291
  H      1.927290    1.553200    0.278709
  H      2.876959    0.258947    0.393666
  O      1.134360   -2.409183   -2.612526
  H      1.540008   -1.454679   -2.708512
  H      1.735586   -2.996099   -3.112030
  O      1.305382    2.700054    1.320957
  H      1.837284    2.252550    2.073474
  H      0.353049    2.616608    1.642346
  O      2.538706    1.325794    3.194943
  H      3.151491    0.733237    2.675871
  H      1.821235    0.669906    3.445150
  O     -3.474438    0.891733   -0.865930
  H     -4.264598    1.031286   -1.425881
  H     -2.750189    0.547879   -1.510472
  O      2.151938   -0.047086   -2.829108
  H      2.315996    0.267707   -1.897265
  H      1.451488    0.626299   -3.133116
  O     -1.337597   -0.103044    2.139053
  H     -1.433791    0.901044    2.233965
  H     -0.819316   -0.179155    1.264292
  O     -3.359773   -1.267001    0.763205
  H     -2.691689   -0.879884    1.403582
  H     -3.523227   -0.491393    0.147670
  O     -1.265453    2.513722    2.080006
  H     -1.518330    3.116457    2.806945
  H     -1.771706    2.847345    1.234702
  O      0.248795    3.329460   -1.117736
  H      0.789459    3.153473   -0.297573
  H      0.442696    4.264590   -1.331874
  O     -0.030756   -0.408724   -0.097027
  H      0.199663   -1.400251   -0.055262
  H      0.885903    0.042567   -0.165709
  O      0.535987   -2.969420   -0.095652
  H     -0.450872   -3.172379   -0.181176
  H      0.858777   -2.875923   -1.050469
  O     -1.521474   -2.412952   -3.095390
  H     -1.804483   -2.754543   -2.194912
  H     -0.521714   -2.490232   -3.047754
  O     -1.476481    0.044722   -2.245632
  H     -1.565555   -0.887312   -2.671854
  H     -0.888923   -0.132834   -1.434143
  O      3.671351   -0.506566    1.546096
  H      4.567435   -0.806354    1.297442
  H      3.112299   -1.360531    1.724111
  O      0.260620    1.727149   -3.371707
  H     -0.472664    1.112991   -3.058463
  H      0.353293    2.341619   -2.592751
  O      0.753170   -0.672224    3.574804
  H      0.497767   -0.937523    4.480502
  H     -0.128570   -0.476855    3.092346
  O     -2.314721    3.224911   -0.144049
  H     -1.433104    3.256194   -0.615392
  H     -2.758249    2.377635   -0.455172
  O     -2.069249   -3.100687   -0.536978
  H     -2.593480   -2.365829   -0.025867
  H     -2.573695   -3.925462   -0.392250

 Total Charge           Charge          ....    0
 Multiplicity           Mult            ....    1
 Number of Electrons    NEL             ....  200
 Basis Dimension        Dim             ....  940

ORBITAL ENERGIES
----------------

  NO   OCC          E(Eh)            E(eV)
   0   2.0000     -19.255720      -523.9748
   1   2.0000     -19.242869      -523.6251
   2   2.0000     -19.242377      -523.6117
   3   2.0000     -19.241853      -523.5974
   4   2.0000     -19.241694      -523.5931
   5   2.0000     -19.241467      -523.5869
   6   2.0000     -19.240474      -523.5599
   7   2.0000     -19.240249      -523.5538
   8   2.0000     -19.237553      -523.4804
   9   2.0000     -19.236095      -523.4408
  10   2.0000     -19.234644      -523.4013
  11   2.0000     -19.232854      -523.3526
  12   2.0000     -19.232370      -523.3394
  13   2.0000     -19.232175      -523.3341
  14   2.0000     -19.232110      -523.3323
  15   2.0000     -19.230278      -523.2825
  16   2.0000     -19.230075      -523.2769
  17   2.0000     -19.228352      -523.2301
  18   2.0000     -19.226784      -523.1874
  19   2.0000     -19.225942      -523.1645
  20   2.0000      -1.156338       -31.4656
  21   2.0000      -1.146958       -31.2103
  22   2.0000      -1.143699       -31.1216
  23   2.0000      -1.140564       -31.0363
  24   2.0000      -1.134593       -30.8739
  25   2.0000      -1.134054       -30.8592
  26   2.0000      -1.131115       -30.7792
  27   2.0000      -1.130288       -30.7567
  28   2.0000      -1.127172       -30.6719
  29   2.0000      -1.122970       -30.5576
  30   2.0000      -1.120684       -30.4954
  31   2.0000      -1.115701       -30.3598
  32   2.0000      -1.114007       -30.3137
  33   2.0000      -1.110675       -30.2230
  34   2.0000      -1.103104       -30.0170
  35   2.0000      -1.098809       -29.9001
  36   2.0000      -1.097796       -29.8726
  37   2.0000      -1.095851       -29.8196
  38   2.0000      -1.092211       -29.7206
  39   2.0000      -1.090907       -29.6851
  40   2.0000      -0.659403       -17.9433
  41   2.0000      -0.650470       -17.7002
  42   2.0000      -0.648043       -17.6341
  43   2.0000      -0.645991       -17.5783
  44   2.0000      -0.644105       -17.5270
  45   2.0000      -0.639348       -17.3975
  46   2.0000      -0.638226       -17.3670
  47   2.0000      -0.636440       -17.3184
  48   2.0000      -0.634955       -17.2780
  49   2.0000      -0.633402       -17.2357
  50   2.0000      -0.631982       -17.1971
  51   2.0000      -0.631311       -17.1788
  52   2.0000      -0.628277       -17.0963
  53   2.0000      -0.627451       -17.0738
  54   2.0000      -0.622889       -16.9497
  55   2.0000      -0.621808       -16.9203
  56   2.0000      -0.621339       -16.9075
  57   2.0000      -0.615087       -16.7374
  58   2.0000      -0.614061       -16.7095
  59   2.0000      -0.610188       -16.6041
  60   2.0000      -0.577592       -15.7171
  61   2.0000      -0.565250       -15.3812
  62   2.0000      -0.562387       -15.3033
  63   2.0000      -0.555102       -15.1051
  64   2.0000      -0.548577       -14.9275
  65   2.0000      -0.546124       -14.8608
  66   2.0000      -0.529372       -14.4049
  67   2.0000      -0.522918       -14.2293
  68   2.0000      -0.518477       -14.1085
  69   2.0000      -0.514849       -14.0098
  70   2.0000      -0.507703       -13.8153
  71   2.0000      -0.500647       -13.6233
  72   2.0000      -0.497402       -13.5350
  73   2.0000      -0.494625       -13.4594
  74   2.0000      -0.488590       -13.2952
  75   2.0000      -0.484740       -13.1904
  76   2.0000      -0.478568       -13.0225
  77   2.0000      -0.472136       -12.8475
  78   2.0000      -0.467651       -12.7254
  79   2.0000      -0.456218       -12.4143
  80   2.0000      -0.435547       -11.8518
  81   2.0000      -0.431562       -11.7434
  82   2.0000      -0.429381       -11.6841
  83   2.0000      -0.427245       -11.6259
  84   2.0000      -0.426852       -11.6152
  85   2.0000      -0.424947       -11.5634
  86   2.0000      -0.424124       -11.5410
  87   2.0000      -0.423667       -11.5286
  88   2.0000      -0.422514       -11.4972
  89   2.0000      -0.422120       -11.4865
  90   2.0000      -0.419901       -11.4261
  91   2.0000      -0.418007       -11.3746
  92   2.0000      -0.417253       -11.3540
  93   2.0000      -0.416285       -11.3277
  94   2.0000      -0.415273       -11.3001
  95   2.0000      -0.413937       -11.2638
  96   2.0000      -0.411253       -11.1908
  97   2.0000      -0.410373       -11.1668
  98   2.0000      -0.409089       -11.1319
  99   2.0000      -0.407596       -11.0912
 100   0.0000       0.056197         1.5292
 101   0.0000       0.076656         2.0859
 102   0.0000       0.079258         2.1567
 103   0.0000       0.082720         2.2509
 104   0.0000       0.101180         2.7532

MULLIKEN ATOMIC CHARGES
-----------------------
   0 O :   -0.830043
   1 H :    0.437456
   2 H :    0.408831
   3 O :   -0.862314
   4 H :    0.395810
   5 H :    0.458163
   6 O :   -0.874430
   7 H :    0.442041
   8 H :    0.420345
   9 O :   -0.881165
  10 H :    0.450551
  11 H :    0.415014
  12 O :   -0.842140
  13 H :    0.432472
  14 H :    0.418327
  15 O :   -0.809157
  16 H :    0.421720
  17 H :    0.431193
  18 O :   -0.849612
  19 H :    0.417974
  20 H :    0.447601
  21 O :   -0.832927
  22 H :    0.456388
  23 H :    0.383007
  24 O :   -0.844989
  25 H :    0.426933
  26 H :    0.423159
  27 O :   -0.857201
  28 H :    0.424576
  29 H :    0.438762
  30 O :   -0.789678
  31 H :    0.401813
  32 H :    0.428466
  33 O :   -0.810859
  34 H :    0.338381
  35 H :    0.361025
  36 O :   -0.828830
  37 H :    0.445451
  38 H :    0.445199
  39 O :   -0.824229
  40 H :    0.424813
  41 H :    0.428265
  42 O :   -0.925670
  43 H :    0.478790
  44 H :    0.384747
  45 O :   -0.872584
  46 H :    0.425910
  47 H :    0.437997
  48 O :   -0.862551
  49 H :    0.439786
  50 H :    0.412243
  51 O :   -0.854288
  52 H :    0.421562
  53 H :    0.428806
  54 O :   -0.807950
  55 H :    0.404028
  56 H :    0.414394
  57 O :   -0.873313
  58 H :    0.441126
  59 H :    0.420805
Sum of atomic charges:   -0.0000000

LOEWDIN ATOMIC CHARGES
----------------------
   0 O :   -0.401358
   1 H :    0.200430
   2 H :    0.198174
   3 O :   -0.409935
   4 H :    0.195919
   5 H :    0.195808
   6 O :   -0.395336
   7 H :    0.199975
   8 H :    0.219894
   9 O :   -0.455335
  10 H :    0.199678
  11 H :    0.196714
  12 O :   -0.418917
  13 H :    0.203070
  14 H :    0.200578
  15 O :   -0.385621
  16 H :    0.221037
  17 H :    0.193612
  18 O :   -0.416904
  19 H :    0.197606
  20 H :    0.197448
  21 O :   -0.407778
  22 H :    0.198741
  23 H :    0.190722
  24 O :   -0.409180
  25 H :    0.200459
  26 H :    0.198987
  27 O :   -0.380598
  28 H :    0.221968
  29 H :    0.195453
  30 O :   -0.363939
  31 H :    0.209740
  32 H :    0.229212
  33 O :   -0.410245
  34 H :    0.191072
  35 H :    0.190550
  36 O :   -0.411309
  37 H :    0.201199
  38 H :    0.200063
  39 O :   -0.420050
  40 H :    0.197627
  41 H :    0.198358
  42 O :   -0.410747
  43 H :    0.198377
  44 H :    0.195017
  45 O :   -0.384731
  46 H :    0.220711
  47 H :    0.197186
  48 O :   -0.431083
  49 H :    0.194295
  50 H :    0.198829
  51 O :   -0.383081
  52 H :    0.221333
  53 H :    0.196203
  54 O :   -0.395595
  55 H :    0.198881
  56 H :    0.196629
  57 O :   -0.390976
  58 H :    0.200383
  59 H :    0.220778

  Mayer bond orders larger than 0.1
B(  0-O ,  1-H ) :   0.8192 B(  0-O ,  2-H ) :   0.7979 B(  0-O , 47-H ) :   0.1211
B(  3-O ,  4-H ) :   0.7954 B(  3-O ,  5-H ) :   0.7427 B(  3-O , 33-O ) :  -0.1031
B(  3-O , 35-H ) :   0.2369 B(  4-H ,  9-O ) :   0.1005 B(  5-H , 45-O ) :   0.1038
B(  6-O ,  7-H ) :   0.7185 B(  6-O ,  8-H ) :   0.8326 B(  7-H , 18-O ) :   0.1234
B(  9-O , 10-H ) :   0.7434 B(  9-O , 11-H ) :   0.7926 B( 10-H , 12-O ) :   0.1062
B( 12-O , 13-H ) :   0.8150 B( 12-O , 14-H ) :   0.8067 B( 15-O , 16-H ) :   0.8369
B( 15-O , 17-H ) :   0.7607 B( 17-H , 42-O ) :   0.1116 B( 18-O , 19-H ) :   0.8343
B( 18-O , 20-H ) :   0.7603 B( 21-O , 22-H ) :   0.7740 B( 21-O , 23-H ) :   0.8080
B( 23-H , 33-O ) :   0.1052 B( 24-O , 25-H ) :   0.8100 B( 24-O , 26-H ) :   0.8026
B( 24-O , 58-H ) :   0.1217 B( 27-O , 28-H ) :   0.8298 B( 27-O , 29-H ) :   0.7216
B( 29-H , 54-O ) :   0.1342 B( 30-O , 31-H ) :   0.8293 B( 30-O , 32-H ) :   0.8310
B( 33-O , 34-H ) :   0.7367 B( 33-O , 35-H ) :   0.7406 B( 33-O , 36-O ) :  -0.1088
B( 33-O , 44-H ) :   0.1054 B( 34-H , 36-O ) :   0.2483 B( 36-O , 37-H ) :   0.7673
B( 36-O , 38-H ) :   0.7687 B( 39-O , 40-H ) :   0.8054 B( 39-O , 41-H ) :   0.8025
B( 39-O , 43-H ) :   0.1119 B( 42-O , 43-H ) :   0.7213 B( 42-O , 44-H ) :   0.8131
B( 45-O , 46-H ) :   0.8266 B( 45-O , 47-H ) :   0.7281 B( 48-O , 49-H ) :   0.7923
B( 48-O , 50-H ) :   0.8272 B( 51-O , 52-H ) :   0.8329 B( 51-O , 53-H ) :   0.7584
B( 54-O , 55-H ) :   0.8243 B( 54-O , 56-H ) :   0.7956 B( 57-O , 58-H ) :   0.7228
B( 57-O , 59-H ) :   0.8322

Dispersion correction           -0.043307516
FINAL SINGLE POINT ENERGY     -1529.196338337867

DIPOLE MOMENT
-------------
                                X             Y             Z
Electronic contribution:     -0.14526       0.04031       0.29380
Nuclear contribution   :     -0.37727      -0.44450       1.61463
                        -----------------------------------------
Total Dipole Moment    :     -0.52253      -0.40419       1.90843
                        -----------------------------------------
Magnitude (a.u.)       :      2.01953
Magnitude (Debye)      :      5.13323

                             ****ORCA TERMINATED NORMALLY****
TOTAL RUN TIME: 0 days 0 hours 53 minutes 4 seconds 45 msec
