                         Program Version 3.0.3 - RELEASE   -
|  1> ! B3LYP Def2-TZVP def2-TZVP/J RIJCOSX TightSCF Grid4 D3BJ COSMO
|  2>
|  3> %pal nprocs 12 end
|  4>
|  5> %scf
|  6>         maxiter 400
|  7> end
|  8>
|  9> %cosmo
| 10>         SMD true
| 11>         solvent "WATER"
| 12> end
| 13>
| 14> * xyz  0  1
| 15> O  2.101974	-2.470740	2.091179
| 16> H  1.523747	-2.696751	1.309762
| 17> H  1.522232	-1.907844	2.687613
| 18> O  2.274035	0.766942	-0.251291
| 19> H  1.927290	1.553200	0.278709
| 20> H  2.876959	0.258947	0.393666
| 21> O  1.134360	-2.409183	-2.612526
| 22> H  1.540008	-1.454679	-2.708512
| 23> H  1.735586	-2.996099	-3.112030
| 24> O  1.305382	2.700054	1.320957
| 25> H  1.837284	2.252550	2.073474
| 26> H  0.353049	2.616608	1.642346
| 27> O  2.538706	1.325794	3.194943
| 28> H  3.151491	0.733237	2.675871
| 29> H  1.821235	0.669906	3.445150
| 30> O  -3.474438	0.891733	-0.865930
| 31> H  -4.264598	1.031286	-1.425881
| 32> H  -2.750189	0.547879	-1.510472
| 33> O  2.151938	-0.047086	-2.829108
| 34> H  2.315996	0.267707	-1.897265
| 35> H  1.451488	0.626299	-3.133116
| 36> O  -1.337597	-0.103044	2.139053
| 37> H  -1.433791	0.901044	2.233965
| 38> H  -0.819316	-0.179155	1.264292
| 39> O  -3.359773	-1.267001	0.763205
| 40> H  -2.691689	-0.879884	1.403582
| 41> H  -3.523227	-0.491393	0.147670
| 42> O  -1.265453	2.513722	2.080006
| 43> H  -1.518330	3.116457	2.806945
| 44> H  -1.771706	2.847345	1.234702
| 45> O  0.248795	3.329460	-1.117736
| 46> H  0.789459	3.153473	-0.297573
| 47> H  0.442696	4.264590	-1.331874
| 48> O  -0.030756	-0.408724	-0.097027
| 49> H  0.199663	-1.400251	-0.055262
| 50> H  0.885903	0.042567	-0.165709
| 51> O  0.535987	-2.969420	-0.095652
| 52> H  -0.450872	-3.172379	-0.181176
| 53> H  0.858777	-2.875923	-1.050469
| 54> O  -1.521474	-2.412952	-3.095390
| 55> H  -1.804483	-2.754543	-2.194912
| 56> H  -0.521714	-2.490232	-3.047754
| 57> O  -1.476481	0.044722	-2.245632
| 58> H  -1.565555	-0.887312	-2.671854
| 59> H  -0.888923	-0.132834	-1.434143
| 60> O  3.671351	-0.506566	1.546096
| 61> H  4.567435	-0.806354	1.297442
| 62> H  3.112299	-1.360531	1.724111
| 63> O  0.260620	1.727149	-3.371707
| 64> H  -0.472664	1.112991	-3.058463
| 65> H  0.353293	2.341619	-2.592751
| 66> O  0.753170	-0.672224	3.574804
| 67> H  0.497767	-0.937523	4.480502
| 68> H  -0.128570	-0.476855	3.092346
| 69> O  -2.314721	3.224911	-0.144049
| 70> H  -1.433104	3.256194	-0.615392
| 71> H  -2.758249	2.377635	-0.455172
| 72> O  -2.069249	-3.100687	-0.536978
| 73> H  -2.593480	-2.365829	-0.025867
| 74> H  -2.573695	-3.925462	-0.392250
| 75> **                         ****END OF INPUT****

CARTESIAN COORDINATES (ANGSTROEM)
---------------------------------
  O      2.101974   -2.470740    2.091179
  H      1.523747   -2.696751    1.309762
  H      1.522232   -1.907844    2.687613
  O      2.274035    0.766942   -0.251291
  H      1.927290    1.553200    0.278709
  H      2.876959    0.258947    0.393666
  O      1.134360   -2.409183   -2.612526
  H      1.540008   -1.454679   -2.708512
  H      1.735586   -2.996099   -3.112030
  O      1.305382    2.700054    1.320957
  H      1.837284    2.252550    2.073474
  H      0.353049    2.616608    1.642346
  O      2.538706    1.325794    3.194943
  H      3.151491    0.733237    2.675871
  H      1.821235    0.669906    3.445150
  O     -3.474438    0.891733   -0.865930
  H     -4.264598    1.031286   -1.425881
  H     -2.750189    0.547879   -1.510472
  O      2.151938   -0.047086   -2.829108
  H      2.315996    0.267707   -1.897265
  H      1.451488    0.626299   -3.133116
  O     -1.337597   -0.103044    2.139053
  H     -1.433791    0.901044    2.233965
  H     -0.819316   -0.179155    1.264292
  O     -3.359773   -1.267001    0.763205
  H     -2.691689   -0.879884    1.403582
  H     -3.523227   -0.491393    0.147670
  O     -1.265453    2.513722    2.080006
  H     -1.518330    3.116457    2.806945
  H     -1.771706    2.847345    1.234702
  O      0.248795    3.329460   -1.117736
  H      0.789459    3.153473   -0.297573
  H      0.442696    4.264590   -1.331874
  O     -0.030756   -0.408724   -0.097027
  H      0.199663   -1.400251   -0.055262
  H      0.885903    0.042567   -0.165709
  O      0.535987   -2.969420   -0.095652
  H     -0.450872   -3.172379   -0.181176
  H      0.858777   -2.875923   -1.050469
  O     -1.521474   -2.412952   -3.095390
  H     -1.804483   -2.754543   -2.194912
  H     -0.521714   -2.490232   -3.047754
  O     -1.476481    0.044722   -2.245632
  H     -1.565555   -0.887312   -2.671854
  H     -0.888923   -0.132834   -1.434143
  O      3.671351   -0.506566    1.546096
  H      4.567435   -0.806354    1.297442
  H      3.112299   -1.360531    1.724111
  O      0.260620    1.727149   -3.371707
  H     -0.472664    1.112991   -3.058463
  H      0.353293    2.341619   -2.592751
  O      0.753170   -0.672224    3.574804
  H      0.497767   -0.937523    4.480502
  H     -0.128570   -0.476855    3.092346
  O     -2.314721    3.224911   -0.144049
  H     -1.433104    3.256194   -0.615392
  H     -2.758249    2.377635   -0.455172
  O     -2.069249   -3.100687   -0.536978
  H     -2.593480   -2.365829   -0.025867
  H     -2.573695   -3.925462   -0.392250

 Total Charge           Charge          ....    0
 Multiplicity           Mult            ....    1
 Number of Electrons    NEL             ....  200
 Basis Dimension        Dim             ....  860

ORBITAL ENERGIES
----------------

  NO   OCC          E(Eh)            E(eV)
   0   2.0000     -19.145811      -520.9840
   1   2.0000     -19.133120      -520.6387
   2   2.0000     -19.132641      -520.6256
   3   2.0000     -19.131994      -520.6080
   4   2.0000     -19.131925      -520.6061
   5   2.0000     -19.131624      -520.5979
   6   2.0000     -19.130142      -520.5576
   7   2.0000     -19.128866      -520.5229
   8   2.0000     -19.126257      -520.4519
   9   2.0000     -19.125291      -520.4256
  10   2.0000     -19.123402      -520.3742
  11   2.0000     -19.122550      -520.3510
  12   2.0000     -19.121239      -520.3154
  13   2.0000     -19.120763      -520.3024
  14   2.0000     -19.120679      -520.3001
  15   2.0000     -19.118718      -520.2468
  16   2.0000     -19.118718      -520.2468
  17   2.0000     -19.117073      -520.2020
  18   2.0000     -19.114771      -520.1394
  19   2.0000     -19.114184      -520.1234
  20   2.0000      -1.037398       -28.2290
  21   2.0000      -1.028828       -27.9958
  22   2.0000      -1.025289       -27.8995
  23   2.0000      -1.022500       -27.8236
  24   2.0000      -1.016785       -27.6681
  25   2.0000      -1.016066       -27.6486
  26   2.0000      -1.013383       -27.5755
  27   2.0000      -1.012250       -27.5447
  28   2.0000      -1.008837       -27.4518
  29   2.0000      -1.004634       -27.3375
  30   2.0000      -1.002875       -27.2896
  31   2.0000      -0.997664       -27.1478
  32   2.0000      -0.996248       -27.1093
  33   2.0000      -0.992711       -27.0130
  34   2.0000      -0.985550       -26.8182
  35   2.0000      -0.981164       -26.6988
  36   2.0000      -0.980453       -26.6795
  37   2.0000      -0.978289       -26.6206
  38   2.0000      -0.974519       -26.5180
  39   2.0000      -0.973441       -26.4887
  40   2.0000      -0.552250       -15.0275
  41   2.0000      -0.543420       -14.7872
  42   2.0000      -0.540916       -14.7191
  43   2.0000      -0.539167       -14.6715
  44   2.0000      -0.537840       -14.6354
  45   2.0000      -0.533591       -14.5197
  46   2.0000      -0.532409       -14.4876
  47   2.0000      -0.530255       -14.4290
  48   2.0000      -0.529126       -14.3983
  49   2.0000      -0.527424       -14.3519
  50   2.0000      -0.526264       -14.3204
  51   2.0000      -0.525102       -14.2888
  52   2.0000      -0.521675       -14.1955
  53   2.0000      -0.521503       -14.1908
  54   2.0000      -0.516702       -14.0602
  55   2.0000      -0.515542       -14.0286
  56   2.0000      -0.515245       -14.0205
  57   2.0000      -0.509199       -13.8560
  58   2.0000      -0.508246       -13.8301
  59   2.0000      -0.505251       -13.7486
  60   2.0000      -0.469624       -12.7791
  61   2.0000      -0.458646       -12.4804
  62   2.0000      -0.456074       -12.4104
  63   2.0000      -0.448619       -12.2075
  64   2.0000      -0.442423       -12.0389
  65   2.0000      -0.440390       -11.9836
  66   2.0000      -0.424273       -11.5450
  67   2.0000      -0.419062       -11.4033
  68   2.0000      -0.414088       -11.2679
  69   2.0000      -0.410546       -11.1715
  70   2.0000      -0.403699       -10.9852
  71   2.0000      -0.398112       -10.8332
  72   2.0000      -0.393878       -10.7180
  73   2.0000      -0.392075       -10.6689
  74   2.0000      -0.386656       -10.5214
  75   2.0000      -0.382942       -10.4204
  76   2.0000      -0.376208       -10.2371
  77   2.0000      -0.370592       -10.0843
  78   2.0000      -0.366640        -9.9768
  79   2.0000      -0.354876        -9.6567
  80   2.0000      -0.334983        -9.1154
  81   2.0000      -0.330893        -9.0041
  82   2.0000      -0.329063        -8.9542
  83   2.0000      -0.327310        -8.9065
  84   2.0000      -0.326749        -8.8913
  85   2.0000      -0.324900        -8.8410
  86   2.0000      -0.323887        -8.8134
  87   2.0000      -0.323603        -8.8057
  88   2.0000      -0.322598        -8.7783
  89   2.0000      -0.321936        -8.7603
  90   2.0000      -0.319544        -8.6952
  91   2.0000      -0.318352        -8.6628
  92   2.0000      -0.316895        -8.6231
  93   2.0000      -0.316065        -8.6006
  94   2.0000      -0.315525        -8.5859
  95   2.0000      -0.314621        -8.5613
  96   2.0000      -0.311176        -8.4675
  97   2.0000      -0.310282        -8.4432
  98   2.0000      -0.309239        -8.4148
  99   2.0000      -0.307127        -8.3573
 100   0.0000       0.005026         0.1368
 101   0.0000       0.034638         0.9426
 102   0.0000       0.035767         0.9733
 103   0.0000       0.044509         1.2112
 104   0.0000       0.059296         1.6135

MULLIKEN ATOMIC CHARGES
-----------------------
   0 O :   -0.749997
   1 H :    0.395248
   2 H :    0.368453
   3 O :   -0.771010
   4 H :    0.373574
   5 H :    0.387052
   6 O :   -0.759436
   7 H :    0.383858
   8 H :    0.387455
   9 O :   -0.797439
  10 H :    0.385459
  11 H :    0.369223
  12 O :   -0.761032
  13 H :    0.378228
  14 H :    0.368587
  15 O :   -0.751644
  16 H :    0.386964
  17 H :    0.391147
  18 O :   -0.766518
  19 H :    0.383558
  20 H :    0.380037
  21 O :   -0.786955
  22 H :    0.390806
  23 H :    0.390029
  24 O :   -0.758399
  25 H :    0.390259
  26 H :    0.373319
  27 O :   -0.751511
  28 H :    0.391088
  29 H :    0.382380
  30 O :   -0.723189
  31 H :    0.379734
  32 H :    0.397275
  33 O :   -0.791704
  34 H :    0.358533
  35 H :    0.362230
  36 O :   -0.766835
  37 H :    0.386700
  38 H :    0.383940
  39 O :   -0.761082
  40 H :    0.370318
  41 H :    0.372166
  42 O :   -0.796147
  43 H :    0.394138
  44 H :    0.387473
  45 O :   -0.754483
  46 H :    0.389585
  47 H :    0.381575
  48 O :   -0.773835
  49 H :    0.384404
  50 H :    0.373673
  51 O :   -0.746068
  52 H :    0.387981
  53 H :    0.385901
  54 O :   -0.746007
  55 H :    0.368071
  56 H :    0.379142
  57 O :   -0.756707
  58 H :    0.381874
  59 H :    0.388562
Sum of atomic charges:   -0.0000000

LOEWDIN ATOMIC CHARGES
----------------------
   0 O :   -0.315763
   1 H :    0.149308
   2 H :    0.146037
   3 O :   -0.294909
   4 H :    0.141574
   5 H :    0.141054
   6 O :   -0.290931
   7 H :    0.147661
   8 H :    0.186004
   9 O :   -0.353072
  10 H :    0.146166
  11 H :    0.141364
  12 O :   -0.332830
  13 H :    0.149646
  14 H :    0.146547
  15 O :   -0.286491
  16 H :    0.187824
  17 H :    0.142911
  18 O :   -0.328850
  19 H :    0.143584
  20 H :    0.144973
  21 O :   -0.298275
  22 H :    0.144529
  23 H :    0.134175
  24 O :   -0.322025
  25 H :    0.148090
  26 H :    0.145779
  27 O :   -0.277801
  28 H :    0.187917
  29 H :    0.146498
  30 O :   -0.264474
  31 H :    0.160511
  32 H :    0.198168
  33 O :   -0.282236
  34 H :    0.134404
  35 H :    0.131754
  36 O :   -0.303940
  37 H :    0.146345
  38 H :    0.144624
  39 O :   -0.335438
  40 H :    0.143541
  41 H :    0.144229
  42 O :   -0.290799
  43 H :    0.144288
  44 H :    0.134536
  45 O :   -0.283234
  46 H :    0.187311
  47 H :    0.147190
  48 O :   -0.346845
  49 H :    0.140714
  50 H :    0.147116
  51 O :   -0.281884
  52 H :    0.188338
  53 H :    0.145535
  54 O :   -0.313261
  55 H :    0.147867
  56 H :    0.146176
  57 O :   -0.287210
  58 H :    0.148844
  59 H :    0.187135

  Mayer bond orders larger than 0.1
B(  0-O ,  1-H ) :   0.8006 B(  0-O ,  2-H ) :   0.7848 B(  0-O , 47-H ) :   0.1912
B(  2-H , 51-O ) :   0.1302 B(  3-O ,  4-H ) :   0.7741 B(  3-O ,  5-H ) :   0.7289
B(  3-O , 35-H ) :   0.2143 B(  4-H ,  9-O ) :   0.1333 B(  5-H , 45-O ) :   0.1719
B(  6-O ,  7-H ) :   0.7019 B(  6-O ,  8-H ) :   0.8511 B(  6-O , 38-H ) :   0.1440
B(  6-O , 41-H ) :   0.1218 B(  7-H , 18-O ) :   0.1974 B(  9-O , 10-H ) :   0.7417
B(  9-O , 11-H ) :   0.7648 B( 10-H , 12-O ) :   0.1647 B( 11-H , 27-O ) :   0.1374
B( 12-O , 13-H ) :   0.8046 B( 12-O , 14-H ) :   0.7914 B( 14-H , 51-O ) :   0.1215
B( 15-O , 16-H ) :   0.8497 B( 15-O , 17-H ) :   0.7280 B( 15-O , 26-H ) :   0.1210
B( 15-O , 56-H ) :   0.1321 B( 17-H , 42-O ) :   0.1529 B( 18-O , 19-H ) :   0.8091
B( 18-O , 20-H ) :   0.7551 B( 20-H , 48-O ) :   0.1563 B( 21-O , 22-H ) :   0.7516
B( 21-O , 23-H ) :   0.7527 B( 21-O , 53-H ) :   0.1494 B( 22-H , 27-O ) :   0.1418
B( 23-H , 33-O ) :   0.1282 B( 24-O , 25-H ) :   0.7934 B( 24-O , 26-H ) :   0.7867
B( 24-O , 58-H ) :   0.1944 B( 27-O , 28-H ) :   0.8463 B( 27-O , 29-H ) :   0.7025
B( 29-H , 54-O ) :   0.2033 B( 30-O , 31-H ) :   0.8028 B( 30-O , 32-H ) :   0.8446
B( 30-O , 55-H ) :   0.1073 B( 33-O , 34-H ) :   0.7265 B( 33-O , 35-H ) :   0.7112
B( 33-O , 44-H ) :   0.1144 B( 34-H , 36-O ) :   0.2082 B( 36-O , 37-H ) :   0.7612
B( 36-O , 38-H ) :   0.7584 B( 37-H , 57-O ) :   0.1399 B( 39-O , 40-H ) :   0.7928
B( 39-O , 41-H ) :   0.7916 B( 39-O , 43-H ) :   0.1884 B( 40-H , 57-O ) :   0.1219
B( 42-O , 43-H ) :   0.7143 B( 42-O , 44-H ) :   0.7587 B( 42-O , 49-H ) :   0.1089
B( 45-O , 46-H ) :   0.8472 B( 45-O , 47-H ) :   0.7122 B( 48-O , 49-H ) :   0.7882
B( 48-O , 50-H ) :   0.8122 B( 51-O , 52-H ) :   0.8496 B( 51-O , 53-H ) :   0.7366
B( 54-O , 55-H ) :   0.8008 B( 54-O , 56-H ) :   0.7755 B( 57-O , 58-H ) :   0.7077
B( 57-O , 59-H ) :   0.8505

Dispersion correction           -0.079883985
FINAL SINGLE POINT ENERGY     -1528.962277387803

DIPOLE MOMENT
-------------
                                X             Y             Z
Electronic contribution:     -0.17128       0.05007       0.30298
Nuclear contribution   :     -0.37727      -0.44450       1.61463
                        -----------------------------------------
Total Dipole Moment    :     -0.54854      -0.39443       1.91760
                        -----------------------------------------
Magnitude (a.u.)       :      2.03314
Magnitude (Debye)      :      5.16784

                             ****ORCA TERMINATED NORMALLY****
TOTAL RUN TIME: 0 days 0 hours 2 minutes 48 seconds 85 msec
