                         Program Version 3.0.3 - RELEASE   -
|  1> ! wB97X-D3 Def2-TZVP def2-TZVP/J RIJCOSX TightSCF Grid4
|  2>
|  3> %pal nprocs 12 end
|  4>
|  5> %scf
|  6>         maxiter 400
|  7> end
|  8>
|  9> * xyz  0  1
| 10> O  2.142277	-2.532633	2.060809
| 11> H  1.571599	-2.772989	1.296631
| 12> H  1.562653	-2.026593	2.671626
| 13> O  2.227539	0.783650	-0.184819
| 14> H  1.959449	1.559601	0.360528
| 15> H  2.868927	0.278360	0.380215
| 16> O  1.194091	-2.496067	-2.686271
| 17> H  1.469135	-1.510085	-2.767594
| 18> H  1.846826	-2.986976	-3.202659
| 19> O  1.361973	2.820891	1.462201
| 20> H  1.902679	2.380642	2.179346
| 21> H  0.438229	2.816411	1.802709
| 22> O  2.620020	1.288421	3.244090
| 23> H  3.231688	0.712854	2.738920
| 24> H  1.924490	0.649731	3.511640
| 25> O  -3.608586	0.690191	-1.050537
| 26> H  -4.384459	0.829672	-1.610588
| 27> H  -2.855241	0.413413	-1.673333
| 28> O  1.936788	-0.052108	-2.841656
| 29> H  2.188480	0.311769	-1.968654
| 30> H  1.354524	0.661265	-3.223577
| 31> O  -1.317858	0.007956	2.186576
| 32> H  -1.429485	0.981011	2.325104
| 33> H  -0.873721	-0.052842	1.290476
| 34> O  -3.342233	-1.277763	0.838444
| 35> H  -2.733521	-0.839588	1.475427
| 36> H  -3.566546	-0.571826	0.190166
| 37> O  -1.325053	2.691016	2.173929
| 38> H  -1.788042	3.306739	2.756855
| 39> H  -1.729572	2.806266	1.245071
| 40> O  0.508708	3.391924	-1.038840
| 41> H  0.984648	3.244523	-0.185987
| 42> H  0.543996	4.347224	-1.185742
| 43> O  -0.136691	-0.303515	-0.131026
| 44> H  0.088908	-1.274578	-0.096695
| 45> H  0.770407	0.121827	-0.166886
| 46> O  0.508243	-2.877983	-0.108862
| 47> H  -0.432572	-3.180869	-0.159007
| 48> H  0.852236	-2.882214	-1.039040
| 49> O  -1.521597	-2.417041	-3.023403
| 50> H  -1.801923	-2.773185	-2.153276
| 51> H  -0.553579	-2.580862	-3.060863
| 52> O  -1.507023	0.113511	-2.381116
| 53> H  -1.547864	-0.815825	-2.770513
| 54> H  -0.943018	-0.013137	-1.571344
| 55> O  3.723662	-0.582971	1.504895
| 56> H  4.629253	-0.887182	1.360606
| 57> H  3.160509	-1.411138	1.699479
| 58> O  0.255977	1.911704	-3.462385
| 59> H  -0.514988	1.353046	-3.218803
| 60> H  0.410284	2.452635	-2.664306
| 61> O  0.745347	-0.742917	3.619548
| 62> H  0.467267	-1.014366	4.504959
| 63> H  -0.095525	-0.478805	3.134192
| 64> O  -2.143713	2.883452	-0.247417
| 65> H  -1.293044	2.908407	-0.730221
| 66> H  -2.683752	2.133055	-0.584010
| 67> O  -2.131779	-3.173169	-0.406030
| 68> H  -2.608030	-2.418981	0.091562
| 69> H  -2.655522	-3.966396	-0.229075
| 70> **                         ****END OF INPUT****

CARTESIAN COORDINATES (ANGSTROEM)
---------------------------------
  O      2.142277   -2.532633    2.060809
  H      1.571599   -2.772989    1.296631
  H      1.562653   -2.026593    2.671626
  O      2.227539    0.783650   -0.184819
  H      1.959449    1.559601    0.360528
  H      2.868927    0.278360    0.380215
  O      1.194091   -2.496067   -2.686271
  H      1.469135   -1.510085   -2.767594
  H      1.846826   -2.986976   -3.202659
  O      1.361973    2.820891    1.462201
  H      1.902679    2.380642    2.179346
  H      0.438229    2.816411    1.802709
  O      2.620020    1.288421    3.244090
  H      3.231688    0.712854    2.738920
  H      1.924490    0.649731    3.511640
  O     -3.608586    0.690191   -1.050537
  H     -4.384459    0.829672   -1.610588
  H     -2.855241    0.413413   -1.673333
  O      1.936788   -0.052108   -2.841656
  H      2.188480    0.311769   -1.968654
  H      1.354524    0.661265   -3.223577
  O     -1.317858    0.007956    2.186576
  H     -1.429485    0.981011    2.325104
  H     -0.873721   -0.052842    1.290476
  O     -3.342233   -1.277763    0.838444
  H     -2.733521   -0.839588    1.475427
  H     -3.566546   -0.571826    0.190166
  O     -1.325053    2.691016    2.173929
  H     -1.788042    3.306739    2.756855
  H     -1.729572    2.806266    1.245071
  O      0.508708    3.391924   -1.038840
  H      0.984648    3.244523   -0.185987
  H      0.543996    4.347224   -1.185742
  O     -0.136691   -0.303515   -0.131026
  H      0.088908   -1.274578   -0.096695
  H      0.770407    0.121827   -0.166886
  O      0.508243   -2.877983   -0.108862
  H     -0.432572   -3.180869   -0.159007
  H      0.852236   -2.882214   -1.039040
  O     -1.521597   -2.417041   -3.023403
  H     -1.801923   -2.773185   -2.153276
  H     -0.553579   -2.580862   -3.060863
  O     -1.507023    0.113511   -2.381116
  H     -1.547864   -0.815825   -2.770513
  H     -0.943018   -0.013137   -1.571344
  O      3.723662   -0.582971    1.504895
  H      4.629253   -0.887182    1.360606
  H      3.160509   -1.411138    1.699479
  O      0.255977    1.911704   -3.462385
  H     -0.514988    1.353046   -3.218803
  H      0.410284    2.452635   -2.664306
  O      0.745347   -0.742917    3.619548
  H      0.467267   -1.014366    4.504959
  H     -0.095525   -0.478805    3.134192
  O     -2.143713    2.883452   -0.247417
  H     -1.293044    2.908407   -0.730221
  H     -2.683752    2.133055   -0.584010
  O     -2.131779   -3.173169   -0.406030
  H     -2.608030   -2.418981    0.091562
  H     -2.655522   -3.966396   -0.229075

 Total Charge           Charge          ....    0
 Multiplicity           Mult            ....    1
 Number of Electrons    NEL             ....  200
 Basis Dimension        Dim             ....  860

ORBITAL ENERGIES
----------------

  NO   OCC          E(Eh)            E(eV)
   0   2.0000     -19.258861      -524.0603
   1   2.0000     -19.253919      -523.9258
   2   2.0000     -19.253704      -523.9199
   3   2.0000     -19.247581      -523.7533
   4   2.0000     -19.247473      -523.7504
   5   2.0000     -19.247277      -523.7450
   6   2.0000     -19.242587      -523.6174
   7   2.0000     -19.239915      -523.5447
   8   2.0000     -19.237964      -523.4916
   9   2.0000     -19.237785      -523.4867
  10   2.0000     -19.237090      -523.4678
  11   2.0000     -19.235623      -523.4279
  12   2.0000     -19.232769      -523.3503
  13   2.0000     -19.227374      -523.2034
  14   2.0000     -19.225987      -523.1657
  15   2.0000     -19.225250      -523.1456
  16   2.0000     -19.221258      -523.0370
  17   2.0000     -19.218150      -522.9524
  18   2.0000     -19.212891      -522.8093
  19   2.0000     -19.209127      -522.7069
  20   2.0000      -1.160997       -31.5923
  21   2.0000      -1.153848       -31.3978
  22   2.0000      -1.150540       -31.3078
  23   2.0000      -1.149964       -31.2921
  24   2.0000      -1.144767       -31.1507
  25   2.0000      -1.143891       -31.1268
  26   2.0000      -1.140391       -31.0316
  27   2.0000      -1.137336       -30.9485
  28   2.0000      -1.131348       -30.7855
  29   2.0000      -1.127807       -30.6892
  30   2.0000      -1.124577       -30.6013
  31   2.0000      -1.123044       -30.5596
  32   2.0000      -1.116747       -30.3882
  33   2.0000      -1.112214       -30.2649
  34   2.0000      -1.111244       -30.2385
  35   2.0000      -1.108374       -30.1604
  36   2.0000      -1.106803       -30.1177
  37   2.0000      -1.103140       -30.0180
  38   2.0000      -1.097248       -29.8576
  39   2.0000      -1.090385       -29.6709
  40   2.0000      -0.671185       -18.2639
  41   2.0000      -0.665067       -18.0974
  42   2.0000      -0.659504       -17.9460
  43   2.0000      -0.658645       -17.9226
  44   2.0000      -0.656338       -17.8599
  45   2.0000      -0.654772       -17.8173
  46   2.0000      -0.650823       -17.7098
  47   2.0000      -0.648008       -17.6332
  48   2.0000      -0.646038       -17.5796
  49   2.0000      -0.643404       -17.5079
  50   2.0000      -0.641794       -17.4641
  51   2.0000      -0.638000       -17.3609
  52   2.0000      -0.632855       -17.2209
  53   2.0000      -0.630302       -17.1514
  54   2.0000      -0.625106       -17.0100
  55   2.0000      -0.625066       -17.0089
  56   2.0000      -0.623607       -16.9692
  57   2.0000      -0.619921       -16.8689
  58   2.0000      -0.617182       -16.7944
  59   2.0000      -0.609036       -16.5727
  60   2.0000      -0.573882       -15.6161
  61   2.0000      -0.564347       -15.3567
  62   2.0000      -0.560528       -15.2528
  63   2.0000      -0.551122       -14.9968
  64   2.0000      -0.546706       -14.8766
  65   2.0000      -0.539839       -14.6898
  66   2.0000      -0.527216       -14.3463
  67   2.0000      -0.526753       -14.3337
  68   2.0000      -0.518273       -14.1029
  69   2.0000      -0.510709       -13.8971
  70   2.0000      -0.502308       -13.6685
  71   2.0000      -0.498585       -13.5672
  72   2.0000      -0.496167       -13.5014
  73   2.0000      -0.489926       -13.3316
  74   2.0000      -0.488100       -13.2819
  75   2.0000      -0.480629       -13.0786
  76   2.0000      -0.473383       -12.8814
  77   2.0000      -0.470339       -12.7986
  78   2.0000      -0.467219       -12.7137
  79   2.0000      -0.451485       -12.2855
  80   2.0000      -0.443314       -12.0632
  81   2.0000      -0.440328       -11.9819
  82   2.0000      -0.436469       -11.8769
  83   2.0000      -0.434605       -11.8262
  84   2.0000      -0.432703       -11.7744
  85   2.0000      -0.431973       -11.7546
  86   2.0000      -0.429936       -11.6992
  87   2.0000      -0.428751       -11.6669
  88   2.0000      -0.427524       -11.6335
  89   2.0000      -0.425439       -11.5768
  90   2.0000      -0.424066       -11.5394
  91   2.0000      -0.422988       -11.5101
  92   2.0000      -0.418468       -11.3871
  93   2.0000      -0.415905       -11.3173
  94   2.0000      -0.414322       -11.2743
  95   2.0000      -0.412987       -11.2380
  96   2.0000      -0.404903       -11.0180
  97   2.0000      -0.402741       -10.9592
  98   2.0000      -0.401552       -10.9268
  99   2.0000      -0.390741       -10.6326
 100   0.0000       0.071707         1.9512
 101   0.0000       0.099575         2.7096
 102   0.0000       0.100731         2.7410
 103   0.0000       0.109811         2.9881
 104   0.0000       0.119477         3.2511

MULLIKEN ATOMIC CHARGES
-----------------------
   0 O :   -0.698049
   1 H :    0.391849
   2 H :    0.350109
   3 O :   -0.731507
   4 H :    0.344244
   5 H :    0.387641
   6 O :   -0.768100
   7 H :    0.394759
   8 H :    0.354351
   9 O :   -0.761199
  10 H :    0.394346
  11 H :    0.360868
  12 O :   -0.706829
  13 H :    0.359991
  14 H :    0.349494
  15 O :   -0.748737
  16 H :    0.353830
  17 H :    0.380689
  18 O :   -0.727130
  19 H :    0.367178
  20 H :    0.389897
  21 O :   -0.765299
  22 H :    0.379628
  23 H :    0.369558
  24 O :   -0.708600
  25 H :    0.381694
  26 H :    0.369228
  27 O :   -0.753321
  28 H :    0.355242
  29 H :    0.386347
  30 O :   -0.721535
  31 H :    0.377150
  32 H :    0.360885
  33 O :   -0.759000
  34 H :    0.348377
  35 H :    0.352803
  36 O :   -0.749545
  37 H :    0.380400
  38 H :    0.380805
  39 O :   -0.701765
  40 H :    0.349455
  41 H :    0.359543
  42 O :   -0.779521
  43 H :    0.408665
  44 H :    0.349760
  45 O :   -0.757598
  46 H :    0.355256
  47 H :    0.379392
  48 O :   -0.700705
  49 H :    0.371822
  50 H :    0.349252
  51 O :   -0.740639
  52 H :    0.354567
  53 H :    0.380383
  54 O :   -0.695698
  55 H :    0.348324
  56 H :    0.369611
  57 O :   -0.760570
  58 H :    0.382291
  59 H :    0.355659
Sum of atomic charges:   -0.0000000

LOEWDIN ATOMIC CHARGES
----------------------
   0 O :   -0.272545
   1 H :    0.144523
   2 H :    0.138066
   3 O :   -0.272061
   4 H :    0.137095
   5 H :    0.135685
   6 O :   -0.303361
   7 H :    0.141263
   8 H :    0.159782
   9 O :   -0.316650
  10 H :    0.146450
  11 H :    0.140484
  12 O :   -0.294485
  13 H :    0.142614
  14 H :    0.139242
  15 O :   -0.294545
  16 H :    0.161124
  17 H :    0.131301
  18 O :   -0.280739
  19 H :    0.142342
  20 H :    0.143963
  21 O :   -0.282303
  22 H :    0.138421
  23 H :    0.128860
  24 O :   -0.271977
  25 H :    0.144048
  26 H :    0.140822
  27 O :   -0.295705
  28 H :    0.160881
  29 H :    0.138833
  30 O :   -0.280373
  31 H :    0.149971
  32 H :    0.168350
  33 O :   -0.273344
  34 H :    0.129856
  35 H :    0.126767
  36 O :   -0.277106
  37 H :    0.138701
  38 H :    0.140930
  39 O :   -0.282650
  40 H :    0.135310
  41 H :    0.137229
  42 O :   -0.277824
  43 H :    0.142581
  44 H :    0.127692
  45 O :   -0.292588
  46 H :    0.160570
  47 H :    0.139878
  48 O :   -0.290275
  49 H :    0.138145
  50 H :    0.137662
  51 O :   -0.289956
  52 H :    0.161911
  53 H :    0.139534
  54 O :   -0.265908
  55 H :    0.141871
  56 H :    0.141502
  57 O :   -0.300222
  58 H :    0.139361
  59 H :    0.160996

  Mayer bond orders larger than 0.1
B(  0-O ,  1-H ) :   0.8197 B(  0-O ,  2-H ) :   0.8307 B(  0-O , 47-H ) :   0.1925
B(  3-O ,  4-H ) :   0.8200 B(  3-O ,  5-H ) :   0.7697 B(  3-O , 35-H ) :   0.1936
B(  4-H ,  9-O ) :   0.1112 B(  5-H , 45-O ) :   0.1284 B(  6-O ,  7-H ) :   0.7072
B(  6-O ,  8-H ) :   0.8813 B(  6-O , 38-H ) :   0.1142 B(  7-H , 18-O ) :   0.1847
B(  9-O , 10-H ) :   0.7677 B(  9-O , 11-H ) :   0.8152 B( 10-H , 12-O ) :   0.1256
B( 12-O , 13-H ) :   0.8419 B( 12-O , 14-H ) :   0.8391 B( 15-O , 16-H ) :   0.8797
B( 15-O , 17-H ) :   0.7296 B( 15-O , 56-H ) :   0.1088 B( 17-H , 42-O ) :   0.1680
B( 18-O , 19-H ) :   0.8433 B( 18-O , 20-H ) :   0.7688 B( 20-H , 48-O ) :   0.1324
B( 21-O , 22-H ) :   0.7912 B( 21-O , 23-H ) :   0.7663 B( 21-O , 53-H ) :   0.1376
B( 22-H , 27-O ) :   0.1118 B( 23-H , 33-O ) :   0.1309 B( 24-O , 25-H ) :   0.8218
B( 24-O , 26-H ) :   0.8191 B( 24-O , 58-H ) :   0.1988 B( 27-O , 28-H ) :   0.8796
B( 27-O , 29-H ) :   0.7245 B( 29-H , 54-O ) :   0.1723 B( 30-O , 31-H ) :   0.8123
B( 30-O , 32-H ) :   0.8769 B( 33-O , 34-H ) :   0.7603 B( 33-O , 35-H ) :   0.7403
B( 33-O , 44-H ) :   0.1063 B( 34-H , 36-O ) :   0.1818 B( 36-O , 37-H ) :   0.7919
B( 36-O , 38-H ) :   0.7878 B( 37-H , 57-O ) :   0.1110 B( 39-O , 40-H ) :   0.8391
B( 39-O , 41-H ) :   0.8283 B( 39-O , 43-H ) :   0.1524 B( 42-O , 43-H ) :   0.7355
B( 42-O , 44-H ) :   0.7913 B( 45-O , 46-H ) :   0.8789 B( 45-O , 47-H ) :   0.7190
B( 48-O , 49-H ) :   0.8368 B( 48-O , 50-H ) :   0.8603 B( 51-O , 52-H ) :   0.8802
B( 51-O , 53-H ) :   0.7561 B( 54-O , 55-H ) :   0.8403 B( 54-O , 56-H ) :   0.8052
B( 57-O , 58-H ) :   0.7124 B( 57-O , 59-H ) :   0.8808

Dispersion correction           -0.042174117
FINAL SINGLE POINT ENERGY     -1529.154675857330

DIPOLE MOMENT
-------------
                                X             Y             Z
Electronic contribution:      0.02177       0.12133      -0.15751
Nuclear contribution   :     -0.53637      -0.36881       1.41258
                        -----------------------------------------
Total Dipole Moment    :     -0.51460      -0.24748       1.25507
                        -----------------------------------------
Magnitude (a.u.)       :      1.37886
Magnitude (Debye)      :      3.50479

                             ****ORCA TERMINATED NORMALLY****
TOTAL RUN TIME: 0 days 0 hours 2 minutes 52 seconds 147 msec
