                         Program Version 3.0.3 - RELEASE   -
|  1> ! B3LYP Def2-TZVP def2-TZVP/J RIJCOSX TightSCF Grid4 D3BJ
|  2>
|  3> %pal nprocs 12 end
|  4>
|  5> %scf
|  6>         maxiter 400
|  7> end
|  8>
|  9> * xyz  0  1
| 10> O  2.142277	-2.532633	2.060809
| 11> H  1.571599	-2.772989	1.296631
| 12> H  1.562653	-2.026593	2.671626
| 13> O  2.227539	0.783650	-0.184819
| 14> H  1.959449	1.559601	0.360528
| 15> H  2.868927	0.278360	0.380215
| 16> O  1.194091	-2.496067	-2.686271
| 17> H  1.469135	-1.510085	-2.767594
| 18> H  1.846826	-2.986976	-3.202659
| 19> O  1.361973	2.820891	1.462201
| 20> H  1.902679	2.380642	2.179346
| 21> H  0.438229	2.816411	1.802709
| 22> O  2.620020	1.288421	3.244090
| 23> H  3.231688	0.712854	2.738920
| 24> H  1.924490	0.649731	3.511640
| 25> O  -3.608586	0.690191	-1.050537
| 26> H  -4.384459	0.829672	-1.610588
| 27> H  -2.855241	0.413413	-1.673333
| 28> O  1.936788	-0.052108	-2.841656
| 29> H  2.188480	0.311769	-1.968654
| 30> H  1.354524	0.661265	-3.223577
| 31> O  -1.317858	0.007956	2.186576
| 32> H  -1.429485	0.981011	2.325104
| 33> H  -0.873721	-0.052842	1.290476
| 34> O  -3.342233	-1.277763	0.838444
| 35> H  -2.733521	-0.839588	1.475427
| 36> H  -3.566546	-0.571826	0.190166
| 37> O  -1.325053	2.691016	2.173929
| 38> H  -1.788042	3.306739	2.756855
| 39> H  -1.729572	2.806266	1.245071
| 40> O  0.508708	3.391924	-1.038840
| 41> H  0.984648	3.244523	-0.185987
| 42> H  0.543996	4.347224	-1.185742
| 43> O  -0.136691	-0.303515	-0.131026
| 44> H  0.088908	-1.274578	-0.096695
| 45> H  0.770407	0.121827	-0.166886
| 46> O  0.508243	-2.877983	-0.108862
| 47> H  -0.432572	-3.180869	-0.159007
| 48> H  0.852236	-2.882214	-1.039040
| 49> O  -1.521597	-2.417041	-3.023403
| 50> H  -1.801923	-2.773185	-2.153276
| 51> H  -0.553579	-2.580862	-3.060863
| 52> O  -1.507023	0.113511	-2.381116
| 53> H  -1.547864	-0.815825	-2.770513
| 54> H  -0.943018	-0.013137	-1.571344
| 55> O  3.723662	-0.582971	1.504895
| 56> H  4.629253	-0.887182	1.360606
| 57> H  3.160509	-1.411138	1.699479
| 58> O  0.255977	1.911704	-3.462385
| 59> H  -0.514988	1.353046	-3.218803
| 60> H  0.410284	2.452635	-2.664306
| 61> O  0.745347	-0.742917	3.619548
| 62> H  0.467267	-1.014366	4.504959
| 63> H  -0.095525	-0.478805	3.134192
| 64> O  -2.143713	2.883452	-0.247417
| 65> H  -1.293044	2.908407	-0.730221
| 66> H  -2.683752	2.133055	-0.584010
| 67> O  -2.131779	-3.173169	-0.406030
| 68> H  -2.608030	-2.418981	0.091562
| 69> H  -2.655522	-3.966396	-0.229075
| 70> **                         ****END OF INPUT****

CARTESIAN COORDINATES (ANGSTROEM)
---------------------------------
  O      2.142277   -2.532633    2.060809
  H      1.571599   -2.772989    1.296631
  H      1.562653   -2.026593    2.671626
  O      2.227539    0.783650   -0.184819
  H      1.959449    1.559601    0.360528
  H      2.868927    0.278360    0.380215
  O      1.194091   -2.496067   -2.686271
  H      1.469135   -1.510085   -2.767594
  H      1.846826   -2.986976   -3.202659
  O      1.361973    2.820891    1.462201
  H      1.902679    2.380642    2.179346
  H      0.438229    2.816411    1.802709
  O      2.620020    1.288421    3.244090
  H      3.231688    0.712854    2.738920
  H      1.924490    0.649731    3.511640
  O     -3.608586    0.690191   -1.050537
  H     -4.384459    0.829672   -1.610588
  H     -2.855241    0.413413   -1.673333
  O      1.936788   -0.052108   -2.841656
  H      2.188480    0.311769   -1.968654
  H      1.354524    0.661265   -3.223577
  O     -1.317858    0.007956    2.186576
  H     -1.429485    0.981011    2.325104
  H     -0.873721   -0.052842    1.290476
  O     -3.342233   -1.277763    0.838444
  H     -2.733521   -0.839588    1.475427
  H     -3.566546   -0.571826    0.190166
  O     -1.325053    2.691016    2.173929
  H     -1.788042    3.306739    2.756855
  H     -1.729572    2.806266    1.245071
  O      0.508708    3.391924   -1.038840
  H      0.984648    3.244523   -0.185987
  H      0.543996    4.347224   -1.185742
  O     -0.136691   -0.303515   -0.131026
  H      0.088908   -1.274578   -0.096695
  H      0.770407    0.121827   -0.166886
  O      0.508243   -2.877983   -0.108862
  H     -0.432572   -3.180869   -0.159007
  H      0.852236   -2.882214   -1.039040
  O     -1.521597   -2.417041   -3.023403
  H     -1.801923   -2.773185   -2.153276
  H     -0.553579   -2.580862   -3.060863
  O     -1.507023    0.113511   -2.381116
  H     -1.547864   -0.815825   -2.770513
  H     -0.943018   -0.013137   -1.571344
  O      3.723662   -0.582971    1.504895
  H      4.629253   -0.887182    1.360606
  H      3.160509   -1.411138    1.699479
  O      0.255977    1.911704   -3.462385
  H     -0.514988    1.353046   -3.218803
  H      0.410284    2.452635   -2.664306
  O      0.745347   -0.742917    3.619548
  H      0.467267   -1.014366    4.504959
  H     -0.095525   -0.478805    3.134192
  O     -2.143713    2.883452   -0.247417
  H     -1.293044    2.908407   -0.730221
  H     -2.683752    2.133055   -0.584010
  O     -2.131779   -3.173169   -0.406030
  H     -2.608030   -2.418981    0.091562
  H     -2.655522   -3.966396   -0.229075

 Total Charge           Charge          ....    0
 Multiplicity           Mult            ....    1
 Number of Electrons    NEL             ....  200
 Basis Dimension        Dim             ....  860

ORBITAL ENERGIES
----------------

  NO   OCC          E(Eh)            E(eV)
   0   2.0000     -19.151011      -521.1255
   1   2.0000     -19.146323      -520.9979
   2   2.0000     -19.146259      -520.9962
   3   2.0000     -19.140151      -520.8300
   4   2.0000     -19.139969      -520.8250
   5   2.0000     -19.139757      -520.8193
   6   2.0000     -19.135092      -520.6923
   7   2.0000     -19.131688      -520.5997
   8   2.0000     -19.129925      -520.5517
   9   2.0000     -19.128774      -520.5204
  10   2.0000     -19.128452      -520.5116
  11   2.0000     -19.127761      -520.4928
  12   2.0000     -19.124382      -520.4009
  13   2.0000     -19.119012      -520.2548
  14   2.0000     -19.118190      -520.2324
  15   2.0000     -19.117496      -520.2135
  16   2.0000     -19.113430      -520.1029
  17   2.0000     -19.110325      -520.0184
  18   2.0000     -19.104608      -519.8628
  19   2.0000     -19.101394      -519.7754
  20   2.0000      -1.044393       -28.4194
  21   2.0000      -1.037781       -28.2395
  22   2.0000      -1.034527       -28.1509
  23   2.0000      -1.033889       -28.1335
  24   2.0000      -1.029067       -28.0023
  25   2.0000      -1.028066       -27.9751
  26   2.0000      -1.024507       -27.8783
  27   2.0000      -1.021478       -27.7958
  28   2.0000      -1.015413       -27.6308
  29   2.0000      -1.012104       -27.5408
  30   2.0000      -1.008785       -27.4504
  31   2.0000      -1.007365       -27.4118
  32   2.0000      -1.001315       -27.2472
  33   2.0000      -0.996494       -27.1160
  34   2.0000      -0.995866       -27.0989
  35   2.0000      -0.992952       -27.0196
  36   2.0000      -0.991574       -26.9821
  37   2.0000      -0.987883       -26.8817
  38   2.0000      -0.981958       -26.7204
  39   2.0000      -0.975069       -26.5330
  40   2.0000      -0.566434       -15.4135
  41   2.0000      -0.560915       -15.2633
  42   2.0000      -0.555408       -15.1134
  43   2.0000      -0.554554       -15.0902
  44   2.0000      -0.552156       -15.0249
  45   2.0000      -0.551550       -15.0084
  46   2.0000      -0.546371       -14.8675
  47   2.0000      -0.544267       -14.8103
  48   2.0000      -0.541747       -14.7417
  49   2.0000      -0.539687       -14.6856
  50   2.0000      -0.537956       -14.6385
  51   2.0000      -0.533795       -14.5253
  52   2.0000      -0.528943       -14.3933
  53   2.0000      -0.525858       -14.3093
  54   2.0000      -0.521582       -14.1930
  55   2.0000      -0.521327       -14.1860
  56   2.0000      -0.520254       -14.1568
  57   2.0000      -0.516617       -14.0579
  58   2.0000      -0.513696       -13.9784
  59   2.0000      -0.505531       -13.7562
  60   2.0000      -0.468407       -12.7460
  61   2.0000      -0.460095       -12.5198
  62   2.0000      -0.456547       -12.4233
  63   2.0000      -0.446904       -12.1609
  64   2.0000      -0.443139       -12.0584
  65   2.0000      -0.436862       -11.8876
  66   2.0000      -0.425880       -11.5888
  67   2.0000      -0.425332       -11.5739
  68   2.0000      -0.416457       -11.3324
  69   2.0000      -0.408877       -11.1261
  70   2.0000      -0.401742       -10.9320
  71   2.0000      -0.397942       -10.8285
  72   2.0000      -0.394738       -10.7414
  73   2.0000      -0.388598       -10.5743
  74   2.0000      -0.387667       -10.5489
  75   2.0000      -0.380281       -10.3480
  76   2.0000      -0.373426       -10.1614
  77   2.0000      -0.370142       -10.0721
  78   2.0000      -0.367756       -10.0072
  79   2.0000      -0.352630        -9.5956
  80   2.0000      -0.343652        -9.3512
  81   2.0000      -0.341610        -9.2957
  82   2.0000      -0.337822        -9.1926
  83   2.0000      -0.335846        -9.1388
  84   2.0000      -0.334240        -9.0951
  85   2.0000      -0.333515        -9.0754
  86   2.0000      -0.331420        -9.0184
  87   2.0000      -0.330041        -8.9809
  88   2.0000      -0.328849        -8.9484
  89   2.0000      -0.327348        -8.9076
  90   2.0000      -0.325331        -8.8527
  91   2.0000      -0.324234        -8.8229
  92   2.0000      -0.320033        -8.7085
  93   2.0000      -0.318018        -8.6537
  94   2.0000      -0.315461        -8.5841
  95   2.0000      -0.314273        -8.5518
  96   2.0000      -0.305797        -8.3212
  97   2.0000      -0.303751        -8.2655
  98   2.0000      -0.303193        -8.2503
  99   2.0000      -0.292127        -7.9492
 100   0.0000      -0.008681        -0.2362
 101   0.0000       0.014227         0.3871
 102   0.0000       0.015462         0.4208
 103   0.0000       0.023325         0.6347
 104   0.0000       0.031170         0.8482

MULLIKEN ATOMIC CHARGES
-----------------------
   0 O :   -0.691148
   1 H :    0.386424
   2 H :    0.345943
   3 O :   -0.729165
   4 H :    0.346568
   5 H :    0.376317
   6 O :   -0.741373
   7 H :    0.393106
   8 H :    0.333295
   9 O :   -0.752161
  10 H :    0.385249
  11 H :    0.358031
  12 O :   -0.695520
  13 H :    0.351717
  14 H :    0.344366
  15 O :   -0.725068
  16 H :    0.333394
  17 H :    0.377188
  18 O :   -0.718402
  19 H :    0.362079
  20 H :    0.380754
  21 O :   -0.761006
  22 H :    0.369266
  23 H :    0.387024
  24 O :   -0.699921
  25 H :    0.373559
  26 H :    0.363523
  27 O :   -0.729198
  28 H :    0.334593
  29 H :    0.383878
  30 O :   -0.700562
  31 H :    0.374119
  32 H :    0.340946
  33 O :   -0.781746
  34 H :    0.361791
  35 H :    0.364956
  36 O :   -0.741140
  37 H :    0.370259
  38 H :    0.371193
  39 O :   -0.692917
  40 H :    0.345806
  41 H :    0.352596
  42 O :   -0.774785
  43 H :    0.393812
  44 H :    0.376630
  45 O :   -0.729513
  46 H :    0.334390
  47 H :    0.375185
  48 O :   -0.692450
  49 H :    0.364460
  50 H :    0.347139
  51 O :   -0.716392
  52 H :    0.334545
  53 H :    0.376930
  54 O :   -0.692083
  55 H :    0.347417
  56 H :    0.366489
  57 O :   -0.734988
  58 H :    0.379532
  59 H :    0.335069
Sum of atomic charges:   -0.0000000

LOEWDIN ATOMIC CHARGES
----------------------
   0 O :   -0.271378
   1 H :    0.143700
   2 H :    0.137232
   3 O :   -0.269879
   4 H :    0.136400
   5 H :    0.134081
   6 O :   -0.298681
   7 H :    0.140496
   8 H :    0.156661
   9 O :   -0.314659
  10 H :    0.144769
  11 H :    0.139712
  12 O :   -0.293004
  13 H :    0.141560
  14 H :    0.138387
  15 O :   -0.290226
  16 H :    0.157989
  17 H :    0.130144
  18 O :   -0.279523
  19 H :    0.141295
  20 H :    0.142236
  21 O :   -0.278550
  22 H :    0.136860
  23 H :    0.128477
  24 O :   -0.270720
  25 H :    0.142575
  26 H :    0.139711
  27 O :   -0.291508
  28 H :    0.157806
  29 H :    0.138022
  30 O :   -0.277354
  31 H :    0.149674
  32 H :    0.165642
  33 O :   -0.271091
  34 H :    0.128919
  35 H :    0.125629
  36 O :   -0.274334
  37 H :    0.137146
  38 H :    0.139433
  39 O :   -0.281374
  40 H :    0.134509
  41 H :    0.136064
  42 O :   -0.273493
  43 H :    0.140303
  44 H :    0.127792
  45 O :   -0.288179
  46 H :    0.157368
  47 H :    0.138877
  48 O :   -0.288993
  49 H :    0.136928
  50 H :    0.137497
  51 O :   -0.285936
  52 H :    0.158888
  53 H :    0.138378
  54 O :   -0.264968
  55 H :    0.141471
  56 H :    0.140561
  57 O :   -0.295809
  58 H :    0.138534
  59 H :    0.157930

  Mayer bond orders larger than 0.1
B(  0-O ,  1-H ) :   0.8182 B(  0-O ,  2-H ) :   0.8285 B(  0-O , 47-H ) :   0.1990
B(  3-O ,  4-H ) :   0.8154 B(  3-O ,  5-H ) :   0.7720 B(  3-O , 35-H ) :   0.1875
B(  4-H ,  9-O ) :   0.1131 B(  5-H , 45-O ) :   0.1357 B(  6-O ,  7-H ) :   0.7020
B(  6-O ,  8-H ) :   0.8912 B(  6-O , 38-H ) :   0.1220 B(  7-H , 18-O ) :   0.1888
B(  9-O , 10-H ) :   0.7680 B(  9-O , 11-H ) :   0.8126 B( 10-H , 12-O ) :   0.1334
B( 12-O , 13-H ) :   0.8430 B( 12-O , 14-H ) :   0.8382 B( 15-O , 16-H ) :   0.8888
B( 15-O , 17-H ) :   0.7231 B( 15-O , 56-H ) :   0.1151 B( 17-H , 42-O ) :   0.1756
B( 18-O , 19-H ) :   0.8432 B( 18-O , 20-H ) :   0.7690 B( 20-H , 48-O ) :   0.1422
B( 21-O , 22-H ) :   0.7925 B( 21-O , 23-H ) :   0.7579 B( 21-O , 53-H ) :   0.1431
B( 22-H , 27-O ) :   0.1192 B( 23-H , 33-O ) :   0.1214 B( 24-O , 25-H ) :   0.8218
B( 24-O , 26-H ) :   0.8182 B( 24-O , 58-H ) :   0.2039 B( 27-O , 28-H ) :   0.8889
B( 27-O , 29-H ) :   0.7203 B( 29-H , 54-O ) :   0.1772 B( 30-O , 31-H ) :   0.8082
B( 30-O , 32-H ) :   0.8873 B( 33-O , 34-H ) :   0.7546 B( 33-O , 35-H ) :   0.7344
B( 34-H , 36-O ) :   0.1758 B( 36-O , 37-H ) :   0.7925 B( 36-O , 38-H ) :   0.7884
B( 37-H , 57-O ) :   0.1192 B( 39-O , 40-H ) :   0.8376 B( 39-O , 41-H ) :   0.8283
B( 39-O , 43-H ) :   0.1625 B( 42-O , 43-H ) :   0.7390 B( 42-O , 44-H ) :   0.7818
B( 45-O , 46-H ) :   0.8883 B( 45-O , 47-H ) :   0.7149 B( 48-O , 49-H ) :   0.8364
B( 48-O , 50-H ) :   0.8592 B( 51-O , 52-H ) :   0.8895 B( 51-O , 53-H ) :   0.7504
B( 54-O , 55-H ) :   0.8376 B( 54-O , 56-H ) :   0.8027 B( 57-O , 58-H ) :   0.7072
B( 57-O , 59-H ) :   0.8906

Dispersion correction           -0.077408179
FINAL SINGLE POINT ENERGY     -1528.924683583499

DIPOLE MOMENT
-------------
                                X             Y             Z
Electronic contribution:      0.02169       0.12892      -0.16456
Nuclear contribution   :     -0.53637      -0.36881       1.41258
                        -----------------------------------------
Total Dipole Moment    :     -0.51468      -0.23988       1.24802
                        -----------------------------------------
Magnitude (a.u.)       :      1.37113
Magnitude (Debye)      :      3.48513

                             ****ORCA TERMINATED NORMALLY****
TOTAL RUN TIME: 0 days 0 hours 2 minutes 45 seconds 614 msec
