                         Program Version 3.0.3 - RELEASE   -
|  1> ! wB97X-D3 Def2-TZVP def2-TZVP/J RIJCOSX TightSCF Grid4 COSMO
|  2>
|  3> %pal nprocs 12 end
|  4>
|  5> %scf
|  6>         maxiter 400
|  7> end
|  8>
|  9> %cosmo
| 10>         SMD true
| 11>         solvent "WATER"
| 12> end
| 13>
| 14> * xyz  0  1
| 15> O  2.101974	-2.470740	2.091179
| 16> H  1.523747	-2.696751	1.309762
| 17> H  1.522232	-1.907844	2.687613
| 18> O  2.274035	0.766942	-0.251291
| 19> H  1.927290	1.553200	0.278709
| 20> H  2.876959	0.258947	0.393666
| 21> O  1.134360	-2.409183	-2.612526
| 22> H  1.540008	-1.454679	-2.708512
| 23> H  1.735586	-2.996099	-3.112030
| 24> O  1.305382	2.700054	1.320957
| 25> H  1.837284	2.252550	2.073474
| 26> H  0.353049	2.616608	1.642346
| 27> O  2.538706	1.325794	3.194943
| 28> H  3.151491	0.733237	2.675871
| 29> H  1.821235	0.669906	3.445150
| 30> O  -3.474438	0.891733	-0.865930
| 31> H  -4.264598	1.031286	-1.425881
| 32> H  -2.750189	0.547879	-1.510472
| 33> O  2.151938	-0.047086	-2.829108
| 34> H  2.315996	0.267707	-1.897265
| 35> H  1.451488	0.626299	-3.133116
| 36> O  -1.337597	-0.103044	2.139053
| 37> H  -1.433791	0.901044	2.233965
| 38> H  -0.819316	-0.179155	1.264292
| 39> O  -3.359773	-1.267001	0.763205
| 40> H  -2.691689	-0.879884	1.403582
| 41> H  -3.523227	-0.491393	0.147670
| 42> O  -1.265453	2.513722	2.080006
| 43> H  -1.518330	3.116457	2.806945
| 44> H  -1.771706	2.847345	1.234702
| 45> O  0.248795	3.329460	-1.117736
| 46> H  0.789459	3.153473	-0.297573
| 47> H  0.442696	4.264590	-1.331874
| 48> O  -0.030756	-0.408724	-0.097027
| 49> H  0.199663	-1.400251	-0.055262
| 50> H  0.885903	0.042567	-0.165709
| 51> O  0.535987	-2.969420	-0.095652
| 52> H  -0.450872	-3.172379	-0.181176
| 53> H  0.858777	-2.875923	-1.050469
| 54> O  -1.521474	-2.412952	-3.095390
| 55> H  -1.804483	-2.754543	-2.194912
| 56> H  -0.521714	-2.490232	-3.047754
| 57> O  -1.476481	0.044722	-2.245632
| 58> H  -1.565555	-0.887312	-2.671854
| 59> H  -0.888923	-0.132834	-1.434143
| 60> O  3.671351	-0.506566	1.546096
| 61> H  4.567435	-0.806354	1.297442
| 62> H  3.112299	-1.360531	1.724111
| 63> O  0.260620	1.727149	-3.371707
| 64> H  -0.472664	1.112991	-3.058463
| 65> H  0.353293	2.341619	-2.592751
| 66> O  0.753170	-0.672224	3.574804
| 67> H  0.497767	-0.937523	4.480502
| 68> H  -0.128570	-0.476855	3.092346
| 69> O  -2.314721	3.224911	-0.144049
| 70> H  -1.433104	3.256194	-0.615392
| 71> H  -2.758249	2.377635	-0.455172
| 72> O  -2.069249	-3.100687	-0.536978
| 73> H  -2.593480	-2.365829	-0.025867
| 74> H  -2.573695	-3.925462	-0.392250
| 75> **                         ****END OF INPUT****

CARTESIAN COORDINATES (ANGSTROEM)
---------------------------------
  O      2.101974   -2.470740    2.091179
  H      1.523747   -2.696751    1.309762
  H      1.522232   -1.907844    2.687613
  O      2.274035    0.766942   -0.251291
  H      1.927290    1.553200    0.278709
  H      2.876959    0.258947    0.393666
  O      1.134360   -2.409183   -2.612526
  H      1.540008   -1.454679   -2.708512
  H      1.735586   -2.996099   -3.112030
  O      1.305382    2.700054    1.320957
  H      1.837284    2.252550    2.073474
  H      0.353049    2.616608    1.642346
  O      2.538706    1.325794    3.194943
  H      3.151491    0.733237    2.675871
  H      1.821235    0.669906    3.445150
  O     -3.474438    0.891733   -0.865930
  H     -4.264598    1.031286   -1.425881
  H     -2.750189    0.547879   -1.510472
  O      2.151938   -0.047086   -2.829108
  H      2.315996    0.267707   -1.897265
  H      1.451488    0.626299   -3.133116
  O     -1.337597   -0.103044    2.139053
  H     -1.433791    0.901044    2.233965
  H     -0.819316   -0.179155    1.264292
  O     -3.359773   -1.267001    0.763205
  H     -2.691689   -0.879884    1.403582
  H     -3.523227   -0.491393    0.147670
  O     -1.265453    2.513722    2.080006
  H     -1.518330    3.116457    2.806945
  H     -1.771706    2.847345    1.234702
  O      0.248795    3.329460   -1.117736
  H      0.789459    3.153473   -0.297573
  H      0.442696    4.264590   -1.331874
  O     -0.030756   -0.408724   -0.097027
  H      0.199663   -1.400251   -0.055262
  H      0.885903    0.042567   -0.165709
  O      0.535987   -2.969420   -0.095652
  H     -0.450872   -3.172379   -0.181176
  H      0.858777   -2.875923   -1.050469
  O     -1.521474   -2.412952   -3.095390
  H     -1.804483   -2.754543   -2.194912
  H     -0.521714   -2.490232   -3.047754
  O     -1.476481    0.044722   -2.245632
  H     -1.565555   -0.887312   -2.671854
  H     -0.888923   -0.132834   -1.434143
  O      3.671351   -0.506566    1.546096
  H      4.567435   -0.806354    1.297442
  H      3.112299   -1.360531    1.724111
  O      0.260620    1.727149   -3.371707
  H     -0.472664    1.112991   -3.058463
  H      0.353293    2.341619   -2.592751
  O      0.753170   -0.672224    3.574804
  H      0.497767   -0.937523    4.480502
  H     -0.128570   -0.476855    3.092346
  O     -2.314721    3.224911   -0.144049
  H     -1.433104    3.256194   -0.615392
  H     -2.758249    2.377635   -0.455172
  O     -2.069249   -3.100687   -0.536978
  H     -2.593480   -2.365829   -0.025867
  H     -2.573695   -3.925462   -0.392250

 Total Charge           Charge          ....    0
 Multiplicity           Mult            ....    1
 Number of Electrons    NEL             ....  200
 Basis Dimension        Dim             ....  860

ORBITAL ENERGIES
----------------

  NO   OCC          E(Eh)            E(eV)
   0   2.0000     -19.254254      -523.9349
   1   2.0000     -19.241379      -523.5845
   2   2.0000     -19.240874      -523.5708
   3   2.0000     -19.240174      -523.5517
   4   2.0000     -19.240111      -523.5500
   5   2.0000     -19.239968      -523.5462
   6   2.0000     -19.239195      -523.5251
   7   2.0000     -19.238493      -523.5060
   8   2.0000     -19.236166      -523.4427
   9   2.0000     -19.234673      -523.4021
  10   2.0000     -19.232369      -523.3394
  11   2.0000     -19.231737      -523.3222
  12   2.0000     -19.230815      -523.2971
  13   2.0000     -19.230411      -523.2861
  14   2.0000     -19.229894      -523.2720
  15   2.0000     -19.228003      -523.2206
  16   2.0000     -19.227878      -523.2171
  17   2.0000     -19.226238      -523.1725
  18   2.0000     -19.224326      -523.1205
  19   2.0000     -19.223510      -523.0983
  20   2.0000      -1.155450       -31.4414
  21   2.0000      -1.145961       -31.1832
  22   2.0000      -1.142664       -31.0935
  23   2.0000      -1.139637       -31.0111
  24   2.0000      -1.133701       -30.8496
  25   2.0000      -1.133099       -30.8332
  26   2.0000      -1.130163       -30.7533
  27   2.0000      -1.129178       -30.7265
  28   2.0000      -1.126023       -30.6406
  29   2.0000      -1.121799       -30.5257
  30   2.0000      -1.119623       -30.4665
  31   2.0000      -1.114477       -30.3265
  32   2.0000      -1.112945       -30.2848
  33   2.0000      -1.109465       -30.1901
  34   2.0000      -1.101964       -29.9860
  35   2.0000      -1.097702       -29.8700
  36   2.0000      -1.096819       -29.8460
  37   2.0000      -1.094683       -29.7878
  38   2.0000      -1.090983       -29.6871
  39   2.0000      -1.089959       -29.6593
  40   2.0000      -0.658505       -17.9188
  41   2.0000      -0.649630       -17.6773
  42   2.0000      -0.647199       -17.6112
  43   2.0000      -0.645009       -17.5516
  44   2.0000      -0.643285       -17.5047
  45   2.0000      -0.638478       -17.3739
  46   2.0000      -0.637334       -17.3427
  47   2.0000      -0.635510       -17.2931
  48   2.0000      -0.634051       -17.2534
  49   2.0000      -0.632405       -17.2086
  50   2.0000      -0.630957       -17.1692
  51   2.0000      -0.630305       -17.1515
  52   2.0000      -0.627325       -17.0704
  53   2.0000      -0.626524       -17.0486
  54   2.0000      -0.621863       -16.9217
  55   2.0000      -0.620679       -16.8895
  56   2.0000      -0.620335       -16.8802
  57   2.0000      -0.614085       -16.7101
  58   2.0000      -0.612994       -16.6804
  59   2.0000      -0.609246       -16.5784
  60   2.0000      -0.576516       -15.6878
  61   2.0000      -0.564265       -15.3544
  62   2.0000      -0.561332       -15.2746
  63   2.0000      -0.554126       -15.0785
  64   2.0000      -0.547587       -14.9006
  65   2.0000      -0.545105       -14.8331
  66   2.0000      -0.528224       -14.3737
  67   2.0000      -0.521843       -14.2001
  68   2.0000      -0.517375       -14.0785
  69   2.0000      -0.513824       -13.9819
  70   2.0000      -0.506514       -13.7830
  71   2.0000      -0.499605       -13.5949
  72   2.0000      -0.496301       -13.5050
  73   2.0000      -0.493596       -13.4314
  74   2.0000      -0.487575       -13.2676
  75   2.0000      -0.483655       -13.1609
  76   2.0000      -0.477366       -12.9898
  77   2.0000      -0.470990       -12.8163
  78   2.0000      -0.466535       -12.6951
  79   2.0000      -0.455031       -12.3820
  80   2.0000      -0.434457       -11.8222
  81   2.0000      -0.430576       -11.7166
  82   2.0000      -0.428376       -11.6567
  83   2.0000      -0.426221       -11.5981
  84   2.0000      -0.425836       -11.5876
  85   2.0000      -0.423990       -11.5373
  86   2.0000      -0.423099       -11.5131
  87   2.0000      -0.422657       -11.5011
  88   2.0000      -0.421568       -11.4715
  89   2.0000      -0.421051       -11.4574
  90   2.0000      -0.418756       -11.3949
  91   2.0000      -0.416878       -11.3438
  92   2.0000      -0.416001       -11.3200
  93   2.0000      -0.415032       -11.2936
  94   2.0000      -0.414285       -11.2733
  95   2.0000      -0.412953       -11.2370
  96   2.0000      -0.410117       -11.1599
  97   2.0000      -0.409334       -11.1386
  98   2.0000      -0.407932       -11.1004
  99   2.0000      -0.406308       -11.0562
 100   0.0000       0.082740         2.2515
 101   0.0000       0.118068         3.2128
 102   0.0000       0.118847         3.2340
 103   0.0000       0.128597         3.4993
 104   0.0000       0.147023         4.0007

MULLIKEN ATOMIC CHARGES
-----------------------
   0 O :   -0.756263
   1 H :    0.399886
   2 H :    0.373146
   3 O :   -0.775305
   4 H :    0.374493
   5 H :    0.398282
   6 O :   -0.787277
   7 H :    0.386937
   8 H :    0.409146
   9 O :   -0.806235
  10 H :    0.395394
  11 H :    0.368169
  12 O :   -0.773003
  13 H :    0.387490
  14 H :    0.374576
  15 O :   -0.776082
  16 H :    0.407524
  17 H :    0.393970
  18 O :   -0.774756
  19 H :    0.388793
  20 H :    0.388333
  21 O :   -0.793031
  22 H :    0.401569
  23 H :    0.372932
  24 O :   -0.767911
  25 H :    0.399188
  26 H :    0.379801
  27 O :   -0.776934
  28 H :    0.412358
  29 H :    0.387389
  30 O :   -0.746240
  31 H :    0.382852
  32 H :    0.417172
  33 O :   -0.768719
  34 H :    0.343399
  35 H :    0.347388
  36 O :   -0.775339
  37 H :    0.397654
  38 H :    0.394311
  39 O :   -0.771091
  40 H :    0.376247
  41 H :    0.378819
  42 O :   -0.801102
  43 H :    0.409022
  44 H :    0.362085
  45 O :   -0.784265
  46 H :    0.411246
  47 H :    0.386505
  48 O :   -0.781879
  49 H :    0.391608
  50 H :    0.377544
  51 O :   -0.773167
  52 H :    0.409041
  53 H :    0.391022
  54 O :   -0.751171
  55 H :    0.371177
  56 H :    0.382844
  57 O :   -0.784234
  58 H :    0.384618
  59 H :    0.410076
Sum of atomic charges:   -0.0000000

LOEWDIN ATOMIC CHARGES
----------------------
   0 O :   -0.316835
   1 H :    0.150174
   2 H :    0.147144
   3 O :   -0.297952
   4 H :    0.142721
   5 H :    0.143000
   6 O :   -0.296369
   7 H :    0.148750
   8 H :    0.189414
   9 O :   -0.355593
  10 H :    0.148271
  11 H :    0.142138
  12 O :   -0.334440
  13 H :    0.150956
  14 H :    0.147754
  15 O :   -0.291643
  16 H :    0.190971
  17 H :    0.144014
  18 O :   -0.329965
  19 H :    0.144810
  20 H :    0.146907
  21 O :   -0.302534
  22 H :    0.146253
  23 H :    0.134672
  24 O :   -0.323322
  25 H :    0.149778
  26 H :    0.147252
  27 O :   -0.282878
  28 H :    0.191291
  29 H :    0.147753
  30 O :   -0.268771
  31 H :    0.160763
  32 H :    0.200932
  33 O :   -0.285228
  34 H :    0.135555
  35 H :    0.133250
  36 O :   -0.307167
  37 H :    0.148069
  38 H :    0.146330
  39 O :   -0.336824
  40 H :    0.144785
  41 H :    0.145540
  42 O :   -0.295404
  43 H :    0.146876
  44 H :    0.134949
  45 O :   -0.288411
  46 H :    0.190730
  47 H :    0.148328
  48 O :   -0.347869
  49 H :    0.142288
  50 H :    0.147961
  51 O :   -0.287058
  52 H :    0.191606
  53 H :    0.146869
  54 O :   -0.314362
  55 H :    0.148767
  56 H :    0.147250
  57 O :   -0.292633
  58 H :    0.149858
  59 H :    0.190526

  Mayer bond orders larger than 0.1
B(  0-O ,  1-H ) :   0.8028 B(  0-O ,  2-H ) :   0.7870 B(  0-O , 47-H ) :   0.1833
B(  2-H , 51-O ) :   0.1218 B(  3-O ,  4-H ) :   0.7779 B(  3-O ,  5-H ) :   0.7271
B(  3-O , 35-H ) :   0.2203 B(  4-H ,  9-O ) :   0.1295 B(  5-H , 45-O ) :   0.1640
B(  6-O ,  7-H ) :   0.7081 B(  6-O ,  8-H ) :   0.8377 B(  6-O , 38-H ) :   0.1346
B(  6-O , 41-H ) :   0.1126 B(  7-H , 18-O ) :   0.1911 B(  9-O , 10-H ) :   0.7413
B(  9-O , 11-H ) :   0.7693 B( 10-H , 12-O ) :   0.1565 B( 11-H , 27-O ) :   0.1353
B( 12-O , 13-H ) :   0.8030 B( 12-O , 14-H ) :   0.7926 B( 14-H , 51-O ) :   0.1132
B( 15-O , 16-H ) :   0.8374 B( 15-O , 17-H ) :   0.7351 B( 15-O , 26-H ) :   0.1123
B( 15-O , 56-H ) :   0.1234 B( 17-H , 42-O ) :   0.1453 B( 18-O , 19-H ) :   0.8102
B( 18-O , 20-H ) :   0.7560 B( 20-H , 48-O ) :   0.1460 B( 21-O , 22-H ) :   0.7508
B( 21-O , 23-H ) :   0.7618 B( 21-O , 53-H ) :   0.1419 B( 22-H , 27-O ) :   0.1334
B( 23-H , 33-O ) :   0.1365 B( 24-O , 25-H ) :   0.7938 B( 24-O , 26-H ) :   0.7877
B( 24-O , 58-H ) :   0.1883 B( 27-O , 28-H ) :   0.8335 B( 27-O , 29-H ) :   0.7062
B( 29-H , 54-O ) :   0.1960 B( 30-O , 31-H ) :   0.8077 B( 30-O , 32-H ) :   0.8315
B( 30-O , 55-H ) :   0.1001 B( 33-O , 34-H ) :   0.7326 B( 33-O , 35-H ) :   0.7183
B( 33-O , 44-H ) :   0.1276 B( 34-H , 36-O ) :   0.2133 B( 36-O , 37-H ) :   0.7605
B( 36-O , 38-H ) :   0.7580 B( 37-H , 57-O ) :   0.1303 B( 39-O , 40-H ) :   0.7943
B( 39-O , 41-H ) :   0.7925 B( 39-O , 43-H ) :   0.1773 B( 40-H , 57-O ) :   0.1125
B( 42-O , 43-H ) :   0.7115 B( 42-O , 44-H ) :   0.7691 B( 45-O , 46-H ) :   0.8342
B( 45-O , 47-H ) :   0.7168 B( 48-O , 49-H ) :   0.7900 B( 48-O , 50-H ) :   0.8139
B( 51-O , 52-H ) :   0.8368 B( 51-O , 53-H ) :   0.7421 B( 54-O , 55-H ) :   0.8039
B( 54-O , 56-H ) :   0.7789 B( 57-O , 58-H ) :   0.7139 B( 57-O , 59-H ) :   0.8372

Dispersion correction           -0.043307516
FINAL SINGLE POINT ENERGY     -1529.204497902665

DIPOLE MOMENT
-------------
                                X             Y             Z
Electronic contribution:     -0.16434       0.03813       0.29868
Nuclear contribution   :     -0.37727      -0.44450       1.61463
                        -----------------------------------------
Total Dipole Moment    :     -0.54161      -0.40636       1.91331
                        -----------------------------------------
Magnitude (a.u.)       :      2.02959
Magnitude (Debye)      :      5.15881

                             ****ORCA TERMINATED NORMALLY****
TOTAL RUN TIME: 0 days 0 hours 3 minutes 6 seconds 811 msec
