                         Program Version 3.0.3 - RELEASE   -
|  1> ! wB97X-D3 Def2-TZVP def2-TZVP/J RIJCOSX TightSCF Grid4 COSMO
|  2>
|  3> %pal nprocs 12 end
|  4>
|  5> %scf
|  6>         maxiter 400
|  7> end
|  8>
|  9> %cosmo
| 10>         SMD true
| 11>         solvent "WATER"
| 12> end
| 13>
| 14> * xyz  0  1
| 15> O  2.076958	-2.525753	2.073671
| 16> H  1.511416	-2.710561	1.289115
| 17> H  1.531776	-1.945038	2.656820
| 18> O  2.256998	0.761930	-0.176247
| 19> H  1.970498	1.542311	0.353776
| 20> H  2.878875	0.251768	0.414281
| 21> O  1.159940	-2.532163	-2.728499
| 22> H  1.487278	-1.582353	-2.805267
| 23> H  1.794290	-3.073376	-3.222249
| 24> O  1.334279	2.771915	1.484624
| 25> H  1.863330	2.310894	2.194515
| 26> H  0.401422	2.761784	1.808405
| 27> O  2.659678	1.282159	3.272988
| 28> H  3.246611	0.708848	2.730896
| 29> H  1.933193	0.653890	3.503849
| 30> O  -3.574824	0.688348	-0.993761
| 31> H  -4.368686	0.817664	-1.536261
| 32> H  -2.854470	0.423358	-1.638082
| 33> O  2.024850	-0.050505	-2.834066
| 34> H  2.216423	0.256178	-1.921742
| 35> H  1.407640	0.651496	-3.168460
| 36> O  -1.332702	0.014108	2.147657
| 37> H  -1.443665	0.991950	2.285028
| 38> H  -0.869514	-0.049474	1.265478
| 39> O  -3.371880	-1.260116	0.899526
| 40> H  -2.701777	-0.827417	1.481867
| 41> H  -3.549043	-0.573133	0.212240
| 42> O  -1.343188	2.666513	2.179616
| 43> H  -1.784325	3.230048	2.833308
| 44> H  -1.786920	2.853176	1.297569
| 45> O  0.444089	3.310371	-1.046311
| 46> H  0.922187	3.196500	-0.194260
| 47> H  0.475055	4.264866	-1.217899
| 48> O  -0.124132	-0.303479	-0.168530
| 49> H  0.092373	-1.277288	-0.132553
| 50> H  0.785466	0.113901	-0.181601
| 51> O  0.502843	-2.881249	-0.135399
| 52> H  -0.454559	-3.140665	-0.188493
| 53> H  0.839136	-2.895491	-1.068061
| 54> O  -1.524218	-2.440385	-3.048373
| 55> H  -1.807823	-2.746485	-2.154844
| 56> H  -0.548209	-2.584653	-3.056086
| 57> O  -1.463077	0.126098	-2.416002
| 58> H  -1.518690	-0.804593	-2.784931
| 59> H  -0.917554	0.001372	-1.590358
| 60> O  3.734819	-0.564720	1.548058
| 61> H  4.623877	-0.864821	1.305342
| 62> H  3.185839	-1.392154	1.714205
| 63> O  0.286891	1.917568	-3.444190
| 64> H  -0.455687	1.316246	-3.194908
| 65> H  0.435860	2.438647	-2.625176
| 66> O  0.783834	-0.660988	3.583124
| 67> H  0.529829	-0.942770	4.475668
| 68> H  -0.071993	-0.431025	3.119869
| 69> O  -2.233537	2.981634	-0.274002
| 70> H  -1.345590	2.967922	-0.693597
| 71> H  -2.718183	2.173416	-0.564630
| 72> O  -2.120394	-3.103350	-0.456030
| 73> H  -2.612987	-2.405402	0.084392
| 74> H  -2.574054	-3.940911	-0.273553
| 75> **                         ****END OF INPUT****

CARTESIAN COORDINATES (ANGSTROEM)
---------------------------------
  O      2.076958   -2.525753    2.073671
  H      1.511416   -2.710561    1.289115
  H      1.531776   -1.945038    2.656820
  O      2.256998    0.761930   -0.176247
  H      1.970498    1.542311    0.353776
  H      2.878875    0.251768    0.414281
  O      1.159940   -2.532163   -2.728499
  H      1.487278   -1.582353   -2.805267
  H      1.794290   -3.073376   -3.222249
  O      1.334279    2.771915    1.484624
  H      1.863330    2.310894    2.194515
  H      0.401422    2.761784    1.808405
  O      2.659678    1.282159    3.272988
  H      3.246611    0.708848    2.730896
  H      1.933193    0.653890    3.503849
  O     -3.574824    0.688348   -0.993761
  H     -4.368686    0.817664   -1.536261
  H     -2.854470    0.423358   -1.638082
  O      2.024850   -0.050505   -2.834066
  H      2.216423    0.256178   -1.921742
  H      1.407640    0.651496   -3.168460
  O     -1.332702    0.014108    2.147657
  H     -1.443665    0.991950    2.285028
  H     -0.869514   -0.049474    1.265478
  O     -3.371880   -1.260116    0.899526
  H     -2.701777   -0.827417    1.481867
  H     -3.549043   -0.573133    0.212240
  O     -1.343188    2.666513    2.179616
  H     -1.784325    3.230048    2.833308
  H     -1.786920    2.853176    1.297569
  O      0.444089    3.310371   -1.046311
  H      0.922187    3.196500   -0.194260
  H      0.475055    4.264866   -1.217899
  O     -0.124132   -0.303479   -0.168530
  H      0.092373   -1.277288   -0.132553
  H      0.785466    0.113901   -0.181601
  O      0.502843   -2.881249   -0.135399
  H     -0.454559   -3.140665   -0.188493
  H      0.839136   -2.895491   -1.068061
  O     -1.524218   -2.440385   -3.048373
  H     -1.807823   -2.746485   -2.154844
  H     -0.548209   -2.584653   -3.056086
  O     -1.463077    0.126098   -2.416002
  H     -1.518690   -0.804593   -2.784931
  H     -0.917554    0.001372   -1.590358
  O      3.734819   -0.564720    1.548058
  H      4.623877   -0.864821    1.305342
  H      3.185839   -1.392154    1.714205
  O      0.286891    1.917568   -3.444190
  H     -0.455687    1.316246   -3.194908
  H      0.435860    2.438647   -2.625176
  O      0.783834   -0.660988    3.583124
  H      0.529829   -0.942770    4.475668
  H     -0.071993   -0.431025    3.119869
  O     -2.233537    2.981634   -0.274002
  H     -1.345590    2.967922   -0.693597
  H     -2.718183    2.173416   -0.564630
  O     -2.120394   -3.103350   -0.456030
  H     -2.612987   -2.405402    0.084392
  H     -2.574054   -3.940911   -0.273553

 Total Charge           Charge          ....    0
 Multiplicity           Mult            ....    1
 Number of Electrons    NEL             ....  200
 Basis Dimension        Dim             ....  860

ORBITAL ENERGIES
----------------

  NO   OCC          E(Eh)            E(eV)
   0   2.0000     -19.248985      -523.7915
   1   2.0000     -19.240923      -523.5721
   2   2.0000     -19.240285      -523.5548
   3   2.0000     -19.239541      -523.5345
   4   2.0000     -19.238970      -523.5190
   5   2.0000     -19.238722      -523.5122
   6   2.0000     -19.238235      -523.4990
   7   2.0000     -19.238183      -523.4976
   8   2.0000     -19.237783      -523.4867
   9   2.0000     -19.234774      -523.4048
  10   2.0000     -19.232439      -523.3413
  11   2.0000     -19.231270      -523.3095
  12   2.0000     -19.231177      -523.3069
  13   2.0000     -19.230289      -523.2828
  14   2.0000     -19.225386      -523.1494
  15   2.0000     -19.225290      -523.1467
  16   2.0000     -19.225273      -523.1463
  17   2.0000     -19.225145      -523.1428
  18   2.0000     -19.224209      -523.1173
  19   2.0000     -19.224158      -523.1159
  20   2.0000      -1.157371       -31.4937
  21   2.0000      -1.146474       -31.1971
  22   2.0000      -1.144654       -31.1476
  23   2.0000      -1.142441       -31.0874
  24   2.0000      -1.137709       -30.9586
  25   2.0000      -1.136549       -30.9271
  26   2.0000      -1.133739       -30.8506
  27   2.0000      -1.133267       -30.8378
  28   2.0000      -1.129050       -30.7230
  29   2.0000      -1.125916       -30.6377
  30   2.0000      -1.124279       -30.5932
  31   2.0000      -1.120405       -30.4878
  32   2.0000      -1.118589       -30.4384
  33   2.0000      -1.114205       -30.3191
  34   2.0000      -1.107973       -30.1495
  35   2.0000      -1.105566       -30.0840
  36   2.0000      -1.103898       -30.0386
  37   2.0000      -1.102879       -30.0109
  38   2.0000      -1.099949       -29.9311
  39   2.0000      -1.098776       -29.8992
  40   2.0000      -0.662431       -18.0257
  41   2.0000      -0.654665       -17.8144
  42   2.0000      -0.651967       -17.7409
  43   2.0000      -0.648238       -17.6395
  44   2.0000      -0.646117       -17.5818
  45   2.0000      -0.645470       -17.5641
  46   2.0000      -0.641226       -17.4487
  47   2.0000      -0.640142       -17.4191
  48   2.0000      -0.639477       -17.4011
  49   2.0000      -0.636765       -17.3273
  50   2.0000      -0.635380       -17.2896
  51   2.0000      -0.634368       -17.2620
  52   2.0000      -0.631775       -17.1915
  53   2.0000      -0.629117       -17.1191
  54   2.0000      -0.627936       -17.0870
  55   2.0000      -0.624905       -17.0045
  56   2.0000      -0.623979       -16.9793
  57   2.0000      -0.620921       -16.8961
  58   2.0000      -0.620604       -16.8875
  59   2.0000      -0.614751       -16.7282
  60   2.0000      -0.570257       -15.5175
  61   2.0000      -0.559451       -15.2234
  62   2.0000      -0.556398       -15.1404
  63   2.0000      -0.551820       -15.0158
  64   2.0000      -0.543236       -14.7822
  65   2.0000      -0.540349       -14.7036
  66   2.0000      -0.525580       -14.3017
  67   2.0000      -0.520793       -14.1715
  68   2.0000      -0.514462       -13.9992
  69   2.0000      -0.512922       -13.9573
  70   2.0000      -0.504319       -13.7232
  71   2.0000      -0.497618       -13.5409
  72   2.0000      -0.494996       -13.4695
  73   2.0000      -0.492396       -13.3988
  74   2.0000      -0.487917       -13.2769
  75   2.0000      -0.483969       -13.1695
  76   2.0000      -0.478314       -13.0156
  77   2.0000      -0.472343       -12.8531
  78   2.0000      -0.468444       -12.7470
  79   2.0000      -0.456358       -12.4181
  80   2.0000      -0.436006       -11.8643
  81   2.0000      -0.431977       -11.7547
  82   2.0000      -0.430126       -11.7043
  83   2.0000      -0.429722       -11.6933
  84   2.0000      -0.428445       -11.6586
  85   2.0000      -0.426849       -11.6152
  86   2.0000      -0.425332       -11.5739
  87   2.0000      -0.424519       -11.5517
  88   2.0000      -0.424094       -11.5402
  89   2.0000      -0.423724       -11.5301
  90   2.0000      -0.422612       -11.4999
  91   2.0000      -0.419928       -11.4268
  92   2.0000      -0.419638       -11.4189
  93   2.0000      -0.416860       -11.3433
  94   2.0000      -0.416163       -11.3244
  95   2.0000      -0.415290       -11.3006
  96   2.0000      -0.412744       -11.2313
  97   2.0000      -0.411843       -11.2068
  98   2.0000      -0.410964       -11.1829
  99   2.0000      -0.409387       -11.1400
 100   0.0000       0.082454         2.2437
 101   0.0000       0.118158         3.2152
 102   0.0000       0.118589         3.2270
 103   0.0000       0.128332         3.4921
 104   0.0000       0.146624         3.9898

MULLIKEN ATOMIC CHARGES
-----------------------
   0 O :   -0.761917
   1 H :    0.397307
   2 H :    0.367157
   3 O :   -0.755248
   4 H :    0.358160
   5 H :    0.396193
   6 O :   -0.778543
   7 H :    0.390494
   8 H :    0.407605
   9 O :   -0.789110
  10 H :    0.390277
  11 H :    0.372380
  12 O :   -0.769266
  13 H :    0.382494
  14 H :    0.370612
  15 O :   -0.767080
  16 H :    0.406060
  17 H :    0.385516
  18 O :   -0.765552
  19 H :    0.378841
  20 H :    0.380861
  21 O :   -0.783107
  22 H :    0.393943
  23 H :    0.367811
  24 O :   -0.764076
  25 H :    0.394056
  26 H :    0.377005
  27 O :   -0.767358
  28 H :    0.408860
  29 H :    0.388606
  30 O :   -0.748314
  31 H :    0.380309
  32 H :    0.412855
  33 O :   -0.759698
  34 H :    0.349874
  35 H :    0.351884
  36 O :   -0.770383
  37 H :    0.393967
  38 H :    0.391380
  39 O :   -0.771629
  40 H :    0.372235
  41 H :    0.379007
  42 O :   -0.790677
  43 H :    0.404801
  44 H :    0.356728
  45 O :   -0.774013
  46 H :    0.409207
  47 H :    0.384015
  48 O :   -0.771911
  49 H :    0.391002
  50 H :    0.373004
  51 O :   -0.762650
  52 H :    0.407349
  53 H :    0.385230
  54 O :   -0.747818
  55 H :    0.357576
  56 H :    0.374283
  57 O :   -0.776350
  58 H :    0.377953
  59 H :    0.407803
Sum of atomic charges:   -0.0000000

LOEWDIN ATOMIC CHARGES
----------------------
   0 O :   -0.318139
   1 H :    0.142620
   2 H :    0.139195
   3 O :   -0.281513
   4 H :    0.140270
   5 H :    0.138565
   6 O :   -0.281946
   7 H :    0.144413
   8 H :    0.186169
   9 O :   -0.332418
  10 H :    0.142115
  11 H :    0.143099
  12 O :   -0.328255
  13 H :    0.144963
  14 H :    0.139706
  15 O :   -0.281371
  16 H :    0.187219
  17 H :    0.137435
  18 O :   -0.316801
  19 H :    0.143382
  20 H :    0.139935
  21 O :   -0.287114
  22 H :    0.140072
  23 H :    0.128009
  24 O :   -0.313260
  25 H :    0.140709
  26 H :    0.139826
  27 O :   -0.275838
  28 H :    0.187966
  29 H :    0.145775
  30 O :   -0.273203
  31 H :    0.151688
  32 H :    0.193244
  33 O :   -0.271251
  34 H :    0.131065
  35 H :    0.126513
  36 O :   -0.284726
  37 H :    0.140914
  38 H :    0.143483
  39 O :   -0.325041
  40 H :    0.137807
  41 H :    0.138190
  42 O :   -0.287896
  43 H :    0.141687
  44 H :    0.128129
  45 O :   -0.274652
  46 H :    0.187226
  47 H :    0.144277
  48 O :   -0.334250
  49 H :    0.138275
  50 H :    0.141131
  51 O :   -0.273447
  52 H :    0.187582
  53 H :    0.141988
  54 O :   -0.310973
  55 H :    0.142054
  56 H :    0.140553
  57 O :   -0.281501
  58 H :    0.140151
  59 H :    0.186196

  Mayer bond orders larger than 0.1
B(  0-O ,  1-H ) :   0.8105 B(  0-O ,  2-H ) :   0.8043 B(  0-O , 47-H ) :   0.1500
B(  2-H , 51-O ) :   0.1093 B(  3-O ,  4-H ) :   0.8151 B(  3-O ,  5-H ) :   0.7472
B(  3-O , 35-H ) :   0.1901 B(  4-H ,  9-O ) :   0.1005 B(  5-H , 45-O ) :   0.1456
B(  6-O ,  7-H ) :   0.7516 B(  6-O ,  8-H ) :   0.8400 B(  6-O , 38-H ) :   0.1117
B(  6-O , 41-H ) :   0.1011 B(  7-H , 18-O ) :   0.1354 B(  9-O , 10-H ) :   0.7683
B(  9-O , 11-H ) :   0.7975 B( 10-H , 12-O ) :   0.1310 B( 12-O , 13-H ) :   0.8161
B( 12-O , 14-H ) :   0.8049 B( 14-H , 51-O ) :   0.1047 B( 15-O , 16-H ) :   0.8397
B( 15-O , 17-H ) :   0.7585 B( 15-O , 56-H ) :   0.1147 B( 17-H , 42-O ) :   0.1311
B( 18-O , 19-H ) :   0.8288 B( 18-O , 20-H ) :   0.7801 B( 20-H , 48-O ) :   0.1282
B( 21-O , 22-H ) :   0.7672 B( 21-O , 23-H ) :   0.7768 B( 21-O , 53-H ) :   0.1193
B( 22-H , 27-O ) :   0.1246 B( 23-H , 33-O ) :   0.1231 B( 24-O , 25-H ) :   0.8018
B( 24-O , 26-H ) :   0.8022 B( 24-O , 58-H ) :   0.1714 B( 27-O , 28-H ) :   0.8378
B( 27-O , 29-H ) :   0.7567 B( 29-H , 54-O ) :   0.1328 B( 30-O , 31-H ) :   0.8177
B( 30-O , 32-H ) :   0.8360 B( 33-O , 34-H ) :   0.7572 B( 33-O , 35-H ) :   0.7458
B( 33-O , 44-H ) :   0.1123 B( 34-H , 36-O ) :   0.1839 B( 36-O , 37-H ) :   0.7725
B( 36-O , 38-H ) :   0.7802 B( 37-H , 57-O ) :   0.1201 B( 39-O , 40-H ) :   0.8098
B( 39-O , 41-H ) :   0.8024 B( 39-O , 43-H ) :   0.1397 B( 42-O , 43-H ) :   0.7485
B( 42-O , 44-H ) :   0.7865 B( 45-O , 46-H ) :   0.8372 B( 45-O , 47-H ) :   0.7497
B( 48-O , 49-H ) :   0.8095 B( 48-O , 50-H ) :   0.8241 B( 51-O , 52-H ) :   0.8396
B( 51-O , 53-H ) :   0.7679 B( 54-O , 55-H ) :   0.8274 B( 54-O , 56-H ) :   0.7966
B( 57-O , 58-H ) :   0.7381 B( 57-O , 59-H ) :   0.8401

Dispersion correction           -0.042340891
FINAL SINGLE POINT ENERGY     -1529.211894177987

DIPOLE MOMENT
-------------
                                X             Y             Z
Electronic contribution:     -0.06052      -0.04768       0.30858
Nuclear contribution   :     -0.50425      -0.54707       1.56309
                        -----------------------------------------
Total Dipole Moment    :     -0.56477      -0.59474       1.87167
                        -----------------------------------------
Magnitude (a.u.)       :      2.04349
Magnitude (Debye)      :      5.19414

                             ****ORCA TERMINATED NORMALLY****
TOTAL RUN TIME: 0 days 0 hours 2 minutes 59 seconds 88 msec
