                         Program Version 4.2.0 -  RELEASE  -
|  1> # 12mecn.remya.etal.2.mol2,4,5
|  2> ! MP2 def2-TZVP EnGrad TightSCF
|  3>
|  4> %pal
|  5>     nprocs 6
|  6> end
|  7>
|  8> %maxcore 8000
|  9>
| 10> %scf
| 11>     ConvForced true
| 12> end
| 13>
| 14> *xyz 0 1
| 15> C  -4.219070000  -3.477410000  -1.501740000
| 16> H  -3.251530000  -3.803540000  -1.893830000
| 17> H  -4.452920000  -2.481700000  -1.890840000
| 18> H  -4.992170000  -4.178130000  -1.824640000
| 19> C  -4.154550000  -3.418790000  -0.058340000
| 20> N  -4.091140000  -3.354840000   1.104432000
| 21> C  -1.509690000  -0.693960000  -1.610140000
| 22> H  -1.327010000  -1.692700000  -2.017370000
| 23> H  -0.742170000  -0.000650000  -1.964400000
| 24> H  -2.491920000  -0.334310000  -1.929350000
| 25> C  -1.473570000  -0.748120000  -0.167200000
| 26> N  -1.447490000  -0.793720000   0.998938000
| 27> C  -1.955700000   2.515080000   1.698463000
| 28> H  -2.923830000   2.883163000   2.049269000
| 29> H  -1.154850000   3.171830000   2.050990000
| 30> H  -1.790380000   1.506115000   2.087896000
| 31> C  -1.948230000   2.482156000   0.253672000
| 32> N  -1.937550000   2.462523000  -0.913150000
| 33> *
| 34>
| 35>                          ****END OF INPUT****

CARTESIAN COORDINATES (ANGSTROEM)
---------------------------------
  C     -4.219070   -3.477410   -1.501740
  H     -3.251530   -3.803540   -1.893830
  H     -4.452920   -2.481700   -1.890840
  H     -4.992170   -4.178130   -1.824640
  C     -4.154550   -3.418790   -0.058340
  N     -4.091140   -3.354840    1.104432
  C     -1.509690   -0.693960   -1.610140
  H     -1.327010   -1.692700   -2.017370
  H     -0.742170   -0.000650   -1.964400
  H     -2.491920   -0.334310   -1.929350
  C     -1.473570   -0.748120   -0.167200
  N     -1.447490   -0.793720    0.998938
  C     -1.955700    2.515080    1.698463
  H     -2.923830    2.883163    2.049269
  H     -1.154850    3.171830    2.050990
  H     -1.790380    1.506115    2.087896
  C     -1.948230    2.482156    0.253672
  N     -1.937550    2.462523   -0.913150

 Total Charge           Charge          ....    0
 Multiplicity           Mult            ....    1
 Number of Electrons    NEL             ....   66
 Basis Dimension        Dim             ....  333

ORBITAL ENERGIES
----------------

  NO   OCC          E(Eh)            E(eV)
   0   2.0000     -15.571068      -423.7103
   1   2.0000     -15.570892      -423.7055
   2   2.0000     -15.568729      -423.6467
   3   2.0000     -11.287804      -307.1568
   4   2.0000     -11.282708      -307.0181
   5   2.0000     -11.278689      -306.9087
   6   2.0000     -11.277409      -306.8739
   7   2.0000     -11.276379      -306.8459
   8   2.0000     -11.271257      -306.7065
   9   2.0000      -1.216503       -33.1027
  10   2.0000      -1.212175       -32.9850
  11   2.0000      -1.210779       -32.9470
  12   2.0000      -1.045497       -28.4494
  13   2.0000      -1.038419       -28.2568
  14   2.0000      -1.033893       -28.1337
  15   2.0000      -0.701795       -19.0968
  16   2.0000      -0.694737       -18.9048
  17   2.0000      -0.690421       -18.7873
  18   2.0000      -0.637838       -17.3564
  19   2.0000      -0.635459       -17.2917
  20   2.0000      -0.629730       -17.1358
  21   2.0000      -0.623681       -16.9712
  22   2.0000      -0.621236       -16.9047
  23   2.0000      -0.615883       -16.7590
  24   2.0000      -0.558192       -15.1892
  25   2.0000      -0.554200       -15.0805
  26   2.0000      -0.551431       -15.0052
  27   2.0000      -0.463421       -12.6103
  28   2.0000      -0.459950       -12.5159
  29   2.0000      -0.458090       -12.4653
  30   2.0000      -0.455530       -12.3956
  31   2.0000      -0.451842       -12.2952
  32   2.0000      -0.446073       -12.1383
  33   0.0000       0.102158         2.7798
  34   0.0000       0.134367         3.6563
  35   0.0000       0.149581         4.0703
  36   0.0000       0.156886         4.2691
  37   0.0000       0.162266         4.4155

MULLIKEN ATOMIC CHARGES
-----------------------
   0 C :   -0.284608
   1 H :    0.166170
   2 H :    0.167088
   3 H :    0.181533
   4 C :   -0.154264
   5 N :   -0.075908
   6 C :   -0.263503
   7 H :    0.162500
   8 H :    0.189475
   9 H :    0.170282
  10 C :   -0.126725
  11 N :   -0.131732
  12 C :   -0.285582
  13 H :    0.166823
  14 H :    0.166324
  15 H :    0.207991
  16 C :   -0.114310
  17 N :   -0.141554
Sum of atomic charges:   -0.0000000

LOEWDIN ATOMIC CHARGES
----------------------
   0 C :   -0.287538
   1 H :    0.150022
   2 H :    0.150694
   3 H :    0.151852
   4 C :   -0.223555
   5 N :    0.058299
   6 C :   -0.288500
   7 H :    0.146050
   8 H :    0.158004
   9 H :    0.153915
  10 C :   -0.216323
  11 N :    0.043532
  12 C :   -0.281001
  13 H :    0.152344
  14 H :    0.152140
  15 H :    0.158325
  16 C :   -0.209627
  17 N :    0.031369

  Mayer bond orders larger than 0.100000
B(  0-C ,  1-H ) :   0.9222 B(  0-C ,  2-H ) :   0.9196 B(  0-C ,  3-H ) :   0.9111
B(  0-C ,  4-C ) :   0.8990 B(  4-C ,  5-N ) :   2.8281 B(  6-C ,  7-H ) :   0.9147
B(  6-C ,  8-H ) :   0.9055 B(  6-C ,  9-H ) :   0.9201 B(  6-C , 10-C ) :   0.9048
B( 10-C , 11-N ) :   2.7592 B( 12-C , 13-H ) :   0.9148 B( 12-C , 14-H ) :   0.9156
B( 12-C , 15-H ) :   0.9021 B( 12-C , 16-C ) :   0.8985 B( 16-C , 17-N ) :   2.7952

MP2 TOTAL ENERGY:     -397.458055332 Eh
FINAL SINGLE POINT ENERGY      -397.458055331711

DIPOLE MOMENT
-------------
                                X             Y             Z
Electronic contribution:      0.23941      -0.06884       3.27183
Nuclear contribution   :     -0.35223       0.08579      -4.62909
                        -----------------------------------------
Total Dipole Moment    :     -0.11283       0.01695      -1.35727
                        -----------------------------------------
Magnitude (a.u.)       :      1.36205
Magnitude (Debye)      :      3.46207

Rotational constants in cm-1:     0.071962     0.018665     0.016877
Rotational constants in MHz :  2157.353812   559.575963   505.960472

                             ****ORCA TERMINATED NORMALLY****
TOTAL RUN TIME: 0 days 0 hours 3 minutes 47 seconds 415 msec
