                         Program Version 4.2.0 -  RELEASE  -
|  1> # 12h2o.su.etal.mol1,6,8,10
|  2> ! MP2 def2-TZVP EnGrad TightSCF
|  3>
|  4> %pal
|  5>     nprocs 6
|  6> end
|  7>
|  8> %maxcore 8000
|  9>
| 10> %scf
| 11>     ConvForced true
| 12> end
| 13>
| 14> *xyz 0 1
| 15> O  -1.794470000  -0.923410000   2.768350000
| 16> H  -2.338250000  -1.359750000   3.430940000
| 17> H  -0.879480000  -1.303000000   2.865760000
| 18> O   1.737840000   0.885520000  -0.052730000
| 19> H   2.090180000   1.032320000   0.841890000
| 20> H   0.839590000   1.284090000  -0.017130000
| 21> O   1.752130000   0.741530000  -2.896280000
| 22> H   2.036450000   0.920500000  -1.984040000
| 23> H   0.921210000   1.242140000  -2.984230000
| 24> O  -0.923410000   1.794470000  -2.768350000
| 25> H  -1.359750000   2.338250000  -3.430940000
| 26> H  -1.303000000   0.879480000  -2.865760000
| 27> *
| 28>
| 29>                          ****END OF INPUT****

CARTESIAN COORDINATES (ANGSTROEM)
---------------------------------
  O     -1.794470   -0.923410    2.768350
  H     -2.338250   -1.359750    3.430940
  H     -0.879480   -1.303000    2.865760
  O      1.737840    0.885520   -0.052730
  H      2.090180    1.032320    0.841890
  H      0.839590    1.284090   -0.017130
  O      1.752130    0.741530   -2.896280
  H      2.036450    0.920500   -1.984040
  H      0.921210    1.242140   -2.984230
  O     -0.923410    1.794470   -2.768350
  H     -1.359750    2.338250   -3.430940
  H     -1.303000    0.879480   -2.865760

 Total Charge           Charge          ....    0
 Multiplicity           Mult            ....    1
 Number of Electrons    NEL             ....   40
 Basis Dimension        Dim             ....  172

ORBITAL ENERGIES
----------------

  NO   OCC          E(Eh)            E(eV)
   0   2.0000     -20.585520      -560.1605
   1   2.0000     -20.574432      -559.8588
   2   2.0000     -20.568800      -559.7055
   3   2.0000     -20.498103      -557.7817
   4   2.0000      -1.363157       -37.0934
   5   2.0000      -1.352739       -36.8099
   6   2.0000      -1.344146       -36.5761
   7   2.0000      -1.283483       -34.9254
   8   2.0000      -0.730244       -19.8710
   9   2.0000      -0.714964       -19.4552
  10   2.0000      -0.712606       -19.3910
  11   2.0000      -0.661978       -18.0133
  12   2.0000      -0.605914       -16.4878
  13   2.0000      -0.587875       -15.9969
  14   2.0000      -0.580299       -15.7907
  15   2.0000      -0.537730       -14.6324
  16   2.0000      -0.520004       -14.1500
  17   2.0000      -0.512042       -13.9334
  18   2.0000      -0.506091       -13.7714
  19   2.0000      -0.448058       -12.1923
  20   0.0000       0.104096         2.8326
  21   0.0000       0.118956         3.2370
  22   0.0000       0.139917         3.8073
  23   0.0000       0.187932         5.1139
  24   0.0000       0.194383         5.2894

MULLIKEN ATOMIC CHARGES
-----------------------
   0 O :   -0.684416
   1 H :    0.340871
   2 H :    0.343342
   3 O :   -0.692117
   4 H :    0.341996
   5 H :    0.354407
   6 O :   -0.725456
   7 H :    0.363512
   8 H :    0.339293
   9 O :   -0.696760
  10 H :    0.352967
  11 H :    0.362361
Sum of atomic charges:   -0.0000000

LOEWDIN ATOMIC CHARGES
----------------------
   0 O :   -0.339948
   1 H :    0.158778
   2 H :    0.180989
   3 O :   -0.318567
   4 H :    0.167240
   5 H :    0.178134
   6 O :   -0.355872
   7 H :    0.149416
   8 H :    0.139619
   9 O :   -0.312349
  10 H :    0.163599
  11 H :    0.188962

  Mayer bond orders larger than 0.100000
B(  0-O ,  1-H ) :   0.8521 B(  0-O ,  2-H ) :   0.8451 B(  3-O ,  4-H ) :   0.8465
B(  3-O ,  5-H ) :   0.8358 B(  6-O ,  7-H ) :   0.8285 B(  6-O ,  8-H ) :   0.8334
B(  9-O , 10-H ) :   0.8416 B(  9-O , 11-H ) :   0.8294

MP2 TOTAL ENERGY:     -305.264286980 Eh
FINAL SINGLE POINT ENERGY      -305.264286979950

DIPOLE MOMENT
-------------
                                X             Y             Z
Electronic contribution:      0.02281       0.04036      -0.09715
Nuclear contribution   :     -1.27953       0.03147       1.46039
                        -----------------------------------------
Total Dipole Moment    :     -1.25672       0.07183       1.36323
                        -----------------------------------------
Magnitude (a.u.)       :      1.85551
Magnitude (Debye)      :      4.71632

Rotational constants in cm-1:     0.114944     0.032395     0.026576
Rotational constants in MHz :  3445.920283   971.174738   796.742659

                             ****ORCA TERMINATED NORMALLY****
TOTAL RUN TIME: 0 days 0 hours 0 minutes 14 seconds 896 msec
