                         Program Version 4.2.0 -  RELEASE  -
|  1> ! MP2 def2-TZVP EnGrad TightSCF FrozenCore
|  2>
|  3> %pal
|  4>     nprocs 8
|  5> end
|  6>
|  7> %maxcore 8000
|  8>
|  9> %scf
| 10>     ConvForced true
| 11> end
| 12>
| 13> *xyz 0 1
| 14> O          0.00000        0.00000        0.00000
| 15> H          0.96500        0.00000        0.00000
| 16> H         -0.25033        0.00000       -0.95286
| 17> O         -0.71899        0.10368       -2.62708
| 18> H         -1.41037        0.75557       -2.88906
| 19> H         -0.85593       -0.65704       -3.20315
| 20> O         -2.57193        1.97139       -3.35478
| 21> H         -2.35343        2.88590       -3.05497
| 22> H         -3.50891        1.86690       -3.15080
| 23> O         -1.15120        2.03257        1.40322
| 24> H         -1.97050        1.66213        1.75248
| 25> H         -0.73549        1.29147        0.90094
| 26> O         -2.00042        4.48791       -2.47235
| 27> H         -1.27772        4.93582       -2.92876
| 28> H         -1.74327        4.50408       -1.52124
| 29> O         -1.07649        4.42533        0.09270
| 30> H         -0.47121        3.68164        0.32153
| 31> H         -1.58238        4.59606        0.89545
| 32> *
| 33>
| 34>
| 35>                          ****END OF INPUT****

CARTESIAN COORDINATES (ANGSTROEM)
---------------------------------
  O      0.000000    0.000000    0.000000
  H      0.965000    0.000000    0.000000
  H     -0.250330    0.000000   -0.952860
  O     -0.718990    0.103680   -2.627080
  H     -1.410370    0.755570   -2.889060
  H     -0.855930   -0.657040   -3.203150
  O     -2.571930    1.971390   -3.354780
  H     -2.353430    2.885900   -3.054970
  H     -3.508910    1.866900   -3.150800
  O     -1.151200    2.032570    1.403220
  H     -1.970500    1.662130    1.752480
  H     -0.735490    1.291470    0.900940
  O     -2.000420    4.487910   -2.472350
  H     -1.277720    4.935820   -2.928760
  H     -1.743270    4.504080   -1.521240
  O     -1.076490    4.425330    0.092700
  H     -0.471210    3.681640    0.321530
  H     -1.582380    4.596060    0.895450

 Total Charge           Charge          ....    0
 Multiplicity           Mult            ....    1
 Number of Electrons    NEL             ....   60
 Basis Dimension        Dim             ....  258

ORBITAL ENERGIES
----------------

  NO   OCC          E(Eh)            E(eV)
   0   2.0000     -20.561531      -559.5077
   1   2.0000     -20.552874      -559.2721
   2   2.0000     -20.550951      -559.2198
   3   2.0000     -20.550571      -559.2095
   4   2.0000     -20.549886      -559.1908
   5   2.0000     -20.532927      -558.7294
   6   2.0000      -1.353746       -36.8373
   7   2.0000      -1.347818       -36.6760
   8   2.0000      -1.342630       -36.5348
   9   2.0000      -1.332416       -36.2569
  10   2.0000      -1.326198       -36.0877
  11   2.0000      -1.315159       -35.7873
  12   2.0000      -0.714450       -19.4412
  13   2.0000      -0.713874       -19.4255
  14   2.0000      -0.711797       -19.3690
  15   2.0000      -0.710355       -19.3297
  16   2.0000      -0.708711       -19.2850
  17   2.0000      -0.694371       -18.8948
  18   2.0000      -0.623660       -16.9707
  19   2.0000      -0.605200       -16.4683
  20   2.0000      -0.597931       -16.2705
  21   2.0000      -0.557448       -15.1689
  22   2.0000      -0.556428       -15.1412
  23   2.0000      -0.534074       -14.5329
  24   2.0000      -0.513987       -13.9863
  25   2.0000      -0.504806       -13.7365
  26   2.0000      -0.501264       -13.6401
  27   2.0000      -0.497791       -13.5456
  28   2.0000      -0.495250       -13.4764
  29   2.0000      -0.479474       -13.0471
  30   0.0000       0.116024         3.1572
  31   0.0000       0.146537         3.9875
  32   0.0000       0.149598         4.0708
  33   0.0000       0.167959         4.5704
  34   0.0000       0.177889         4.8406

MULLIKEN ATOMIC CHARGES
-----------------------
   0 O :   -0.737294
   1 H :    0.341979
   2 H :    0.400081
   3 O :   -0.746799
   4 H :    0.398793
   5 H :    0.342746
   6 O :   -0.740447
   7 H :    0.396868
   8 H :    0.341862
   9 O :   -0.756080
  10 H :    0.334076
  11 H :    0.387045
  12 O :   -0.737322
  13 H :    0.345939
  14 H :    0.400852
  15 O :   -0.709523
  16 H :    0.381435
  17 H :    0.355789
Sum of atomic charges:    0.0000000

LOEWDIN ATOMIC CHARGES
----------------------
   0 O :   -0.310053
   1 H :    0.159891
   2 H :    0.153342
   3 O :   -0.316974
   4 H :    0.154211
   5 H :    0.159680
   6 O :   -0.315296
   7 H :    0.153561
   8 H :    0.159670
   9 O :   -0.351935
  10 H :    0.154681
  11 H :    0.147136
  12 O :   -0.308752
  13 H :    0.162240
  14 H :    0.154672
  15 O :   -0.300295
  16 H :    0.179503
  17 H :    0.164718

  Mayer bond orders larger than 0.100000
B(  0-O ,  1-H ) :   0.8476 B(  0-O ,  2-H ) :   0.7586 B(  3-O ,  4-H ) :   0.7544
B(  3-O ,  5-H ) :   0.8476 B(  6-O ,  7-H ) :   0.7530 B(  6-O ,  8-H ) :   0.8482
B(  9-O , 10-H ) :   0.8552 B(  9-O , 11-H ) :   0.7640 B( 12-O , 13-H ) :   0.8456
B( 12-O , 14-H ) :   0.7605 B( 15-O , 16-H ) :   0.8064 B( 15-O , 17-H ) :   0.8381

MP2 TOTAL ENERGY:     -457.946920067 Eh
FINAL SINGLE POINT ENERGY      -457.946920067182

DIPOLE MOMENT
-------------
                                X             Y             Z
Electronic contribution:      0.00091       0.23756      -0.10877
Nuclear contribution   :     -0.13025      -0.43219       0.07170
                        -----------------------------------------
Total Dipole Moment    :     -0.12934      -0.19463      -0.03707
                        -----------------------------------------
Magnitude (a.u.)       :      0.23661
Magnitude (Debye)      :      0.60141

Rotational constants in cm-1:     0.044647     0.040339     0.022915
Rotational constants in MHz :  1338.481071  1209.327971   686.959456

                             ****ORCA TERMINATED NORMALLY****
TOTAL RUN TIME: 0 days 0 hours 0 minutes 52 seconds 270 msec
