                         Program Version 4.2.0 -  RELEASE  -
|  1> # 12h2o.su.etal.mol1,2,3,4,5,6,7,10,11
|  2> ! MP2 def2-TZVP EnGrad TightSCF
|  3>
|  4> %pal
|  5>     nprocs 6
|  6> end
|  7>
|  8> %maxcore 8000
|  9>
| 10> %scf
| 11>     ConvForced true
| 12> end
| 13>
| 14> *xyz 0 1
| 15> O  -1.794470000  -0.923410000   2.768350000
| 16> H  -2.338250000  -1.359750000   3.430940000
| 17> H  -0.879480000  -1.303000000   2.865760000
| 18> O   0.923410000  -1.794470000  -2.768350000
| 19> H   1.359750000  -2.338250000  -3.430940000
| 20> H   1.303000000  -0.879480000  -2.865760000
| 21> O  -1.752130000  -0.741530000  -2.896280000
| 22> H  -2.036450000  -0.920500000  -1.984040000
| 23> H  -0.921210000  -1.242140000  -2.984230000
| 24> O  -0.885520000   1.737840000   0.052730000
| 25> H  -1.032320000   2.090180000  -0.841890000
| 26> H  -1.284090000   0.839590000   0.017130000
| 27> O   0.885520000  -1.737840000   0.052730000
| 28> H   1.284090000  -0.839590000   0.017130000
| 29> H   1.032320000  -2.090180000  -0.841890000
| 30> O   1.737840000   0.885520000  -0.052730000
| 31> H   2.090180000   1.032320000   0.841890000
| 32> H   0.839590000   1.284090000  -0.017130000
| 33> O  -1.737840000  -0.885520000  -0.052730000
| 34> H  -2.090180000  -1.032320000   0.841890000
| 35> H  -0.839590000  -1.284090000  -0.017130000
| 36> O  -0.923410000   1.794470000  -2.768350000
| 37> H  -1.359750000   2.338250000  -3.430940000
| 38> H  -1.303000000   0.879480000  -2.865760000
| 39> O  -0.741530000   1.752130000   2.896280000
| 40> H  -0.920500000   2.036450000   1.984040000
| 41> H  -1.242140000   0.921210000   2.984230000
| 42> *
| 43>
| 44>                          ****END OF INPUT****

CARTESIAN COORDINATES (ANGSTROEM)
---------------------------------
  O     -1.794470   -0.923410    2.768350
  H     -2.338250   -1.359750    3.430940
  H     -0.879480   -1.303000    2.865760
  O      0.923410   -1.794470   -2.768350
  H      1.359750   -2.338250   -3.430940
  H      1.303000   -0.879480   -2.865760
  O     -1.752130   -0.741530   -2.896280
  H     -2.036450   -0.920500   -1.984040
  H     -0.921210   -1.242140   -2.984230
  O     -0.885520    1.737840    0.052730
  H     -1.032320    2.090180   -0.841890
  H     -1.284090    0.839590    0.017130
  O      0.885520   -1.737840    0.052730
  H      1.284090   -0.839590    0.017130
  H      1.032320   -2.090180   -0.841890
  O      1.737840    0.885520   -0.052730
  H      2.090180    1.032320    0.841890
  H      0.839590    1.284090   -0.017130
  O     -1.737840   -0.885520   -0.052730
  H     -2.090180   -1.032320    0.841890
  H     -0.839590   -1.284090   -0.017130
  O     -0.923410    1.794470   -2.768350
  H     -1.359750    2.338250   -3.430940
  H     -1.303000    0.879480   -2.865760
  O     -0.741530    1.752130    2.896280
  H     -0.920500    2.036450    1.984040
  H     -1.242140    0.921210    2.984230

 Total Charge           Charge          ....    0
 Multiplicity           Mult            ....    1
 Number of Electrons    NEL             ....   90
 Basis Dimension        Dim             ....  387

ORBITAL ENERGIES
----------------

  NO   OCC          E(Eh)            E(eV)
   0   2.0000     -20.616290      -560.9978
   1   2.0000     -20.609740      -560.8195
   2   2.0000     -20.558041      -559.4127
   3   2.0000     -20.554152      -559.3069
   4   2.0000     -20.550693      -559.2128
   5   2.0000     -20.546986      -559.1119
   6   2.0000     -20.539593      -558.9107
   7   2.0000     -20.539503      -558.9083
   8   2.0000     -20.507456      -558.0363
   9   2.0000      -1.396915       -38.0120
  10   2.0000      -1.390304       -37.8321
  11   2.0000      -1.358589       -36.9691
  12   2.0000      -1.347542       -36.6685
  13   2.0000      -1.340848       -36.4863
  14   2.0000      -1.334066       -36.3018
  15   2.0000      -1.323808       -36.0227
  16   2.0000      -1.316322       -35.8189
  17   2.0000      -1.292415       -35.1684
  18   2.0000      -0.762227       -20.7412
  19   2.0000      -0.755625       -20.5616
  20   2.0000      -0.724373       -19.7112
  21   2.0000      -0.710909       -19.3448
  22   2.0000      -0.709973       -19.3194
  23   2.0000      -0.706402       -19.2222
  24   2.0000      -0.702569       -19.1179
  25   2.0000      -0.700836       -19.0707
  26   2.0000      -0.671895       -18.2832
  27   2.0000      -0.644771       -17.5451
  28   2.0000      -0.632856       -17.2209
  29   2.0000      -0.609168       -16.5763
  30   2.0000      -0.603027       -16.4092
  31   2.0000      -0.595366       -16.2007
  32   2.0000      -0.575654       -15.6643
  33   2.0000      -0.575197       -15.6519
  34   2.0000      -0.561784       -15.2869
  35   2.0000      -0.546212       -14.8632
  36   2.0000      -0.539220       -14.6729
  37   2.0000      -0.522916       -14.2293
  38   2.0000      -0.505482       -13.7549
  39   2.0000      -0.497740       -13.5442
  40   2.0000      -0.496424       -13.5084
  41   2.0000      -0.494173       -13.4471
  42   2.0000      -0.489170       -13.3110
  43   2.0000      -0.486163       -13.2292
  44   2.0000      -0.457268       -12.4429
  45   0.0000       0.096357         2.6220
  46   0.0000       0.107298         2.9197
  47   0.0000       0.147966         4.0264
  48   0.0000       0.159675         4.3450
  49   0.0000       0.184761         5.0276

MULLIKEN ATOMIC CHARGES
-----------------------
   0 O :   -0.717848
   1 H :    0.363976
   2 H :    0.378805
   3 O :   -0.727211
   4 H :    0.366114
   5 H :    0.386548
   6 O :   -0.718083
   7 H :    0.388440
   8 H :    0.363446
   9 O :   -0.758501
  10 H :    0.383333
  11 H :    0.358726
  12 O :   -0.735121
  13 H :    0.358996
  14 H :    0.371952
  15 O :   -0.729063
  16 H :    0.351936
  17 H :    0.382574
  18 O :   -0.757011
  19 H :    0.380291
  20 H :    0.360647
  21 O :   -0.745626
  22 H :    0.336385
  23 H :    0.372869
  24 O :   -0.728299
  25 H :    0.371313
  26 H :    0.340409
Sum of atomic charges:   -0.0000000

LOEWDIN ATOMIC CHARGES
----------------------
   0 O :   -0.287685
   1 H :    0.167813
   2 H :    0.194993
   3 O :   -0.289023
   4 H :    0.168997
   5 H :    0.197858
   6 O :   -0.286645
   7 H :    0.156401
   8 H :    0.147920
   9 O :   -0.302815
  10 H :    0.152647
  11 H :    0.140016
  12 O :   -0.320363
  13 H :    0.140037
  14 H :    0.147317
  15 O :   -0.314238
  16 H :    0.167671
  17 H :    0.146875
  18 O :   -0.303843
  19 H :    0.151525
  20 H :    0.141073
  21 O :   -0.345042
  22 H :    0.153467
  23 H :    0.143352
  24 O :   -0.356234
  25 H :    0.148912
  26 H :    0.139015

  Mayer bond orders larger than 0.100000
B(  0-O ,  1-H ) :   0.8324 B(  0-O ,  2-H ) :   0.8143 B(  3-O ,  4-H ) :   0.8309
B(  3-O ,  5-H ) :   0.8078 B(  6-O ,  7-H ) :   0.7993 B(  6-O ,  8-H ) :   0.8129
B(  6-O , 23-H ) :   0.1129 B(  9-O , 10-H ) :   0.7903 B(  9-O , 11-H ) :   0.7666
B(  9-O , 17-H ) :   0.1024 B( 12-O , 13-H ) :   0.7659 B( 12-O , 14-H ) :   0.8159
B( 12-O , 20-H ) :   0.1229 B( 13-H , 15-O ) :   0.1189 B( 15-O , 16-H ) :   0.8396
B( 15-O , 17-H ) :   0.7576 B( 18-O , 19-H ) :   0.8049 B( 18-O , 20-H ) :   0.7506
B( 21-O , 22-H ) :   0.8510 B( 21-O , 23-H ) :   0.7487 B( 24-O , 25-H ) :   0.8175
B( 24-O , 26-H ) :   0.8376

MP2 TOTAL ENERGY:     -686.929740172 Eh
FINAL SINGLE POINT ENERGY      -686.929740171840

DIPOLE MOMENT
-------------
                                X             Y             Z
Electronic contribution:     -0.00879      -0.22079      -0.08800
Nuclear contribution   :      0.19829      -1.69977      -0.63259
                        -----------------------------------------
Total Dipole Moment    :      0.18950      -1.92056      -0.72059
                        -----------------------------------------
Magnitude (a.u.)       :      2.06003
Magnitude (Debye)      :      5.23617

Rotational constants in cm-1:     0.029692     0.017200     0.015905
Rotational constants in MHz :   890.140233   515.634148   476.829615

                             ****ORCA TERMINATED NORMALLY****
TOTAL RUN TIME: 0 days 0 hours 5 minutes 11 seconds 420 msec
