                         Program Version 4.2.0 -  RELEASE  -
|  1> # 12meoh.boyd.etal.mol5,8,9
|  2> ! MP2 def2-TZVP EnGrad TightSCF
|  3>
|  4> %pal
|  5>     nprocs 6
|  6> end
|  7>
|  8> %maxcore 8000
|  9>
| 10> %scf
| 11>     ConvForced true
| 12> end
| 13>
| 14> *xyz 0 1
| 15> O  -0.662721750   1.449094618  -1.383082065
| 16> H   0.064188300   2.119867608  -1.465650660
| 17> C  -0.353319239   0.341218776  -2.229326771
| 18> H  -1.072358530  -0.454743281  -2.019906495
| 19> H   0.657636746  -0.044472139  -2.042736771
| 20> H  -0.434616607   0.624733901  -3.287793021
| 21> O   3.570084754   2.361662577  -0.202416728
| 22> H   3.393280933   1.755669977   0.560634073
| 23> C   4.368082883   1.644741793  -1.143112807
| 24> H   4.552851717   2.311801738  -1.989632421
| 25> H   3.862427494   0.740851663  -1.508095690
| 26> H   5.333949674   1.357289092  -0.706288100
| 27> O   1.390610024   3.194080770  -1.536658882
| 28> H   2.162932299   2.881562730  -0.993525056
| 29> C   1.202977189   4.580367182  -1.302880219
| 30> H   0.374773115   4.915764831  -1.934164643
| 31> H   2.098649340   5.157710875  -1.570472348
| 32> H   0.950320401   4.800436015  -0.254328827
| 33> *
| 34>
| 35>                          ****END OF INPUT****

CARTESIAN COORDINATES (ANGSTROEM)
---------------------------------
  O     -0.662722    1.449095   -1.383082
  H      0.064188    2.119868   -1.465651
  C     -0.353319    0.341219   -2.229327
  H     -1.072359   -0.454743   -2.019906
  H      0.657637   -0.044472   -2.042737
  H     -0.434617    0.624734   -3.287793
  O      3.570085    2.361663   -0.202417
  H      3.393281    1.755670    0.560634
  C      4.368083    1.644742   -1.143113
  H      4.552852    2.311802   -1.989632
  H      3.862427    0.740852   -1.508096
  H      5.333950    1.357289   -0.706288
  O      1.390610    3.194081   -1.536659
  H      2.162932    2.881563   -0.993525
  C      1.202977    4.580367   -1.302880
  H      0.374773    4.915765   -1.934165
  H      2.098649    5.157711   -1.570472
  H      0.950320    4.800436   -0.254329

 Total Charge           Charge          ....    0
 Multiplicity           Mult            ....    1
 Number of Electrons    NEL             ....   54
 Basis Dimension        Dim             ....  258

ORBITAL ENERGIES
----------------

  NO   OCC          E(Eh)            E(eV)
   0   2.0000     -20.600218      -560.5604
   1   2.0000     -20.546771      -559.1061
   2   2.0000     -20.504399      -557.9531
   3   2.0000     -11.297670      -307.4252
   4   2.0000     -11.266728      -306.5832
   5   2.0000     -11.244964      -305.9910
   6   2.0000      -1.394192       -37.9379
   7   2.0000      -1.348259       -36.6880
   8   2.0000      -1.300016       -35.3752
   9   2.0000      -0.949985       -25.8504
  10   2.0000      -0.917411       -24.9640
  11   2.0000      -0.890548       -24.2330
  12   2.0000      -0.730696       -19.8832
  13   2.0000      -0.695903       -18.9365
  14   2.0000      -0.659163       -17.9367
  15   2.0000      -0.642719       -17.4893
  16   2.0000      -0.622079       -16.9276
  17   2.0000      -0.610367       -16.6089
  18   2.0000      -0.585605       -15.9351
  19   2.0000      -0.584540       -15.9061
  20   2.0000      -0.554216       -15.0810
  21   2.0000      -0.539617       -14.6837
  22   2.0000      -0.506835       -13.7917
  23   2.0000      -0.481128       -13.0922
  24   2.0000      -0.462019       -12.5722
  25   2.0000      -0.438245       -11.9253
  26   2.0000      -0.409395       -11.1402
  27   0.0000       0.109141         2.9699
  28   0.0000       0.151550         4.1239
  29   0.0000       0.160749         4.3742
  30   0.0000       0.172578         4.6961
  31   0.0000       0.201970         5.4959

MULLIKEN ATOMIC CHARGES
-----------------------
   0 O :   -0.538887
   1 H :    0.351658
   2 C :   -0.153628
   3 H :    0.117801
   4 H :    0.078300
   5 H :    0.100814
   6 O :   -0.518352
   7 H :    0.347534
   8 C :   -0.195640
   9 H :    0.146489
  10 H :    0.134795
  11 H :    0.131329
  12 O :   -0.560723
  13 H :    0.361545
  14 C :   -0.164077
  15 H :    0.133606
  16 H :    0.112907
  17 H :    0.114530
Sum of atomic charges:   -0.0000000

LOEWDIN ATOMIC CHARGES
----------------------
   0 O :   -0.130079
   1 H :    0.158360
   2 C :   -0.391704
   3 H :    0.103531
   4 H :    0.086063
   5 H :    0.092661
   6 O :   -0.077241
   7 H :    0.199730
   8 C :   -0.370056
   9 H :    0.117152
  10 H :    0.103868
  11 H :    0.105493
  12 O :   -0.087716
  13 H :    0.164351
  14 C :   -0.385228
  15 H :    0.111423
  16 H :    0.100377
  17 H :    0.099015

  Mayer bond orders larger than 0.100000
B(  0-O ,  1-H ) :   0.7833 B(  0-O ,  2-C ) :   0.9500 B(  2-C ,  3-H ) :   0.9409
B(  2-C ,  4-H ) :   0.9377 B(  2-C ,  5-H ) :   0.9425 B(  6-O ,  7-H ) :   0.8255
B(  6-O ,  8-C ) :   0.8637 B(  6-O , 13-H ) :   0.1023 B(  8-C ,  9-H ) :   0.9385
B(  8-C , 10-H ) :   0.9375 B(  8-C , 11-H ) :   0.9343 B( 12-O , 13-H ) :   0.7550
B( 12-O , 14-C ) :   0.8916 B( 14-C , 15-H ) :   0.9414 B( 14-C , 16-H ) :   0.9351
B( 14-C , 17-H ) :   0.9428

MP2 TOTAL ENERGY:     -346.543004744 Eh
FINAL SINGLE POINT ENERGY      -346.543004744272

DIPOLE MOMENT
-------------
                                X             Y             Z
Electronic contribution:     -0.80364       0.73421       1.96736
Nuclear contribution   :      2.59618      -0.89944      -1.67805
                        -----------------------------------------
Total Dipole Moment    :      1.79254      -0.16523       0.28931
                        -----------------------------------------
Magnitude (a.u.)       :      1.82324
Magnitude (Debye)      :      4.63431

Rotational constants in cm-1:     0.088971     0.043546     0.031679
Rotational constants in MHz :  2667.283693  1305.477861   949.697646

                             ****ORCA TERMINATED NORMALLY****
TOTAL RUN TIME: 0 days 0 hours 1 minutes 30 seconds 689 msec
