                         Program Version 4.2.0 -  RELEASE  -
|  1> # 12h2o.su.etal.mol1,2,3,4,6,7,10,11
|  2> ! MP2 def2-TZVP EnGrad TightSCF
|  3>
|  4> %pal
|  5>     nprocs 6
|  6> end
|  7>
|  8> %maxcore 8000
|  9>
| 10> %scf
| 11>     ConvForced true
| 12> end
| 13>
| 14> *xyz 0 1
| 15> O  -1.794470000  -0.923410000   2.768350000
| 16> H  -2.338250000  -1.359750000   3.430940000
| 17> H  -0.879480000  -1.303000000   2.865760000
| 18> O   0.923410000  -1.794470000  -2.768350000
| 19> H   1.359750000  -2.338250000  -3.430940000
| 20> H   1.303000000  -0.879480000  -2.865760000
| 21> O  -1.752130000  -0.741530000  -2.896280000
| 22> H  -2.036450000  -0.920500000  -1.984040000
| 23> H  -0.921210000  -1.242140000  -2.984230000
| 24> O  -0.885520000   1.737840000   0.052730000
| 25> H  -1.032320000   2.090180000  -0.841890000
| 26> H  -1.284090000   0.839590000   0.017130000
| 27> O   1.737840000   0.885520000  -0.052730000
| 28> H   2.090180000   1.032320000   0.841890000
| 29> H   0.839590000   1.284090000  -0.017130000
| 30> O  -1.737840000  -0.885520000  -0.052730000
| 31> H  -2.090180000  -1.032320000   0.841890000
| 32> H  -0.839590000  -1.284090000  -0.017130000
| 33> O  -0.923410000   1.794470000  -2.768350000
| 34> H  -1.359750000   2.338250000  -3.430940000
| 35> H  -1.303000000   0.879480000  -2.865760000
| 36> O  -0.741530000   1.752130000   2.896280000
| 37> H  -0.920500000   2.036450000   1.984040000
| 38> H  -1.242140000   0.921210000   2.984230000
| 39> *
| 40>
| 41>                          ****END OF INPUT****

CARTESIAN COORDINATES (ANGSTROEM)
---------------------------------
  O     -1.794470   -0.923410    2.768350
  H     -2.338250   -1.359750    3.430940
  H     -0.879480   -1.303000    2.865760
  O      0.923410   -1.794470   -2.768350
  H      1.359750   -2.338250   -3.430940
  H      1.303000   -0.879480   -2.865760
  O     -1.752130   -0.741530   -2.896280
  H     -2.036450   -0.920500   -1.984040
  H     -0.921210   -1.242140   -2.984230
  O     -0.885520    1.737840    0.052730
  H     -1.032320    2.090180   -0.841890
  H     -1.284090    0.839590    0.017130
  O      1.737840    0.885520   -0.052730
  H      2.090180    1.032320    0.841890
  H      0.839590    1.284090   -0.017130
  O     -1.737840   -0.885520   -0.052730
  H     -2.090180   -1.032320    0.841890
  H     -0.839590   -1.284090   -0.017130
  O     -0.923410    1.794470   -2.768350
  H     -1.359750    2.338250   -3.430940
  H     -1.303000    0.879480   -2.865760
  O     -0.741530    1.752130    2.896280
  H     -0.920500    2.036450    1.984040
  H     -1.242140    0.921210    2.984230

 Total Charge           Charge          ....    0
 Multiplicity           Mult            ....    1
 Number of Electrons    NEL             ....   80
 Basis Dimension        Dim             ....  344

ORBITAL ENERGIES
----------------

  NO   OCC          E(Eh)            E(eV)
   0   2.0000     -20.625714      -561.2542
   1   2.0000     -20.597223      -560.4789
   2   2.0000     -20.588272      -560.2354
   3   2.0000     -20.553031      -559.2764
   4   2.0000     -20.537828      -558.8627
   5   2.0000     -20.535290      -558.7936
   6   2.0000     -20.514841      -558.2372
   7   2.0000     -20.510236      -558.1119
   8   2.0000      -1.406683       -38.2778
   9   2.0000      -1.383153       -37.6375
  10   2.0000      -1.366689       -37.1895
  11   2.0000      -1.345621       -36.6162
  12   2.0000      -1.332393       -36.2562
  13   2.0000      -1.315170       -35.7876
  14   2.0000      -1.296097       -35.2686
  15   2.0000      -1.293926       -35.2095
  16   2.0000      -0.771814       -21.0021
  17   2.0000      -0.747326       -20.3358
  18   2.0000      -0.733925       -19.9711
  19   2.0000      -0.710271       -19.3275
  20   2.0000      -0.704853       -19.1800
  21   2.0000      -0.700300       -19.0561
  22   2.0000      -0.677171       -18.4267
  23   2.0000      -0.668854       -18.2004
  24   2.0000      -0.651080       -17.7168
  25   2.0000      -0.625402       -17.0180
  26   2.0000      -0.605382       -16.4733
  27   2.0000      -0.599834       -16.3223
  28   2.0000      -0.582584       -15.8529
  29   2.0000      -0.569470       -15.4961
  30   2.0000      -0.552598       -15.0370
  31   2.0000      -0.544782       -14.8243
  32   2.0000      -0.533629       -14.5208
  33   2.0000      -0.527722       -14.3600
  34   2.0000      -0.520338       -14.1591
  35   2.0000      -0.495857       -13.4930
  36   2.0000      -0.484676       -13.1887
  37   2.0000      -0.482021       -13.1165
  38   2.0000      -0.463540       -12.6136
  39   2.0000      -0.459624       -12.5070
  40   0.0000       0.083415         2.2698
  41   0.0000       0.114185         3.1071
  42   0.0000       0.147027         4.0008
  43   0.0000       0.156724         4.2647
  44   0.0000       0.177152         4.8205

MULLIKEN ATOMIC CHARGES
-----------------------
   0 O :   -0.716294
   1 H :    0.369593
   2 H :    0.372059
   3 O :   -0.710522
   4 H :    0.353269
   5 H :    0.381461
   6 O :   -0.717601
   7 H :    0.382031
   8 H :    0.365996
   9 O :   -0.750521
  10 H :    0.383400
  11 H :    0.354106
  12 O :   -0.734317
  13 H :    0.328136
  14 H :    0.367386
  15 O :   -0.730846
  16 H :    0.388120
  17 H :    0.365355
  18 O :   -0.741087
  19 H :    0.334461
  20 H :    0.371336
  21 O :   -0.724553
  22 H :    0.372829
  23 H :    0.336204
Sum of atomic charges:    0.0000000

LOEWDIN ATOMIC CHARGES
----------------------
   0 O :   -0.286956
   1 H :    0.170382
   2 H :    0.192873
   3 O :   -0.313758
   4 H :    0.164337
   5 H :    0.195939
   6 O :   -0.286944
   7 H :    0.154226
   8 H :    0.149688
   9 O :   -0.302001
  10 H :    0.153139
  11 H :    0.139289
  12 O :   -0.368953
  13 H :    0.157369
  14 H :    0.141884
  15 O :   -0.282805
  16 H :    0.156661
  17 H :    0.179617
  18 O :   -0.342890
  19 H :    0.152679
  20 H :    0.143276
  21 O :   -0.354282
  22 H :    0.149857
  23 H :    0.137373

  Mayer bond orders larger than 0.100000
B(  0-O ,  1-H ) :   0.8291 B(  0-O ,  2-H ) :   0.8195 B(  3-O ,  4-H ) :   0.8412
B(  3-O ,  5-H ) :   0.8135 B(  6-O ,  7-H ) :   0.8103 B(  6-O ,  8-H ) :   0.8023
B(  6-O , 20-H ) :   0.1110 B(  9-O , 10-H ) :   0.7897 B(  9-O , 11-H ) :   0.7839
B( 12-O , 13-H ) :   0.8566 B( 12-O , 14-H ) :   0.7833 B( 15-O , 16-H ) :   0.7953
B( 15-O , 17-H ) :   0.8217 B( 18-O , 19-H ) :   0.8520 B( 18-O , 20-H ) :   0.7509
B( 21-O , 22-H ) :   0.8154 B( 21-O , 23-H ) :   0.8428

MP2 TOTAL ENERGY:     -610.582946206 Eh
FINAL SINGLE POINT ENERGY      -610.582946205941

DIPOLE MOMENT
-------------
                                X             Y             Z
Electronic contribution:     -0.23856      -0.29257      -0.07003
Nuclear contribution   :     -0.25565      -2.15417       0.14168
                        -----------------------------------------
Total Dipole Moment    :     -0.49422      -2.44673       0.07166
                        -----------------------------------------
Magnitude (a.u.)       :      2.49718
Magnitude (Debye)      :      6.34732

Rotational constants in cm-1:     0.036044     0.018145     0.016737
Rotational constants in MHz :  1080.557150   543.986167   501.776515

                             ****ORCA TERMINATED NORMALLY****
TOTAL RUN TIME: 0 days 0 hours 3 minutes 13 seconds 342 msec
