                         Program Version 4.2.0 -  RELEASE  -
|  1> # 12h2o.su.etal.mol0,1,4,5
|  2> ! MP2 def2-TZVP EnGrad TightSCF
|  3>
|  4> %pal
|  5>     nprocs 6
|  6> end
|  7>
|  8> %maxcore 8000
|  9>
| 10> %scf
| 11>     ConvForced true
| 12> end
| 13>
| 14> *xyz 0 1
| 15> O   1.794470000   0.923410000   2.768350000
| 16> H   2.338250000   1.359750000   3.430940000
| 17> H   0.879480000   1.303000000   2.865760000
| 18> O  -1.794470000  -0.923410000   2.768350000
| 19> H  -2.338250000  -1.359750000   3.430940000
| 20> H  -0.879480000  -1.303000000   2.865760000
| 21> O  -0.885520000   1.737840000   0.052730000
| 22> H  -1.032320000   2.090180000  -0.841890000
| 23> H  -1.284090000   0.839590000   0.017130000
| 24> O   0.885520000  -1.737840000   0.052730000
| 25> H   1.284090000  -0.839590000   0.017130000
| 26> H   1.032320000  -2.090180000  -0.841890000
| 27> *
| 28>
| 29>                          ****END OF INPUT****

CARTESIAN COORDINATES (ANGSTROEM)
---------------------------------
  O      1.794470    0.923410    2.768350
  H      2.338250    1.359750    3.430940
  H      0.879480    1.303000    2.865760
  O     -1.794470   -0.923410    2.768350
  H     -2.338250   -1.359750    3.430940
  H     -0.879480   -1.303000    2.865760
  O     -0.885520    1.737840    0.052730
  H     -1.032320    2.090180   -0.841890
  H     -1.284090    0.839590    0.017130
  O      0.885520   -1.737840    0.052730
  H      1.284090   -0.839590    0.017130
  H      1.032320   -2.090180   -0.841890

 Total Charge           Charge          ....    0
 Multiplicity           Mult            ....    1
 Number of Electrons    NEL             ....   40
 Basis Dimension        Dim             ....  172

ORBITAL ENERGIES
----------------

  NO   OCC          E(Eh)            E(eV)
   0   2.0000     -20.554101      -559.3055
   1   2.0000     -20.554101      -559.3055
   2   2.0000     -20.552529      -559.2627
   3   2.0000     -20.552529      -559.2627
   4   2.0000      -1.330450       -36.2034
   5   2.0000      -1.329777       -36.1851
   6   2.0000      -1.328022       -36.1373
   7   2.0000      -1.327686       -36.1282
   8   2.0000      -0.697987       -18.9932
   9   2.0000      -0.694410       -18.8959
  10   2.0000      -0.692337       -18.8394
  11   2.0000      -0.690435       -18.7877
  12   2.0000      -0.570219       -15.5165
  13   2.0000      -0.570102       -15.5133
  14   2.0000      -0.565112       -15.3775
  15   2.0000      -0.564411       -15.3584
  16   2.0000      -0.499764       -13.5993
  17   2.0000      -0.496552       -13.5119
  18   2.0000      -0.495604       -13.4861
  19   2.0000      -0.494147       -13.4464
  20   0.0000       0.110325         3.0021
  21   0.0000       0.143634         3.9085
  22   0.0000       0.152441         4.1481
  23   0.0000       0.155666         4.2359
  24   0.0000       0.216389         5.8882

MULLIKEN ATOMIC CHARGES
-----------------------
   0 O :   -0.692902
   1 H :    0.334886
   2 H :    0.358567
   3 O :   -0.692902
   4 H :    0.334886
   5 H :    0.358567
   6 O :   -0.685668
   7 H :    0.331058
   8 H :    0.354060
   9 O :   -0.685668
  10 H :    0.354060
  11 H :    0.331058
Sum of atomic charges:    0.0000000

LOEWDIN ATOMIC CHARGES
----------------------
   0 O :   -0.341596
   1 H :    0.156434
   2 H :    0.185545
   3 O :   -0.341596
   4 H :    0.156434
   5 H :    0.185545
   6 O :   -0.339000
   7 H :    0.162575
   8 H :    0.176042
   9 O :   -0.339000
  10 H :    0.176042
  11 H :    0.162575

  Mayer bond orders larger than 0.100000
B(  0-O ,  1-H ) :   0.8547 B(  0-O ,  2-H ) :   0.8321 B(  3-O ,  4-H ) :   0.8547
B(  3-O ,  5-H ) :   0.8321 B(  6-O ,  7-H ) :   0.8557 B(  6-O ,  8-H ) :   0.8359
B(  9-O , 10-H ) :   0.8359 B(  9-O , 11-H ) :   0.8557

MP2 TOTAL ENERGY:     -305.259093826 Eh
FINAL SINGLE POINT ENERGY      -305.259093826134

DIPOLE MOMENT
-------------
                                X             Y             Z
Electronic contribution:     -0.00000      -0.00000       0.07370
Nuclear contribution   :     -0.00000       0.00000      -0.28337
                        -----------------------------------------
Total Dipole Moment    :     -0.00000      -0.00000      -0.20967
                        -----------------------------------------
Magnitude (a.u.)       :      0.20967
Magnitude (Debye)      :      0.53293

Rotational constants in cm-1:     0.059798     0.058639     0.057179
Rotational constants in MHz :  1792.694735  1757.947235  1714.179977

                             ****ORCA TERMINATED NORMALLY****
TOTAL RUN TIME: 0 days 0 hours 0 minutes 14 seconds 821 msec
