                         Program Version 4.2.0 -  RELEASE  -
|  1> # 12h2o.su.etal.mol2,3,4,5,6,8,9,10,11
|  2> ! MP2 def2-TZVP EnGrad TightSCF
|  3>
|  4> %pal
|  5>     nprocs 6
|  6> end
|  7>
|  8> %maxcore 8000
|  9>
| 10> %scf
| 11>     ConvForced true
| 12> end
| 13>
| 14> *xyz 0 1
| 15> O   0.923410000  -1.794470000  -2.768350000
| 16> H   1.359750000  -2.338250000  -3.430940000
| 17> H   1.303000000  -0.879480000  -2.865760000
| 18> O  -1.752130000  -0.741530000  -2.896280000
| 19> H  -2.036450000  -0.920500000  -1.984040000
| 20> H  -0.921210000  -1.242140000  -2.984230000
| 21> O  -0.885520000   1.737840000   0.052730000
| 22> H  -1.032320000   2.090180000  -0.841890000
| 23> H  -1.284090000   0.839590000   0.017130000
| 24> O   0.885520000  -1.737840000   0.052730000
| 25> H   1.284090000  -0.839590000   0.017130000
| 26> H   1.032320000  -2.090180000  -0.841890000
| 27> O   1.737840000   0.885520000  -0.052730000
| 28> H   2.090180000   1.032320000   0.841890000
| 29> H   0.839590000   1.284090000  -0.017130000
| 30> O   1.752130000   0.741530000  -2.896280000
| 31> H   2.036450000   0.920500000  -1.984040000
| 32> H   0.921210000   1.242140000  -2.984230000
| 33> O   0.741530000  -1.752130000   2.896280000
| 34> H   0.920500000  -2.036450000   1.984040000
| 35> H   1.242140000  -0.921210000   2.984230000
| 36> O  -0.923410000   1.794470000  -2.768350000
| 37> H  -1.359750000   2.338250000  -3.430940000
| 38> H  -1.303000000   0.879480000  -2.865760000
| 39> O  -0.741530000   1.752130000   2.896280000
| 40> H  -0.920500000   2.036450000   1.984040000
| 41> H  -1.242140000   0.921210000   2.984230000
| 42> *
| 43>
| 44>                          ****END OF INPUT****

CARTESIAN COORDINATES (ANGSTROEM)
---------------------------------
  O      0.923410   -1.794470   -2.768350
  H      1.359750   -2.338250   -3.430940
  H      1.303000   -0.879480   -2.865760
  O     -1.752130   -0.741530   -2.896280
  H     -2.036450   -0.920500   -1.984040
  H     -0.921210   -1.242140   -2.984230
  O     -0.885520    1.737840    0.052730
  H     -1.032320    2.090180   -0.841890
  H     -1.284090    0.839590    0.017130
  O      0.885520   -1.737840    0.052730
  H      1.284090   -0.839590    0.017130
  H      1.032320   -2.090180   -0.841890
  O      1.737840    0.885520   -0.052730
  H      2.090180    1.032320    0.841890
  H      0.839590    1.284090   -0.017130
  O      1.752130    0.741530   -2.896280
  H      2.036450    0.920500   -1.984040
  H      0.921210    1.242140   -2.984230
  O      0.741530   -1.752130    2.896280
  H      0.920500   -2.036450    1.984040
  H      1.242140   -0.921210    2.984230
  O     -0.923410    1.794470   -2.768350
  H     -1.359750    2.338250   -3.430940
  H     -1.303000    0.879480   -2.865760
  O     -0.741530    1.752130    2.896280
  H     -0.920500    2.036450    1.984040
  H     -1.242140    0.921210    2.984230

 Total Charge           Charge          ....    0
 Multiplicity           Mult            ....    1
 Number of Electrons    NEL             ....   90
 Basis Dimension        Dim             ....  387

ORBITAL ENERGIES
----------------

  NO   OCC          E(Eh)            E(eV)
   0   2.0000     -20.609391      -560.8100
   1   2.0000     -20.597877      -560.4967
   2   2.0000     -20.595039      -560.4195
   3   2.0000     -20.591617      -560.3264
   4   2.0000     -20.577151      -559.9328
   5   2.0000     -20.569764      -559.7317
   6   2.0000     -20.543334      -559.0125
   7   2.0000     -20.536233      -558.8193
   8   2.0000     -20.524903      -558.5110
   9   2.0000      -1.401579       -38.1389
  10   2.0000      -1.392740       -37.8984
  11   2.0000      -1.379509       -37.5384
  12   2.0000      -1.374000       -37.3884
  13   2.0000      -1.369514       -37.2664
  14   2.0000      -1.350968       -36.7617
  15   2.0000      -1.325272       -36.0625
  16   2.0000      -1.323470       -36.0134
  17   2.0000      -1.305485       -35.5241
  18   2.0000      -0.762459       -20.7476
  19   2.0000      -0.756309       -20.5802
  20   2.0000      -0.751208       -20.4414
  21   2.0000      -0.748273       -20.3615
  22   2.0000      -0.737983       -20.0815
  23   2.0000      -0.726808       -19.7775
  24   2.0000      -0.704193       -19.1621
  25   2.0000      -0.697223       -18.9724
  26   2.0000      -0.674475       -18.3534
  27   2.0000      -0.661334       -17.9958
  28   2.0000      -0.635961       -17.3054
  29   2.0000      -0.633888       -17.2490
  30   2.0000      -0.615981       -16.7617
  31   2.0000      -0.606878       -16.5140
  32   2.0000      -0.593302       -16.1446
  33   2.0000      -0.573053       -15.5936
  34   2.0000      -0.562481       -15.3059
  35   2.0000      -0.548313       -14.9204
  36   2.0000      -0.545555       -14.8453
  37   2.0000      -0.541415       -14.7327
  38   2.0000      -0.539654       -14.6847
  39   2.0000      -0.530085       -14.4244
  40   2.0000      -0.518788       -14.1169
  41   2.0000      -0.515533       -14.0284
  42   2.0000      -0.490403       -13.3445
  43   2.0000      -0.487817       -13.2742
  44   2.0000      -0.470684       -12.8080
  45   0.0000       0.080417         2.1883
  46   0.0000       0.121020         3.2931
  47   0.0000       0.129340         3.5195
  48   0.0000       0.133076         3.6212
  49   0.0000       0.166677         4.5355

MULLIKEN ATOMIC CHARGES
-----------------------
   0 O :   -0.760805
   1 H :    0.353949
   2 H :    0.385419
   3 O :   -0.704774
   4 H :    0.351689
   5 H :    0.387105
   6 O :   -0.726377
   7 H :    0.394341
   8 H :    0.348690
   9 O :   -0.750457
  10 H :    0.340207
  11 H :    0.369589
  12 O :   -0.739885
  13 H :    0.364971
  14 H :    0.377938
  15 O :   -0.721261
  16 H :    0.389788
  17 H :    0.369240
  18 O :   -0.701195
  19 H :    0.374724
  20 H :    0.315991
  21 O :   -0.764471
  22 H :    0.361194
  23 H :    0.383881
  24 O :   -0.701982
  25 H :    0.366559
  26 H :    0.335933
Sum of atomic charges:   -0.0000000

LOEWDIN ATOMIC CHARGES
----------------------
   0 O :   -0.316128
   1 H :    0.160790
   2 H :    0.146188
   3 O :   -0.277260
   4 H :    0.168359
   5 H :    0.157231
   6 O :   -0.280346
   7 H :    0.157775
   8 H :    0.172971
   9 O :   -0.350571
  10 H :    0.135108
  11 H :    0.147239
  12 O :   -0.294835
  13 H :    0.173064
  14 H :    0.147485
  15 O :   -0.283688
  16 H :    0.157700
  17 H :    0.149309
  18 O :   -0.342805
  19 H :    0.152698
  20 H :    0.153365
  21 O :   -0.316357
  22 H :    0.164305
  23 H :    0.145680
  24 O :   -0.339087
  25 H :    0.148488
  26 H :    0.163321

  Mayer bond orders larger than 0.100000
B(  0-O ,  1-H ) :   0.8383 B(  0-O ,  2-H ) :   0.7265 B(  2-H , 15-O ) :   0.1218
B(  3-O ,  4-H ) :   0.8399 B(  3-O ,  5-H ) :   0.7782 B(  3-O , 23-H ) :   0.1168
B(  6-O ,  7-H ) :   0.7827 B(  6-O ,  8-H ) :   0.8303 B(  9-O , 10-H ) :   0.7892
B(  9-O , 11-H ) :   0.8123 B( 12-O , 13-H ) :   0.8301 B( 12-O , 14-H ) :   0.7617
B( 15-O , 16-H ) :   0.8020 B( 15-O , 17-H ) :   0.8013 B( 18-O , 19-H ) :   0.8112
B( 18-O , 20-H ) :   0.8617 B( 21-O , 22-H ) :   0.8347 B( 21-O , 23-H ) :   0.7306
B( 24-O , 25-H ) :   0.8254 B( 24-O , 26-H ) :   0.8495

MP2 TOTAL ENERGY:     -686.923314922 Eh
FINAL SINGLE POINT ENERGY      -686.923314921631

DIPOLE MOMENT
-------------
                                X             Y             Z
Electronic contribution:     -0.07062       0.22243      -0.28346
Nuclear contribution   :     -0.45439       0.45394      -2.03947
                        -----------------------------------------
Total Dipole Moment    :     -0.52501       0.67638      -2.32292
                        -----------------------------------------
Magnitude (a.u.)       :      2.47570
Magnitude (Debye)      :      6.29273

Rotational constants in cm-1:     0.027666     0.016744     0.013701
Rotational constants in MHz :   829.402195   501.974740   410.736030

                             ****ORCA TERMINATED NORMALLY****
TOTAL RUN TIME: 0 days 0 hours 4 minutes 57 seconds 948 msec
