                         Program Version 4.2.0 -  RELEASE  -
|  1> # 12h2o.su.etal.mol1,2,3,4,5,7,9,11
|  2> ! MP2 def2-TZVP EnGrad TightSCF
|  3>
|  4> %pal
|  5>     nprocs 6
|  6> end
|  7>
|  8> %maxcore 8000
|  9>
| 10> %scf
| 11>     ConvForced true
| 12> end
| 13>
| 14> *xyz 0 1
| 15> O  -1.794470000  -0.923410000   2.768350000
| 16> H  -2.338250000  -1.359750000   3.430940000
| 17> H  -0.879480000  -1.303000000   2.865760000
| 18> O   0.923410000  -1.794470000  -2.768350000
| 19> H   1.359750000  -2.338250000  -3.430940000
| 20> H   1.303000000  -0.879480000  -2.865760000
| 21> O  -1.752130000  -0.741530000  -2.896280000
| 22> H  -2.036450000  -0.920500000  -1.984040000
| 23> H  -0.921210000  -1.242140000  -2.984230000
| 24> O  -0.885520000   1.737840000   0.052730000
| 25> H  -1.032320000   2.090180000  -0.841890000
| 26> H  -1.284090000   0.839590000   0.017130000
| 27> O   0.885520000  -1.737840000   0.052730000
| 28> H   1.284090000  -0.839590000   0.017130000
| 29> H   1.032320000  -2.090180000  -0.841890000
| 30> O  -1.737840000  -0.885520000  -0.052730000
| 31> H  -2.090180000  -1.032320000   0.841890000
| 32> H  -0.839590000  -1.284090000  -0.017130000
| 33> O   0.741530000  -1.752130000   2.896280000
| 34> H   0.920500000  -2.036450000   1.984040000
| 35> H   1.242140000  -0.921210000   2.984230000
| 36> O  -0.741530000   1.752130000   2.896280000
| 37> H  -0.920500000   2.036450000   1.984040000
| 38> H  -1.242140000   0.921210000   2.984230000
| 39> *
| 40>
| 41>                          ****END OF INPUT****

CARTESIAN COORDINATES (ANGSTROEM)
---------------------------------
  O     -1.794470   -0.923410    2.768350
  H     -2.338250   -1.359750    3.430940
  H     -0.879480   -1.303000    2.865760
  O      0.923410   -1.794470   -2.768350
  H      1.359750   -2.338250   -3.430940
  H      1.303000   -0.879480   -2.865760
  O     -1.752130   -0.741530   -2.896280
  H     -2.036450   -0.920500   -1.984040
  H     -0.921210   -1.242140   -2.984230
  O     -0.885520    1.737840    0.052730
  H     -1.032320    2.090180   -0.841890
  H     -1.284090    0.839590    0.017130
  O      0.885520   -1.737840    0.052730
  H      1.284090   -0.839590    0.017130
  H      1.032320   -2.090180   -0.841890
  O     -1.737840   -0.885520   -0.052730
  H     -2.090180   -1.032320    0.841890
  H     -0.839590   -1.284090   -0.017130
  O      0.741530   -1.752130    2.896280
  H      0.920500   -2.036450    1.984040
  H      1.242140   -0.921210    2.984230
  O     -0.741530    1.752130    2.896280
  H     -0.920500    2.036450    1.984040
  H     -1.242140    0.921210    2.984230

 Total Charge           Charge          ....    0
 Multiplicity           Mult            ....    1
 Number of Electrons    NEL             ....   80
 Basis Dimension        Dim             ....  344

ORBITAL ENERGIES
----------------

  NO   OCC          E(Eh)            E(eV)
   0   2.0000     -20.635564      -561.5222
   1   2.0000     -20.615400      -560.9736
   2   2.0000     -20.585893      -560.1706
   3   2.0000     -20.562465      -559.5331
   4   2.0000     -20.555927      -559.3552
   5   2.0000     -20.539348      -558.9041
   6   2.0000     -20.520566      -558.3930
   7   2.0000     -20.497234      -557.7581
   8   2.0000      -1.417254       -38.5654
   9   2.0000      -1.400765       -38.1168
  10   2.0000      -1.375596       -37.4319
  11   2.0000      -1.353446       -36.8291
  12   2.0000      -1.342292       -36.5256
  13   2.0000      -1.321550       -35.9612
  14   2.0000      -1.305616       -35.5276
  15   2.0000      -1.282120       -34.8883
  16   2.0000      -0.782086       -21.2816
  17   2.0000      -0.765245       -20.8234
  18   2.0000      -0.734931       -19.9985
  19   2.0000      -0.729627       -19.8542
  20   2.0000      -0.721604       -19.6358
  21   2.0000      -0.695528       -18.9263
  22   2.0000      -0.687491       -18.7076
  23   2.0000      -0.665529       -18.1100
  24   2.0000      -0.660062       -17.9612
  25   2.0000      -0.638014       -17.3613
  26   2.0000      -0.620526       -16.8854
  27   2.0000      -0.607452       -16.5296
  28   2.0000      -0.588042       -16.0014
  29   2.0000      -0.576283       -15.6815
  30   2.0000      -0.569241       -15.4898
  31   2.0000      -0.550110       -14.9693
  32   2.0000      -0.538192       -14.6449
  33   2.0000      -0.527776       -14.3615
  34   2.0000      -0.519481       -14.1358
  35   2.0000      -0.502560       -13.6753
  36   2.0000      -0.500983       -13.6324
  37   2.0000      -0.486902       -13.2493
  38   2.0000      -0.470042       -12.7905
  39   2.0000      -0.447380       -12.1738
  40   0.0000       0.072120         1.9625
  41   0.0000       0.114701         3.1212
  42   0.0000       0.141695         3.8557
  43   0.0000       0.153634         4.1806
  44   0.0000       0.172426         4.6919

MULLIKEN ATOMIC CHARGES
-----------------------
   0 O :   -0.751279
   1 H :    0.349352
   2 H :    0.384783
   3 O :   -0.718656
   4 H :    0.372550
   5 H :    0.372458
   6 O :   -0.722354
   7 H :    0.372900
   8 H :    0.337096
   9 O :   -0.739016
  10 H :    0.338974
  11 H :    0.362290
  12 O :   -0.731635
  13 H :    0.360456
  14 H :    0.393633
  15 O :   -0.747520
  16 H :    0.384648
  17 H :    0.356666
  18 O :   -0.700769
  19 H :    0.386305
  20 H :    0.361204
  21 O :   -0.736664
  22 H :    0.369630
  23 H :    0.344949
Sum of atomic charges:   -0.0000000

LOEWDIN ATOMIC CHARGES
----------------------
   0 O :   -0.313329
   1 H :    0.158857
   2 H :    0.146773
   3 O :   -0.287290
   4 H :    0.171822
   5 H :    0.193069
   6 O :   -0.352661
   7 H :    0.149715
   8 H :    0.137749
   9 O :   -0.345744
  10 H :    0.162106
  11 H :    0.142419
  12 O :   -0.283102
  13 H :    0.178646
  14 H :    0.158873
  15 O :   -0.299371
  16 H :    0.152769
  17 H :    0.139766
  18 O :   -0.273558
  19 H :    0.157105
  20 H :    0.175741
  21 O :   -0.359987
  22 H :    0.150578
  23 H :    0.139052

  Mayer bond orders larger than 0.100000
B(  0-O ,  1-H ) :   0.8412 B(  0-O ,  2-H ) :   0.7433 B(  3-O ,  4-H ) :   0.8273
B(  3-O ,  5-H ) :   0.8192 B(  6-O ,  7-H ) :   0.8174 B(  6-O ,  8-H ) :   0.8421
B(  9-O , 10-H ) :   0.8472 B(  9-O , 11-H ) :   0.7712 B( 12-O , 13-H ) :   0.8254
B( 12-O , 14-H ) :   0.7905 B( 15-O , 16-H ) :   0.7924 B( 15-O , 17-H ) :   0.7835
B( 18-O , 19-H ) :   0.8047 B( 18-O , 20-H ) :   0.8306 B( 21-O , 22-H ) :   0.8199
B( 21-O , 23-H ) :   0.8279

MP2 TOTAL ENERGY:     -610.586394857 Eh
FINAL SINGLE POINT ENERGY      -610.586394856682

DIPOLE MOMENT
-------------
                                X             Y             Z
Electronic contribution:      0.20878      -0.42868       0.04413
Nuclear contribution   :      1.89749      -1.38977      -1.46039
                        -----------------------------------------
Total Dipole Moment    :      2.10627      -1.81845      -1.41625
                        -----------------------------------------
Magnitude (a.u.)       :      3.12232
Magnitude (Debye)      :      7.93632

Rotational constants in cm-1:     0.038484     0.019387     0.016064
Rotational constants in MHz :  1153.718400   581.208202   481.580314

                             ****ORCA TERMINATED NORMALLY****
TOTAL RUN TIME: 0 days 0 hours 3 minutes 19 seconds 875 msec
