                         Program Version 4.2.0 -  RELEASE  -
|  1> # 12mecn.remya.etal.2.mol4,7,8
|  2> ! MP2 def2-TZVP EnGrad TightSCF
|  3>
|  4> %pal
|  5>     nprocs 6
|  6> end
|  7>
|  8> %maxcore 8000
|  9>
| 10> %scf
| 11>     ConvForced true
| 12> end
| 13>
| 14> *xyz 0 1
| 15> C  -1.509690000  -0.693960000  -1.610140000
| 16> H  -1.327010000  -1.692700000  -2.017370000
| 17> H  -0.742170000  -0.000650000  -1.964400000
| 18> H  -2.491920000  -0.334310000  -1.929350000
| 19> C  -1.473570000  -0.748120000  -0.167200000
| 20> N  -1.447490000  -0.793720000   0.998938000
| 21> C   1.502241000   0.651296000   1.710523000
| 22> H   1.309219000   1.637164000   2.143202000
| 23> H   2.493408000   0.297996000   2.009069000
| 24> H   0.746597000  -0.059850000   2.055508000
| 25> C   1.447974000   0.738517000   0.269805000
| 26> N   1.405612000   0.808047000  -0.894380000
| 27> C   1.912641000  -2.468050000  -1.750510000
| 28> H   2.876947000  -2.793500000  -2.151200000
| 29> H   1.688016000  -1.463720000  -2.122170000
| 30> H   1.123460000  -3.154780000  -2.069590000
| 31> C   1.977850000  -2.444240000  -0.306900000
| 32> N   2.036566000  -2.426130000   0.858249000
| 33> *
| 34>
| 35>                          ****END OF INPUT****

CARTESIAN COORDINATES (ANGSTROEM)
---------------------------------
  C     -1.509690   -0.693960   -1.610140
  H     -1.327010   -1.692700   -2.017370
  H     -0.742170   -0.000650   -1.964400
  H     -2.491920   -0.334310   -1.929350
  C     -1.473570   -0.748120   -0.167200
  N     -1.447490   -0.793720    0.998938
  C      1.502241    0.651296    1.710523
  H      1.309219    1.637164    2.143202
  H      2.493408    0.297996    2.009069
  H      0.746597   -0.059850    2.055508
  C      1.447974    0.738517    0.269805
  N      1.405612    0.808047   -0.894380
  C      1.912641   -2.468050   -1.750510
  H      2.876947   -2.793500   -2.151200
  H      1.688016   -1.463720   -2.122170
  H      1.123460   -3.154780   -2.069590
  C      1.977850   -2.444240   -0.306900
  N      2.036566   -2.426130    0.858249

 Total Charge           Charge          ....    0
 Multiplicity           Mult            ....    1
 Number of Electrons    NEL             ....   66
 Basis Dimension        Dim             ....  333

ORBITAL ENERGIES
----------------

  NO   OCC          E(Eh)            E(eV)
   0   2.0000     -15.570678      -423.6997
   1   2.0000     -15.570660      -423.6992
   2   2.0000     -15.567361      -423.6094
   3   2.0000     -11.283742      -307.0462
   4   2.0000     -11.280674      -306.9627
   5   2.0000     -11.280544      -306.9592
   6   2.0000     -11.278802      -306.9118
   7   2.0000     -11.277594      -306.8789
   8   2.0000     -11.260762      -306.4209
   9   2.0000      -1.218109       -33.1464
  10   2.0000      -1.213658       -33.0253
  11   2.0000      -1.211970       -32.9794
  12   2.0000      -1.041464       -28.3397
  13   2.0000      -1.038420       -28.2568
  14   2.0000      -1.026452       -27.9312
  15   2.0000      -0.698051       -18.9949
  16   2.0000      -0.694355       -18.8944
  17   2.0000      -0.683775       -18.6065
  18   2.0000      -0.636833       -17.3291
  19   2.0000      -0.633236       -17.2312
  20   2.0000      -0.627111       -17.0646
  21   2.0000      -0.622211       -16.9312
  22   2.0000      -0.612147       -16.6574
  23   2.0000      -0.609150       -16.5758
  24   2.0000      -0.558497       -15.1975
  25   2.0000      -0.555251       -15.1091
  26   2.0000      -0.554343       -15.0844
  27   2.0000      -0.464726       -12.6458
  28   2.0000      -0.461183       -12.5494
  29   2.0000      -0.458603       -12.4792
  30   2.0000      -0.453581       -12.3426
  31   2.0000      -0.451676       -12.2907
  32   2.0000      -0.449942       -12.2435
  33   0.0000       0.112081         3.0499
  34   0.0000       0.149095         4.0571
  35   0.0000       0.154105         4.1934
  36   0.0000       0.158880         4.3234
  37   0.0000       0.165559         4.5051

MULLIKEN ATOMIC CHARGES
-----------------------
   0 C :   -0.294876
   1 H :    0.157605
   2 H :    0.203137
   3 H :    0.177070
   4 C :   -0.113248
   5 N :   -0.129982
   6 C :   -0.264986
   7 H :    0.166955
   8 H :    0.171561
   9 H :    0.209637
  10 C :   -0.090874
  11 N :   -0.192796
  12 C :   -0.297247
  13 H :    0.177871
  14 H :    0.197660
  15 H :    0.163038
  16 C :   -0.122145
  17 N :   -0.118379
Sum of atomic charges:   -0.0000000

LOEWDIN ATOMIC CHARGES
----------------------
   0 C :   -0.286460
   1 H :    0.148405
   2 H :    0.155529
   3 H :    0.152604
   4 C :   -0.213271
   5 N :    0.043041
   6 C :   -0.282577
   7 H :    0.150483
   8 H :    0.155392
   9 H :    0.160468
  10 C :   -0.203010
  11 N :    0.014878
  12 C :   -0.286197
  13 H :    0.153451
  14 H :    0.153798
  15 H :    0.148813
  16 C :   -0.213819
  17 N :    0.048474

  Mayer bond orders larger than 0.100000
B(  0-C ,  1-H ) :   0.9184 B(  0-C ,  2-H ) :   0.9081 B(  0-C ,  3-H ) :   0.9112
B(  0-C ,  4-C ) :   0.8954 B(  4-C ,  5-N ) :   2.7753 B(  6-C ,  7-H ) :   0.9082
B(  6-C ,  8-H ) :   0.9129 B(  6-C ,  9-H ) :   0.8993 B(  6-C , 10-C ) :   0.9106
B( 10-C , 11-N ) :   2.7269 B( 12-C , 13-H ) :   0.9093 B( 12-C , 14-H ) :   0.9067
B( 12-C , 15-H ) :   0.9231 B( 12-C , 16-C ) :   0.8951 B( 16-C , 17-N ) :   2.7914

MP2 TOTAL ENERGY:     -397.466705012 Eh
FINAL SINGLE POINT ENERGY      -397.466705012481

DIPOLE MOMENT
-------------
                                X             Y             Z
Electronic contribution:      0.11800       0.12312       3.27832
Nuclear contribution   :     -0.15836      -0.16953      -4.64491
                        -----------------------------------------
Total Dipole Moment    :     -0.04036      -0.04641      -1.36659
                        -----------------------------------------
Magnitude (a.u.)       :      1.36797
Magnitude (Debye)      :      3.47711

Rotational constants in cm-1:     0.045593     0.038632     0.030515
Rotational constants in MHz :  1366.852705  1158.149856   914.823277

                             ****ORCA TERMINATED NORMALLY****
TOTAL RUN TIME: 0 days 0 hours 4 minutes 56 seconds 913 msec
