                         Program Version 4.2.0 -  RELEASE  -
|  1> # 12mecn.remya.etal.2.mol1,9
|  2> ! MP2 def2-TZVP EnGrad TightSCF
|  3>
|  4> %pal
|  5>     nprocs 6
|  6> end
|  7>
|  8> %maxcore 8000
|  9>
| 10> %scf
| 11>     ConvForced true
| 12> end
| 13>
| 14> *xyz 0 1
| 15> C  -4.697980000  -0.249690000   1.746215000
| 16> H  -4.927570000   0.755530000   2.111799000
| 17> H  -3.709180000  -0.561560000   2.093253000
| 18> H  -5.432280000  -0.961520000   2.128066000
| 19> C  -4.714100000  -0.247110000   0.301670000
| 20> N  -4.729750000  -0.234960000  -0.865260000
| 21> C   0.923766000   4.000693000  -1.575910000
| 22> H   0.011949000   4.478423000  -1.939550000
| 23> H   0.947903000   2.966558000  -1.929960000
| 24> H   1.805950000   4.519548000  -1.956520000
| 25> C   0.942834000   3.994846000  -0.131200000
| 26> N   0.960035000   3.982544000   1.035639000
| 27> *
| 28>
| 29>                          ****END OF INPUT****

CARTESIAN COORDINATES (ANGSTROEM)
---------------------------------
  C     -4.697980   -0.249690    1.746215
  H     -4.927570    0.755530    2.111799
  H     -3.709180   -0.561560    2.093253
  H     -5.432280   -0.961520    2.128066
  C     -4.714100   -0.247110    0.301670
  N     -4.729750   -0.234960   -0.865260
  C      0.923766    4.000693   -1.575910
  H      0.011949    4.478423   -1.939550
  H      0.947903    2.966558   -1.929960
  H      1.805950    4.519548   -1.956520
  C      0.942834    3.994846   -0.131200
  N      0.960035    3.982544    1.035639

 Total Charge           Charge          ....    0
 Multiplicity           Mult            ....    1
 Number of Electrons    NEL             ....   44
 Basis Dimension        Dim             ....  222

ORBITAL ENERGIES
----------------

  NO   OCC          E(Eh)            E(eV)
   0   2.0000     -15.573127      -423.7663
   1   2.0000     -15.573121      -423.7662
   2   2.0000     -11.283718      -307.0456
   3   2.0000     -11.283474      -307.0390
   4   2.0000     -11.280444      -306.9565
   5   2.0000     -11.280440      -306.9564
   6   2.0000      -1.214506       -33.0484
   7   2.0000      -1.214489       -33.0479
   8   2.0000      -1.043413       -28.3927
   9   2.0000      -1.043370       -28.3916
  10   2.0000      -0.699648       -19.0384
  11   2.0000      -0.699359       -19.0305
  12   2.0000      -0.633082       -17.2270
  13   2.0000      -0.632991       -17.2246
  14   2.0000      -0.629024       -17.1166
  15   2.0000      -0.628978       -17.1154
  16   2.0000      -0.556199       -15.1349
  17   2.0000      -0.556178       -15.1344
  18   2.0000      -0.457992       -12.4626
  19   2.0000      -0.457802       -12.4574
  20   2.0000      -0.457293       -12.4436
  21   2.0000      -0.457177       -12.4404
  22   0.0000       0.119482         3.2513
  23   0.0000       0.121801         3.3144
  24   0.0000       0.171795         4.6748
  25   0.0000       0.172209         4.6860
  26   0.0000       0.172751         4.7008

MULLIKEN ATOMIC CHARGES
-----------------------
   0 C :   -0.277525
   1 H :    0.173549
   2 H :    0.173822
   3 H :    0.171503
   4 C :   -0.145783
   5 N :   -0.095567
   6 C :   -0.277774
   7 H :    0.173615
   8 H :    0.173753
   9 H :    0.171519
  10 C :   -0.145744
  11 N :   -0.095369
Sum of atomic charges:   -0.0000000

LOEWDIN ATOMIC CHARGES
----------------------
   0 C :   -0.282885
   1 H :    0.153679
   2 H :    0.153675
   3 H :    0.151536
   4 C :   -0.219250
   5 N :    0.043245
   6 C :   -0.282726
   7 H :    0.152258
   8 H :    0.154199
   9 H :    0.151828
  10 C :   -0.218911
  11 N :    0.043353

  Mayer bond orders larger than 0.100000
B(  0-C ,  1-H ) :   0.9152 B(  0-C ,  2-H ) :   0.9158 B(  0-C ,  3-H ) :   0.9171
B(  0-C ,  4-C ) :   0.9018 B(  4-C ,  5-N ) :   2.8390 B(  6-C ,  7-H ) :   0.9156
B(  6-C ,  8-H ) :   0.9162 B(  6-C ,  9-H ) :   0.9165 B(  6-C , 10-C ) :   0.9020
B( 10-C , 11-N ) :   2.8390

MP2 TOTAL ENERGY:     -264.967105797 Eh
FINAL SINGLE POINT ENERGY      -264.967105797324

DIPOLE MOMENT
-------------
                                X             Y             Z
Electronic contribution:     -0.01027       0.03391       0.00313
Nuclear contribution   :      0.01013      -0.04272      -0.00353
                        -----------------------------------------
Total Dipole Moment    :     -0.00014      -0.00881      -0.00041
                        -----------------------------------------
Magnitude (a.u.)       :      0.00882
Magnitude (Debye)      :      0.02242

Rotational constants in cm-1:     0.155823     0.016152     0.014717
Rotational constants in MHz :  4671.463757   484.223846   441.215994

                             ****ORCA TERMINATED NORMALLY****
TOTAL RUN TIME: 0 days 0 hours 0 minutes 37 seconds 28 msec
