                         Program Version 3.0.3 - RELEASE   -
|  1> ! wB97X-D3 Def2-TZVP def2-TZVP/J RIJCOSX TightSCF Grid4 COSMO
|  2>
|  3> %pal nprocs 12 end
|  4>
|  5> %scf
|  6>         maxiter 400
|  7> end
|  8>
|  9> %cosmo
| 10>         SMD true
| 11>         solvent "WATER"
| 12> end
| 13>
| 14> * xyz  0  1
| 15> O  1.725910	-2.392689	2.410985
| 16> H  1.328094	-2.724746	1.576326
| 17> H  0.990845	-1.960631	2.907734
| 18> O  2.927224	0.458101	-0.674358
| 19> H  2.666809	1.414328	-0.574626
| 20> H  3.185853	0.167648	0.239060
| 21> O  1.301345	-3.091578	-2.658339
| 22> H  1.679280	-2.187020	-2.848786
| 23> H  1.878890	-3.719569	-3.118605
| 24> O  0.879454	3.214054	1.932157
| 25> H  1.098075	2.479653	2.565253
| 26> H  -0.101034	3.235775	1.871548
| 27> O  1.687277	1.291748	3.632241
| 28> H  2.292805	0.803284	3.026280
| 29> H  1.015818	0.610066	3.853474
| 30> O  -3.244922	0.649310	-1.481403
| 31> H  -3.923667	0.495333	-2.157851
| 32> H  -2.386428	0.417278	-1.925161
| 33> O  2.028127	-0.544382	-3.073802
| 34> H  2.442138	-0.206911	-2.246518
| 35> H  1.121910	-0.179864	-3.067380
| 36> O  -1.089273	0.482284	1.682747
| 37> H  -1.353841	1.438523	1.643774
| 38> H  -0.433094	0.297259	0.961812
| 39> O  -3.094525	-0.996845	0.672641
| 40> H  -2.379987	-0.483016	1.126342
| 41> H  -3.296408	-0.434227	-0.112339
| 42> O  -1.805182	3.059847	1.544410
| 43> H  -2.519876	3.286572	2.158777
| 44> H  -2.181172	3.189826	0.616522
| 45> O  1.877480	2.870012	-0.436672
| 46> H  1.506483	3.011479	0.495796
| 47> H  2.402764	3.661386	-0.632077
| 48> O  0.471829	-0.434006	-0.220374
| 49> H  0.562837	-1.418949	-0.083148
| 50> H  1.396853	-0.099351	-0.382819
| 51> O  0.605742	-3.077095	-0.024288
| 52> H  -0.375901	-3.201744	-0.127552
| 53> H  0.976189	-3.223352	-0.929931
| 54> O  -1.339344	-2.553904	-3.053348
| 55> H  -1.682822	-2.808573	-2.163353
| 56> H  -0.411998	-2.888330	-3.047688
| 57> O  -0.807745	-0.029255	-2.487571
| 58> H  -1.039079	-0.946018	-2.829268
| 59> H  -0.380108	-0.213072	-1.604669
| 60> O  3.163474	-0.235611	1.885473
| 61> H  4.049564	-0.376425	2.254945
| 62> H  2.667662	-1.093529	2.063970
| 63> O  -0.309795	2.749536	-2.115307
| 64> H  -0.420623	1.823850	-2.403715
| 65> H  0.476766	2.762876	-1.518523
| 66> O  -0.074881	-0.832725	3.709728
| 67> H  -0.738193	-1.084747	4.369666
| 68> H  -0.566705	-0.332106	3.001479
| 69> O  -2.655761	3.272169	-0.940788
| 70> H  -1.772162	3.195897	-1.389028
| 71> H  -3.038116	2.381254	-1.112858
| 72> O  -2.012269	-3.067575	-0.458182
| 73> H  -2.451512	-2.286227	0.010627
| 74> H  -2.535349	-3.849240	-0.222374
| 75> **                         ****END OF INPUT****

CARTESIAN COORDINATES (ANGSTROEM)
---------------------------------
  O      1.725910   -2.392689    2.410985
  H      1.328094   -2.724746    1.576326
  H      0.990845   -1.960631    2.907734
  O      2.927224    0.458101   -0.674358
  H      2.666809    1.414328   -0.574626
  H      3.185853    0.167648    0.239060
  O      1.301345   -3.091578   -2.658339
  H      1.679280   -2.187020   -2.848786
  H      1.878890   -3.719569   -3.118605
  O      0.879454    3.214054    1.932157
  H      1.098075    2.479653    2.565253
  H     -0.101034    3.235775    1.871548
  O      1.687277    1.291748    3.632241
  H      2.292805    0.803284    3.026280
  H      1.015818    0.610066    3.853474
  O     -3.244922    0.649310   -1.481403
  H     -3.923667    0.495333   -2.157851
  H     -2.386428    0.417278   -1.925161
  O      2.028127   -0.544382   -3.073802
  H      2.442138   -0.206911   -2.246518
  H      1.121910   -0.179864   -3.067380
  O     -1.089273    0.482284    1.682747
  H     -1.353841    1.438523    1.643774
  H     -0.433094    0.297259    0.961812
  O     -3.094525   -0.996845    0.672641
  H     -2.379987   -0.483016    1.126342
  H     -3.296408   -0.434227   -0.112339
  O     -1.805182    3.059847    1.544410
  H     -2.519876    3.286572    2.158777
  H     -2.181172    3.189826    0.616522
  O      1.877480    2.870012   -0.436672
  H      1.506483    3.011479    0.495796
  H      2.402764    3.661386   -0.632077
  O      0.471829   -0.434006   -0.220374
  H      0.562837   -1.418949   -0.083148
  H      1.396853   -0.099351   -0.382819
  O      0.605742   -3.077095   -0.024288
  H     -0.375901   -3.201744   -0.127552
  H      0.976189   -3.223352   -0.929931
  O     -1.339344   -2.553904   -3.053348
  H     -1.682822   -2.808573   -2.163353
  H     -0.411998   -2.888330   -3.047688
  O     -0.807745   -0.029255   -2.487571
  H     -1.039079   -0.946018   -2.829268
  H     -0.380108   -0.213072   -1.604669
  O      3.163474   -0.235611    1.885473
  H      4.049564   -0.376425    2.254945
  H      2.667662   -1.093529    2.063970
  O     -0.309795    2.749536   -2.115307
  H     -0.420623    1.823850   -2.403715
  H      0.476766    2.762876   -1.518523
  O     -0.074881   -0.832725    3.709728
  H     -0.738193   -1.084747    4.369666
  H     -0.566705   -0.332106    3.001479
  O     -2.655761    3.272169   -0.940788
  H     -1.772162    3.195897   -1.389028
  H     -3.038116    2.381254   -1.112858
  O     -2.012269   -3.067575   -0.458182
  H     -2.451512   -2.286227    0.010627
  H     -2.535349   -3.849240   -0.222374

 Total Charge           Charge          ....    0
 Multiplicity           Mult            ....    1
 Number of Electrons    NEL             ....  200
 Basis Dimension        Dim             ....  860

ORBITAL ENERGIES
----------------

  NO   OCC          E(Eh)            E(eV)
   0   2.0000     -19.246522      -523.7245
   1   2.0000     -19.243333      -523.6377
   2   2.0000     -19.242376      -523.6117
   3   2.0000     -19.241280      -523.5819
   4   2.0000     -19.240463      -523.5596
   5   2.0000     -19.238896      -523.5170
   6   2.0000     -19.238721      -523.5122
   7   2.0000     -19.238520      -523.5067
   8   2.0000     -19.238423      -523.5041
   9   2.0000     -19.236696      -523.4571
  10   2.0000     -19.236320      -523.4469
  11   2.0000     -19.234874      -523.4075
  12   2.0000     -19.232606      -523.3458
  13   2.0000     -19.231304      -523.3104
  14   2.0000     -19.228190      -523.2257
  15   2.0000     -19.227490      -523.2066
  16   2.0000     -19.225848      -523.1619
  17   2.0000     -19.223153      -523.0886
  18   2.0000     -19.222847      -523.0803
  19   2.0000     -19.222512      -523.0712
  20   2.0000      -1.159092       -31.5405
  21   2.0000      -1.145735       -31.1770
  22   2.0000      -1.145439       -31.1690
  23   2.0000      -1.142103       -31.0782
  24   2.0000      -1.138235       -30.9730
  25   2.0000      -1.137821       -30.9617
  26   2.0000      -1.135866       -30.9085
  27   2.0000      -1.131269       -30.7834
  28   2.0000      -1.130634       -30.7661
  29   2.0000      -1.128035       -30.6954
  30   2.0000      -1.124405       -30.5966
  31   2.0000      -1.121324       -30.5128
  32   2.0000      -1.118286       -30.4301
  33   2.0000      -1.117071       -30.3971
  34   2.0000      -1.108778       -30.1714
  35   2.0000      -1.106808       -30.1178
  36   2.0000      -1.105435       -30.0804
  37   2.0000      -1.103193       -30.0194
  38   2.0000      -1.100459       -29.9450
  39   2.0000      -1.099848       -29.9284
  40   2.0000      -0.661029       -17.9875
  41   2.0000      -0.654830       -17.8188
  42   2.0000      -0.651360       -17.7244
  43   2.0000      -0.649415       -17.6715
  44   2.0000      -0.645207       -17.5570
  45   2.0000      -0.643854       -17.5202
  46   2.0000      -0.642692       -17.4885
  47   2.0000      -0.641420       -17.4539
  48   2.0000      -0.639753       -17.4086
  49   2.0000      -0.638388       -17.3714
  50   2.0000      -0.637659       -17.3516
  51   2.0000      -0.636347       -17.3159
  52   2.0000      -0.634034       -17.2529
  53   2.0000      -0.632971       -17.2240
  54   2.0000      -0.632490       -17.2109
  55   2.0000      -0.629717       -17.1355
  56   2.0000      -0.627199       -17.0669
  57   2.0000      -0.626371       -17.0444
  58   2.0000      -0.620708       -16.8903
  59   2.0000      -0.616638       -16.7796
  60   2.0000      -0.568705       -15.4753
  61   2.0000      -0.559239       -15.2177
  62   2.0000      -0.555057       -15.1039
  63   2.0000      -0.546227       -14.8636
  64   2.0000      -0.543950       -14.8016
  65   2.0000      -0.541755       -14.7419
  66   2.0000      -0.527998       -14.3676
  67   2.0000      -0.525561       -14.3012
  68   2.0000      -0.516251       -14.0479
  69   2.0000      -0.508779       -13.8446
  70   2.0000      -0.505784       -13.7631
  71   2.0000      -0.497450       -13.5363
  72   2.0000      -0.495936       -13.4951
  73   2.0000      -0.492363       -13.3979
  74   2.0000      -0.489643       -13.3239
  75   2.0000      -0.485955       -13.2235
  76   2.0000      -0.474605       -12.9147
  77   2.0000      -0.474334       -12.9073
  78   2.0000      -0.467825       -12.7302
  79   2.0000      -0.457825       -12.4580
  80   2.0000      -0.437587       -11.9073
  81   2.0000      -0.431218       -11.7340
  82   2.0000      -0.431066       -11.7299
  83   2.0000      -0.429976       -11.7003
  84   2.0000      -0.428379       -11.6568
  85   2.0000      -0.427157       -11.6235
  86   2.0000      -0.426470       -11.6048
  87   2.0000      -0.426189       -11.5972
  88   2.0000      -0.425618       -11.5816
  89   2.0000      -0.425188       -11.5700
  90   2.0000      -0.423196       -11.5157
  91   2.0000      -0.421848       -11.4791
  92   2.0000      -0.420088       -11.4312
  93   2.0000      -0.418426       -11.3859
  94   2.0000      -0.416970       -11.3463
  95   2.0000      -0.415696       -11.3117
  96   2.0000      -0.414636       -11.2828
  97   2.0000      -0.413398       -11.2491
  98   2.0000      -0.411549       -11.1988
  99   2.0000      -0.411208       -11.1896
 100   0.0000       0.079920         2.1747
 101   0.0000       0.116531         3.1710
 102   0.0000       0.119785         3.2595
 103   0.0000       0.124189         3.3794
 104   0.0000       0.145355         3.9553

MULLIKEN ATOMIC CHARGES
-----------------------
   0 O :   -0.755908
   1 H :    0.393747
   2 H :    0.374691
   3 O :   -0.769764
   4 H :    0.392500
   5 H :    0.388493
   6 O :   -0.769727
   7 H :    0.381425
   8 H :    0.409699
   9 O :   -0.763724
  10 H :    0.374178
  11 H :    0.382150
  12 O :   -0.764023
  13 H :    0.371945
  14 H :    0.370529
  15 O :   -0.757536
  16 H :    0.409356
  17 H :    0.374759
  18 O :   -0.743318
  19 H :    0.395229
  20 H :    0.364725
  21 O :   -0.775071
  22 H :    0.377254
  23 H :    0.377217
  24 O :   -0.763222
  25 H :    0.380821
  26 H :    0.380588
  27 O :   -0.772737
  28 H :    0.409850
  29 H :    0.384377
  30 O :   -0.771913
  31 H :    0.386174
  32 H :    0.408130
  33 O :   -0.757261
  34 H :    0.350539
  35 H :    0.343450
  36 O :   -0.772318
  37 H :    0.391495
  38 H :    0.392614
  39 O :   -0.766275
  40 H :    0.374332
  41 H :    0.376645
  42 O :   -0.830551
  43 H :    0.410056
  44 H :    0.355510
  45 O :   -0.763698
  46 H :    0.407620
  47 H :    0.376193
  48 O :   -0.759860
  49 H :    0.383403
  50 H :    0.367749
  51 O :   -0.771041
  52 H :    0.405415
  53 H :    0.393374
  54 O :   -0.772421
  55 H :    0.387917
  56 H :    0.381185
  57 O :   -0.774696
  58 H :    0.381164
  59 H :    0.408566
Sum of atomic charges:   -0.0000000

LOEWDIN ATOMIC CHARGES
----------------------
   0 O :   -0.313335
   1 H :    0.144270
   2 H :    0.140657
   3 O :   -0.302083
   4 H :    0.137956
   5 H :    0.140480
   6 O :   -0.280724
   7 H :    0.147985
   8 H :    0.189020
   9 O :   -0.311709
  10 H :    0.137788
  11 H :    0.137224
  12 O :   -0.329271
  13 H :    0.140159
  14 H :    0.142219
  15 O :   -0.268210
  16 H :    0.190370
  17 H :    0.144634
  18 O :   -0.302841
  19 H :    0.146198
  20 H :    0.146653
  21 O :   -0.268644
  22 H :    0.135953
  23 H :    0.130923
  24 O :   -0.314347
  25 H :    0.135470
  26 H :    0.140081
  27 O :   -0.280157
  28 H :    0.187328
  29 H :    0.145643
  30 O :   -0.276036
  31 H :    0.139798
  32 H :    0.186263
  33 O :   -0.266232
  34 H :    0.132213
  35 H :    0.128947
  36 O :   -0.291135
  37 H :    0.139591
  38 H :    0.146603
  39 O :   -0.320699
  40 H :    0.139436
  41 H :    0.141263
  42 O :   -0.320973
  43 H :    0.140206
  44 H :    0.121635
  45 O :   -0.272917
  46 H :    0.187063
  47 H :    0.143643
  48 O :   -0.315195
  49 H :    0.145363
  50 H :    0.142051
  51 O :   -0.287161
  52 H :    0.186284
  53 H :    0.139784
  54 O :   -0.327895
  55 H :    0.139561
  56 H :    0.141510
  57 O :   -0.278028
  58 H :    0.138919
  59 H :    0.186450

  Mayer bond orders larger than 0.1
B(  0-O ,  1-H ) :   0.8170 B(  0-O ,  2-H ) :   0.8016 B(  0-O , 47-H ) :   0.1505
B(  2-H , 51-O ) :   0.1012 B(  3-O ,  4-H ) :   0.7692 B(  3-O ,  5-H ) :   0.7790
B(  3-O , 35-H ) :   0.2012 B(  4-H , 30-O ) :   0.1226 B(  5-H , 45-O ) :   0.1181
B(  6-O ,  7-H ) :   0.7732 B(  6-O ,  8-H ) :   0.8379 B(  6-O , 38-H ) :   0.1015
B(  7-H , 18-O ) :   0.1194 B(  9-O , 10-H ) :   0.7832 B(  9-O , 11-H ) :   0.8073
B(  9-O , 31-H ) :   0.1646 B( 10-H , 12-O ) :   0.1267 B( 12-O , 13-H ) :   0.8064
B( 12-O , 14-H ) :   0.8165 B( 13-H , 45-O ) :   0.1037 B( 15-O , 16-H ) :   0.8381
B( 15-O , 17-H ) :   0.7906 B( 18-O , 19-H ) :   0.8084 B( 18-O , 20-H ) :   0.8419
B( 21-O , 22-H ) :   0.7652 B( 21-O , 23-H ) :   0.7843 B( 21-O , 25-H ) :   0.1057
B( 22-H , 27-O ) :   0.1396 B( 23-H , 33-O ) :   0.1006 B( 24-O , 25-H ) :   0.7970
B( 24-O , 26-H ) :   0.8035 B( 24-O , 58-H ) :   0.1680 B( 27-O , 28-H ) :   0.8375
B( 27-O , 29-H ) :   0.7434 B( 29-H , 54-O ) :   0.1595 B( 30-O , 31-H ) :   0.7341
B( 30-O , 32-H ) :   0.8397 B( 30-O , 50-H ) :   0.1066 B( 33-O , 34-H ) :   0.7548
B( 33-O , 35-H ) :   0.7470 B( 33-O , 44-H ) :   0.1314 B( 34-H , 36-O ) :   0.1783
B( 36-O , 37-H ) :   0.7686 B( 36-O , 38-H ) :   0.7887 B( 37-H , 57-O ) :   0.1258
B( 39-O , 40-H ) :   0.8052 B( 39-O , 41-H ) :   0.8060 B( 39-O , 43-H ) :   0.1479
B( 40-H , 57-O ) :   0.1011 B( 42-O , 43-H ) :   0.7403 B( 42-O , 44-H ) :   0.7650
B( 45-O , 46-H ) :   0.8399 B( 45-O , 47-H ) :   0.7543 B( 48-O , 49-H ) :   0.8363
B( 48-O , 50-H ) :   0.8028 B( 48-O , 55-H ) :   0.1024 B( 51-O , 52-H ) :   0.8408
B( 51-O , 53-H ) :   0.7752 B( 54-O , 55-H ) :   0.7933 B( 54-O , 56-H ) :   0.8134
B( 57-O , 58-H ) :   0.7364 B( 57-O , 59-H ) :   0.8391

Dispersion correction           -0.041756890
FINAL SINGLE POINT ENERGY     -1529.212131402847

DIPOLE MOMENT
-------------
                                X             Y             Z
Electronic contribution:      0.01163      -0.23180       0.15083
Nuclear contribution   :     -0.59661      -2.18757       0.46048
                        -----------------------------------------
Total Dipole Moment    :     -0.58498      -2.41937       0.61131
                        -----------------------------------------
Magnitude (a.u.)       :      2.56305
Magnitude (Debye)      :      6.51477

                             ****ORCA TERMINATED NORMALLY****
TOTAL RUN TIME: 0 days 0 hours 3 minutes 1 seconds 779 msec
