                         Program Version 3.0.3 - RELEASE   -
|  1> ! wB97X-D3 MA-Def2-TZVP def2-TZVP/J RIJCOSX TightSCF Grid4
|  2>
|  3> %pal nprocs 1 end
|  4>
|  5> %scf
|  6>         maxiter 400
|  7> end
|  8>
|  9> * xyz  0  1
| 10> O  1.842899	-2.299950	2.390281
| 11> H  1.367317	-2.670824	1.596202
| 12> H  1.138588	-1.812962	2.905525
| 13> O  2.573762	0.481785	-0.531310
| 14> H  2.441273	1.493514	-0.499255
| 15> H  3.072820	0.184914	0.292722
| 16> O  1.335547	-3.002339	-2.409026
| 17> H  1.674216	-2.030132	-2.623527
| 18> H  1.957773	-3.612348	-2.844917
| 19> O  0.924544	3.269210	1.770586
| 20> H  1.296666	2.535925	2.375068
| 21> H  -0.067691	3.140934	1.762392
| 22> O  1.917773	1.366400	3.282505
| 23> H  2.570697	0.806323	2.783641
| 24> H  1.240899	0.700001	3.571351
| 25> O  -3.190365	0.632552	-1.660208
| 26> H  -3.782983	0.607427	-2.434703
| 27> H  -2.256447	0.422094	-2.032143
| 28> O  1.974384	-0.595125	-2.898099
| 29> H  2.349736	-0.194857	-2.055884
| 30> H  1.068561	-0.196267	-2.949374
| 31> O  -1.527352	0.189091	1.856018
| 32> H  -1.685508	1.196224	1.858426
| 33> H  -0.833345	0.059795	1.120655
| 34> O  -3.320485	-1.161429	0.379754
| 35> H  -2.741258	-0.670570	1.040585
| 36> H  -3.405117	-0.512989	-0.375431
| 37> O  -1.732239	2.776417	1.598199
| 38> H  -2.325009	3.334075	2.134922
| 39> H  -2.040644	2.935259	0.570965
| 40> O  1.817932	2.949373	-0.511850
| 41> H  1.419531	3.113763	0.495046
| 42> H  2.404003	3.705773	-0.699158
| 43> O  0.176614	-0.366981	-0.020255
| 44> H  0.329236	-1.372795	0.061470
| 45> H  1.120216	0.018580	-0.127992
| 46> O  0.505849	-2.960369	0.110810
| 47> H  -0.469026	-3.179092	-0.027491
| 48> H  0.927861	-3.100501	-0.792988
| 49> O  -1.250439	-2.429203	-3.031011
| 50> H  -1.658437	-2.751317	-2.176182
| 51> H  -0.328095	-2.803014	-2.977444
| 52> O  -0.769991	0.028967	-2.435529
| 53> H  -0.975062	-0.937526	-2.766660
| 54> H  -0.434826	-0.130406	-1.486390
| 55> O  3.419379	-0.403288	1.791037
| 56> H  4.315579	-0.645292	2.086867
| 57> H  2.807541	-1.230716	2.014729
| 58> O  -0.284615	2.836717	-2.227265
| 59> H  -0.353314	1.893171	-2.502555
| 60> H  0.520601	2.877825	-1.632590
| 61> O  0.093611	-0.660918	3.668729
| 62> H  -0.361218	-0.886139	4.500318
| 63> H  -0.635934	-0.331310	3.020063
| 64> O  -2.438683	3.116027	-0.763971
| 65> H  -1.594951	3.120208	-1.343858
| 66> H  -2.879398	2.273896	-1.057214
| 67> O  -2.054639	-3.139931	-0.528603
| 68> H  -2.593089	-2.314756	-0.124164
| 69> H  -2.629523	-3.916855	-0.400754
| 70> **                         ****END OF INPUT****

CARTESIAN COORDINATES (ANGSTROEM)
---------------------------------
  O      1.842899   -2.299950    2.390281
  H      1.367317   -2.670824    1.596202
  H      1.138588   -1.812962    2.905525
  O      2.573762    0.481785   -0.531310
  H      2.441273    1.493514   -0.499255
  H      3.072820    0.184914    0.292722
  O      1.335547   -3.002339   -2.409026
  H      1.674216   -2.030132   -2.623527
  H      1.957773   -3.612348   -2.844917
  O      0.924544    3.269210    1.770586
  H      1.296666    2.535925    2.375068
  H     -0.067691    3.140934    1.762392
  O      1.917773    1.366400    3.282505
  H      2.570697    0.806323    2.783641
  H      1.240899    0.700001    3.571351
  O     -3.190365    0.632552   -1.660208
  H     -3.782983    0.607427   -2.434703
  H     -2.256447    0.422094   -2.032143
  O      1.974384   -0.595125   -2.898099
  H      2.349736   -0.194857   -2.055884
  H      1.068561   -0.196267   -2.949374
  O     -1.527352    0.189091    1.856018
  H     -1.685508    1.196224    1.858426
  H     -0.833345    0.059795    1.120655
  O     -3.320485   -1.161429    0.379754
  H     -2.741258   -0.670570    1.040585
  H     -3.405117   -0.512989   -0.375431
  O     -1.732239    2.776417    1.598199
  H     -2.325009    3.334075    2.134922
  H     -2.040644    2.935259    0.570965
  O      1.817932    2.949373   -0.511850
  H      1.419531    3.113763    0.495046
  H      2.404003    3.705773   -0.699158
  O      0.176614   -0.366981   -0.020255
  H      0.329236   -1.372795    0.061470
  H      1.120216    0.018580   -0.127992
  O      0.505849   -2.960369    0.110810
  H     -0.469026   -3.179092   -0.027491
  H      0.927861   -3.100501   -0.792988
  O     -1.250439   -2.429203   -3.031011
  H     -1.658437   -2.751317   -2.176182
  H     -0.328095   -2.803014   -2.977444
  O     -0.769991    0.028967   -2.435529
  H     -0.975062   -0.937526   -2.766660
  H     -0.434826   -0.130406   -1.486390
  O      3.419379   -0.403288    1.791037
  H      4.315579   -0.645292    2.086867
  H      2.807541   -1.230716    2.014729
  O     -0.284615    2.836717   -2.227265
  H     -0.353314    1.893171   -2.502555
  H      0.520601    2.877825   -1.632590
  O      0.093611   -0.660918    3.668729
  H     -0.361218   -0.886139    4.500318
  H     -0.635934   -0.331310    3.020063
  O     -2.438683    3.116027   -0.763971
  H     -1.594951    3.120208   -1.343858
  H     -2.879398    2.273896   -1.057214
  O     -2.054639   -3.139931   -0.528603
  H     -2.593089   -2.314756   -0.124164
  H     -2.629523   -3.916855   -0.400754

 Total Charge           Charge          ....    0
 Multiplicity           Mult            ....    1
 Number of Electrons    NEL             ....  200
 Basis Dimension        Dim             ....  940

ORBITAL ENERGIES
----------------

  NO   OCC          E(Eh)            E(eV)
   0   2.0000     -19.260396      -524.1020
   1   2.0000     -19.254882      -523.9520
   2   2.0000     -19.254362      -523.9378
   3   2.0000     -19.251752      -523.8668
   4   2.0000     -19.248945      -523.7904
   5   2.0000     -19.244622      -523.6728
   6   2.0000     -19.243680      -523.6472
   7   2.0000     -19.241382      -523.5846
   8   2.0000     -19.241012      -523.5746
   9   2.0000     -19.239333      -523.5289
  10   2.0000     -19.238201      -523.4981
  11   2.0000     -19.236882      -523.4622
  12   2.0000     -19.236422      -523.4496
  13   2.0000     -19.235533      -523.4255
  14   2.0000     -19.234624      -523.4007
  15   2.0000     -19.233781      -523.3778
  16   2.0000     -19.226622      -523.1830
  17   2.0000     -19.223443      -523.0965
  18   2.0000     -19.221986      -523.0568
  19   2.0000     -19.220200      -523.0082
  20   2.0000      -1.162072       -31.6216
  21   2.0000      -1.151423       -31.3318
  22   2.0000      -1.150099       -31.2958
  23   2.0000      -1.144999       -31.1570
  24   2.0000      -1.141218       -31.0541
  25   2.0000      -1.139656       -31.0116
  26   2.0000      -1.136592       -30.9282
  27   2.0000      -1.133353       -30.8401
  28   2.0000      -1.129781       -30.7429
  29   2.0000      -1.128224       -30.7005
  30   2.0000      -1.121460       -30.5165
  31   2.0000      -1.116197       -30.3733
  32   2.0000      -1.115343       -30.3500
  33   2.0000      -1.112205       -30.2646
  34   2.0000      -1.106113       -30.0989
  35   2.0000      -1.104500       -30.0550
  36   2.0000      -1.101555       -29.9748
  37   2.0000      -1.096277       -29.8312
  38   2.0000      -1.091850       -29.7108
  39   2.0000      -1.087976       -29.6053
  40   2.0000      -0.662027       -18.0147
  41   2.0000      -0.661647       -18.0043
  42   2.0000      -0.657003       -17.8780
  43   2.0000      -0.656519       -17.8648
  44   2.0000      -0.653519       -17.7832
  45   2.0000      -0.649861       -17.6836
  46   2.0000      -0.646703       -17.5977
  47   2.0000      -0.643243       -17.5035
  48   2.0000      -0.642604       -17.4862
  49   2.0000      -0.639124       -17.3914
  50   2.0000      -0.638470       -17.3737
  51   2.0000      -0.635325       -17.2881
  52   2.0000      -0.634328       -17.2609
  53   2.0000      -0.630754       -17.1637
  54   2.0000      -0.628808       -17.1107
  55   2.0000      -0.626359       -17.0441
  56   2.0000      -0.625855       -17.0304
  57   2.0000      -0.620982       -16.8978
  58   2.0000      -0.618599       -16.8329
  59   2.0000      -0.615979       -16.7616
  60   2.0000      -0.583469       -15.8770
  61   2.0000      -0.573247       -15.5988
  62   2.0000      -0.561903       -15.2902
  63   2.0000      -0.557777       -15.1779
  64   2.0000      -0.554411       -15.0863
  65   2.0000      -0.549300       -14.9472
  66   2.0000      -0.535699       -14.5771
  67   2.0000      -0.528115       -14.3707
  68   2.0000      -0.518884       -14.1196
  69   2.0000      -0.512382       -13.9426
  70   2.0000      -0.509182       -13.8556
  71   2.0000      -0.499221       -13.5845
  72   2.0000      -0.495727       -13.4894
  73   2.0000      -0.493806       -13.4372
  74   2.0000      -0.485631       -13.2147
  75   2.0000      -0.484530       -13.1847
  76   2.0000      -0.474769       -12.9191
  77   2.0000      -0.473888       -12.8951
  78   2.0000      -0.465217       -12.6592
  79   2.0000      -0.450519       -12.2592
  80   2.0000      -0.437953       -11.9173
  81   2.0000      -0.437937       -11.9169
  82   2.0000      -0.435481       -11.8500
  83   2.0000      -0.434598       -11.8260
  84   2.0000      -0.431499       -11.7417
  85   2.0000      -0.430680       -11.7194
  86   2.0000      -0.428703       -11.6656
  87   2.0000      -0.425861       -11.5883
  88   2.0000      -0.425514       -11.5788
  89   2.0000      -0.423825       -11.5329
  90   2.0000      -0.420259       -11.4358
  91   2.0000      -0.419577       -11.4173
  92   2.0000      -0.418556       -11.3895
  93   2.0000      -0.417704       -11.3663
  94   2.0000      -0.415525       -11.3070
  95   2.0000      -0.413044       -11.2395
  96   2.0000      -0.410884       -11.1807
  97   2.0000      -0.405705       -11.0398
  98   2.0000      -0.401489       -10.9251
  99   2.0000      -0.400916       -10.9095
 100   0.0000       0.045203         1.2300
 101   0.0000       0.063485         1.7275
 102   0.0000       0.065818         1.7910
 103   0.0000       0.070959         1.9309
 104   0.0000       0.080297         2.1850

MULLIKEN ATOMIC CHARGES
-----------------------
   0 O :   -0.761459
   1 H :    0.425063
   2 H :    0.406424
   3 O :   -0.867112
   4 H :    0.440644
   5 H :    0.438947
   6 O :   -0.875248
   7 H :    0.425496
   8 H :    0.366820
   9 O :   -0.787319
  10 H :    0.461145
  11 H :    0.410453
  12 O :   -0.764740
  13 H :    0.399617
  14 H :    0.400757
  15 O :   -0.801171
  16 H :    0.371153
  17 H :    0.425630
  18 O :   -0.737425
  19 H :    0.438182
  20 H :    0.385583
  21 O :   -0.857156
  22 H :    0.454419
  23 H :    0.419771
  24 O :   -0.779520
  25 H :    0.421674
  26 H :    0.420765
  27 O :   -0.845654
  28 H :    0.360606
  29 H :    0.438471
  30 O :   -0.842171
  31 H :    0.431156
  32 H :    0.361788
  33 O :   -0.805129
  34 H :    0.361463
  35 H :    0.368107
  36 O :   -0.817952
  37 H :    0.435626
  38 H :    0.440038
  39 O :   -0.713306
  40 H :    0.400708
  41 H :    0.404508
  42 O :   -1.059165
  43 H :    0.488547
  44 H :    0.419980
  45 O :   -0.857935
  46 H :    0.364001
  47 H :    0.425005
  48 O :   -0.784827
  49 H :    0.394396
  50 H :    0.412327
  51 O :   -0.847537
  52 H :    0.363576
  53 H :    0.415329
  54 O :   -0.799576
  55 H :    0.468601
  56 H :    0.401525
  57 O :   -0.866344
  58 H :    0.437157
  59 H :    0.365288
Sum of atomic charges:    0.0000000

LOEWDIN ATOMIC CHARGES
----------------------
   0 O :   -0.356556
   1 H :    0.200774
   2 H :    0.198498
   3 O :   -0.401881
   4 H :    0.193841
   5 H :    0.197035
   6 O :   -0.415344
   7 H :    0.192154
   8 H :    0.195708
   9 O :   -0.337354
  10 H :    0.198318
  11 H :    0.195003
  12 O :   -0.384827
  13 H :    0.195546
  14 H :    0.195317
  15 O :   -0.392750
  16 H :    0.200559
  17 H :    0.196675
  18 O :   -0.347009
  19 H :    0.202961
  20 H :    0.202035
  21 O :   -0.401753
  22 H :    0.196905
  23 H :    0.192193
  24 O :   -0.352300
  25 H :    0.200387
  26 H :    0.198473
  27 O :   -0.420269
  28 H :    0.194004
  29 H :    0.186395
  30 O :   -0.425212
  31 H :    0.183715
  32 H :    0.193664
  33 O :   -0.411798
  34 H :    0.191476
  35 H :    0.193886
  36 O :   -0.396714
  37 H :    0.199401
  38 H :    0.200067
  39 O :   -0.369200
  40 H :    0.196493
  41 H :    0.197455
  42 O :   -0.459519
  43 H :    0.195298
  44 H :    0.188724
  45 O :   -0.411343
  46 H :    0.195222
  47 H :    0.193382
  48 O :   -0.376741
  49 H :    0.197454
  50 H :    0.195136
  51 O :   -0.402372
  52 H :    0.196180
  53 H :    0.194633
  54 O :   -0.344453
  55 H :    0.200899
  56 H :    0.195673
  57 O :   -0.420966
  58 H :    0.191399
  59 H :    0.195420

  Mayer bond orders larger than 0.1
B(  0-O ,  1-H ) :   0.8340 B(  0-O ,  2-H ) :   0.8331 B(  0-O , 47-H ) :   0.1694
B(  3-O ,  4-H ) :   0.7567 B(  3-O ,  5-H ) :   0.7803 B(  3-O , 33-O ) :  -0.1485
B(  3-O , 35-H ) :   0.2347 B(  4-H , 30-O ) :   0.1182 B(  6-O ,  7-H ) :   0.6959
B(  6-O ,  8-H ) :   0.8707 B(  7-H , 18-O ) :   0.1814 B(  9-O , 10-H ) :   0.7712
B(  9-O , 11-H ) :   0.8269 B(  9-O , 31-H ) :   0.2547 B( 12-O , 13-H ) :   0.8448
B( 12-O , 14-H ) :   0.8476 B( 15-O , 16-H ) :   0.8752 B( 15-O , 17-H ) :   0.7714
B( 18-O , 19-H ) :   0.8037 B( 18-O , 20-H ) :   0.8480 B( 21-O , 22-H ) :   0.7579
B( 21-O , 23-H ) :   0.8010 B( 21-O , 53-H ) :   0.1209 B( 22-H , 27-O ) :   0.1067
B( 24-O , 25-H ) :   0.8080 B( 24-O , 26-H ) :   0.8351 B( 24-O , 58-H ) :   0.1969
B( 27-O , 28-H ) :   0.8754 B( 27-O , 29-H ) :   0.6420 B( 29-H , 54-O ) :   0.2364
B( 30-O , 31-H ) :   0.6261 B( 30-O , 32-H ) :   0.8753 B( 33-O , 34-H ) :   0.7436
B( 33-O , 35-H ) :   0.7222 B( 33-O , 42-O ) :  -0.1301 B( 33-O , 44-H ) :   0.1397
B( 34-H , 36-O ) :   0.2050 B( 36-O , 37-H ) :   0.7937 B( 36-O , 38-H ) :   0.7966
B( 39-O , 40-H ) :   0.8439 B( 39-O , 41-H ) :   0.8465 B( 39-O , 42-O ) :   0.1514
B( 39-O , 43-H ) :   0.1114 B( 42-O , 43-H ) :   0.7314 B( 42-O , 44-H ) :   0.7978
B( 45-O , 46-H ) :   0.8729 B( 45-O , 47-H ) :   0.7036 B( 48-O , 49-H ) :   0.8554
B( 48-O , 50-H ) :   0.8273 B( 51-O , 52-H ) :   0.8721 B( 51-O , 53-H ) :   0.7440
B( 54-O , 55-H ) :   0.7696 B( 54-O , 56-H ) :   0.8471 B( 57-O , 58-H ) :   0.6710
B( 57-O , 59-H ) :   0.8736

Dispersion correction           -0.042660554
FINAL SINGLE POINT ENERGY     -1529.142714746921

DIPOLE MOMENT
-------------
                                X             Y             Z
Electronic contribution:     -0.07003       0.35150      -0.00422
Nuclear contribution   :     -0.04556      -1.77707       0.49833
                        -----------------------------------------
Total Dipole Moment    :     -0.11559      -1.42557       0.49410
                        -----------------------------------------
Magnitude (a.u.)       :      1.51319
Magnitude (Debye)      :      3.84623

                             ****ORCA TERMINATED NORMALLY****
TOTAL RUN TIME: 0 days 0 hours 47 minutes 52 seconds 242 msec
