                         Program Version 4.2.0 -  RELEASE  -
|  1> # 12h2o.su.etal.mol0,2,5,6,7,8,9,11
|  2> ! MP2 def2-TZVP EnGrad TightSCF
|  3>
|  4> %pal
|  5>     nprocs 6
|  6> end
|  7>
|  8> %maxcore 8000
|  9>
| 10> %scf
| 11>     ConvForced true
| 12> end
| 13>
| 14> *xyz 0 1
| 15> O   1.794470000   0.923410000   2.768350000
| 16> H   2.338250000   1.359750000   3.430940000
| 17> H   0.879480000   1.303000000   2.865760000
| 18> O   0.923410000  -1.794470000  -2.768350000
| 19> H   1.359750000  -2.338250000  -3.430940000
| 20> H   1.303000000  -0.879480000  -2.865760000
| 21> O   0.885520000  -1.737840000   0.052730000
| 22> H   1.284090000  -0.839590000   0.017130000
| 23> H   1.032320000  -2.090180000  -0.841890000
| 24> O   1.737840000   0.885520000  -0.052730000
| 25> H   2.090180000   1.032320000   0.841890000
| 26> H   0.839590000   1.284090000  -0.017130000
| 27> O  -1.737840000  -0.885520000  -0.052730000
| 28> H  -2.090180000  -1.032320000   0.841890000
| 29> H  -0.839590000  -1.284090000  -0.017130000
| 30> O   1.752130000   0.741530000  -2.896280000
| 31> H   2.036450000   0.920500000  -1.984040000
| 32> H   0.921210000   1.242140000  -2.984230000
| 33> O   0.741530000  -1.752130000   2.896280000
| 34> H   0.920500000  -2.036450000   1.984040000
| 35> H   1.242140000  -0.921210000   2.984230000
| 36> O  -0.741530000   1.752130000   2.896280000
| 37> H  -0.920500000   2.036450000   1.984040000
| 38> H  -1.242140000   0.921210000   2.984230000
| 39> *
| 40>
| 41>                          ****END OF INPUT****

CARTESIAN COORDINATES (ANGSTROEM)
---------------------------------
  O      1.794470    0.923410    2.768350
  H      2.338250    1.359750    3.430940
  H      0.879480    1.303000    2.865760
  O      0.923410   -1.794470   -2.768350
  H      1.359750   -2.338250   -3.430940
  H      1.303000   -0.879480   -2.865760
  O      0.885520   -1.737840    0.052730
  H      1.284090   -0.839590    0.017130
  H      1.032320   -2.090180   -0.841890
  O      1.737840    0.885520   -0.052730
  H      2.090180    1.032320    0.841890
  H      0.839590    1.284090   -0.017130
  O     -1.737840   -0.885520   -0.052730
  H     -2.090180   -1.032320    0.841890
  H     -0.839590   -1.284090   -0.017130
  O      1.752130    0.741530   -2.896280
  H      2.036450    0.920500   -1.984040
  H      0.921210    1.242140   -2.984230
  O      0.741530   -1.752130    2.896280
  H      0.920500   -2.036450    1.984040
  H      1.242140   -0.921210    2.984230
  O     -0.741530    1.752130    2.896280
  H     -0.920500    2.036450    1.984040
  H     -1.242140    0.921210    2.984230

 Total Charge           Charge          ....    0
 Multiplicity           Mult            ....    1
 Number of Electrons    NEL             ....   80
 Basis Dimension        Dim             ....  344

ORBITAL ENERGIES
----------------

  NO   OCC          E(Eh)            E(eV)
   0   2.0000     -20.621469      -561.1387
   1   2.0000     -20.608503      -560.7859
   2   2.0000     -20.586619      -560.1904
   3   2.0000     -20.585581      -560.1621
   4   2.0000     -20.544392      -559.0413
   5   2.0000     -20.540444      -558.9339
   6   2.0000     -20.528009      -558.5955
   7   2.0000     -20.512178      -558.1647
   8   2.0000      -1.408318       -38.3223
   9   2.0000      -1.397033       -38.0152
  10   2.0000      -1.373939       -37.3868
  11   2.0000      -1.369602       -37.2688
  12   2.0000      -1.339493       -36.4495
  13   2.0000      -1.321958       -35.9723
  14   2.0000      -1.307331       -35.5743
  15   2.0000      -1.297000       -35.2932
  16   2.0000      -0.763693       -20.7811
  17   2.0000      -0.760517       -20.6947
  18   2.0000      -0.752759       -20.4836
  19   2.0000      -0.733919       -19.9709
  20   2.0000      -0.711474       -19.3602
  21   2.0000      -0.708235       -19.2720
  22   2.0000      -0.681885       -18.5550
  23   2.0000      -0.676042       -18.3960
  24   2.0000      -0.658774       -17.9261
  25   2.0000      -0.640042       -17.4164
  26   2.0000      -0.614519       -16.7219
  27   2.0000      -0.604457       -16.4481
  28   2.0000      -0.600088       -16.3292
  29   2.0000      -0.567071       -15.4308
  30   2.0000      -0.560072       -15.2403
  31   2.0000      -0.557894       -15.1811
  32   2.0000      -0.546714       -14.8768
  33   2.0000      -0.533862       -14.5271
  34   2.0000      -0.521399       -14.1880
  35   2.0000      -0.518130       -14.0990
  36   2.0000      -0.490280       -13.3412
  37   2.0000      -0.488859       -13.3025
  38   2.0000      -0.475755       -12.9459
  39   2.0000      -0.462030       -12.5725
  40   0.0000       0.072546         1.9741
  41   0.0000       0.120207         3.2710
  42   0.0000       0.133890         3.6433
  43   0.0000       0.144006         3.9186
  44   0.0000       0.166670         4.5353

MULLIKEN ATOMIC CHARGES
-----------------------
   0 O :   -0.753193
   1 H :    0.356932
   2 H :    0.383123
   3 O :   -0.734520
   4 H :    0.336001
   5 H :    0.372342
   6 O :   -0.751159
   7 H :    0.355036
   8 H :    0.385067
   9 O :   -0.727259
  10 H :    0.396496
  11 H :    0.342514
  12 O :   -0.727161
  13 H :    0.319017
  14 H :    0.370452
  15 O :   -0.693106
  16 H :    0.387407
  17 H :    0.350688
  18 O :   -0.734111
  19 H :    0.372730
  20 H :    0.344000
  21 O :   -0.682512
  22 H :    0.354942
  23 H :    0.376273
Sum of atomic charges:   -0.0000000

LOEWDIN ATOMIC CHARGES
----------------------
   0 O :   -0.312444
   1 H :    0.162526
   2 H :    0.146036
   3 O :   -0.338737
   4 H :    0.153803
   5 H :    0.144355
   6 O :   -0.300951
   7 H :    0.139284
   8 H :    0.153766
   9 O :   -0.282938
  10 H :    0.159406
  11 H :    0.169842
  12 O :   -0.364381
  13 H :    0.151753
  14 H :    0.143089
  15 O :   -0.274248
  16 H :    0.157540
  17 H :    0.172510
  18 O :   -0.357138
  19 H :    0.149372
  20 H :    0.138551
  21 O :   -0.264569
  22 H :    0.171177
  23 H :    0.182394

  Mayer bond orders larger than 0.100000
B(  0-O ,  1-H ) :   0.8370 B(  0-O ,  2-H ) :   0.7476 B(  3-O ,  4-H ) :   0.8512
B(  3-O ,  5-H ) :   0.7636 B(  6-O ,  7-H ) :   0.7854 B(  6-O ,  8-H ) :   0.7883
B(  9-O , 10-H ) :   0.7795 B(  9-O , 11-H ) :   0.8349 B( 12-O , 13-H ) :   0.8610
B( 12-O , 14-H ) :   0.7795 B( 15-O , 16-H ) :   0.8025 B( 15-O , 17-H ) :   0.8413
B( 18-O , 19-H ) :   0.8163 B( 18-O , 20-H ) :   0.8308 B( 21-O , 22-H ) :   0.8376
B( 21-O , 23-H ) :   0.8194

MP2 TOTAL ENERGY:     -610.584661356 Eh
FINAL SINGLE POINT ENERGY      -610.584661356185

DIPOLE MOMENT
-------------
                                X             Y             Z
Electronic contribution:      0.14279       0.26256      -0.01201
Nuclear contribution   :      0.36914       2.00818       0.08817
                        -----------------------------------------
Total Dipole Moment    :      0.51194       2.27074       0.07616
                        -----------------------------------------
Magnitude (a.u.)       :      2.32897
Magnitude (Debye)      :      5.91978

Rotational constants in cm-1:     0.037994     0.018313     0.016554
Rotational constants in MHz :  1139.024909   549.013157   496.269069

                             ****ORCA TERMINATED NORMALLY****
TOTAL RUN TIME: 0 days 0 hours 3 minutes 51 seconds 764 msec
