                         Program Version 4.2.0 -  RELEASE  -
|  1> # 12meoh.boyd.etal.mol0,9
|  2> ! MP2 def2-TZVP EnGrad TightSCF
|  3>
|  4> %pal
|  5>     nprocs 6
|  6> end
|  7>
|  8> %maxcore 8000
|  9>
| 10> %scf
| 11>     ConvForced true
| 12> end
| 13>
| 14> *xyz 0 1
| 15> O  -1.776108874  -2.741384797  -1.019308298
| 16> H  -2.520094035  -2.452295987  -0.420778302
| 17> C  -2.174025166  -3.952700964  -1.647004581
| 18> H  -1.359803895  -4.272673416  -2.304149236
| 19> H  -3.075973971  -3.808692420  -2.256751112
| 20> H  -2.370225393  -4.752784761  -0.918966137
| 21> O   1.390610024   3.194080770  -1.536658882
| 22> H   2.162932299   2.881562730  -0.993525056
| 23> C   1.202977189   4.580367182  -1.302880219
| 24> H   0.374773115   4.915764831  -1.934164643
| 25> H   2.098649340   5.157710875  -1.570472348
| 26> H   0.950320401   4.800436015  -0.254328827
| 27> *
| 28>
| 29>                          ****END OF INPUT****

CARTESIAN COORDINATES (ANGSTROEM)
---------------------------------
  O     -1.776109   -2.741385   -1.019308
  H     -2.520094   -2.452296   -0.420778
  C     -2.174025   -3.952701   -1.647005
  H     -1.359804   -4.272673   -2.304149
  H     -3.075974   -3.808692   -2.256751
  H     -2.370225   -4.752785   -0.918966
  O      1.390610    3.194081   -1.536659
  H      2.162932    2.881563   -0.993525
  C      1.202977    4.580367   -1.302880
  H      0.374773    4.915765   -1.934165
  H      2.098649    5.157711   -1.570472
  H      0.950320    4.800436   -0.254329

 Total Charge           Charge          ....    0
 Multiplicity           Mult            ....    1
 Number of Electrons    NEL             ....   36
 Basis Dimension        Dim             ....  172

ORBITAL ENERGIES
----------------

  NO   OCC          E(Eh)            E(eV)
   0   2.0000     -20.555103      -559.3328
   1   2.0000     -20.554172      -559.3074
   2   2.0000     -11.269009      -306.6453
   3   2.0000     -11.268891      -306.6421
   4   2.0000      -1.344881       -36.5961
   5   2.0000      -1.344223       -36.5782
   6   2.0000      -0.916721       -24.9452
   7   2.0000      -0.916503       -24.9393
   8   2.0000      -0.679696       -18.4955
   9   2.0000      -0.678785       -18.4707
  10   2.0000      -0.614642       -16.7252
  11   2.0000      -0.614192       -16.7130
  12   2.0000      -0.589239       -16.0340
  13   2.0000      -0.588412       -16.0115
  14   2.0000      -0.497498       -13.5376
  15   2.0000      -0.496242       -13.5034
  16   2.0000      -0.446159       -12.1406
  17   2.0000      -0.445469       -12.1218
  18   0.0000       0.137139         3.7317
  19   0.0000       0.138071         3.7571
  20   0.0000       0.178083         4.8459
  21   0.0000       0.178293         4.8516
  22   0.0000       0.231788         6.3073

MULLIKEN ATOMIC CHARGES
-----------------------
   0 O :   -0.493597
   1 H :    0.321158
   2 C :   -0.173329
   3 H :    0.129244
   4 H :    0.108855
   5 H :    0.107669
   6 O :   -0.494860
   7 H :    0.322084
   8 C :   -0.171030
   9 H :    0.128708
  10 H :    0.107781
  11 H :    0.107317
Sum of atomic charges:    0.0000000

LOEWDIN ATOMIC CHARGES
----------------------
   0 O :   -0.107906
   1 H :    0.192401
   2 C :   -0.384631
   3 H :    0.110421
   4 H :    0.095032
   5 H :    0.094683
   6 O :   -0.104583
   7 H :    0.190851
   8 C :   -0.386250
   9 H :    0.110348
  10 H :    0.094794
  11 H :    0.094840

  Mayer bond orders larger than 0.100000
B(  0-O ,  1-H ) :   0.8419 B(  0-O ,  2-C ) :   0.9282 B(  2-C ,  3-H ) :   0.9375
B(  2-C ,  4-H ) :   0.9397 B(  2-C ,  5-H ) :   0.9379 B(  6-O ,  7-H ) :   0.8415
B(  6-O ,  8-C ) :   0.9294 B(  8-C ,  9-H ) :   0.9376 B(  8-C , 10-H ) :   0.9400
B(  8-C , 11-H ) :   0.9374

MP2 TOTAL ENERGY:     -231.012791530 Eh
FINAL SINGLE POINT ENERGY      -231.012791530151

DIPOLE MOMENT
-------------
                                X             Y             Z
Electronic contribution:      0.76127      -0.23843       0.33100
Nuclear contribution   :     -0.97419       0.29243       0.20446
                        -----------------------------------------
Total Dipole Moment    :     -0.21292       0.05400       0.53546
                        -----------------------------------------
Magnitude (a.u.)       :      0.57876
Magnitude (Debye)      :      1.47110

Rotational constants in cm-1:     0.944077     0.016188     0.016106
Rotational constants in MHz : 28302.707813   485.297125   482.845617

                             ****ORCA TERMINATED NORMALLY****
TOTAL RUN TIME: 0 days 0 hours 0 minutes 15 seconds 446 msec
