                         Program Version 4.2.0 -  RELEASE  -
|  1> ! MP2 def2-TZVP EnGrad TightSCF FrozenCore
|  2>
|  3> %pal
|  4>     nprocs 12
|  5> end
|  6>
|  7> %maxcore 8000
|  8>
|  9> %scf
| 10>     ConvForced true
| 11> end
| 12>
| 13> *xyz 0 1
| 14> C     3.789454    -0.721046    -0.000309
| 15> H     4.678569    -1.107071    -0.505518
| 16> H     3.251103    -1.543837     0.480072
| 17> H     4.076952     0.003090     0.765547
| 18> C     2.902978    -0.080979    -0.967948
| 19> N     2.196164     0.420155    -1.743113
| 20> C    -4.299748     0.774941    -0.364368
| 21> H    -3.932893     1.156804    -1.319976
| 22> H    -4.040455     1.503222     0.407484
| 23> H    -5.384350     0.647633    -0.406877
| 24> C    -3.654522    -0.501396    -0.067923
| 25> N    -3.146015    -1.519187     0.167576
| 26> C    -0.449970    -0.560533     2.363766
| 27> H    -0.941344    -0.206986     3.274003
| 28> H    -0.209289    -1.622097     2.457800
| 29> H    -1.128595    -0.436646     1.514242
| 30> C     0.770957     0.204516     2.129091
| 31> N     1.736666     0.826507     1.949962
| 32> C     0.961675     3.104458    -0.466975
| 33> H     0.716531     4.153250    -0.280320
| 34> H     1.403645     2.991264    -1.459537
| 35> H     1.680136     2.751717     0.278842
| 36> C    -0.245421     2.289103    -0.378063
| 37> N    -1.215957     1.654149    -0.299464
| 38> C    -0.440295    -1.584091    -1.761213
| 39> H     0.180700    -1.532938    -2.659048
| 40> H    -0.750504    -0.569739    -1.491803
| 41> H    -1.329201    -2.193227    -1.941509
| 42> C     0.333819    -2.157252    -0.664171
| 43> N     0.959919    -2.610305     0.204366
| 44> *
| 45>
| 46>                          ****END OF INPUT****

CARTESIAN COORDINATES (ANGSTROEM)
---------------------------------
  C      3.789454   -0.721046   -0.000309
  H      4.678569   -1.107071   -0.505518
  H      3.251103   -1.543837    0.480072
  H      4.076952    0.003090    0.765547
  C      2.902978   -0.080979   -0.967948
  N      2.196164    0.420155   -1.743113
  C     -4.299748    0.774941   -0.364368
  H     -3.932893    1.156804   -1.319976
  H     -4.040455    1.503222    0.407484
  H     -5.384350    0.647633   -0.406877
  C     -3.654522   -0.501396   -0.067923
  N     -3.146015   -1.519187    0.167576
  C     -0.449970   -0.560533    2.363766
  H     -0.941344   -0.206986    3.274003
  H     -0.209289   -1.622097    2.457800
  H     -1.128595   -0.436646    1.514242
  C      0.770957    0.204516    2.129091
  N      1.736666    0.826507    1.949962
  C      0.961675    3.104458   -0.466975
  H      0.716531    4.153250   -0.280320
  H      1.403645    2.991264   -1.459537
  H      1.680136    2.751717    0.278842
  C     -0.245421    2.289103   -0.378063
  N     -1.215957    1.654149   -0.299464
  C     -0.440295   -1.584091   -1.761213
  H      0.180700   -1.532938   -2.659048
  H     -0.750504   -0.569739   -1.491803
  H     -1.329201   -2.193227   -1.941509
  C      0.333819   -2.157252   -0.664171
  N      0.959919   -2.610305    0.204366

 Total Charge           Charge          ....    0
 Multiplicity           Mult            ....    1
 Number of Electrons    NEL             ....  110
 Basis Dimension        Dim             ....  555

ORBITAL ENERGIES
----------------

  NO   OCC          E(Eh)            E(eV)
   0   2.0000     -15.569073      -423.6560
   1   2.0000     -15.568881      -423.6508
   2   2.0000     -15.560728      -423.4289
   3   2.0000     -15.560368      -423.4191
   4   2.0000     -15.555934      -423.2985
   5   2.0000     -11.286037      -307.1087
   6   2.0000     -11.281208      -306.9773
   7   2.0000     -11.275824      -306.8308
   8   2.0000     -11.275815      -306.8305
   9   2.0000     -11.275776      -306.8295
  10   2.0000     -11.270715      -306.6918
  11   2.0000     -11.265400      -306.5471
  12   2.0000     -11.259227      -306.3791
  13   2.0000     -11.256240      -306.2978
  14   2.0000     -11.253327      -306.2186
  15   2.0000      -1.219984       -33.1975
  16   2.0000      -1.216970       -33.1154
  17   2.0000      -1.211710       -32.9723
  18   2.0000      -1.209155       -32.9028
  19   2.0000      -1.204893       -32.7868
  20   2.0000      -1.032313       -28.0907
  21   2.0000      -1.026305       -27.9272
  22   2.0000      -1.019429       -27.7401
  23   2.0000      -1.016587       -27.6627
  24   2.0000      -1.013147       -27.5691
  25   2.0000      -0.691709       -18.8224
  26   2.0000      -0.686881       -18.6910
  27   2.0000      -0.679281       -18.4842
  28   2.0000      -0.677669       -18.4403
  29   2.0000      -0.672786       -18.3074
  30   2.0000      -0.627517       -17.0756
  31   2.0000      -0.622125       -16.9289
  32   2.0000      -0.619390       -16.8545
  33   2.0000      -0.615556       -16.7501
  34   2.0000      -0.613988       -16.7075
  35   2.0000      -0.611483       -16.6393
  36   2.0000      -0.608617       -16.5613
  37   2.0000      -0.600505       -16.3406
  38   2.0000      -0.598465       -16.2851
  39   2.0000      -0.595306       -16.1991
  40   2.0000      -0.559257       -15.2181
  41   2.0000      -0.555703       -15.1215
  42   2.0000      -0.550245       -14.9729
  43   2.0000      -0.549475       -14.9520
  44   2.0000      -0.544709       -14.8223
  45   2.0000      -0.465574       -12.6689
  46   2.0000      -0.464298       -12.6342
  47   2.0000      -0.461831       -12.5671
  48   2.0000      -0.459213       -12.4958
  49   2.0000      -0.456468       -12.4211
  50   2.0000      -0.453754       -12.3473
  51   2.0000      -0.451048       -12.2736
  52   2.0000      -0.445624       -12.1260
  53   2.0000      -0.444599       -12.0981
  54   2.0000      -0.442423       -12.0390
  55   0.0000       0.123160         3.3513
  56   0.0000       0.142967         3.8903
  57   0.0000       0.155857         4.2411
  58   0.0000       0.160163         4.3583
  59   0.0000       0.163628         4.4525

MULLIKEN ATOMIC CHARGES
-----------------------
   0 C :   -0.284566
   1 H :    0.165439
   2 H :    0.199996
   3 H :    0.180709
   4 C :   -0.082097
   5 N :   -0.179397
   6 C :   -0.257161
   7 H :    0.170977
   8 H :    0.171313
   9 H :    0.172578
  10 C :   -0.112320
  11 N :   -0.140304
  12 C :   -0.283910
  13 H :    0.166780
  14 H :    0.191183
  15 H :    0.179791
  16 C :   -0.070090
  17 N :   -0.187784
  18 C :   -0.289592
  19 H :    0.167566
  20 H :    0.186386
  21 H :    0.197491
  22 C :   -0.054097
  23 N :   -0.205591
  24 C :   -0.249484
  25 H :    0.175407
  26 H :    0.171041
  27 H :    0.179105
  28 C :   -0.108071
  29 N :   -0.171297
Sum of atomic charges:   -0.0000000

LOEWDIN ATOMIC CHARGES
----------------------
   0 C :   -0.285134
   1 H :    0.146305
   2 H :    0.156697
   3 H :    0.152651
   4 C :   -0.201431
   5 N :    0.030431
   6 C :   -0.287720
   7 H :    0.152512
   8 H :    0.152534
   9 H :    0.146591
  10 C :   -0.212320
  11 N :    0.036111
  12 C :   -0.280832
  13 H :    0.147772
  14 H :    0.156474
  15 H :    0.153956
  16 C :   -0.196766
  17 N :    0.025760
  18 C :   -0.281610
  19 H :    0.146622
  20 H :    0.154705
  21 H :    0.156246
  22 C :   -0.191718
  23 N :    0.026985
  24 C :   -0.286084
  25 H :    0.150845
  26 H :    0.153981
  27 H :    0.150502
  28 C :   -0.200190
  29 N :    0.026126

  Mayer bond orders larger than 0.100000
B(  0-C ,  1-H ) :   0.9102 B(  0-C ,  2-H ) :   0.9076 B(  0-C ,  3-H ) :   0.9146
B(  0-C ,  4-C ) :   0.8925 B(  4-C ,  5-N ) :   2.7367 B(  6-C ,  7-H ) :   0.9195
B(  6-C ,  8-H ) :   0.9174 B(  6-C ,  9-H ) :   0.9097 B(  6-C , 10-C ) :   0.9006
B( 10-C , 11-N ) :   2.7601 B( 12-C , 13-H ) :   0.9106 B( 12-C , 14-H ) :   0.9150
B( 12-C , 15-H ) :   0.9099 B( 12-C , 16-C ) :   0.8935 B( 16-C , 17-N ) :   2.7295
B( 18-C , 19-H ) :   0.9099 B( 18-C , 20-H ) :   0.9143 B( 18-C , 21-H ) :   0.9069
B( 18-C , 22-C ) :   0.8932 B( 22-C , 23-N ) :   2.7120 B( 24-C , 25-H ) :   0.9070
B( 24-C , 26-H ) :   0.9125 B( 24-C , 27-H ) :   0.9076 B( 24-C , 28-C ) :   0.9149
B( 28-C , 29-N ) :   2.7337

MP2 TOTAL ENERGY:     -662.459962966 Eh
FINAL SINGLE POINT ENERGY      -662.459962966404

DIPOLE MOMENT
-------------
                                X             Y             Z
Electronic contribution:      1.15708      -2.70589       0.61070
Nuclear contribution   :     -1.73700       4.01293      -0.89066
                        -----------------------------------------
Total Dipole Moment    :     -0.57992       1.30703      -0.27996
                        -----------------------------------------
Magnitude (a.u.)       :      1.45706
Magnitude (Debye)      :      3.70355

Rotational constants in cm-1:     0.020240     0.012030     0.010537
Rotational constants in MHz :   606.781528   360.645677   315.901690

                             ****ORCA TERMINATED NORMALLY****
TOTAL RUN TIME: 0 days 0 hours 19 minutes 7 seconds 228 msec
