                         Program Version 4.2.0 -  RELEASE  -
|  1> ! MP2 def2-TZVP EnGrad TightSCF FrozenCore
|  2>
|  3> %pal
|  4>     nprocs 12
|  5> end
|  6>
|  7> %maxcore 8000
|  8>
|  9> %scf
| 10>     ConvForced true
| 11> end
| 12>
| 13> *xyz 0 1
| 14> O    -0.9295159657     1.2867057429    -1.1468935533
| 15> H    -0.0596320175     1.480967169     -0.7134848142
| 16> C    -0.6556499867     0.6376571249    -2.3795678924
| 17> H    -1.6137146518     0.3886734922    -2.8451611549
| 18> H    -0.080356307     -0.2916650652    -2.24766183
| 19> H    -0.1016803954     1.2931239846    -3.066089818
| 20> O    -1.7594234077    -0.3958907358     0.8291096455
| 21> H    -1.5912529406     0.2399695292     0.0874797811
| 22> C    -2.8683782989    -1.2185801601     0.5090062936
| 23> H    -3.0395545881    -1.8896334864     1.3557650084
| 24> H    -2.6950784991    -1.8323330859    -0.3885633843
| 25> H    -3.7793510475    -0.6240952558     0.3527338301
| 26> O     0.8001838255    -0.931118316      1.5256472079
| 27> H    -0.1786499208    -0.8246987503     1.4120659028
| 28> C     1.186121457     -2.1010916812     0.8200084695
| 29> H     2.2713583792    -2.2031602919     0.9122369035
| 30> H     0.9304590043    -2.0515161783    -0.2496597218
| 31> H     0.720417644     -3.0009029387     1.2457979595
| 32> O     1.3988162549     1.3889244466     0.2286853794
| 33> H     1.2996187676     0.5635724145     0.7686499094
| 34> C     2.7521041081     1.5417520664    -0.1640218146
| 35> H     2.8292412413     2.4713149807    -0.7354970899
| 36> H     3.1042539041     0.7149602702    -0.8002429724
| 37> H     3.4182520951     1.6180300117     0.706691718
| 38> *
| 39>
| 40>                          ****END OF INPUT****

CARTESIAN COORDINATES (ANGSTROEM)
---------------------------------
  O     -0.929516    1.286706   -1.146894
  H     -0.059632    1.480967   -0.713485
  C     -0.655650    0.637657   -2.379568
  H     -1.613715    0.388673   -2.845161
  H     -0.080356   -0.291665   -2.247662
  H     -0.101680    1.293124   -3.066090
  O     -1.759423   -0.395891    0.829110
  H     -1.591253    0.239970    0.087480
  C     -2.868378   -1.218580    0.509006
  H     -3.039555   -1.889633    1.355765
  H     -2.695078   -1.832333   -0.388563
  H     -3.779351   -0.624095    0.352734
  O      0.800184   -0.931118    1.525647
  H     -0.178650   -0.824699    1.412066
  C      1.186121   -2.101092    0.820008
  H      2.271358   -2.203160    0.912237
  H      0.930459   -2.051516   -0.249660
  H      0.720418   -3.000903    1.245798
  O      1.398816    1.388924    0.228685
  H      1.299619    0.563572    0.768650
  C      2.752104    1.541752   -0.164022
  H      2.829241    2.471315   -0.735497
  H      3.104254    0.714960   -0.800243
  H      3.418252    1.618030    0.706692

 Total Charge           Charge          ....    0
 Multiplicity           Mult            ....    1
 Number of Electrons    NEL             ....   72
 Basis Dimension        Dim             ....  344

ORBITAL ENERGIES
----------------

  NO   OCC          E(Eh)            E(eV)
   0   2.0000     -20.550732      -559.2139
   1   2.0000     -20.550722      -559.2136
   2   2.0000     -20.550242      -559.2005
   3   2.0000     -20.550219      -559.1999
   4   2.0000     -11.273812      -306.7760
   5   2.0000     -11.273810      -306.7760
   6   2.0000     -11.272483      -306.7399
   7   2.0000     -11.272466      -306.7394
   8   2.0000      -1.367849       -37.2211
   9   2.0000      -1.352322       -36.7985
  10   2.0000      -1.351659       -36.7805
  11   2.0000      -1.336798       -36.3761
  12   2.0000      -0.931592       -25.3499
  13   2.0000      -0.923094       -25.1187
  14   2.0000      -0.922367       -25.0989
  15   2.0000      -0.914685       -24.8899
  16   2.0000      -0.712544       -19.3893
  17   2.0000      -0.695738       -18.9320
  18   2.0000      -0.692183       -18.8352
  19   2.0000      -0.687604       -18.7107
  20   2.0000      -0.622098       -16.9282
  21   2.0000      -0.617281       -16.7971
  22   2.0000      -0.614956       -16.7338
  23   2.0000      -0.613379       -16.6909
  24   2.0000      -0.601670       -16.3723
  25   2.0000      -0.595989       -16.2177
  26   2.0000      -0.592620       -16.1260
  27   2.0000      -0.584353       -15.9011
  28   2.0000      -0.526031       -14.3140
  29   2.0000      -0.506515       -13.7830
  30   2.0000      -0.500830       -13.6283
  31   2.0000      -0.485543       -13.2123
  32   2.0000      -0.450377       -12.2554
  33   2.0000      -0.447955       -12.1895
  34   2.0000      -0.445890       -12.1333
  35   2.0000      -0.443392       -12.0653
  36   0.0000       0.118313         3.2195
  37   0.0000       0.148496         4.0408
  38   0.0000       0.163620         4.4523
  39   0.0000       0.172418         4.6917
  40   0.0000       0.186564         5.0767

MULLIKEN ATOMIC CHARGES
-----------------------
   0 O :   -0.548053
   1 H :    0.377438
   2 C :   -0.188132
   3 H :    0.131166
   4 H :    0.106137
   5 H :    0.123757
   6 O :   -0.563315
   7 H :    0.371112
   8 C :   -0.173903
   9 H :    0.129356
  10 H :    0.108583
  11 H :    0.125899
  12 O :   -0.548037
  13 H :    0.377448
  14 C :   -0.188207
  15 H :    0.131188
  16 H :    0.106142
  17 H :    0.123748
  18 O :   -0.563361
  19 H :    0.371104
  20 C :   -0.173826
  21 H :    0.129322
  22 H :    0.108559
  23 H :    0.125875
Sum of atomic charges:   -0.0000000

LOEWDIN ATOMIC CHARGES
----------------------
   0 O :   -0.084070
   1 H :    0.167979
   2 C :   -0.393210
   3 H :    0.108802
   4 H :    0.094822
   5 H :    0.103099
   6 O :   -0.087679
   7 H :    0.167208
   8 C :   -0.386200
   9 H :    0.109503
  10 H :    0.095726
  11 H :    0.104083
  12 O :   -0.084068
  13 H :    0.167963
  14 C :   -0.393242
  15 H :    0.108806
  16 H :    0.094825
  17 H :    0.103096
  18 O :   -0.087732
  19 H :    0.167195
  20 C :   -0.386204
  21 H :    0.109496
  22 H :    0.095726
  23 H :    0.104076

  Mayer bond orders larger than 0.100000
B(  0-O ,  1-H ) :   0.7566 B(  0-O ,  2-C ) :   0.8923 B(  0-O ,  7-H ) :   0.1047
B(  2-C ,  3-H ) :   0.9433 B(  2-C ,  4-H ) :   0.9329 B(  2-C ,  5-H ) :   0.9413
B(  6-O ,  7-H ) :   0.7486 B(  6-O ,  8-C ) :   0.8926 B(  8-C ,  9-H ) :   0.9427
B(  8-C , 10-H ) :   0.9353 B(  8-C , 11-H ) :   0.9405 B( 12-O , 13-H ) :   0.7566
B( 12-O , 14-C ) :   0.8923 B( 12-O , 19-H ) :   0.1048 B( 14-C , 15-H ) :   0.9433
B( 14-C , 16-H ) :   0.9329 B( 14-C , 17-H ) :   0.9413 B( 18-O , 19-H ) :   0.7485
B( 18-O , 20-C ) :   0.8927 B( 20-C , 21-H ) :   0.9427 B( 20-C , 22-H ) :   0.9353
B( 20-C , 23-H ) :   0.9405

MP2 TOTAL ENERGY:     -462.080105742 Eh
FINAL SINGLE POINT ENERGY      -462.080105741947

DIPOLE MOMENT
-------------
                                X             Y             Z
Electronic contribution:     -1.18696       3.26642       3.47939
Nuclear contribution   :      1.50512      -4.14219      -4.41245
                        -----------------------------------------
Total Dipole Moment    :      0.31815      -0.87578      -0.93306
                        -----------------------------------------
Magnitude (a.u.)       :      1.31864
Magnitude (Debye)      :      3.35171

Rotational constants in cm-1:     0.046643     0.033911     0.023333
Rotational constants in MHz :  1398.317976  1016.623647   699.499151

                             ****ORCA TERMINATED NORMALLY****
TOTAL RUN TIME: 0 days 0 hours 5 minutes 3 seconds 113 msec
