                         Program Version 4.2.0 -  RELEASE  -
|  1> # 12h2o.su.etal.mol4,5,7,8,10
|  2> ! MP2 def2-TZVP EnGrad TightSCF
|  3>
|  4> %pal
|  5>     nprocs 6
|  6> end
|  7>
|  8> %maxcore 8000
|  9>
| 10> %scf
| 11>     ConvForced true
| 12> end
| 13>
| 14> *xyz 0 1
| 15> O  -0.885520000   1.737840000   0.052730000
| 16> H  -1.032320000   2.090180000  -0.841890000
| 17> H  -1.284090000   0.839590000   0.017130000
| 18> O   0.885520000  -1.737840000   0.052730000
| 19> H   1.284090000  -0.839590000   0.017130000
| 20> H   1.032320000  -2.090180000  -0.841890000
| 21> O  -1.737840000  -0.885520000  -0.052730000
| 22> H  -2.090180000  -1.032320000   0.841890000
| 23> H  -0.839590000  -1.284090000  -0.017130000
| 24> O   1.752130000   0.741530000  -2.896280000
| 25> H   2.036450000   0.920500000  -1.984040000
| 26> H   0.921210000   1.242140000  -2.984230000
| 27> O  -0.923410000   1.794470000  -2.768350000
| 28> H  -1.359750000   2.338250000  -3.430940000
| 29> H  -1.303000000   0.879480000  -2.865760000
| 30> *
| 31>
| 32>                          ****END OF INPUT****

CARTESIAN COORDINATES (ANGSTROEM)
---------------------------------
  O     -0.885520    1.737840    0.052730
  H     -1.032320    2.090180   -0.841890
  H     -1.284090    0.839590    0.017130
  O      0.885520   -1.737840    0.052730
  H      1.284090   -0.839590    0.017130
  H      1.032320   -2.090180   -0.841890
  O     -1.737840   -0.885520   -0.052730
  H     -2.090180   -1.032320    0.841890
  H     -0.839590   -1.284090   -0.017130
  O      1.752130    0.741530   -2.896280
  H      2.036450    0.920500   -1.984040
  H      0.921210    1.242140   -2.984230
  O     -0.923410    1.794470   -2.768350
  H     -1.359750    2.338250   -3.430940
  H     -1.303000    0.879480   -2.865760

 Total Charge           Charge          ....    0
 Multiplicity           Mult            ....    1
 Number of Electrons    NEL             ....   50
 Basis Dimension        Dim             ....  215

ORBITAL ENERGIES
----------------

  NO   OCC          E(Eh)            E(eV)
   0   2.0000     -20.608538      -560.7868
   1   2.0000     -20.599144      -560.5312
   2   2.0000     -20.562502      -559.5341
   3   2.0000     -20.548021      -559.1401
   4   2.0000     -20.508258      -558.0581
   5   2.0000      -1.388789       -37.7909
   6   2.0000      -1.380578       -37.5674
   7   2.0000      -1.347422       -36.6652
   8   2.0000      -1.330085       -36.1934
   9   2.0000      -1.292482       -35.1702
  10   2.0000      -0.754487       -20.5306
  11   2.0000      -0.737187       -20.0599
  12   2.0000      -0.717320       -19.5193
  13   2.0000      -0.699854       -19.0440
  14   2.0000      -0.677151       -18.4262
  15   2.0000      -0.629098       -17.1186
  16   2.0000      -0.620603       -16.8875
  17   2.0000      -0.594198       -16.1690
  18   2.0000      -0.577927       -15.7262
  19   2.0000      -0.554075       -15.0771
  20   2.0000      -0.535043       -14.5593
  21   2.0000      -0.527789       -14.3619
  22   2.0000      -0.496640       -13.5143
  23   2.0000      -0.495202       -13.4751
  24   2.0000      -0.459178       -12.4949
  25   0.0000       0.091085         2.4785
  26   0.0000       0.120157         3.2696
  27   0.0000       0.151472         4.1218
  28   0.0000       0.168976         4.5981
  29   0.0000       0.185792         5.0557

MULLIKEN ATOMIC CHARGES
-----------------------
   0 O :   -0.736978
   1 H :    0.354117
   2 H :    0.339685
   3 O :   -0.687052
   4 H :    0.360479
   5 H :    0.362694
   6 O :   -0.718115
   7 H :    0.352129
   8 H :    0.366978
   9 O :   -0.704205
  10 H :    0.327042
  11 H :    0.361910
  12 O :   -0.713888
  13 H :    0.361863
  14 H :    0.373340
Sum of atomic charges:    0.0000000

LOEWDIN ATOMIC CHARGES
----------------------
   0 O :   -0.372005
   1 H :    0.140582
   2 H :    0.133970
   3 O :   -0.287355
   4 H :    0.179086
   5 H :    0.174982
   6 O :   -0.315427
   7 H :    0.168773
   8 H :    0.144683
   9 O :   -0.344905
  10 H :    0.157136
  11 H :    0.148202
  12 O :   -0.287020
  13 H :    0.166779
  14 H :    0.192519

  Mayer bond orders larger than 0.100000
B(  0-O ,  1-H ) :   0.8352 B(  0-O ,  2-H ) :   0.8017 B(  3-O ,  4-H ) :   0.8280
B(  3-O ,  5-H ) :   0.8333 B(  6-O ,  7-H ) :   0.8418 B(  6-O ,  8-H ) :   0.7797
B(  9-O , 10-H ) :   0.8569 B(  9-O , 11-H ) :   0.8174 B( 12-O , 13-H ) :   0.8329
B( 12-O , 14-H ) :   0.8183

MP2 TOTAL ENERGY:     -381.599507180 Eh
FINAL SINGLE POINT ENERGY      -381.599507180036

DIPOLE MOMENT
-------------
                                X             Y             Z
Electronic contribution:      0.10472      -0.19260      -0.03643
Nuclear contribution   :     -0.67972      -0.19727      -0.72077
                        -----------------------------------------
Total Dipole Moment    :     -0.57500      -0.38986      -0.75720
                        -----------------------------------------
Magnitude (a.u.)       :      1.02760
Magnitude (Debye)      :      2.61196

Rotational constants in cm-1:     0.073051     0.051876     0.036257
Rotational constants in MHz :  2190.014957  1555.215535  1086.969017

                             ****ORCA TERMINATED NORMALLY****
TOTAL RUN TIME: 0 days 0 hours 0 minutes 39 seconds 910 msec
