                         Program Version 4.2.0 -  RELEASE  -
|  1> ! MP2 def2-TZVP EnGrad TightSCF FrozenCore
|  2>
|  3> %pal
|  4>     nprocs 8
|  5> end
|  6>
|  7> %maxcore 8000
|  8>
|  9> %scf
| 10>     ConvForced true
| 11> end
| 12>
| 13> *xyz 0 1
| 14> O   1.735358996  -0.203142318   0.733010781
| 15> H   1.442758996   0.539957682   0.169610781
| 16> H   2.683158996  -0.075442318   0.857310781
| 17> O  -1.665041004   0.324257682   0.855810781
| 18> H  -1.365941004   0.346657682   1.774310781
| 19> H  -1.312341004  -0.521342318   0.503610781
| 20> O   0.132058996   1.399957682  -0.904289219
| 21> H  -0.609541004   1.253257682  -0.273189219
| 22> H   0.011058996   2.290657682  -1.253389219
| 23> O  -0.276941004  -1.610742318  -0.694289219
| 24> H  -0.242441004  -0.928142318  -1.381989219
| 25> H   0.576958996  -1.482142318  -0.241389219
| 26> *
| 27>
| 28>
| 29>                          ****END OF INPUT****

CARTESIAN COORDINATES (ANGSTROEM)
---------------------------------
  O      1.735359   -0.203142    0.733011
  H      1.442759    0.539958    0.169611
  H      2.683159   -0.075442    0.857311
  O     -1.665041    0.324258    0.855811
  H     -1.365941    0.346658    1.774311
  H     -1.312341   -0.521342    0.503611
  O      0.132059    1.399958   -0.904289
  H     -0.609541    1.253258   -0.273189
  H      0.011059    2.290658   -1.253389
  O     -0.276941   -1.610742   -0.694289
  H     -0.242441   -0.928142   -1.381989
  H      0.576959   -1.482142   -0.241389

 Total Charge           Charge          ....    0
 Multiplicity           Mult            ....    1
 Number of Electrons    NEL             ....   40
 Basis Dimension        Dim             ....  172

ORBITAL ENERGIES
----------------

  NO   OCC          E(Eh)            E(eV)
   0   2.0000     -20.568096      -559.6863
   1   2.0000     -20.562923      -559.5456
   2   2.0000     -20.560843      -559.4890
   3   2.0000     -20.549679      -559.1852
   4   2.0000      -1.363930       -37.1144
   5   2.0000      -1.347658       -36.6716
   6   2.0000      -1.343086       -36.5472
   7   2.0000      -1.331638       -36.2357
   8   2.0000      -0.739789       -20.1307
   9   2.0000      -0.720333       -19.6013
  10   2.0000      -0.705610       -19.2006
  11   2.0000      -0.692851       -18.8534
  12   2.0000      -0.607619       -16.5342
  13   2.0000      -0.596928       -16.2432
  14   2.0000      -0.587790       -15.9946
  15   2.0000      -0.560487       -15.2516
  16   2.0000      -0.518999       -14.1227
  17   2.0000      -0.510951       -13.9037
  18   2.0000      -0.508596       -13.8396
  19   2.0000      -0.492871       -13.4117
  20   0.0000       0.117884         3.2078
  21   0.0000       0.153449         4.1756
  22   0.0000       0.164010         4.4629
  23   0.0000       0.197415         5.3719
  24   0.0000       0.267738         7.2855

MULLIKEN ATOMIC CHARGES
-----------------------
   0 O :   -0.718632
   1 H :    0.364614
   2 H :    0.338065
   3 O :   -0.715387
   4 H :    0.348248
   5 H :    0.378888
   6 O :   -0.737514
   7 H :    0.381924
   8 H :    0.343334
   9 O :   -0.710324
  10 H :    0.352070
  11 H :    0.374714
Sum of atomic charges:    0.0000000

LOEWDIN ATOMIC CHARGES
----------------------
   0 O :   -0.327027
   1 H :    0.152779
   2 H :    0.160468
   3 O :   -0.304784
   4 H :    0.163538
   5 H :    0.157151
   6 O :   -0.327538
   7 H :    0.153337
   8 H :    0.161144
   9 O :   -0.303898
  10 H :    0.158461
  11 H :    0.156369

  Mayer bond orders larger than 0.100000
B(  0-O ,  1-H ) :   0.7940 B(  0-O ,  2-H ) :   0.8496 B(  3-O ,  4-H ) :   0.8424
B(  3-O ,  5-H ) :   0.7813 B(  6-O ,  7-H ) :   0.7639 B(  6-O ,  8-H ) :   0.8462
B(  9-O , 10-H ) :   0.8354 B(  9-O , 11-H ) :   0.8058

MP2 TOTAL ENERGY:     -305.295203269 Eh
FINAL SINGLE POINT ENERGY      -305.295203269066

DIPOLE MOMENT
-------------
                                X             Y             Z
Electronic contribution:     -0.23152      -0.22547       0.00344
Nuclear contribution   :      1.10937       1.33411       0.14516
                        -----------------------------------------
Total Dipole Moment    :      0.87785       1.10864       0.14860
                        -----------------------------------------
Magnitude (a.u.)       :      1.42189
Magnitude (Debye)      :      3.61417

Rotational constants in cm-1:     0.125997     0.106938     0.087007
Rotational constants in MHz :  3777.287233  3205.933136  2608.416240

                             ****ORCA TERMINATED NORMALLY****
TOTAL RUN TIME: 0 days 0 hours 0 minutes 23 seconds 621 msec
