                         Program Version 4.2.0 -  RELEASE  -
|  1> # 12meoh.boyd.etal.mol2,11
|  2> ! MP2 def2-TZVP EnGrad TightSCF
|  3>
|  4> %pal
|  5>     nprocs 6
|  6> end
|  7>
|  8> %maxcore 8000
|  9>
| 10> %scf
| 11>     ConvForced true
| 12> end
| 13>
| 14> *xyz 0 1
| 15> O  -3.839777402   2.233595098   0.660436763
| 16> H  -2.958345897   1.907036203   0.973588449
| 17> C  -3.600368059   3.168790682  -0.390480452
| 18> H  -4.551709193   3.344148967  -0.901254863
| 19> H  -2.868237594   2.789240199  -1.113617525
| 20> H  -3.243594915   4.128998607   0.009549480
| 21> O   3.252955559   0.588596242   1.858934315
| 22> H   3.621209177  -0.251605199   1.476063364
| 23> C   4.040824528   0.944288422   2.989639460
| 24> H   3.670521436   1.902573549   3.363847391
| 25> H   5.103749934   1.055868619   2.734277559
| 26> H   3.948540682   0.200279590   3.792908518
| 27> *
| 28>
| 29>                          ****END OF INPUT****

CARTESIAN COORDINATES (ANGSTROEM)
---------------------------------
  O     -3.839777    2.233595    0.660437
  H     -2.958346    1.907036    0.973588
  C     -3.600368    3.168791   -0.390480
  H     -4.551709    3.344149   -0.901255
  H     -2.868238    2.789240   -1.113618
  H     -3.243595    4.128999    0.009549
  O      3.252956    0.588596    1.858934
  H      3.621209   -0.251605    1.476063
  C      4.040825    0.944288    2.989639
  H      3.670521    1.902574    3.363847
  H      5.103750    1.055869    2.734278
  H      3.948541    0.200280    3.792909

 Total Charge           Charge          ....    0
 Multiplicity           Mult            ....    1
 Number of Electrons    NEL             ....   36
 Basis Dimension        Dim             ....  172

ORBITAL ENERGIES
----------------

  NO   OCC          E(Eh)            E(eV)
   0   2.0000     -20.560395      -559.4768
   1   2.0000     -20.553119      -559.2788
   2   2.0000     -11.274217      -306.7870
   3   2.0000     -11.268433      -306.6296
   4   2.0000      -1.349680       -36.7266
   5   2.0000      -1.342625       -36.5347
   6   2.0000      -0.922382       -25.0993
   7   2.0000      -0.916200       -24.9311
   8   2.0000      -0.684548       -18.6275
   9   2.0000      -0.677937       -18.4476
  10   2.0000      -0.619726       -16.8636
  11   2.0000      -0.613202       -16.6861
  12   2.0000      -0.593838       -16.1591
  13   2.0000      -0.586393       -15.9566
  14   2.0000      -0.503028       -13.6881
  15   2.0000      -0.498090       -13.5537
  16   2.0000      -0.452074       -12.3016
  17   2.0000      -0.445572       -12.1246
  18   0.0000       0.132521         3.6061
  19   0.0000       0.139610         3.7990
  20   0.0000       0.173421         4.7190
  21   0.0000       0.179871         4.8945
  22   0.0000       0.226734         6.1698

MULLIKEN ATOMIC CHARGES
-----------------------
   0 O :   -0.497795
   1 H :    0.323074
   2 C :   -0.174572
   3 H :    0.127790
   4 H :    0.111940
   5 H :    0.109564
   6 O :   -0.499188
   7 H :    0.322178
   8 C :   -0.172718
   9 H :    0.129233
  10 H :    0.110358
  11 H :    0.110137
Sum of atomic charges:    0.0000000

LOEWDIN ATOMIC CHARGES
----------------------
   0 O :   -0.111269
   1 H :    0.188923
   2 C :   -0.378737
   3 H :    0.109260
   4 H :    0.096117
   5 H :    0.095706
   6 O :   -0.110216
   7 H :    0.190184
   8 C :   -0.381570
   9 H :    0.110298
  10 H :    0.095717
  11 H :    0.095587

  Mayer bond orders larger than 0.100000
B(  0-O ,  1-H ) :   0.8430 B(  0-O ,  2-C ) :   0.9272 B(  2-C ,  3-H ) :   0.9381
B(  2-C ,  4-H ) :   0.9412 B(  2-C ,  5-H ) :   0.9377 B(  6-O ,  7-H ) :   0.8421
B(  6-O ,  8-C ) :   0.9251 B(  8-C ,  9-H ) :   0.9376 B(  8-C , 10-H ) :   0.9390
B(  8-C , 11-H ) :   0.9388

MP2 TOTAL ENERGY:     -231.013609788 Eh
FINAL SINGLE POINT ENERGY      -231.013609788268

DIPOLE MOMENT
-------------
                                X             Y             Z
Electronic contribution:     -1.50008      -1.48363      -0.11314
Nuclear contribution   :      2.70440       1.28161       0.09869
                        -----------------------------------------
Total Dipole Moment    :      1.20432      -0.20202      -0.01445
                        -----------------------------------------
Magnitude (a.u.)       :      1.22124
Magnitude (Debye)      :      3.10413

Rotational constants in cm-1:     0.509274     0.016323     0.016200
Rotational constants in MHz : 15267.660692   489.348602   485.660443

                             ****ORCA TERMINATED NORMALLY****
TOTAL RUN TIME: 0 days 0 hours 0 minutes 16 seconds 32 msec
