                         Program Version 4.2.0 -  RELEASE  -
|  1> # 12mecn.remya.etal.2.mol1,6,9
|  2> ! MP2 def2-TZVP EnGrad TightSCF
|  3>
|  4> %pal
|  5>     nprocs 6
|  6> end
|  7>
|  8> %maxcore 8000
|  9>
| 10> %scf
| 11>     ConvForced true
| 12> end
| 13>
| 14> *xyz 0 1
| 15> C  -4.697980000  -0.249690000   1.746215000
| 16> H  -4.927570000   0.755530000   2.111799000
| 17> H  -3.709180000  -0.561560000   2.093253000
| 18> H  -5.432280000  -0.961520000   2.128066000
| 19> C  -4.714100000  -0.247110000   0.301670000
| 20> N  -4.729750000  -0.234960000  -0.865260000
| 21> C   5.300864000  -2.920090000   1.401103000
| 22> H   5.986071000  -2.139770000   1.737487000
| 23> H   5.636642000  -3.888750000   1.778233000
| 24> H   4.307359000  -2.697240000   1.799307000
| 25> C   5.234791000  -2.933140000  -0.043290000
| 26> N   5.170868000  -2.941760000  -1.207750000
| 27> C   0.923766000   4.000693000  -1.575910000
| 28> H   0.011949000   4.478423000  -1.939550000
| 29> H   0.947903000   2.966558000  -1.929960000
| 30> H   1.805950000   4.519548000  -1.956520000
| 31> C   0.942834000   3.994846000  -0.131200000
| 32> N   0.960035000   3.982544000   1.035639000
| 33> *
| 34>
| 35>                          ****END OF INPUT****

CARTESIAN COORDINATES (ANGSTROEM)
---------------------------------
  C     -4.697980   -0.249690    1.746215
  H     -4.927570    0.755530    2.111799
  H     -3.709180   -0.561560    2.093253
  H     -5.432280   -0.961520    2.128066
  C     -4.714100   -0.247110    0.301670
  N     -4.729750   -0.234960   -0.865260
  C      5.300864   -2.920090    1.401103
  H      5.986071   -2.139770    1.737487
  H      5.636642   -3.888750    1.778233
  H      4.307359   -2.697240    1.799307
  C      5.234791   -2.933140   -0.043290
  N      5.170868   -2.941760   -1.207750
  C      0.923766    4.000693   -1.575910
  H      0.011949    4.478423   -1.939550
  H      0.947903    2.966558   -1.929960
  H      1.805950    4.519548   -1.956520
  C      0.942834    3.994846   -0.131200
  N      0.960035    3.982544    1.035639

 Total Charge           Charge          ....    0
 Multiplicity           Mult            ....    1
 Number of Electrons    NEL             ....   66
 Basis Dimension        Dim             ....  333

ORBITAL ENERGIES
----------------

  NO   OCC          E(Eh)            E(eV)
   0   2.0000     -15.573443      -423.7749
   1   2.0000     -15.573147      -423.7669
   2   2.0000     -15.572992      -423.7627
   3   2.0000     -11.284690      -307.0720
   4   2.0000     -11.284170      -307.0579
   5   2.0000     -11.282497      -307.0123
   6   2.0000     -11.280548      -306.9593
   7   2.0000     -11.280522      -306.9586
   8   2.0000     -11.280336      -306.9536
   9   2.0000      -1.215132       -33.0654
  10   2.0000      -1.214536       -33.0492
  11   2.0000      -1.214431       -33.0463
  12   2.0000      -1.043854       -28.4047
  13   2.0000      -1.043701       -28.4006
  14   2.0000      -1.042656       -28.3721
  15   2.0000      -0.701247       -19.0819
  16   2.0000      -0.699666       -19.0389
  17   2.0000      -0.698948       -19.0194
  18   2.0000      -0.633485       -17.2380
  19   2.0000      -0.632767       -17.2185
  20   2.0000      -0.632118       -17.2008
  21   2.0000      -0.630000       -17.1432
  22   2.0000      -0.629401       -17.1269
  23   2.0000      -0.628059       -17.0903
  24   2.0000      -0.556428       -15.1412
  25   2.0000      -0.556373       -15.1397
  26   2.0000      -0.556044       -15.1307
  27   2.0000      -0.458499       -12.4764
  28   2.0000      -0.457995       -12.4627
  29   2.0000      -0.457884       -12.4596
  30   2.0000      -0.457759       -12.4563
  31   2.0000      -0.457257       -12.4426
  32   2.0000      -0.457157       -12.4399
  33   0.0000       0.119273         3.2456
  34   0.0000       0.119541         3.2529
  35   0.0000       0.122486         3.3330
  36   0.0000       0.171211         4.6589
  37   0.0000       0.171496         4.6666

MULLIKEN ATOMIC CHARGES
-----------------------
   0 C :   -0.277536
   1 H :    0.173547
   2 H :    0.172676
   3 H :    0.171508
   4 C :   -0.145848
   5 N :   -0.094347
   6 C :   -0.280119
   7 H :    0.172802
   8 H :    0.172165
   9 H :    0.172555
  10 C :   -0.145807
  11 N :   -0.091596
  12 C :   -0.277444
  13 H :    0.173345
  14 H :    0.175890
  15 H :    0.171758
  16 C :   -0.145788
  17 N :   -0.097760
Sum of atomic charges:    0.0000000

LOEWDIN ATOMIC CHARGES
----------------------
   0 C :   -0.283143
   1 H :    0.153609
   2 H :    0.153284
   3 H :    0.151469
   4 C :   -0.219420
   5 N :    0.044201
   6 C :   -0.283586
   7 H :    0.151867
   8 H :    0.151347
   9 H :    0.153309
  10 C :   -0.218728
  11 N :    0.045791
  12 C :   -0.282201
  13 H :    0.152284
  14 H :    0.154967
  15 H :    0.152084
  16 C :   -0.218589
  17 N :    0.041455

  Mayer bond orders larger than 0.100000
B(  0-C ,  1-H ) :   0.9153 B(  0-C ,  2-H ) :   0.9161 B(  0-C ,  3-H ) :   0.9171
B(  0-C ,  4-C ) :   0.9020 B(  4-C ,  5-N ) :   2.8381 B(  6-C ,  7-H ) :   0.9166
B(  6-C ,  8-H ) :   0.9162 B(  6-C ,  9-H ) :   0.9165 B(  6-C , 10-C ) :   0.9027
B( 10-C , 11-N ) :   2.8377 B( 12-C , 13-H ) :   0.9156 B( 12-C , 14-H ) :   0.9156
B( 12-C , 15-H ) :   0.9163 B( 12-C , 16-C ) :   0.9019 B( 16-C , 17-N ) :   2.8405

MP2 TOTAL ENERGY:     -397.450589806 Eh
FINAL SINGLE POINT ENERGY      -397.450589806345

DIPOLE MOMENT
-------------
                                X             Y             Z
Electronic contribution:     -0.13973      -0.01122      -3.13344
Nuclear contribution   :      0.21289       0.01877       4.65001
                        -----------------------------------------
Total Dipole Moment    :      0.07316       0.00755       1.51657
                        -----------------------------------------
Magnitude (a.u.)       :      1.51835
Magnitude (Debye)      :      3.85933

Rotational constants in cm-1:     0.016683     0.007107     0.005494
Rotational constants in MHz :   500.129090   213.050902   164.708551

                             ****ORCA TERMINATED NORMALLY****
TOTAL RUN TIME: 0 days 0 hours 2 minutes 54 seconds 345 msec
