                         Program Version 3.0.3 - RELEASE   -
|  1> ! B3LYP Def2-TZVP def2-TZVP/J RIJCOSX TightSCF Grid4 D3BJ
|  2>
|  3> %pal nprocs 12 end
|  4>
|  5> %scf
|  6>         maxiter 400
|  7> end
|  8>
|  9> * xyz  0  1
| 10> O  0.880271	-3.160211	-0.309932
| 11> H  0.482505	-2.514323	-0.951266
| 12> H  0.981378	-3.993672	-0.788245
| 13> O  -2.715912	1.507512	-0.892322
| 14> H  -2.262707	1.291286	-1.735750
| 15> H  -2.638963	0.693547	-0.348184
| 16> O  2.724937	-1.480600	0.944598
| 17> H  2.231730	-2.214728	0.523772
| 18> H  2.260804	-1.344024	1.795654
| 19> O  -0.968913	3.069843	0.209280
| 20> H  -1.359730	3.929910	0.413230
| 21> H  -1.709999	2.511774	-0.202648
| 22> O  0.928146	-0.940593	3.058896
| 23> H  1.111129	-0.790099	3.995357
| 24> H  0.677975	-0.059091	2.677487
| 25> O  -0.878788	-2.689036	1.821858
| 26> H  -0.266468	-2.220797	2.426103
| 27> H  -0.291605	-3.034115	1.117339
| 28> O  -0.252453	-1.124236	-1.503189
| 29> H  -0.866701	-0.916162	-0.743231
| 30> H  -0.521662	-0.519254	-2.233832
| 31> O  -1.693130	-0.482878	0.622531
| 32> H  -1.592330	-1.344503	1.120791
| 33> H  -1.024144	0.118724	1.029947
| 34> O  0.328685	1.130263	1.537268
| 35> H  0.929402	0.940193	0.761624
| 36> H  -0.111958	1.979204	1.302659
| 37> O  1.781962	0.470481	-0.585304
| 38> H  1.102801	-0.120164	-0.992632
| 39> H  2.352133	-0.173237	-0.078683
| 40> O  0.790302	2.658980	-1.888828
| 41> H  0.249448	2.980740	-1.134683
| 42> H  1.428428	2.035404	-1.480344
| 43> O  -0.900304	1.010587	-2.973933
| 44> H  -0.218011	1.681706	-2.635675
| 45> H  -0.997257	1.173966	-3.921315
| 46> **                         ****END OF INPUT****

CARTESIAN COORDINATES (ANGSTROEM)
---------------------------------
  O      0.880271   -3.160211   -0.309932
  H      0.482505   -2.514323   -0.951266
  H      0.981378   -3.993672   -0.788245
  O     -2.715912    1.507512   -0.892322
  H     -2.262707    1.291286   -1.735750
  H     -2.638963    0.693547   -0.348184
  O      2.724937   -1.480600    0.944598
  H      2.231730   -2.214728    0.523772
  H      2.260804   -1.344024    1.795654
  O     -0.968913    3.069843    0.209280
  H     -1.359730    3.929910    0.413230
  H     -1.709999    2.511774   -0.202648
  O      0.928146   -0.940593    3.058896
  H      1.111129   -0.790099    3.995357
  H      0.677975   -0.059091    2.677487
  O     -0.878788   -2.689036    1.821858
  H     -0.266468   -2.220797    2.426103
  H     -0.291605   -3.034115    1.117339
  O     -0.252453   -1.124236   -1.503189
  H     -0.866701   -0.916162   -0.743231
  H     -0.521662   -0.519254   -2.233832
  O     -1.693130   -0.482878    0.622531
  H     -1.592330   -1.344503    1.120791
  H     -1.024144    0.118724    1.029947
  O      0.328685    1.130263    1.537268
  H      0.929402    0.940193    0.761624
  H     -0.111958    1.979204    1.302659
  O      1.781962    0.470481   -0.585304
  H      1.102801   -0.120164   -0.992632
  H      2.352133   -0.173237   -0.078683
  O      0.790302    2.658980   -1.888828
  H      0.249448    2.980740   -1.134683
  H      1.428428    2.035404   -1.480344
  O     -0.900304    1.010587   -2.973933
  H     -0.218011    1.681706   -2.635675
  H     -0.997257    1.173966   -3.921315

 Total Charge           Charge          ....    0
 Multiplicity           Mult            ....    1
 Number of Electrons    NEL             ....  120
 Basis Dimension        Dim             ....  516

ORBITAL ENERGIES
----------------

  NO   OCC          E(Eh)            E(eV)
   0   2.0000     -19.149106      -521.0737
   1   2.0000     -19.148812      -521.0657
   2   2.0000     -19.143905      -520.9321
   3   2.0000     -19.143540      -520.9222
   4   2.0000     -19.129651      -520.5443
   5   2.0000     -19.129107      -520.5295
   6   2.0000     -19.124690      -520.4093
   7   2.0000     -19.122729      -520.3559
   8   2.0000     -19.122674      -520.3544
   9   2.0000     -19.121518      -520.3230
  10   2.0000     -19.114494      -520.1318
  11   2.0000     -19.114007      -520.1186
  12   2.0000      -1.043532       -28.3959
  13   2.0000      -1.035457       -28.1762
  14   2.0000      -1.034927       -28.1618
  15   2.0000      -1.027255       -27.9530
  16   2.0000      -1.020783       -27.7769
  17   2.0000      -1.017298       -27.6821
  18   2.0000      -1.006845       -27.3976
  19   2.0000      -1.004496       -27.3337
  20   2.0000      -1.004306       -27.3285
  21   2.0000      -0.997250       -27.1366
  22   2.0000      -0.991053       -26.9679
  23   2.0000      -0.982352       -26.7311
  24   2.0000      -0.569499       -15.4969
  25   2.0000      -0.567242       -15.4354
  26   2.0000      -0.553737       -15.0679
  27   2.0000      -0.551730       -15.0133
  28   2.0000      -0.541734       -14.7413
  29   2.0000      -0.536093       -14.5878
  30   2.0000      -0.533101       -14.5064
  31   2.0000      -0.530521       -14.4362
  32   2.0000      -0.522711       -14.2237
  33   2.0000      -0.520914       -14.1748
  34   2.0000      -0.519527       -14.1370
  35   2.0000      -0.516147       -14.0451
  36   2.0000      -0.472195       -12.8491
  37   2.0000      -0.448619       -12.2075
  38   2.0000      -0.444836       -12.1046
  39   2.0000      -0.426914       -11.6169
  40   2.0000      -0.418223       -11.3804
  41   2.0000      -0.416669       -11.3382
  42   2.0000      -0.405607       -11.0371
  43   2.0000      -0.397758       -10.8235
  44   2.0000      -0.390498       -10.6260
  45   2.0000      -0.383457       -10.4344
  46   2.0000      -0.376005       -10.2316
  47   2.0000      -0.358247        -9.7484
  48   2.0000      -0.341933        -9.3045
  49   2.0000      -0.340935        -9.2773
  50   2.0000      -0.340183        -9.2568
  51   2.0000      -0.338979        -9.2241
  52   2.0000      -0.327822        -8.9205
  53   2.0000      -0.326556        -8.8860
  54   2.0000      -0.324264        -8.8237
  55   2.0000      -0.320539        -8.7223
  56   2.0000      -0.319225        -8.6866
  57   2.0000      -0.318038        -8.6543
  58   2.0000      -0.304853        -8.2955
  59   2.0000      -0.303697        -8.2640
  60   0.0000      -0.001559        -0.0424
  61   0.0000       0.016500         0.4490
  62   0.0000       0.023371         0.6360
  63   0.0000       0.032715         0.8902
  64   0.0000       0.073085         1.9887

MULLIKEN ATOMIC CHARGES
-----------------------
   0 O :   -0.705871
   1 H :    0.380788
   2 H :    0.333195
   3 O :   -0.679290
   4 H :    0.351449
   5 H :    0.379524
   6 O :   -0.695745
   7 H :    0.351527
   8 H :    0.345441
   9 O :   -0.729788
  10 H :    0.334113
  11 H :    0.367119
  12 O :   -0.705396
  13 H :    0.333045
  14 H :    0.380514
  15 O :   -0.688454
  16 H :    0.350206
  17 H :    0.346751
  18 O :   -0.744843
  19 H :    0.357695
  20 H :    0.372932
  21 O :   -0.752936
  22 H :    0.389480
  23 H :    0.338765
  24 O :   -0.741005
  25 H :    0.357351
  26 H :    0.371505
  27 O :   -0.743755
  28 H :    0.338094
  29 H :    0.388481
  30 O :   -0.678892
  31 H :    0.350718
  32 H :    0.376421
  33 O :   -0.730195
  34 H :    0.366990
  35 H :    0.334065
Sum of atomic charges:   -0.0000000

LOEWDIN ATOMIC CHARGES
----------------------
   0 O :   -0.282347
   1 H :    0.145451
   2 H :    0.161278
   3 O :   -0.263965
   4 H :    0.141738
   5 H :    0.147550
   6 O :   -0.289720
   7 H :    0.140079
   8 H :    0.140198
   9 O :   -0.295988
  10 H :    0.158011
  11 H :    0.136488
  12 O :   -0.285644
  13 H :    0.161240
  14 H :    0.146236
  15 O :   -0.285038
  16 H :    0.140388
  17 H :    0.138704
  18 O :   -0.289610
  19 H :    0.129518
  20 H :    0.139415
  21 O :   -0.290974
  22 H :    0.143369
  23 H :    0.129551
  24 O :   -0.290088
  25 H :    0.131485
  26 H :    0.141920
  27 O :   -0.294645
  28 H :    0.129839
  29 H :    0.145847
  30 O :   -0.267414
  31 H :    0.138534
  32 H :    0.150086
  33 O :   -0.298316
  34 H :    0.138752
  35 H :    0.158071

  Mayer bond orders larger than 0.1
B(  0-O ,  1-H ) :   0.7859 B(  0-O ,  2-H ) :   0.8900 B(  3-O ,  4-H ) :   0.8366
B(  3-O ,  5-H ) :   0.8222 B(  3-O , 11-H ) :   0.1932 B(  6-O ,  7-H ) :   0.8425
B(  6-O ,  8-H ) :   0.8447 B(  6-O , 29-H ) :   0.1190 B(  9-O , 10-H ) :   0.8895
B(  9-O , 11-H ) :   0.7230 B( 12-O , 13-H ) :   0.8905 B( 12-O , 14-H ) :   0.7897
B( 15-O , 16-H ) :   0.8460 B( 15-O , 17-H ) :   0.8418 B( 15-O , 22-H ) :   0.1395
B( 18-O , 19-H ) :   0.7558 B( 18-O , 20-H ) :   0.8040 B( 18-O , 28-H ) :   0.1303
B( 19-H , 21-O ) :   0.1642 B( 20-H , 33-O ) :   0.1063 B( 21-O , 22-H ) :   0.7645
B( 21-O , 23-H ) :   0.7955 B( 23-H , 24-O ) :   0.1336 B( 24-O , 25-H ) :   0.7557
B( 24-O , 26-H ) :   0.8104 B( 25-H , 27-O ) :   0.1686 B( 27-O , 28-H ) :   0.7980
B( 27-O , 29-H ) :   0.7803 B( 30-O , 31-H ) :   0.8305 B( 30-O , 32-H ) :   0.8296
B( 30-O , 34-H ) :   0.1934 B( 33-O , 34-H ) :   0.7243 B( 33-O , 35-H ) :   0.8895

Dispersion correction           -0.043238544
FINAL SINGLE POINT ENERGY      -917.340674614635

DIPOLE MOMENT
-------------
                                X             Y             Z
Electronic contribution:     -0.01828       0.01029       0.00485
Nuclear contribution   :     -0.08607       0.12657      -0.13682
                        -----------------------------------------
Total Dipole Moment    :     -0.10436       0.13686      -0.13196
                        -----------------------------------------
Magnitude (a.u.)       :      0.21688
Magnitude (Debye)      :      0.55125

                             ****ORCA TERMINATED NORMALLY****
TOTAL RUN TIME: 0 days 0 hours 1 minutes 28 seconds 941 msec
