                         Program Version 3.0.3 - RELEASE   -
|  1> ! wB97X-D3 Def2-TZVP def2-TZVP/J RIJCOSX TightSCF Grid4
|  2>
|  3> %pal nprocs 12 end
|  4>
|  5> %scf
|  6>         maxiter 400
|  7> end
|  8>
|  9> * xyz  0  1
| 10> O  0.880271	-3.160211	-0.309932
| 11> H  0.482505	-2.514323	-0.951266
| 12> H  0.981378	-3.993672	-0.788245
| 13> O  -2.715912	1.507512	-0.892322
| 14> H  -2.262707	1.291286	-1.735750
| 15> H  -2.638963	0.693547	-0.348184
| 16> O  2.724937	-1.480600	0.944598
| 17> H  2.231730	-2.214728	0.523772
| 18> H  2.260804	-1.344024	1.795654
| 19> O  -0.968913	3.069843	0.209280
| 20> H  -1.359730	3.929910	0.413230
| 21> H  -1.709999	2.511774	-0.202648
| 22> O  0.928146	-0.940593	3.058896
| 23> H  1.111129	-0.790099	3.995357
| 24> H  0.677975	-0.059091	2.677487
| 25> O  -0.878788	-2.689036	1.821858
| 26> H  -0.266468	-2.220797	2.426103
| 27> H  -0.291605	-3.034115	1.117339
| 28> O  -0.252453	-1.124236	-1.503189
| 29> H  -0.866701	-0.916162	-0.743231
| 30> H  -0.521662	-0.519254	-2.233832
| 31> O  -1.693130	-0.482878	0.622531
| 32> H  -1.592330	-1.344503	1.120791
| 33> H  -1.024144	0.118724	1.029947
| 34> O  0.328685	1.130263	1.537268
| 35> H  0.929402	0.940193	0.761624
| 36> H  -0.111958	1.979204	1.302659
| 37> O  1.781962	0.470481	-0.585304
| 38> H  1.102801	-0.120164	-0.992632
| 39> H  2.352133	-0.173237	-0.078683
| 40> O  0.790302	2.658980	-1.888828
| 41> H  0.249448	2.980740	-1.134683
| 42> H  1.428428	2.035404	-1.480344
| 43> O  -0.900304	1.010587	-2.973933
| 44> H  -0.218011	1.681706	-2.635675
| 45> H  -0.997257	1.173966	-3.921315
| 46> **                         ****END OF INPUT****

CARTESIAN COORDINATES (ANGSTROEM)
---------------------------------
  O      0.880271   -3.160211   -0.309932
  H      0.482505   -2.514323   -0.951266
  H      0.981378   -3.993672   -0.788245
  O     -2.715912    1.507512   -0.892322
  H     -2.262707    1.291286   -1.735750
  H     -2.638963    0.693547   -0.348184
  O      2.724937   -1.480600    0.944598
  H      2.231730   -2.214728    0.523772
  H      2.260804   -1.344024    1.795654
  O     -0.968913    3.069843    0.209280
  H     -1.359730    3.929910    0.413230
  H     -1.709999    2.511774   -0.202648
  O      0.928146   -0.940593    3.058896
  H      1.111129   -0.790099    3.995357
  H      0.677975   -0.059091    2.677487
  O     -0.878788   -2.689036    1.821858
  H     -0.266468   -2.220797    2.426103
  H     -0.291605   -3.034115    1.117339
  O     -0.252453   -1.124236   -1.503189
  H     -0.866701   -0.916162   -0.743231
  H     -0.521662   -0.519254   -2.233832
  O     -1.693130   -0.482878    0.622531
  H     -1.592330   -1.344503    1.120791
  H     -1.024144    0.118724    1.029947
  O      0.328685    1.130263    1.537268
  H      0.929402    0.940193    0.761624
  H     -0.111958    1.979204    1.302659
  O      1.781962    0.470481   -0.585304
  H      1.102801   -0.120164   -0.992632
  H      2.352133   -0.173237   -0.078683
  O      0.790302    2.658980   -1.888828
  H      0.249448    2.980740   -1.134683
  H      1.428428    2.035404   -1.480344
  O     -0.900304    1.010587   -2.973933
  H     -0.218011    1.681706   -2.635675
  H     -0.997257    1.173966   -3.921315

 Total Charge           Charge          ....    0
 Multiplicity           Mult            ....    1
 Number of Electrons    NEL             ....  120
 Basis Dimension        Dim             ....  516

ORBITAL ENERGIES
----------------

  NO   OCC          E(Eh)            E(eV)
   0   2.0000     -19.256731      -524.0023
   1   2.0000     -19.256510      -523.9963
   2   2.0000     -19.251581      -523.8621
   3   2.0000     -19.251172      -523.8510
   4   2.0000     -19.238015      -523.4930
   5   2.0000     -19.237528      -523.4797
   6   2.0000     -19.232603      -523.3457
   7   2.0000     -19.231104      -523.3049
   8   2.0000     -19.230530      -523.2893
   9   2.0000     -19.229944      -523.2734
  10   2.0000     -19.222189      -523.0624
  11   2.0000     -19.221839      -523.0528
  12   2.0000      -1.160181       -31.5701
  13   2.0000      -1.151369       -31.3303
  14   2.0000      -1.150864       -31.3166
  15   2.0000      -1.142945       -31.1011
  16   2.0000      -1.136674       -30.9305
  17   2.0000      -1.133482       -30.8436
  18   2.0000      -1.122530       -30.5456
  19   2.0000      -1.120076       -30.4788
  20   2.0000      -1.119921       -30.4746
  21   2.0000      -1.112532       -30.2735
  22   2.0000      -1.106404       -30.1068
  23   2.0000      -1.097556       -29.8660
  24   2.0000      -0.674140       -18.3443
  25   2.0000      -0.671747       -18.2792
  26   2.0000      -0.657435       -17.8897
  27   2.0000      -0.655060       -17.8251
  28   2.0000      -0.646495       -17.5920
  29   2.0000      -0.640139       -17.4191
  30   2.0000      -0.636976       -17.3330
  31   2.0000      -0.633768       -17.2457
  32   2.0000      -0.626171       -17.0390
  33   2.0000      -0.624300       -16.9881
  34   2.0000      -0.622653       -16.9432
  35   2.0000      -0.619217       -16.8497
  36   2.0000      -0.577834       -15.7237
  37   2.0000      -0.552749       -15.0411
  38   2.0000      -0.547923       -14.9097
  39   2.0000      -0.530209       -14.4277
  40   2.0000      -0.519390       -14.1333
  41   2.0000      -0.518304       -14.1038
  42   2.0000      -0.506783       -13.7903
  43   2.0000      -0.500348       -13.6152
  44   2.0000      -0.490170       -13.3382
  45   2.0000      -0.484551       -13.1853
  46   2.0000      -0.475996       -12.9525
  47   2.0000      -0.457241       -12.4422
  48   2.0000      -0.441270       -12.0076
  49   2.0000      -0.439952       -11.9717
  50   2.0000      -0.439181       -11.9507
  51   2.0000      -0.437910       -11.9161
  52   2.0000      -0.426828       -11.6146
  53   2.0000      -0.425193       -11.5701
  54   2.0000      -0.423321       -11.5191
  55   2.0000      -0.419392       -11.4122
  56   2.0000      -0.418049       -11.3757
  57   2.0000      -0.416737       -11.3400
  58   2.0000      -0.403305       -10.9745
  59   2.0000      -0.402193       -10.9442
  60   0.0000       0.080637         2.1942
  61   0.0000       0.102972         2.8020
  62   0.0000       0.111511         3.0344
  63   0.0000       0.122025         3.3205
  64   0.0000       0.158231         4.3057

MULLIKEN ATOMIC CHARGES
-----------------------
   0 O :   -0.733104
   1 H :    0.387486
   2 H :    0.353423
   3 O :   -0.691183
   4 H :    0.358231
   5 H :    0.390587
   6 O :   -0.707202
   7 H :    0.357610
   8 H :    0.351530
   9 O :   -0.757992
  10 H :    0.355156
  11 H :    0.369370
  12 O :   -0.732410
  13 H :    0.353323
  14 H :    0.386602
  15 O :   -0.699789
  16 H :    0.356503
  17 H :    0.352552
  18 O :   -0.758276
  19 H :    0.356311
  20 H :    0.386862
  21 O :   -0.766845
  22 H :    0.404527
  23 H :    0.336463
  24 O :   -0.754498
  25 H :    0.356989
  26 H :    0.385804
  27 O :   -0.758076
  28 H :    0.336064
  29 H :    0.403515
  30 O :   -0.690442
  31 H :    0.356929
  32 H :    0.387283
  33 O :   -0.758457
  34 H :    0.369956
  35 H :    0.355199
Sum of atomic charges:   -0.0000000

LOEWDIN ATOMIC CHARGES
----------------------
   0 O :   -0.286220
   1 H :    0.146047
   2 H :    0.164126
   3 O :   -0.265568
   4 H :    0.142851
   5 H :    0.149087
   6 O :   -0.291142
   7 H :    0.140937
   8 H :    0.141086
   9 O :   -0.300719
  10 H :    0.161187
  11 H :    0.137334
  12 O :   -0.289466
  13 H :    0.164080
  14 H :    0.146723
  15 O :   -0.286564
  16 H :    0.141250
  17 H :    0.139545
  18 O :   -0.292759
  19 H :    0.130431
  20 H :    0.141439
  21 O :   -0.294119
  22 H :    0.145736
  23 H :    0.130232
  24 O :   -0.293150
  25 H :    0.132474
  26 H :    0.144066
  27 O :   -0.297783
  28 H :    0.130521
  29 H :    0.148174
  30 O :   -0.269059
  31 H :    0.139584
  32 H :    0.151587
  33 O :   -0.302833
  34 H :    0.139644
  35 H :    0.161239

  Mayer bond orders larger than 0.1
B(  0-O ,  1-H ) :   0.7891 B(  0-O ,  2-H ) :   0.8805 B(  3-O ,  4-H ) :   0.8361
B(  3-O ,  5-H ) :   0.8201 B(  3-O , 11-H ) :   0.1876 B(  6-O ,  7-H ) :   0.8419
B(  6-O ,  8-H ) :   0.8444 B(  6-O , 29-H ) :   0.1091 B(  9-O , 10-H ) :   0.8799
B(  9-O , 11-H ) :   0.7278 B( 12-O , 13-H ) :   0.8810 B( 12-O , 14-H ) :   0.7931
B( 15-O , 16-H ) :   0.8455 B( 15-O , 17-H ) :   0.8418 B( 15-O , 22-H ) :   0.1294
B( 18-O , 19-H ) :   0.7597 B( 18-O , 20-H ) :   0.7999 B( 18-O , 28-H ) :   0.1272
B( 19-H , 21-O ) :   0.1613 B( 21-O , 22-H ) :   0.7603 B( 21-O , 23-H ) :   0.7998
B( 23-H , 24-O ) :   0.1309 B( 24-O , 25-H ) :   0.7593 B( 24-O , 26-H ) :   0.8062
B( 25-H , 27-O ) :   0.1649 B( 27-O , 28-H ) :   0.8022 B( 27-O , 29-H ) :   0.7764
B( 30-O , 31-H ) :   0.8307 B( 30-O , 32-H ) :   0.8274 B( 30-O , 34-H ) :   0.1874
B( 33-O , 34-H ) :   0.7290 B( 33-O , 35-H ) :   0.8799

Dispersion correction           -0.022225918
FINAL SINGLE POINT ENERGY      -917.479309754703

DIPOLE MOMENT
-------------
                                X             Y             Z
Electronic contribution:     -0.02047       0.01440       0.00148
Nuclear contribution   :     -0.08607       0.12657      -0.13682
                        -----------------------------------------
Total Dipole Moment    :     -0.10654       0.14097      -0.13534
                        -----------------------------------------
Magnitude (a.u.)       :      0.22257
Magnitude (Debye)      :      0.56574

                             ****ORCA TERMINATED NORMALLY****
TOTAL RUN TIME: 0 days 0 hours 1 minutes 28 seconds 176 msec
