                         Program Version 3.0.3 - RELEASE   -
|  1> ! B3LYP Def2-TZVP def2-TZVP/J RIJCOSX TightSCF Grid4 D3BJ
|  2>
|  3> %pal nprocs 12 end
|  4>
|  5> %scf
|  6>         maxiter 400
|  7> end
|  8>
|  9> * xyz  0  1
| 10> O  0.901961	-3.120213	-0.259040
| 11> H  0.515299	-2.474485	-0.934429
| 12> H  0.989594	-3.974955	-0.718415
| 13> O  -2.695138	1.590580	-0.881687
| 14> H  -2.227589	1.364984	-1.734872
| 15> H  -2.622909	0.746549	-0.354516
| 16> O  2.800583	-1.478863	0.919545
| 17> H  2.281310	-2.207567	0.488660
| 18> H  2.293574	-1.326777	1.760449
| 19> O  -0.921244	3.074375	0.206259
| 20> H  -1.294821	3.937099	0.462054
| 21> H  -1.709606	2.525233	-0.217145
| 22> O  0.982228	-0.933724	2.962388
| 23> H  1.235071	-0.780047	3.890582
| 24> H  0.652230	-0.044875	2.610348
| 25> O  -0.898061	-2.611922	1.810843
| 26> H  -0.269416	-2.122934	2.403673
| 27> H  -0.292246	-2.966519	1.107621
| 28> O  -0.174741	-1.115552	-1.501951
| 29> H  -0.847789	-0.911967	-0.752758
| 30> H  -0.463666	-0.512643	-2.248274
| 31> O  -1.724721	-0.506722	0.500598
| 32> H  -1.615742	-1.370112	1.038547
| 33> H  -1.054979	0.106077	0.944322
| 34> O  0.182772	1.069107	1.524097
| 35> H  0.850500	0.886567	0.764871
| 36> H  -0.214426	1.955837	1.277524
| 37> O  1.741235	0.458668	-0.470156
| 38> H  1.068168	-0.146525	-0.917597
| 39> H  2.345055	-0.211630	0.013697
| 40> O  0.777615	2.542846	-1.874431
| 41> H  0.244699	2.920531	-1.119308
| 42> H  1.393230	1.905535	-1.416130
| 43> O  -0.959219	0.980557	-2.907667
| 44> H  -0.226153	1.648688	-2.561782
| 45> H  -1.071659	1.167194	-3.857525
| 46> **                         ****END OF INPUT****

CARTESIAN COORDINATES (ANGSTROEM)
---------------------------------
  O      0.901961   -3.120213   -0.259040
  H      0.515299   -2.474485   -0.934429
  H      0.989594   -3.974955   -0.718415
  O     -2.695138    1.590580   -0.881687
  H     -2.227589    1.364984   -1.734872
  H     -2.622909    0.746549   -0.354516
  O      2.800583   -1.478863    0.919545
  H      2.281310   -2.207567    0.488660
  H      2.293574   -1.326777    1.760449
  O     -0.921244    3.074375    0.206259
  H     -1.294821    3.937099    0.462054
  H     -1.709606    2.525233   -0.217145
  O      0.982228   -0.933724    2.962388
  H      1.235071   -0.780047    3.890582
  H      0.652230   -0.044875    2.610348
  O     -0.898061   -2.611922    1.810843
  H     -0.269416   -2.122934    2.403673
  H     -0.292246   -2.966519    1.107621
  O     -0.174741   -1.115552   -1.501951
  H     -0.847789   -0.911967   -0.752758
  H     -0.463666   -0.512643   -2.248274
  O     -1.724721   -0.506722    0.500598
  H     -1.615742   -1.370112    1.038547
  H     -1.054979    0.106077    0.944322
  O      0.182772    1.069107    1.524097
  H      0.850500    0.886567    0.764871
  H     -0.214426    1.955837    1.277524
  O      1.741235    0.458668   -0.470156
  H      1.068168   -0.146525   -0.917597
  H      2.345055   -0.211630    0.013697
  O      0.777615    2.542846   -1.874431
  H      0.244699    2.920531   -1.119308
  H      1.393230    1.905535   -1.416130
  O     -0.959219    0.980557   -2.907667
  H     -0.226153    1.648688   -2.561782
  H     -1.071659    1.167194   -3.857525

 Total Charge           Charge          ....    0
 Multiplicity           Mult            ....    1
 Number of Electrons    NEL             ....  120
 Basis Dimension        Dim             ....  516

ORBITAL ENERGIES
----------------

  NO   OCC          E(Eh)            E(eV)
   0   2.0000     -19.151322      -521.1340
   1   2.0000     -19.151293      -521.1332
   2   2.0000     -19.143308      -520.9159
   3   2.0000     -19.143088      -520.9099
   4   2.0000     -19.128982      -520.5261
   5   2.0000     -19.128665      -520.5174
   6   2.0000     -19.126906      -520.4696
   7   2.0000     -19.126364      -520.4548
   8   2.0000     -19.121877      -520.3327
   9   2.0000     -19.121370      -520.3189
  10   2.0000     -19.117096      -520.2026
  11   2.0000     -19.116545      -520.1876
  12   2.0000      -1.041983       -28.3538
  13   2.0000      -1.032472       -28.0950
  14   2.0000      -1.032385       -28.0926
  15   2.0000      -1.021568       -27.7983
  16   2.0000      -1.016183       -27.6517
  17   2.0000      -1.013533       -27.5796
  18   2.0000      -1.002495       -27.2793
  19   2.0000      -0.999456       -27.1966
  20   2.0000      -0.998029       -27.1578
  21   2.0000      -0.991924       -26.9916
  22   2.0000      -0.984921       -26.8011
  23   2.0000      -0.972052       -26.4509
  24   2.0000      -0.567217       -15.4348
  25   2.0000      -0.567005       -15.4290
  26   2.0000      -0.549200       -14.9445
  27   2.0000      -0.546764       -14.8782
  28   2.0000      -0.536481       -14.5984
  29   2.0000      -0.531206       -14.4548
  30   2.0000      -0.525911       -14.3108
  31   2.0000      -0.522789       -14.2258
  32   2.0000      -0.516566       -14.0565
  33   2.0000      -0.516165       -14.0456
  34   2.0000      -0.512011       -13.9325
  35   2.0000      -0.508304       -13.8317
  36   2.0000      -0.478688       -13.0258
  37   2.0000      -0.453507       -12.3406
  38   2.0000      -0.444872       -12.1056
  39   2.0000      -0.428990       -11.6734
  40   2.0000      -0.418398       -11.3852
  41   2.0000      -0.418059       -11.3760
  42   2.0000      -0.408530       -11.1167
  43   2.0000      -0.403205       -10.9718
  44   2.0000      -0.390645       -10.6300
  45   2.0000      -0.386094       -10.5062
  46   2.0000      -0.375932       -10.2296
  47   2.0000      -0.356250        -9.6940
  48   2.0000      -0.341598        -9.2954
  49   2.0000      -0.339730        -9.2445
  50   2.0000      -0.337594        -9.1864
  51   2.0000      -0.335398        -9.1266
  52   2.0000      -0.326197        -8.8763
  53   2.0000      -0.322430        -8.7738
  54   2.0000      -0.321242        -8.7414
  55   2.0000      -0.319689        -8.6992
  56   2.0000      -0.318772        -8.6742
  57   2.0000      -0.315692        -8.5904
  58   2.0000      -0.303985        -8.2718
  59   2.0000      -0.303172        -8.2497
  60   0.0000      -0.001876        -0.0511
  61   0.0000       0.015839         0.4310
  62   0.0000       0.022337         0.6078
  63   0.0000       0.032042         0.8719
  64   0.0000       0.074706         2.0328

MULLIKEN ATOMIC CHARGES
-----------------------
   0 O :   -0.713307
   1 H :    0.383356
   2 H :    0.335332
   3 O :   -0.679538
   4 H :    0.358089
   5 H :    0.385206
   6 O :   -0.691048
   7 H :    0.353970
   8 H :    0.348743
   9 O :   -0.742752
  10 H :    0.334916
  11 H :    0.368426
  12 O :   -0.713045
  13 H :    0.335096
  14 H :    0.383028
  15 O :   -0.691554
  16 H :    0.354318
  17 H :    0.348884
  18 O :   -0.753890
  19 H :    0.363738
  20 H :    0.376076
  21 O :   -0.764682
  22 H :    0.395257
  23 H :    0.342559
  24 O :   -0.754097
  25 H :    0.362531
  26 H :    0.376545
  27 O :   -0.764337
  28 H :    0.341602
  29 H :    0.395996
  30 O :   -0.678544
  31 H :    0.357796
  32 H :    0.385460
  33 O :   -0.743501
  34 H :    0.368271
  35 H :    0.335098
Sum of atomic charges:   -0.0000000

LOEWDIN ATOMIC CHARGES
----------------------
   0 O :   -0.293670
   1 H :    0.151419
   2 H :    0.165361
   3 O :   -0.267666
   4 H :    0.147007
   5 H :    0.155778
   6 O :   -0.292779
   7 H :    0.146539
   8 H :    0.145174
   9 O :   -0.314822
  10 H :    0.160150
  11 H :    0.143899
  12 O :   -0.293673
  13 H :    0.165192
  14 H :    0.151268
  15 O :   -0.293768
  16 H :    0.146421
  17 H :    0.145124
  18 O :   -0.305547
  19 H :    0.136247
  20 H :    0.146126
  21 O :   -0.308445
  22 H :    0.151491
  23 H :    0.133688
  24 O :   -0.304385
  25 H :    0.136047
  26 H :    0.146126
  27 O :   -0.307973
  28 H :    0.134117
  29 H :    0.151059
  30 O :   -0.266596
  31 H :    0.147176
  32 H :    0.155777
  33 O :   -0.315625
  34 H :    0.143581
  35 H :    0.160184

  Mayer bond orders larger than 0.1
B(  0-O ,  1-H ) :   0.7700 B(  0-O ,  2-H ) :   0.8870 B(  1-H , 18-O ) :   0.1105
B(  3-O ,  4-H ) :   0.8152 B(  3-O ,  5-H ) :   0.8103 B(  3-O , 11-H ) :   0.2278
B(  4-H , 33-O ) :   0.1044 B(  6-O ,  7-H ) :   0.8344 B(  6-O ,  8-H ) :   0.8339
B(  6-O , 29-H ) :   0.1552 B(  9-O , 10-H ) :   0.8866 B(  9-O , 11-H ) :   0.6887
B(  9-O , 26-H ) :   0.1205 B(  9-O , 31-H ) :   0.1032 B( 12-O , 13-H ) :   0.8871
B( 12-O , 14-H ) :   0.7701 B( 14-H , 24-O ) :   0.1106 B( 15-O , 16-H ) :   0.8348
B( 15-O , 17-H ) :   0.8344 B( 15-O , 22-H ) :   0.1535 B( 18-O , 19-H ) :   0.7250
B( 18-O , 20-H ) :   0.7887 B( 18-O , 28-H ) :   0.1542 B( 19-H , 21-O ) :   0.1930
B( 20-H , 33-O ) :   0.1195 B( 21-O , 22-H ) :   0.7444 B( 21-O , 23-H ) :   0.7692
B( 23-H , 24-O ) :   0.1547 B( 24-O , 25-H ) :   0.7250 B( 24-O , 26-H ) :   0.7877
B( 25-H , 27-O ) :   0.1941 B( 27-O , 28-H ) :   0.7707 B( 27-O , 29-H ) :   0.7424
B( 30-O , 31-H ) :   0.8163 B( 30-O , 32-H ) :   0.8102 B( 30-O , 34-H ) :   0.2283
B( 33-O , 34-H ) :   0.6883 B( 33-O , 35-H ) :   0.8866

Dispersion correction           -0.044489442
FINAL SINGLE POINT ENERGY      -917.328909733165

DIPOLE MOMENT
-------------
                                X             Y             Z
Electronic contribution:      0.00916      -0.01616       0.01143
Nuclear contribution   :     -0.05728       0.17894      -0.10654
                        -----------------------------------------
Total Dipole Moment    :     -0.04811       0.16278      -0.09511
                        -----------------------------------------
Magnitude (a.u.)       :      0.19457
Magnitude (Debye)      :      0.49457

                             ****ORCA TERMINATED NORMALLY****
TOTAL RUN TIME: 0 days 0 hours 1 minutes 24 seconds 383 msec
