                         Program Version 3.0.3 - RELEASE   -
|  1> ! wB97X-D3 MA-Def2-TZVP def2-TZVP/J RIJCOSX TightSCF Grid4
|  2>
|  3> %pal nprocs 1 end
|  4>
|  5> %scf
|  6>         maxiter 400
|  7> end
|  8>
|  9> %cosmo
| 10>         SMD true
| 11>         solvent "WATER"
| 12> end
| 13>
| 14> * xyz  0  1
| 15> O  0.928005	-3.113740	-0.311126
| 16> H  0.514781	-2.526961	-0.988709
| 17> H  1.061921	-3.971300	-0.743105
| 18> O  -2.773347	1.468128	-0.913729
| 19> H  -2.273857	1.296058	-1.745961
| 20> H  -2.608021	0.673769	-0.361788
| 21> O  2.710487	-1.538591	1.015342
| 22> H  2.183927	-2.229694	0.550840
| 23> H  2.183531	-1.351627	1.825631
| 24> O  -0.960562	3.068983	0.166587
| 25> H  -1.301525	3.955141	0.362766
| 26> H  -1.731703	2.554302	-0.213924
| 27> O  0.900709	-0.941836	3.040358
| 28> H  1.105562	-0.853073	3.983410
| 29> H  0.653616	-0.040065	2.725655
| 30> O  -0.798388	-2.720510	1.808200
| 31> H  -0.206782	-2.189234	2.389526
| 32> H  -0.207832	-3.003326	1.072168
| 33> O  -0.311634	-1.128457	-1.568753
| 34> H  -0.888008	-0.910728	-0.789627
| 35> H  -0.559196	-0.467531	-2.263095
| 36> O  -1.648151	-0.456587	0.669180
| 37> H  -1.494973	-1.331328	1.123633
| 38> H  -0.981725	0.157946	1.064509
| 39> O  0.346081	1.202399	1.554332
| 40> H  0.925964	0.965496	0.782210
| 41> H  -0.134582	2.013700	1.257619
| 42> O  1.748854	0.376034	-0.581526
| 43> H  1.054004	-0.184475	-1.007611
| 44> H  2.277712	-0.272491	-0.038305
| 45> O  0.847769	2.676149	-1.837727
| 46> H  0.243380	2.959407	-1.110210
| 47> H  1.403329	1.982906	-1.423450
| 48> O  -0.944688	1.057948	-2.955055
| 49> H  -0.240142	1.708574	-2.668983
| 50> H  -1.053513	1.177008	-3.910888
| 51> **                         ****END OF INPUT****

CARTESIAN COORDINATES (ANGSTROEM)
---------------------------------
  O      0.928005   -3.113740   -0.311126
  H      0.514781   -2.526961   -0.988709
  H      1.061921   -3.971300   -0.743105
  O     -2.773347    1.468128   -0.913729
  H     -2.273857    1.296058   -1.745961
  H     -2.608021    0.673769   -0.361788
  O      2.710487   -1.538591    1.015342
  H      2.183927   -2.229694    0.550840
  H      2.183531   -1.351627    1.825631
  O     -0.960562    3.068983    0.166587
  H     -1.301525    3.955141    0.362766
  H     -1.731703    2.554302   -0.213924
  O      0.900709   -0.941836    3.040358
  H      1.105562   -0.853073    3.983410
  H      0.653616   -0.040065    2.725655
  O     -0.798388   -2.720510    1.808200
  H     -0.206782   -2.189234    2.389526
  H     -0.207832   -3.003326    1.072168
  O     -0.311634   -1.128457   -1.568753
  H     -0.888008   -0.910728   -0.789627
  H     -0.559196   -0.467531   -2.263095
  O     -1.648151   -0.456587    0.669180
  H     -1.494973   -1.331328    1.123633
  H     -0.981725    0.157946    1.064509
  O      0.346081    1.202399    1.554332
  H      0.925964    0.965496    0.782210
  H     -0.134582    2.013700    1.257619
  O      1.748854    0.376034   -0.581526
  H      1.054004   -0.184475   -1.007611
  H      2.277712   -0.272491   -0.038305
  O      0.847769    2.676149   -1.837727
  H      0.243380    2.959407   -1.110210
  H      1.403329    1.982906   -1.423450
  O     -0.944688    1.057948   -2.955055
  H     -0.240142    1.708574   -2.668983
  H     -1.053513    1.177008   -3.910888

 Total Charge           Charge          ....    0
 Multiplicity           Mult            ....    1
 Number of Electrons    NEL             ....  120
 Basis Dimension        Dim             ....  564
Dispersion correction           -0.022325750
FINAL SINGLE POINT ENERGY      -917.522954967298
                             ****ORCA TERMINATED NORMALLY****
TOTAL RUN TIME: 0 days 0 hours 16 minutes 17 seconds 847 msec

ORBITAL ENERGIES
----------------

  NO   OCC          E(Eh)            E(eV)
   0   2.0000     -19.247138      -523.7412
   1   2.0000     -19.246241      -523.7168
   2   2.0000     -19.242931      -523.6268
   3   2.0000     -19.242827      -523.6240
   4   2.0000     -19.235802      -523.4328
   5   2.0000     -19.235588      -523.4269
   6   2.0000     -19.235450      -523.4232
   7   2.0000     -19.234391      -523.3944
   8   2.0000     -19.234222      -523.3898
   9   2.0000     -19.232335      -523.3384
  10   2.0000     -19.229820      -523.2700
  11   2.0000     -19.228995      -523.2476
  12   2.0000      -1.156124       -31.4597
  13   2.0000      -1.144404       -31.1408
  14   2.0000      -1.141844       -31.0711
  15   2.0000      -1.135228       -30.8911
  16   2.0000      -1.133308       -30.8389
  17   2.0000      -1.132155       -30.8075
  18   2.0000      -1.122926       -30.5564
  19   2.0000      -1.120377       -30.4870
  20   2.0000      -1.117161       -30.3995
  21   2.0000      -1.111263       -30.2390
  22   2.0000      -1.110283       -30.2123
  23   2.0000      -1.098302       -29.8863
  24   2.0000      -0.661901       -18.0112
  25   2.0000      -0.660179       -17.9644
  26   2.0000      -0.648179       -17.6379
  27   2.0000      -0.646090       -17.5810
  28   2.0000      -0.644371       -17.5342
  29   2.0000      -0.637872       -17.3574
  30   2.0000      -0.633571       -17.2404
  31   2.0000      -0.632539       -17.2123
  32   2.0000      -0.626760       -17.0550
  33   2.0000      -0.625678       -17.0256
  34   2.0000      -0.623066       -16.9545
  35   2.0000      -0.620649       -16.8887
  36   2.0000      -0.573196       -15.5975
  37   2.0000      -0.554039       -15.0762
  38   2.0000      -0.545542       -14.8450
  39   2.0000      -0.528329       -14.3766
  40   2.0000      -0.518373       -14.1056
  41   2.0000      -0.509750       -13.8710
  42   2.0000      -0.506974       -13.7955
  43   2.0000      -0.504679       -13.7330
  44   2.0000      -0.492713       -13.4074
  45   2.0000      -0.481985       -13.1155
  46   2.0000      -0.476275       -12.9601
  47   2.0000      -0.462316       -12.5802
  48   2.0000      -0.436219       -11.8701
  49   2.0000      -0.432584       -11.7712
  50   2.0000      -0.431693       -11.7470
  51   2.0000      -0.430411       -11.7121
  52   2.0000      -0.426868       -11.6157
  53   2.0000      -0.425529       -11.5792
  54   2.0000      -0.425018       -11.5653
  55   2.0000      -0.421206       -11.4616
  56   2.0000      -0.420510       -11.4427
  57   2.0000      -0.419738       -11.4217
  58   2.0000      -0.414151       -11.2696
  59   2.0000      -0.412891       -11.2353
  60   0.0000       0.062869         1.7107
  61   0.0000       0.083148         2.2626
  62   0.0000       0.089446         2.4340
  63   0.0000       0.100679         2.7396
  64   0.0000       0.104683         2.8486

MULLIKEN ATOMIC CHARGES
-----------------------
   0 O :   -0.831861
   1 H :    0.429517
   2 H :    0.420703
   3 O :   -0.812163
   4 H :    0.420618
   5 H :    0.427496
   6 O :   -0.809248
   7 H :    0.418823
   8 H :    0.407947
   9 O :   -0.863465
  10 H :    0.418282
  11 H :    0.430248
  12 O :   -0.836120
  13 H :    0.420511
  14 H :    0.426379
  15 O :   -0.796276
  16 H :    0.417653
  17 H :    0.409311
  18 O :   -0.831656
  19 H :    0.415756
  20 H :    0.441404
  21 O :   -0.953496
  22 H :    0.451211
  23 H :    0.411004
  24 O :   -0.827387
  25 H :    0.422819
  26 H :    0.437085
  27 O :   -0.953066
  28 H :    0.412233
  29 H :    0.455337
  30 O :   -0.813427
  31 H :    0.419973
  32 H :    0.428638
  33 O :   -0.862940
  34 H :    0.429895
  35 H :    0.418260
Sum of atomic charges:    0.0000000

LOEWDIN ATOMIC CHARGES
----------------------
   0 O :   -0.362650
   1 H :    0.201015
   2 H :    0.218656
   3 O :   -0.394835
   4 H :    0.197322
   5 H :    0.197092
   6 O :   -0.410764
   7 H :    0.191583
   8 H :    0.194042
   9 O :   -0.372563
  10 H :    0.216570
  11 H :    0.194082
  12 O :   -0.368180
  13 H :    0.217871
  14 H :    0.200661
  15 O :   -0.410006
  16 H :    0.193587
  17 H :    0.192769
  18 O :   -0.410741
  19 H :    0.188515
  20 H :    0.195739
  21 O :   -0.416282
  22 H :    0.194149
  23 H :    0.189808
  24 O :   -0.411619
  25 H :    0.188794
  26 H :    0.196234
  27 O :   -0.420161
  28 H :    0.189162
  29 H :    0.195279
  30 O :   -0.400836
  31 H :    0.191992
  32 H :    0.198694
  33 O :   -0.376238
  34 H :    0.195314
  35 H :    0.215944

  Mayer bond orders larger than 0.1
B(  0-O ,  1-H ) :   0.8101 B(  0-O ,  2-H ) :   0.8299 B(  3-O ,  4-H ) :   0.8261
B(  3-O ,  5-H ) :   0.8271 B(  6-O ,  7-H ) :   0.8236 B(  6-O ,  8-H ) :   0.8279
B(  9-O , 10-H ) :   0.8312 B(  9-O , 11-H ) :   0.7730 B( 12-O , 13-H ) :   0.8308
B( 12-O , 14-H ) :   0.8114 B( 15-O , 16-H ) :   0.8272 B( 15-O , 17-H ) :   0.8235
B( 18-O , 19-H ) :   0.7972 B( 18-O , 20-H ) :   0.7860 B( 21-O , 22-H ) :   0.7708
B( 21-O , 23-H ) :   0.8079 B( 24-O , 25-H ) :   0.7929 B( 24-O , 26-H ) :   0.7897
B( 27-O , 28-H ) :   0.8091 B( 27-O , 29-H ) :   0.7773 B( 30-O , 31-H ) :   0.8167
B( 30-O , 32-H ) :   0.8302 B( 33-O , 34-H ) :   0.7751 B( 33-O , 35-H ) :   0.8309

Dispersion correction           -0.022325750
FINAL SINGLE POINT ENERGY      -917.522954967298

DIPOLE MOMENT
-------------
                                X             Y             Z
Electronic contribution:     -0.06272       0.03875      -0.04222
Nuclear contribution   :     -0.13684       0.17699      -0.24959
                        -----------------------------------------
Total Dipole Moment    :     -0.19956       0.21574      -0.29180
                        -----------------------------------------
Magnitude (a.u.)       :      0.41415
Magnitude (Debye)      :      1.05267

                             ****ORCA TERMINATED NORMALLY****
TOTAL RUN TIME: 0 days 0 hours 14 minutes 19 seconds 625 msec
