                         Program Version 3.0.3 - RELEASE   -
|  1> ! wB97X-D3 Def2-TZVP def2-TZVP/J RIJCOSX TightSCF Grid4 COSMO
|  2>
|  3> %pal nprocs 12 end
|  4>
|  5> %scf
|  6>         maxiter 400
|  7> end
|  8>
|  9> %cosmo
| 10>         SMD true
| 11>         solvent "WATER"
| 12> end
| 13>
| 14> * xyz  0  1
| 15> O  0.928005	-3.113740	-0.311126
| 16> H  0.514781	-2.526961	-0.988709
| 17> H  1.061921	-3.971300	-0.743105
| 18> O  -2.773347	1.468128	-0.913729
| 19> H  -2.273857	1.296058	-1.745961
| 20> H  -2.608021	0.673769	-0.361788
| 21> O  2.710487	-1.538591	1.015342
| 22> H  2.183927	-2.229694	0.550840
| 23> H  2.183531	-1.351627	1.825631
| 24> O  -0.960562	3.068983	0.166587
| 25> H  -1.301525	3.955141	0.362766
| 26> H  -1.731703	2.554302	-0.213924
| 27> O  0.900709	-0.941836	3.040358
| 28> H  1.105562	-0.853073	3.983410
| 29> H  0.653616	-0.040065	2.725655
| 30> O  -0.798388	-2.720510	1.808200
| 31> H  -0.206782	-2.189234	2.389526
| 32> H  -0.207832	-3.003326	1.072168
| 33> O  -0.311634	-1.128457	-1.568753
| 34> H  -0.888008	-0.910728	-0.789627
| 35> H  -0.559196	-0.467531	-2.263095
| 36> O  -1.648151	-0.456587	0.669180
| 37> H  -1.494973	-1.331328	1.123633
| 38> H  -0.981725	0.157946	1.064509
| 39> O  0.346081	1.202399	1.554332
| 40> H  0.925964	0.965496	0.782210
| 41> H  -0.134582	2.013700	1.257619
| 42> O  1.748854	0.376034	-0.581526
| 43> H  1.054004	-0.184475	-1.007611
| 44> H  2.277712	-0.272491	-0.038305
| 45> O  0.847769	2.676149	-1.837727
| 46> H  0.243380	2.959407	-1.110210
| 47> H  1.403329	1.982906	-1.423450
| 48> O  -0.944688	1.057948	-2.955055
| 49> H  -0.240142	1.708574	-2.668983
| 50> H  -1.053513	1.177008	-3.910888
| 51> **                         ****END OF INPUT****

CARTESIAN COORDINATES (ANGSTROEM)
---------------------------------
  O      0.928005   -3.113740   -0.311126
  H      0.514781   -2.526961   -0.988709
  H      1.061921   -3.971300   -0.743105
  O     -2.773347    1.468128   -0.913729
  H     -2.273857    1.296058   -1.745961
  H     -2.608021    0.673769   -0.361788
  O      2.710487   -1.538591    1.015342
  H      2.183927   -2.229694    0.550840
  H      2.183531   -1.351627    1.825631
  O     -0.960562    3.068983    0.166587
  H     -1.301525    3.955141    0.362766
  H     -1.731703    2.554302   -0.213924
  O      0.900709   -0.941836    3.040358
  H      1.105562   -0.853073    3.983410
  H      0.653616   -0.040065    2.725655
  O     -0.798388   -2.720510    1.808200
  H     -0.206782   -2.189234    2.389526
  H     -0.207832   -3.003326    1.072168
  O     -0.311634   -1.128457   -1.568753
  H     -0.888008   -0.910728   -0.789627
  H     -0.559196   -0.467531   -2.263095
  O     -1.648151   -0.456587    0.669180
  H     -1.494973   -1.331328    1.123633
  H     -0.981725    0.157946    1.064509
  O      0.346081    1.202399    1.554332
  H      0.925964    0.965496    0.782210
  H     -0.134582    2.013700    1.257619
  O      1.748854    0.376034   -0.581526
  H      1.054004   -0.184475   -1.007611
  H      2.277712   -0.272491   -0.038305
  O      0.847769    2.676149   -1.837727
  H      0.243380    2.959407   -1.110210
  H      1.403329    1.982906   -1.423450
  O     -0.944688    1.057948   -2.955055
  H     -0.240142    1.708574   -2.668983
  H     -1.053513    1.177008   -3.910888

 Total Charge           Charge          ....    0
 Multiplicity           Mult            ....    1
 Number of Electrons    NEL             ....  120
 Basis Dimension        Dim             ....  516

ORBITAL ENERGIES
----------------

  NO   OCC          E(Eh)            E(eV)
   0   2.0000     -19.245316      -523.6917
   1   2.0000     -19.244381      -523.6662
   2   2.0000     -19.241109      -523.5772
   3   2.0000     -19.240904      -523.5716
   4   2.0000     -19.234224      -523.3898
   5   2.0000     -19.233893      -523.3808
   6   2.0000     -19.233862      -523.3800
   7   2.0000     -19.232542      -523.3441
   8   2.0000     -19.232301      -523.3375
   9   2.0000     -19.230203      -523.2804
  10   2.0000     -19.227544      -523.2081
  11   2.0000     -19.226628      -523.1831
  12   2.0000      -1.154970       -31.4283
  13   2.0000      -1.143178       -31.1075
  14   2.0000      -1.140736       -31.0410
  15   2.0000      -1.133999       -30.8577
  16   2.0000      -1.132164       -30.8077
  17   2.0000      -1.131009       -30.7763
  18   2.0000      -1.121569       -30.5194
  19   2.0000      -1.119129       -30.4530
  20   2.0000      -1.116059       -30.3695
  21   2.0000      -1.109941       -30.2030
  22   2.0000      -1.108958       -30.1763
  23   2.0000      -1.097110       -29.8539
  24   2.0000      -0.660861       -17.9829
  25   2.0000      -0.659134       -17.9360
  26   2.0000      -0.647062       -17.6074
  27   2.0000      -0.644984       -17.5509
  28   2.0000      -0.643265       -17.5041
  29   2.0000      -0.636757       -17.3270
  30   2.0000      -0.632453       -17.2099
  31   2.0000      -0.631385       -17.1809
  32   2.0000      -0.625585       -17.0230
  33   2.0000      -0.624568       -16.9953
  34   2.0000      -0.621959       -16.9244
  35   2.0000      -0.619549       -16.8588
  36   2.0000      -0.572006       -15.5651
  37   2.0000      -0.552743       -15.0409
  38   2.0000      -0.544425       -14.8145
  39   2.0000      -0.527233       -14.3467
  40   2.0000      -0.517137       -14.0720
  41   2.0000      -0.508512       -13.8373
  42   2.0000      -0.505826       -13.7642
  43   2.0000      -0.503459       -13.6998
  44   2.0000      -0.491489       -13.3741
  45   2.0000      -0.480822       -13.0838
  46   2.0000      -0.474963       -12.9244
  47   2.0000      -0.460971       -12.5437
  48   2.0000      -0.435014       -11.8373
  49   2.0000      -0.431439       -11.7401
  50   2.0000      -0.430509       -11.7147
  51   2.0000      -0.429190       -11.6788
  52   2.0000      -0.425727       -11.5846
  53   2.0000      -0.424405       -11.5487
  54   2.0000      -0.423747       -11.5307
  55   2.0000      -0.420019       -11.4293
  56   2.0000      -0.419319       -11.4102
  57   2.0000      -0.418592       -11.3905
  58   2.0000      -0.412863       -11.2346
  59   2.0000      -0.411588       -11.1999
  60   0.0000       0.093842         2.5536
  61   0.0000       0.125384         3.4119
  62   0.0000       0.139711         3.8017
  63   0.0000       0.154771         4.2115
  64   0.0000       0.168874         4.5953

MULLIKEN ATOMIC CHARGES
-----------------------
   0 O :   -0.761647
   1 H :    0.397314
   2 H :    0.410252
   3 O :   -0.753091
   4 H :    0.377699
   5 H :    0.396070
   6 O :   -0.771330
   7 H :    0.379279
   8 H :    0.371475
   9 O :   -0.774826
  10 H :    0.408900
  11 H :    0.378550
  12 O :   -0.763081
  13 H :    0.409765
  14 H :    0.396595
  15 O :   -0.767875
  16 H :    0.378617
  17 H :    0.373435
  18 O :   -0.781568
  19 H :    0.363923
  20 H :    0.400434
  21 O :   -0.794502
  22 H :    0.401720
  23 H :    0.353949
  24 O :   -0.780808
  25 H :    0.364862
  26 H :    0.399665
  27 O :   -0.792902
  28 H :    0.353563
  29 H :    0.403324
  30 O :   -0.756643
  31 H :    0.375114
  32 H :    0.393788
  33 O :   -0.776585
  34 H :    0.377938
  35 H :    0.408625
Sum of atomic charges:    0.0000000

LOEWDIN ATOMIC CHARGES
----------------------
   0 O :   -0.268771
   1 H :    0.152346
   2 H :    0.191546
   3 O :   -0.309014
   4 H :    0.146037
   5 H :    0.147866
   6 O :   -0.327674
   7 H :    0.140482
   8 H :    0.142435
   9 O :   -0.278198
  10 H :    0.188262
  11 H :    0.144709
  12 O :   -0.274951
  13 H :    0.190869
  14 H :    0.152007
  15 O :   -0.327261
  16 H :    0.142548
  17 H :    0.141547
  18 O :   -0.304311
  19 H :    0.133627
  20 H :    0.144419
  21 O :   -0.309182
  22 H :    0.143603
  23 H :    0.134252
  24 O :   -0.305745
  25 H :    0.133680
  26 H :    0.144884
  27 O :   -0.314039
  28 H :    0.133410
  29 H :    0.144713
  30 O :   -0.315614
  31 H :    0.141007
  32 H :    0.149380
  33 O :   -0.282743
  34 H :    0.145954
  35 H :    0.187921

  Mayer bond orders larger than 0.1
B(  0-O ,  1-H ) :   0.7986 B(  0-O ,  2-H ) :   0.8369 B(  3-O ,  4-H ) :   0.8119
B(  3-O ,  5-H ) :   0.8178 B(  3-O , 11-H ) :   0.1409 B(  6-O ,  7-H ) :   0.8091
B(  6-O ,  8-H ) :   0.8143 B(  6-O , 29-H ) :   0.1205 B(  9-O , 10-H ) :   0.8379
B(  9-O , 11-H ) :   0.7592 B(  9-O , 26-H ) :   0.1032 B(  9-O , 31-H ) :   0.1039
B( 12-O , 13-H ) :   0.8376 B( 12-O , 14-H ) :   0.8009 B( 15-O , 16-H ) :   0.8141
B( 15-O , 17-H ) :   0.8113 B( 15-O , 22-H ) :   0.1309 B( 18-O , 19-H ) :   0.7773
B( 18-O , 20-H ) :   0.7799 B( 18-O , 28-H ) :   0.1292 B( 19-H , 21-O ) :   0.1326
B( 20-H , 33-O ) :   0.1093 B( 21-O , 22-H ) :   0.7628 B( 21-O , 23-H ) :   0.7867
B( 23-H , 24-O ) :   0.1296 B( 24-O , 25-H ) :   0.7746 B( 24-O , 26-H ) :   0.7850
B( 25-H , 27-O ) :   0.1375 B( 27-O , 28-H ) :   0.7867 B( 27-O , 29-H ) :   0.7690
B( 30-O , 31-H ) :   0.8034 B( 30-O , 32-H ) :   0.8237 B( 30-O , 34-H ) :   0.1382
B( 33-O , 34-H ) :   0.7628 B( 33-O , 35-H ) :   0.8382

Dispersion correction           -0.022325750
FINAL SINGLE POINT ENERGY      -917.517721654429

DIPOLE MOMENT
-------------
                                X             Y             Z
Electronic contribution:     -0.05974       0.03341      -0.03827
Nuclear contribution   :     -0.13684       0.17699      -0.24959
                        -----------------------------------------
Total Dipole Moment    :     -0.19658       0.21040      -0.28786
                        -----------------------------------------
Magnitude (a.u.)       :      0.40715
Magnitude (Debye)      :      1.03490

                             ****ORCA TERMINATED NORMALLY****
TOTAL RUN TIME: 0 days 0 hours 1 minutes 35 seconds 290 msec
