                         Program Version 4.2.0 -  RELEASE  -
|  1> # 12h2o.su.etal.mol1,4,6,10,11
|  2> ! MP2 def2-TZVP EnGrad TightSCF
|  3>
|  4> %pal
|  5>     nprocs 6
|  6> end
|  7>
|  8> %maxcore 8000
|  9>
| 10> %scf
| 11>     ConvForced true
| 12> end
| 13>
| 14> *xyz 0 1
| 15> O  -1.794470000  -0.923410000   2.768350000
| 16> H  -2.338250000  -1.359750000   3.430940000
| 17> H  -0.879480000  -1.303000000   2.865760000
| 18> O  -0.885520000   1.737840000   0.052730000
| 19> H  -1.032320000   2.090180000  -0.841890000
| 20> H  -1.284090000   0.839590000   0.017130000
| 21> O   1.737840000   0.885520000  -0.052730000
| 22> H   2.090180000   1.032320000   0.841890000
| 23> H   0.839590000   1.284090000  -0.017130000
| 24> O  -0.923410000   1.794470000  -2.768350000
| 25> H  -1.359750000   2.338250000  -3.430940000
| 26> H  -1.303000000   0.879480000  -2.865760000
| 27> O  -0.741530000   1.752130000   2.896280000
| 28> H  -0.920500000   2.036450000   1.984040000
| 29> H  -1.242140000   0.921210000   2.984230000
| 30> *
| 31>
| 32>                          ****END OF INPUT****

CARTESIAN COORDINATES (ANGSTROEM)
---------------------------------
  O     -1.794470   -0.923410    2.768350
  H     -2.338250   -1.359750    3.430940
  H     -0.879480   -1.303000    2.865760
  O     -0.885520    1.737840    0.052730
  H     -1.032320    2.090180   -0.841890
  H     -1.284090    0.839590    0.017130
  O      1.737840    0.885520   -0.052730
  H      2.090180    1.032320    0.841890
  H      0.839590    1.284090   -0.017130
  O     -0.923410    1.794470   -2.768350
  H     -1.359750    2.338250   -3.430940
  H     -1.303000    0.879480   -2.865760
  O     -0.741530    1.752130    2.896280
  H     -0.920500    2.036450    1.984040
  H     -1.242140    0.921210    2.984230

 Total Charge           Charge          ....    0
 Multiplicity           Mult            ....    1
 Number of Electrons    NEL             ....   50
 Basis Dimension        Dim             ....  215

ORBITAL ENERGIES
----------------

  NO   OCC          E(Eh)            E(eV)
   0   2.0000     -20.599804      -560.5492
   1   2.0000     -20.591598      -560.3259
   2   2.0000     -20.577396      -559.9394
   3   2.0000     -20.511703      -558.1518
   4   2.0000     -20.507365      -558.0338
   5   2.0000      -1.378973       -37.5238
   6   2.0000      -1.369257       -37.2594
   7   2.0000      -1.361746       -37.0550
   8   2.0000      -1.293123       -35.1877
   9   2.0000      -1.292461       -35.1697
  10   2.0000      -0.744998       -20.2724
  11   2.0000      -0.736322       -20.0363
  12   2.0000      -0.726208       -19.7611
  13   2.0000      -0.673169       -18.3178
  14   2.0000      -0.667531       -18.1644
  15   2.0000      -0.624354       -16.9895
  16   2.0000      -0.609034       -16.5727
  17   2.0000      -0.593709       -16.1556
  18   2.0000      -0.553768       -15.0688
  19   2.0000      -0.546375       -14.8676
  20   2.0000      -0.535431       -14.5698
  21   2.0000      -0.516428       -14.0527
  22   2.0000      -0.504805       -13.7364
  23   2.0000      -0.460548       -12.5322
  24   2.0000      -0.456908       -12.4331
  25   0.0000       0.093841         2.5535
  26   0.0000       0.110754         3.0138
  27   0.0000       0.157597         4.2884
  28   0.0000       0.172604         4.6968
  29   0.0000       0.191208         5.2030

MULLIKEN ATOMIC CHARGES
-----------------------
   0 O :   -0.699558
   1 H :    0.354365
   2 H :    0.363843
   3 O :   -0.718849
   4 H :    0.385153
   5 H :    0.348377
   6 O :   -0.722866
   7 H :    0.328833
   8 H :    0.360547
   9 O :   -0.689486
  10 H :    0.355248
  11 H :    0.353828
  12 O :   -0.725839
  13 H :    0.364843
  14 H :    0.341563
Sum of atomic charges:    0.0000000

LOEWDIN ATOMIC CHARGES
----------------------
   0 O :   -0.313229
   1 H :    0.164202
   2 H :    0.189509
   3 O :   -0.282355
   4 H :    0.156123
   5 H :    0.173670
   6 O :   -0.364689
   7 H :    0.157904
   8 H :    0.141340
   9 O :   -0.306487
  10 H :    0.165241
  11 H :    0.185785
  12 O :   -0.354664
  13 H :    0.147219
  14 H :    0.140430

  Mayer bond orders larger than 0.100000
B(  0-O ,  1-H ) :   0.8407 B(  0-O ,  2-H ) :   0.8281 B(  3-O ,  4-H ) :   0.7941
B(  3-O ,  5-H ) :   0.8354 B(  6-O ,  7-H ) :   0.8567 B(  6-O ,  8-H ) :   0.8029
B(  9-O , 10-H ) :   0.8402 B(  9-O , 11-H ) :   0.8352 B( 12-O , 13-H ) :   0.8271
B( 12-O , 14-H ) :   0.8312

MP2 TOTAL ENERGY:     -381.592834924 Eh
FINAL SINGLE POINT ENERGY      -381.592834924123

DIPOLE MOMENT
-------------
                                X             Y             Z
Electronic contribution:     -0.00568       0.18320      -0.24636
Nuclear contribution   :     -1.84416      -1.44355      -0.68611
                        -----------------------------------------
Total Dipole Moment    :     -1.84984      -1.26035      -0.93246
                        -----------------------------------------
Magnitude (a.u.)       :      2.42485
Magnitude (Debye)      :      6.16348

Rotational constants in cm-1:     0.089971     0.032685     0.029702
Rotational constants in MHz :  2697.272502   979.881601   890.448739

                             ****ORCA TERMINATED NORMALLY****
TOTAL RUN TIME: 0 days 0 hours 0 minutes 36 seconds 486 msec
