                         Program Version 4.2.0 -  RELEASE  -
|  1> # 12h2o.su.etal.mol1,2,3,4,5,6,9,10
|  2> ! MP2 def2-TZVP EnGrad TightSCF
|  3>
|  4> %pal
|  5>     nprocs 6
|  6> end
|  7>
|  8> %maxcore 8000
|  9>
| 10> %scf
| 11>     ConvForced true
| 12> end
| 13>
| 14> *xyz 0 1
| 15> O  -1.794470000  -0.923410000   2.768350000
| 16> H  -2.338250000  -1.359750000   3.430940000
| 17> H  -0.879480000  -1.303000000   2.865760000
| 18> O   0.923410000  -1.794470000  -2.768350000
| 19> H   1.359750000  -2.338250000  -3.430940000
| 20> H   1.303000000  -0.879480000  -2.865760000
| 21> O  -1.752130000  -0.741530000  -2.896280000
| 22> H  -2.036450000  -0.920500000  -1.984040000
| 23> H  -0.921210000  -1.242140000  -2.984230000
| 24> O  -0.885520000   1.737840000   0.052730000
| 25> H  -1.032320000   2.090180000  -0.841890000
| 26> H  -1.284090000   0.839590000   0.017130000
| 27> O   0.885520000  -1.737840000   0.052730000
| 28> H   1.284090000  -0.839590000   0.017130000
| 29> H   1.032320000  -2.090180000  -0.841890000
| 30> O   1.737840000   0.885520000  -0.052730000
| 31> H   2.090180000   1.032320000   0.841890000
| 32> H   0.839590000   1.284090000  -0.017130000
| 33> O   0.741530000  -1.752130000   2.896280000
| 34> H   0.920500000  -2.036450000   1.984040000
| 35> H   1.242140000  -0.921210000   2.984230000
| 36> O  -0.923410000   1.794470000  -2.768350000
| 37> H  -1.359750000   2.338250000  -3.430940000
| 38> H  -1.303000000   0.879480000  -2.865760000
| 39> *
| 40>
| 41>                          ****END OF INPUT****

CARTESIAN COORDINATES (ANGSTROEM)
---------------------------------
  O     -1.794470   -0.923410    2.768350
  H     -2.338250   -1.359750    3.430940
  H     -0.879480   -1.303000    2.865760
  O      0.923410   -1.794470   -2.768350
  H      1.359750   -2.338250   -3.430940
  H      1.303000   -0.879480   -2.865760
  O     -1.752130   -0.741530   -2.896280
  H     -2.036450   -0.920500   -1.984040
  H     -0.921210   -1.242140   -2.984230
  O     -0.885520    1.737840    0.052730
  H     -1.032320    2.090180   -0.841890
  H     -1.284090    0.839590    0.017130
  O      0.885520   -1.737840    0.052730
  H      1.284090   -0.839590    0.017130
  H      1.032320   -2.090180   -0.841890
  O      1.737840    0.885520   -0.052730
  H      2.090180    1.032320    0.841890
  H      0.839590    1.284090   -0.017130
  O      0.741530   -1.752130    2.896280
  H      0.920500   -2.036450    1.984040
  H      1.242140   -0.921210    2.984230
  O     -0.923410    1.794470   -2.768350
  H     -1.359750    2.338250   -3.430940
  H     -1.303000    0.879480   -2.865760

 Total Charge           Charge          ....    0
 Multiplicity           Mult            ....    1
 Number of Electrons    NEL             ....   80
 Basis Dimension        Dim             ....  344

ORBITAL ENERGIES
----------------

  NO   OCC          E(Eh)            E(eV)
   0   2.0000     -20.621432      -561.1377
   1   2.0000     -20.586349      -560.1830
   2   2.0000     -20.561246      -559.5000
   3   2.0000     -20.558946      -559.4374
   4   2.0000     -20.557175      -559.3892
   5   2.0000     -20.553281      -559.2832
   6   2.0000     -20.537057      -558.8417
   7   2.0000     -20.504580      -557.9580
   8   2.0000      -1.402198       -38.1558
   9   2.0000      -1.375456       -37.4281
  10   2.0000      -1.354526       -36.8585
  11   2.0000      -1.348578       -36.6967
  12   2.0000      -1.340317       -36.4719
  13   2.0000      -1.330928       -36.2164
  14   2.0000      -1.320256       -35.9260
  15   2.0000      -1.286447       -35.0060
  16   2.0000      -0.767803       -20.8930
  17   2.0000      -0.736456       -20.0400
  18   2.0000      -0.720948       -19.6180
  19   2.0000      -0.713588       -19.4177
  20   2.0000      -0.712847       -19.3976
  21   2.0000      -0.702782       -19.1237
  22   2.0000      -0.698509       -19.0074
  23   2.0000      -0.673950       -18.3391
  24   2.0000      -0.645349       -17.5608
  25   2.0000      -0.620544       -16.8859
  26   2.0000      -0.610473       -16.6118
  27   2.0000      -0.592952       -16.1350
  28   2.0000      -0.584391       -15.9021
  29   2.0000      -0.576946       -15.6995
  30   2.0000      -0.562704       -15.3120
  31   2.0000      -0.549234       -14.9454
  32   2.0000      -0.533152       -14.5078
  33   2.0000      -0.523673       -14.2499
  34   2.0000      -0.503890       -13.7115
  35   2.0000      -0.502311       -13.6686
  36   2.0000      -0.498880       -13.5752
  37   2.0000      -0.492273       -13.3954
  38   2.0000      -0.486269       -13.2321
  39   2.0000      -0.455132       -12.3848
  40   0.0000       0.088184         2.3996
  41   0.0000       0.116361         3.1664
  42   0.0000       0.129632         3.5275
  43   0.0000       0.153937         4.1888
  44   0.0000       0.176610         4.8058

MULLIKEN ATOMIC CHARGES
-----------------------
   0 O :   -0.737017
   1 H :    0.319976
   2 H :    0.370787
   3 O :   -0.724556
   4 H :    0.366737
   5 H :    0.385138
   6 O :   -0.700764
   7 H :    0.358886
   8 H :    0.378579
   9 O :   -0.702184
  10 H :    0.379517
  11 H :    0.346936
  12 O :   -0.747187
  13 H :    0.340699
  14 H :    0.363976
  15 O :   -0.716873
  16 H :    0.339246
  17 H :    0.382858
  18 O :   -0.693365
  19 H :    0.389460
  20 H :    0.333327
  21 O :   -0.743975
  22 H :    0.341264
  23 H :    0.368534
Sum of atomic charges:    0.0000000

LOEWDIN ATOMIC CHARGES
----------------------
   0 O :   -0.375551
   1 H :    0.146383
   2 H :    0.143015
   3 O :   -0.287904
   4 H :    0.169470
   5 H :    0.197184
   6 O :   -0.278107
   7 H :    0.171898
   8 H :    0.154615
   9 O :   -0.295346
  10 H :    0.153002
  11 H :    0.171040
  12 O :   -0.349247
  13 H :    0.136451
  14 H :    0.146065
  15 O :   -0.312737
  16 H :    0.161874
  17 H :    0.148760
  18 O :   -0.278691
  19 H :    0.159404
  20 H :    0.163811
  21 O :   -0.343421
  22 H :    0.155762
  23 H :    0.142270

  Mayer bond orders larger than 0.100000
B(  0-O ,  1-H ) :   0.8630 B(  0-O ,  2-H ) :   0.7761 B(  3-O ,  4-H ) :   0.8305
B(  3-O ,  5-H ) :   0.8092 B(  6-O ,  7-H ) :   0.8354 B(  6-O ,  8-H ) :   0.7988
B(  6-O , 23-H ) :   0.1017 B(  9-O , 10-H ) :   0.7944 B(  9-O , 11-H ) :   0.8349
B(  9-O , 17-H ) :   0.1061 B( 12-O , 13-H ) :   0.7739 B( 12-O , 14-H ) :   0.8241
B( 13-H , 15-O ) :   0.1084 B( 15-O , 16-H ) :   0.8483 B( 15-O , 17-H ) :   0.7565
B( 18-O , 19-H ) :   0.7915 B( 18-O , 20-H ) :   0.8509 B( 21-O , 22-H ) :   0.8483
B( 21-O , 23-H ) :   0.7571

MP2 TOTAL ENERGY:     -610.581348208 Eh
FINAL SINGLE POINT ENERGY      -610.581348207850

DIPOLE MOMENT
-------------
                                X             Y             Z
Electronic contribution:      0.03773      -0.07254      -0.39986
Nuclear contribution   :      0.87521      -0.33589      -1.40687
                        -----------------------------------------
Total Dipole Moment    :      0.91295      -0.40843      -1.80674
                        -----------------------------------------
Magnitude (a.u.)       :      2.06509
Magnitude (Debye)      :      5.24903

Rotational constants in cm-1:     0.033016     0.017955     0.015986
Rotational constants in MHz :   989.780948   538.264378   479.236353

                             ****ORCA TERMINATED NORMALLY****
TOTAL RUN TIME: 0 days 0 hours 2 minutes 57 seconds 899 msec
