                         Program Version 4.2.0 -  RELEASE  -
|  1> # 12h2o.su.etal.mol3,7,8,9,11
|  2> ! MP2 def2-TZVP EnGrad TightSCF
|  3>
|  4> %pal
|  5>     nprocs 6
|  6> end
|  7>
|  8> %maxcore 8000
|  9>
| 10> %scf
| 11>     ConvForced true
| 12> end
| 13>
| 14> *xyz 0 1
| 15> O  -1.752130000  -0.741530000  -2.896280000
| 16> H  -2.036450000  -0.920500000  -1.984040000
| 17> H  -0.921210000  -1.242140000  -2.984230000
| 18> O  -1.737840000  -0.885520000  -0.052730000
| 19> H  -2.090180000  -1.032320000   0.841890000
| 20> H  -0.839590000  -1.284090000  -0.017130000
| 21> O   1.752130000   0.741530000  -2.896280000
| 22> H   2.036450000   0.920500000  -1.984040000
| 23> H   0.921210000   1.242140000  -2.984230000
| 24> O   0.741530000  -1.752130000   2.896280000
| 25> H   0.920500000  -2.036450000   1.984040000
| 26> H   1.242140000  -0.921210000   2.984230000
| 27> O  -0.741530000   1.752130000   2.896280000
| 28> H  -0.920500000   2.036450000   1.984040000
| 29> H  -1.242140000   0.921210000   2.984230000
| 30> *
| 31>
| 32>                          ****END OF INPUT****

CARTESIAN COORDINATES (ANGSTROEM)
---------------------------------
  O     -1.752130   -0.741530   -2.896280
  H     -2.036450   -0.920500   -1.984040
  H     -0.921210   -1.242140   -2.984230
  O     -1.737840   -0.885520   -0.052730
  H     -2.090180   -1.032320    0.841890
  H     -0.839590   -1.284090   -0.017130
  O      1.752130    0.741530   -2.896280
  H      2.036450    0.920500   -1.984040
  H      0.921210    1.242140   -2.984230
  O      0.741530   -1.752130    2.896280
  H      0.920500   -2.036450    1.984040
  H      1.242140   -0.921210    2.984230
  O     -0.741530    1.752130    2.896280
  H     -0.920500    2.036450    1.984040
  H     -1.242140    0.921210    2.984230

 Total Charge           Charge          ....    0
 Multiplicity           Mult            ....    1
 Number of Electrons    NEL             ....   50
 Basis Dimension        Dim             ....  215

ORBITAL ENERGIES
----------------

  NO   OCC          E(Eh)            E(eV)
   0   2.0000     -20.607652      -560.7627
   1   2.0000     -20.588076      -560.2300
   2   2.0000     -20.575956      -559.9002
   3   2.0000     -20.568522      -559.6979
   4   2.0000     -20.541224      -558.9551
   5   2.0000      -1.385736       -37.7078
   6   2.0000      -1.367009       -37.1982
   7   2.0000      -1.354987       -36.8711
   8   2.0000      -1.347680       -36.6722
   9   2.0000      -1.322983       -36.0002
  10   2.0000      -0.748321       -20.3628
  11   2.0000      -0.729637       -19.8544
  12   2.0000      -0.717467       -19.5233
  13   2.0000      -0.710288       -19.3279
  14   2.0000      -0.693289       -18.8653
  15   2.0000      -0.625133       -17.0107
  16   2.0000      -0.604297       -16.4437
  17   2.0000      -0.592662       -16.1272
  18   2.0000      -0.585367       -15.9286
  19   2.0000      -0.563158       -15.3243
  20   2.0000      -0.546385       -14.8679
  21   2.0000      -0.532318       -14.4851
  22   2.0000      -0.519187       -14.1278
  23   2.0000      -0.513053       -13.9609
  24   2.0000      -0.487099       -13.2546
  25   0.0000       0.062586         1.7030
  26   0.0000       0.114369         3.1121
  27   0.0000       0.123466         3.3597
  28   0.0000       0.140256         3.8165
  29   0.0000       0.171642         4.6706

MULLIKEN ATOMIC CHARGES
-----------------------
   0 O :   -0.696768
   1 H :    0.368911
   2 H :    0.325840
   3 O :   -0.687741
   4 H :    0.352910
   5 H :    0.335082
   6 O :   -0.680718
   7 H :    0.330374
   8 H :    0.349498
   9 O :   -0.675071
  10 H :    0.325908
  11 H :    0.351896
  12 O :   -0.676633
  13 H :    0.340476
  14 H :    0.336037
Sum of atomic charges:   -0.0000000

LOEWDIN ATOMIC CHARGES
----------------------
   0 O :   -0.338005
   1 H :    0.152300
   2 H :    0.158623
   3 O :   -0.313960
   4 H :    0.169997
   5 H :    0.169776
   6 O :   -0.332463
   7 H :    0.162115
   8 H :    0.169911
   9 O :   -0.327610
  10 H :    0.158586
  11 H :    0.171342
  12 O :   -0.329638
  13 H :    0.165973
  14 H :    0.163053

  Mayer bond orders larger than 0.100000
B(  0-O ,  1-H ) :   0.8235 B(  0-O ,  2-H ) :   0.8564 B(  3-O ,  4-H ) :   0.8390
B(  3-O ,  5-H ) :   0.8442 B(  6-O ,  7-H ) :   0.8567 B(  6-O ,  8-H ) :   0.8417
B(  9-O , 10-H ) :   0.8578 B(  9-O , 11-H ) :   0.8403 B( 12-O , 13-H ) :   0.8503
B( 12-O , 14-H ) :   0.8504

MP2 TOTAL ENERGY:     -381.576100511 Eh
FINAL SINGLE POINT ENERGY      -381.576100511314

DIPOLE MOMENT
-------------
                                X             Y             Z
Electronic contribution:     -0.11224       0.10686       0.05627
Nuclear contribution   :      0.45439      -0.45394       0.77428
                        -----------------------------------------
Total Dipole Moment    :      0.34215      -0.34709       0.83055
                        -----------------------------------------
Magnitude (a.u.)       :      0.96299
Magnitude (Debye)      :      2.44772

Rotational constants in cm-1:     0.053242     0.023392     0.021760
Rotational constants in MHz :  1596.152970   701.277337   652.356822

                             ****ORCA TERMINATED NORMALLY****
TOTAL RUN TIME: 0 days 0 hours 0 minutes 38 seconds 941 msec
