                         Program Version 4.2.0 -  RELEASE  -
|  1> # 12h2o.su.etal.mol1,2,5,6,7,9
|  2> ! MP2 def2-TZVP EnGrad TightSCF
|  3>
|  4> %pal
|  5>     nprocs 6
|  6> end
|  7>
|  8> %maxcore 8000
|  9>
| 10> %scf
| 11>     ConvForced true
| 12> end
| 13>
| 14> *xyz 0 1
| 15> O  -1.794470000  -0.923410000   2.768350000
| 16> H  -2.338250000  -1.359750000   3.430940000
| 17> H  -0.879480000  -1.303000000   2.865760000
| 18> O   0.923410000  -1.794470000  -2.768350000
| 19> H   1.359750000  -2.338250000  -3.430940000
| 20> H   1.303000000  -0.879480000  -2.865760000
| 21> O   0.885520000  -1.737840000   0.052730000
| 22> H   1.284090000  -0.839590000   0.017130000
| 23> H   1.032320000  -2.090180000  -0.841890000
| 24> O   1.737840000   0.885520000  -0.052730000
| 25> H   2.090180000   1.032320000   0.841890000
| 26> H   0.839590000   1.284090000  -0.017130000
| 27> O  -1.737840000  -0.885520000  -0.052730000
| 28> H  -2.090180000  -1.032320000   0.841890000
| 29> H  -0.839590000  -1.284090000  -0.017130000
| 30> O   0.741530000  -1.752130000   2.896280000
| 31> H   0.920500000  -2.036450000   1.984040000
| 32> H   1.242140000  -0.921210000   2.984230000
| 33> *
| 34>
| 35>                          ****END OF INPUT****

CARTESIAN COORDINATES (ANGSTROEM)
---------------------------------
  O     -1.794470   -0.923410    2.768350
  H     -2.338250   -1.359750    3.430940
  H     -0.879480   -1.303000    2.865760
  O      0.923410   -1.794470   -2.768350
  H      1.359750   -2.338250   -3.430940
  H      1.303000   -0.879480   -2.865760
  O      0.885520   -1.737840    0.052730
  H      1.284090   -0.839590    0.017130
  H      1.032320   -2.090180   -0.841890
  O      1.737840    0.885520   -0.052730
  H      2.090180    1.032320    0.841890
  H      0.839590    1.284090   -0.017130
  O     -1.737840   -0.885520   -0.052730
  H     -2.090180   -1.032320    0.841890
  H     -0.839590   -1.284090   -0.017130
  O      0.741530   -1.752130    2.896280
  H      0.920500   -2.036450    1.984040
  H      1.242140   -0.921210    2.984230

 Total Charge           Charge          ....    0
 Multiplicity           Mult            ....    1
 Number of Electrons    NEL             ....   60
 Basis Dimension        Dim             ....  258

ORBITAL ENERGIES
----------------

  NO   OCC          E(Eh)            E(eV)
   0   2.0000     -20.611515      -560.8678
   1   2.0000     -20.589464      -560.2678
   2   2.0000     -20.576453      -559.9137
   3   2.0000     -20.556319      -559.3659
   4   2.0000     -20.527167      -558.5726
   5   2.0000     -20.482285      -557.3513
   6   2.0000      -1.392693       -37.8971
   7   2.0000      -1.368687       -37.2439
   8   2.0000      -1.366022       -37.1714
   9   2.0000      -1.344185       -36.5771
  10   2.0000      -1.311733       -35.6941
  11   2.0000      -1.266467       -34.4623
  12   2.0000      -0.749646       -20.3989
  13   2.0000      -0.735701       -20.0194
  14   2.0000      -0.729023       -19.8377
  15   2.0000      -0.717353       -19.5202
  16   2.0000      -0.696656       -18.9570
  17   2.0000      -0.651677       -17.7330
  18   2.0000      -0.638487       -17.3741
  19   2.0000      -0.616400       -16.7731
  20   2.0000      -0.606154       -16.4943
  21   2.0000      -0.580361       -15.7924
  22   2.0000      -0.563143       -15.3239
  23   2.0000      -0.545323       -14.8390
  24   2.0000      -0.533659       -14.5216
  25   2.0000      -0.524278       -14.2663
  26   2.0000      -0.506743       -13.7892
  27   2.0000      -0.489011       -13.3067
  28   2.0000      -0.470225       -12.7955
  29   2.0000      -0.433455       -11.7949
  30   0.0000       0.082104         2.2342
  31   0.0000       0.115665         3.1474
  32   0.0000       0.154366         4.2005
  33   0.0000       0.165886         4.5140
  34   0.0000       0.193277         5.2593

MULLIKEN ATOMIC CHARGES
-----------------------
   0 O :   -0.735958
   1 H :    0.330813
   2 H :    0.367699
   3 O :   -0.690128
   4 H :    0.350623
   5 H :    0.358991
   6 O :   -0.748887
   7 H :    0.346489
   8 H :    0.385073
   9 O :   -0.690764
  10 H :    0.352350
  11 H :    0.378784
  12 O :   -0.744672
  13 H :    0.359612
  14 H :    0.344494
  15 O :   -0.688910
  16 H :    0.392266
  17 H :    0.332123
Sum of atomic charges:   -0.0000000

LOEWDIN ATOMIC CHARGES
----------------------
   0 O :   -0.342773
   1 H :    0.150446
   2 H :    0.143073
   3 O :   -0.306593
   4 H :    0.163161
   5 H :    0.187303
   6 O :   -0.303815
   7 H :    0.138146
   8 H :    0.154897
   9 O :   -0.290145
  10 H :    0.170221
  11 H :    0.188386
  12 O :   -0.375924
  13 H :    0.143394
  14 H :    0.132640
  15 O :   -0.274963
  16 H :    0.159167
  17 H :    0.163379

  Mayer bond orders larger than 0.100000
B(  0-O ,  1-H ) :   0.8537 B(  0-O ,  2-H ) :   0.7669 B(  3-O ,  4-H ) :   0.8428
B(  3-O ,  5-H ) :   0.8317 B(  6-O ,  7-H ) :   0.7820 B(  6-O ,  8-H ) :   0.7975
B(  9-O , 10-H ) :   0.8407 B(  9-O , 11-H ) :   0.8168 B( 12-O , 13-H ) :   0.8210
B( 12-O , 14-H ) :   0.8131 B( 15-O , 16-H ) :   0.7912 B( 15-O , 17-H ) :   0.8516

MP2 TOTAL ENERGY:     -457.925598596 Eh
FINAL SINGLE POINT ENERGY      -457.925598595812

DIPOLE MOMENT
-------------
                                X             Y             Z
Electronic contribution:      0.21749      -0.03537      -0.30250
Nuclear contribution   :      2.00773       0.53919       0.08817
                        -----------------------------------------
Total Dipole Moment    :      2.22522       0.50382      -0.21433
                        -----------------------------------------
Magnitude (a.u.)       :      2.29159
Magnitude (Debye)      :      5.82475

Rotational constants in cm-1:     0.065123     0.030723     0.027050
Rotational constants in MHz :  1952.325706   921.056959   810.951834

                             ****ORCA TERMINATED NORMALLY****
TOTAL RUN TIME: 0 days 0 hours 1 minutes 11 seconds 803 msec
