                         Program Version 4.2.0 -  RELEASE  -
|  1> # 12mecn.remya.etal.2.mol1,6,10
|  2> ! MP2 def2-TZVP EnGrad TightSCF
|  3>
|  4> %pal
|  5>     nprocs 6
|  6> end
|  7>
|  8> %maxcore 8000
|  9>
| 10> %scf
| 11>     ConvForced true
| 12> end
| 13>
| 14> *xyz 0 1
| 15> C  -4.697980000  -0.249690000   1.746215000
| 16> H  -4.927570000   0.755530000   2.111799000
| 17> H  -3.709180000  -0.561560000   2.093253000
| 18> H  -5.432280000  -0.961520000   2.128066000
| 19> C  -4.714100000  -0.247110000   0.301670000
| 20> N  -4.729750000  -0.234960000  -0.865260000
| 21> C   5.300864000  -2.920090000   1.401103000
| 22> H   5.986071000  -2.139770000   1.737487000
| 23> H   5.636642000  -3.888750000   1.778233000
| 24> H   4.307359000  -2.697240000   1.799307000
| 25> C   5.234791000  -2.933140000  -0.043290000
| 26> N   5.170868000  -2.941760000  -1.207750000
| 27> C   4.602033000   0.321019000  -1.784800000
| 28> H   4.827650000  -0.662160000  -2.207910000
| 29> H   5.320558000   1.057980000  -2.148500000
| 30> H   3.601982000   0.643751000  -2.087520000
| 31> C   4.654967000   0.244048000  -0.343060000
| 32> N   4.691648000   0.166590000   0.820757000
| 33> *
| 34>
| 35>                          ****END OF INPUT****

CARTESIAN COORDINATES (ANGSTROEM)
---------------------------------
  C     -4.697980   -0.249690    1.746215
  H     -4.927570    0.755530    2.111799
  H     -3.709180   -0.561560    2.093253
  H     -5.432280   -0.961520    2.128066
  C     -4.714100   -0.247110    0.301670
  N     -4.729750   -0.234960   -0.865260
  C      5.300864   -2.920090    1.401103
  H      5.986071   -2.139770    1.737487
  H      5.636642   -3.888750    1.778233
  H      4.307359   -2.697240    1.799307
  C      5.234791   -2.933140   -0.043290
  N      5.170868   -2.941760   -1.207750
  C      4.602033    0.321019   -1.784800
  H      4.827650   -0.662160   -2.207910
  H      5.320558    1.057980   -2.148500
  H      3.601982    0.643751   -2.087520
  C      4.654967    0.244048   -0.343060
  N      4.691648    0.166590    0.820757

 Total Charge           Charge          ....    0
 Multiplicity           Mult            ....    1
 Number of Electrons    NEL             ....   66
 Basis Dimension        Dim             ....  333

ORBITAL ENERGIES
----------------

  NO   OCC          E(Eh)            E(eV)
   0   2.0000     -15.573406      -423.7739
   1   2.0000     -15.571128      -423.7119
   2   2.0000     -15.570196      -423.6866
   3   2.0000     -11.285139      -307.0842
   4   2.0000     -11.282964      -307.0250
   5   2.0000     -11.282343      -307.0082
   6   2.0000     -11.280377      -306.9547
   7   2.0000     -11.272210      -306.7324
   8   2.0000     -11.271533      -306.7140
   9   2.0000      -1.218138       -33.1472
  10   2.0000      -1.214559       -33.0498
  11   2.0000      -1.213369       -33.0174
  12   2.0000      -1.044480       -28.4217
  13   2.0000      -1.036402       -28.2019
  14   2.0000      -1.033363       -28.1192
  15   2.0000      -0.700384       -19.0584
  16   2.0000      -0.695089       -18.9143
  17   2.0000      -0.690902       -18.8004
  18   2.0000      -0.634426       -17.2636
  19   2.0000      -0.631683       -17.1890
  20   2.0000      -0.630295       -17.1512
  21   2.0000      -0.621470       -16.9111
  22   2.0000      -0.618114       -16.8197
  23   2.0000      -0.616225       -16.7683
  24   2.0000      -0.559021       -15.2117
  25   2.0000      -0.556048       -15.1308
  26   2.0000      -0.555790       -15.1238
  27   2.0000      -0.463082       -12.6011
  28   2.0000      -0.458290       -12.4707
  29   2.0000      -0.457919       -12.4606
  30   2.0000      -0.457405       -12.4466
  31   2.0000      -0.456981       -12.4351
  32   2.0000      -0.452861       -12.3230
  33   0.0000       0.118967         3.2373
  34   0.0000       0.126504         3.4424
  35   0.0000       0.145333         3.9547
  36   0.0000       0.170913         4.6508
  37   0.0000       0.171542         4.6679

MULLIKEN ATOMIC CHARGES
-----------------------
   0 C :   -0.278766
   1 H :    0.172415
   2 H :    0.172227
   3 H :    0.172078
   4 C :   -0.145662
   5 N :   -0.092292
   6 C :   -0.261598
   7 H :    0.183193
   8 H :    0.171279
   9 H :    0.172229
  10 C :   -0.118198
  11 N :   -0.146812
  12 C :   -0.286681
  13 H :    0.205904
  14 H :    0.166369
  15 H :    0.167833
  16 C :   -0.111284
  17 N :   -0.142235
Sum of atomic charges:    0.0000000

LOEWDIN ATOMIC CHARGES
----------------------
   0 C :   -0.283681
   1 H :    0.153073
   2 H :    0.152947
   3 H :    0.151615
   4 C :   -0.219771
   5 N :    0.045819
   6 C :   -0.285077
   7 H :    0.155789
   8 H :    0.148399
   9 H :    0.156491
  10 C :   -0.209222
  11 N :    0.029780
  12 C :   -0.281544
  13 H :    0.157406
  14 H :    0.150529
  15 H :    0.153212
  16 C :   -0.209110
  17 N :    0.033347

  Mayer bond orders larger than 0.100000
B(  0-C ,  1-H ) :   0.9159 B(  0-C ,  2-H ) :   0.9166 B(  0-C ,  3-H ) :   0.9170
B(  0-C ,  4-C ) :   0.9015 B(  4-C ,  5-N ) :   2.8368 B(  6-C ,  7-H ) :   0.9109
B(  6-C ,  8-H ) :   0.9100 B(  6-C ,  9-H ) :   0.9138 B(  6-C , 10-C ) :   0.9133
B( 10-C , 11-N ) :   2.7743 B( 12-C , 13-H ) :   0.9016 B( 12-C , 14-H ) :   0.9165
B( 12-C , 15-H ) :   0.9148 B( 12-C , 16-C ) :   0.8992 B( 16-C , 17-N ) :   2.7905

MP2 TOTAL ENERGY:     -397.459162145 Eh
FINAL SINGLE POINT ENERGY      -397.459162145194

DIPOLE MOMENT
-------------
                                X             Y             Z
Electronic contribution:     -0.05122      -0.21145      -3.13416
Nuclear contribution   :      0.09011       0.30694       4.66581
                        -----------------------------------------
Total Dipole Moment    :      0.03889       0.09549       1.53165
                        -----------------------------------------
Magnitude (a.u.)       :      1.53512
Magnitude (Debye)      :      3.90196

Rotational constants in cm-1:     0.045810     0.006119     0.005913
Rotational constants in MHz :  1373.349390   183.429971   177.269612

                             ****ORCA TERMINATED NORMALLY****
TOTAL RUN TIME: 0 days 0 hours 2 minutes 31 seconds 539 msec
