                         Program Version 4.2.0 -  RELEASE  -
|  1> # 12h2o.su.etal.mol0,1,3,4,6
|  2> ! MP2 def2-TZVP EnGrad TightSCF
|  3>
|  4> %pal
|  5>     nprocs 6
|  6> end
|  7>
|  8> %maxcore 8000
|  9>
| 10> %scf
| 11>     ConvForced true
| 12> end
| 13>
| 14> *xyz 0 1
| 15> O   1.794470000   0.923410000   2.768350000
| 16> H   2.338250000   1.359750000   3.430940000
| 17> H   0.879480000   1.303000000   2.865760000
| 18> O  -1.794470000  -0.923410000   2.768350000
| 19> H  -2.338250000  -1.359750000   3.430940000
| 20> H  -0.879480000  -1.303000000   2.865760000
| 21> O  -1.752130000  -0.741530000  -2.896280000
| 22> H  -2.036450000  -0.920500000  -1.984040000
| 23> H  -0.921210000  -1.242140000  -2.984230000
| 24> O  -0.885520000   1.737840000   0.052730000
| 25> H  -1.032320000   2.090180000  -0.841890000
| 26> H  -1.284090000   0.839590000   0.017130000
| 27> O   1.737840000   0.885520000  -0.052730000
| 28> H   2.090180000   1.032320000   0.841890000
| 29> H   0.839590000   1.284090000  -0.017130000
| 30> *
| 31>
| 32>                          ****END OF INPUT****

CARTESIAN COORDINATES (ANGSTROEM)
---------------------------------
  O      1.794470    0.923410    2.768350
  H      2.338250    1.359750    3.430940
  H      0.879480    1.303000    2.865760
  O     -1.794470   -0.923410    2.768350
  H     -2.338250   -1.359750    3.430940
  H     -0.879480   -1.303000    2.865760
  O     -1.752130   -0.741530   -2.896280
  H     -2.036450   -0.920500   -1.984040
  H     -0.921210   -1.242140   -2.984230
  O     -0.885520    1.737840    0.052730
  H     -1.032320    2.090180   -0.841890
  H     -1.284090    0.839590    0.017130
  O      1.737840    0.885520   -0.052730
  H      2.090180    1.032320    0.841890
  H      0.839590    1.284090   -0.017130

 Total Charge           Charge          ....    0
 Multiplicity           Mult            ....    1
 Number of Electrons    NEL             ....   50
 Basis Dimension        Dim             ....  215

ORBITAL ENERGIES
----------------

  NO   OCC          E(Eh)            E(eV)
   0   2.0000     -20.583329      -560.1008
   1   2.0000     -20.580355      -560.0199
   2   2.0000     -20.575727      -559.8940
   3   2.0000     -20.568128      -559.6872
   4   2.0000     -20.495069      -557.6992
   5   2.0000      -1.363888       -37.1133
   6   2.0000      -1.358139       -36.9568
   7   2.0000      -1.350995       -36.7624
   8   2.0000      -1.347124       -36.6571
   9   2.0000      -1.279739       -34.8235
  10   2.0000      -0.725628       -19.7453
  11   2.0000      -0.721844       -19.6424
  12   2.0000      -0.718673       -19.5561
  13   2.0000      -0.709926       -19.3181
  14   2.0000      -0.664872       -18.0921
  15   2.0000      -0.607468       -16.5300
  16   2.0000      -0.592197       -16.1145
  17   2.0000      -0.588023       -16.0009
  18   2.0000      -0.584586       -15.9074
  19   2.0000      -0.548603       -14.9283
  20   2.0000      -0.519756       -14.1433
  21   2.0000      -0.518289       -14.1034
  22   2.0000      -0.511835       -13.9277
  23   2.0000      -0.496341       -13.5061
  24   2.0000      -0.446227       -12.1424
  25   0.0000       0.091486         2.4895
  26   0.0000       0.116302         3.1647
  27   0.0000       0.134790         3.6678
  28   0.0000       0.162907         4.4329
  29   0.0000       0.184297         5.0150

MULLIKEN ATOMIC CHARGES
-----------------------
   0 O :   -0.699418
   1 H :    0.346151
   2 H :    0.361046
   3 O :   -0.695123
   4 H :    0.343560
   5 H :    0.353660
   6 O :   -0.674649
   7 H :    0.329454
   8 H :    0.348488
   9 O :   -0.683330
  10 H :    0.360817
  11 H :    0.352813
  12 O :   -0.736638
  13 H :    0.357416
  14 H :    0.335752
Sum of atomic charges:   -0.0000000

LOEWDIN ATOMIC CHARGES
----------------------
   0 O :   -0.313114
   1 H :    0.160611
   2 H :    0.186310
   3 O :   -0.342639
   4 H :    0.160396
   5 H :    0.184234
   6 O :   -0.329720
   7 H :    0.160269
   8 H :    0.172033
   9 O :   -0.290837
  10 H :    0.174088
  11 H :    0.175415
  12 O :   -0.374003
  13 H :    0.143012
  14 H :    0.133944

  Mayer bond orders larger than 0.100000
B(  0-O ,  1-H ) :   0.8446 B(  0-O ,  2-H ) :   0.8279 B(  3-O ,  4-H ) :   0.8500
B(  3-O ,  5-H ) :   0.8362 B(  6-O ,  7-H ) :   0.8561 B(  6-O ,  8-H ) :   0.8459
B(  9-O , 10-H ) :   0.8353 B(  9-O , 11-H ) :   0.8337 B( 12-O , 13-H ) :   0.8310
B( 12-O , 14-H ) :   0.8149

MP2 TOTAL ENERGY:     -381.581709546 Eh
FINAL SINGLE POINT ENERGY      -381.581709546447

DIPOLE MOMENT
-------------
                                X             Y             Z
Electronic contribution:     -0.14224       0.12450      -0.17140
Nuclear contribution   :     -0.45337      -0.56611       1.95129
                        -----------------------------------------
Total Dipole Moment    :     -0.59561      -0.44160       1.77990
                        -----------------------------------------
Magnitude (a.u.)       :      1.92816
Magnitude (Debye)      :      4.90099

Rotational constants in cm-1:     0.059480     0.032807     0.024407
Rotational constants in MHz :  1783.152288   983.523185   731.696953

                             ****ORCA TERMINATED NORMALLY****
TOTAL RUN TIME: 0 days 0 hours 0 minutes 59 seconds 197 msec
