                         Program Version 4.2.0 -  RELEASE  -
|  1> # 12meoh.boyd.etal.mol0,4,10
|  2> ! MP2 def2-TZVP EnGrad TightSCF
|  3>
|  4> %pal
|  5>     nprocs 6
|  6> end
|  7>
|  8> %maxcore 8000
|  9>
| 10> %scf
| 11>     ConvForced true
| 12> end
| 13>
| 14> *xyz 0 1
| 15> O  -1.776108874  -2.741384797  -1.019308298
| 16> H  -2.520094035  -2.452295987  -0.420778302
| 17> C  -2.174025166  -3.952700964  -1.647004581
| 18> H  -1.359803895  -4.272673416  -2.304149236
| 19> H  -3.075973971  -3.808692420  -2.256751112
| 20> H  -2.370225393  -4.752784761  -0.918966137
| 21> O  -1.358578914   1.232360421   1.189721000
| 22> H  -1.058250183   1.216459361   0.238591307
| 23> C  -0.389763452   1.957872567   1.943072362
| 24> H  -0.747220771   2.012806578   2.975200343
| 25> H  -0.260410585   2.982763209   1.565366540
| 26> H   0.585220638   1.453754179   1.934070793
| 27> O  -5.201143618   0.064582726  -0.172223772
| 28> H  -4.686891530   0.869258890   0.107806143
| 29> C  -6.513192168   0.171391798   0.359883449
| 30> H  -7.049381312  -0.749234190   0.111361174
| 31> H  -7.057741163   1.017801101  -0.081819420
| 32> H  -6.514770575   0.292264928   1.453058834
| 33> *
| 34>
| 35>                          ****END OF INPUT****

CARTESIAN COORDINATES (ANGSTROEM)
---------------------------------
  O     -1.776109   -2.741385   -1.019308
  H     -2.520094   -2.452296   -0.420778
  C     -2.174025   -3.952701   -1.647005
  H     -1.359804   -4.272673   -2.304149
  H     -3.075974   -3.808692   -2.256751
  H     -2.370225   -4.752785   -0.918966
  O     -1.358579    1.232360    1.189721
  H     -1.058250    1.216459    0.238591
  C     -0.389763    1.957873    1.943072
  H     -0.747221    2.012807    2.975200
  H     -0.260411    2.982763    1.565367
  H      0.585221    1.453754    1.934071
  O     -5.201144    0.064583   -0.172224
  H     -4.686892    0.869259    0.107806
  C     -6.513192    0.171392    0.359883
  H     -7.049381   -0.749234    0.111361
  H     -7.057741    1.017801   -0.081819
  H     -6.514771    0.292265    1.453059

 Total Charge           Charge          ....    0
 Multiplicity           Mult            ....    1
 Number of Electrons    NEL             ....   54
 Basis Dimension        Dim             ....  258

ORBITAL ENERGIES
----------------

  NO   OCC          E(Eh)            E(eV)
   0   2.0000     -20.558541      -559.4263
   1   2.0000     -20.554781      -559.3240
   2   2.0000     -20.546297      -559.0932
   3   2.0000     -11.272166      -306.7312
   4   2.0000     -11.269531      -306.6595
   5   2.0000     -11.262260      -306.4617
   6   2.0000      -1.345936       -36.6248
   7   2.0000      -1.344902       -36.5966
   8   2.0000      -1.335677       -36.3456
   9   2.0000      -0.919694       -25.0262
  10   2.0000      -0.917130       -24.9564
  11   2.0000      -0.909393       -24.7459
  12   2.0000      -0.680960       -18.5299
  13   2.0000      -0.679764       -18.4973
  14   2.0000      -0.670666       -18.2497
  15   2.0000      -0.617154       -16.7936
  16   2.0000      -0.614614       -16.7245
  17   2.0000      -0.607201       -16.5228
  18   2.0000      -0.591010       -16.0822
  19   2.0000      -0.589262       -16.0346
  20   2.0000      -0.581055       -15.8113
  21   2.0000      -0.501237       -13.6393
  22   2.0000      -0.497914       -13.5489
  23   2.0000      -0.490282       -13.3412
  24   2.0000      -0.449951       -12.2438
  25   2.0000      -0.446141       -12.1401
  26   2.0000      -0.438227       -11.9248
  27   0.0000       0.120002         3.2654
  28   0.0000       0.147405         4.0111
  29   0.0000       0.155034         4.2187
  30   0.0000       0.169041         4.5998
  31   0.0000       0.192281         5.2322

MULLIKEN ATOMIC CHARGES
-----------------------
   0 O :   -0.504722
   1 H :    0.332343
   2 C :   -0.171725
   3 H :    0.123773
   4 H :    0.111482
   5 H :    0.106542
   6 O :   -0.503601
   7 H :    0.329003
   8 C :   -0.174494
   9 H :    0.127844
  10 H :    0.109158
  11 H :    0.114974
  12 O :   -0.503864
  13 H :    0.330169
  14 C :   -0.172609
  15 H :    0.125599
  16 H :    0.108391
  17 H :    0.111737
Sum of atomic charges:   -0.0000000

LOEWDIN ATOMIC CHARGES
----------------------
   0 O :   -0.111282
   1 H :    0.196447
   2 C :   -0.385242
   3 H :    0.108294
   4 H :    0.095762
   5 H :    0.094361
   6 O :   -0.115274
   7 H :    0.194730
   8 C :   -0.379653
   9 H :    0.109738
  10 H :    0.095424
  11 H :    0.097141
  12 O :   -0.109478
  13 H :    0.193929
  14 C :   -0.385174
  15 H :    0.109034
  16 H :    0.095130
  17 H :    0.096115

  Mayer bond orders larger than 0.100000
B(  0-O ,  1-H ) :   0.8334 B(  0-O ,  2-C ) :   0.9321 B(  2-C ,  3-H ) :   0.9380
B(  2-C ,  4-H ) :   0.9396 B(  2-C ,  5-H ) :   0.9388 B(  6-O ,  7-H ) :   0.8365
B(  6-O ,  8-C ) :   0.9230 B(  8-C ,  9-H ) :   0.9381 B(  8-C , 10-H ) :   0.9387
B(  8-C , 11-H ) :   0.9381 B( 12-O , 13-H ) :   0.8343 B( 12-O , 14-C ) :   0.9282
B( 14-C , 15-H ) :   0.9383 B( 14-C , 16-H ) :   0.9389 B( 14-C , 17-H ) :   0.9382

MP2 TOTAL ENERGY:     -346.523971733 Eh
FINAL SINGLE POINT ENERGY      -346.523971733380

DIPOLE MOMENT
-------------
                                X             Y             Z
Electronic contribution:      0.99152       0.35836      -0.79260
Nuclear contribution   :     -1.22557       0.19688       1.04664
                        -----------------------------------------
Total Dipole Moment    :     -0.23406       0.55523       0.25404
                        -----------------------------------------
Magnitude (a.u.)       :      0.65391
Magnitude (Debye)      :      1.66211

Rotational constants in cm-1:     0.035944     0.028946     0.016310
Rotational constants in MHz :  1077.562189   867.793468   488.959064

                             ****ORCA TERMINATED NORMALLY****
TOTAL RUN TIME: 0 days 0 hours 0 minutes 54 seconds 805 msec
