                         Program Version 4.2.0 -  RELEASE  -
|  1> # 12h2o.su.etal.mol2,3,4,7,8,9,10
|  2> ! MP2 def2-TZVP EnGrad TightSCF
|  3>
|  4> %pal
|  5>     nprocs 6
|  6> end
|  7>
|  8> %maxcore 8000
|  9>
| 10> %scf
| 11>     ConvForced true
| 12> end
| 13>
| 14> *xyz 0 1
| 15> O   0.923410000  -1.794470000  -2.768350000
| 16> H   1.359750000  -2.338250000  -3.430940000
| 17> H   1.303000000  -0.879480000  -2.865760000
| 18> O  -1.752130000  -0.741530000  -2.896280000
| 19> H  -2.036450000  -0.920500000  -1.984040000
| 20> H  -0.921210000  -1.242140000  -2.984230000
| 21> O  -0.885520000   1.737840000   0.052730000
| 22> H  -1.032320000   2.090180000  -0.841890000
| 23> H  -1.284090000   0.839590000   0.017130000
| 24> O  -1.737840000  -0.885520000  -0.052730000
| 25> H  -2.090180000  -1.032320000   0.841890000
| 26> H  -0.839590000  -1.284090000  -0.017130000
| 27> O   1.752130000   0.741530000  -2.896280000
| 28> H   2.036450000   0.920500000  -1.984040000
| 29> H   0.921210000   1.242140000  -2.984230000
| 30> O   0.741530000  -1.752130000   2.896280000
| 31> H   0.920500000  -2.036450000   1.984040000
| 32> H   1.242140000  -0.921210000   2.984230000
| 33> O  -0.923410000   1.794470000  -2.768350000
| 34> H  -1.359750000   2.338250000  -3.430940000
| 35> H  -1.303000000   0.879480000  -2.865760000
| 36> *
| 37>
| 38>                          ****END OF INPUT****

CARTESIAN COORDINATES (ANGSTROEM)
---------------------------------
  O      0.923410   -1.794470   -2.768350
  H      1.359750   -2.338250   -3.430940
  H      1.303000   -0.879480   -2.865760
  O     -1.752130   -0.741530   -2.896280
  H     -2.036450   -0.920500   -1.984040
  H     -0.921210   -1.242140   -2.984230
  O     -0.885520    1.737840    0.052730
  H     -1.032320    2.090180   -0.841890
  H     -1.284090    0.839590    0.017130
  O     -1.737840   -0.885520   -0.052730
  H     -2.090180   -1.032320    0.841890
  H     -0.839590   -1.284090   -0.017130
  O      1.752130    0.741530   -2.896280
  H      2.036450    0.920500   -1.984040
  H      0.921210    1.242140   -2.984230
  O      0.741530   -1.752130    2.896280
  H      0.920500   -2.036450    1.984040
  H      1.242140   -0.921210    2.984230
  O     -0.923410    1.794470   -2.768350
  H     -1.359750    2.338250   -3.430940
  H     -1.303000    0.879480   -2.865760

 Total Charge           Charge          ....    0
 Multiplicity           Mult            ....    1
 Number of Electrons    NEL             ....   70
 Basis Dimension        Dim             ....  301

ORBITAL ENERGIES
----------------

  NO   OCC          E(Eh)            E(eV)
   0   2.0000     -20.613898      -560.9327
   1   2.0000     -20.577708      -559.9479
   2   2.0000     -20.574605      -559.8635
   3   2.0000     -20.563126      -559.5511
   4   2.0000     -20.558810      -559.4337
   5   2.0000     -20.557839      -559.4072
   6   2.0000     -20.510220      -558.1115
   7   2.0000      -1.397010       -38.0146
   8   2.0000      -1.369328       -37.2613
   9   2.0000      -1.357011       -36.9261
  10   2.0000      -1.356667       -36.9168
  11   2.0000      -1.344459       -36.5846
  12   2.0000      -1.334171       -36.3046
  13   2.0000      -1.294614       -35.2282
  14   2.0000      -0.755884       -20.5686
  15   2.0000      -0.732240       -19.9253
  16   2.0000      -0.726324       -19.7643
  17   2.0000      -0.720989       -19.6191
  18   2.0000      -0.719500       -19.5786
  19   2.0000      -0.713364       -19.4116
  20   2.0000      -0.681325       -18.5398
  21   2.0000      -0.644656       -17.5420
  22   2.0000      -0.620140       -16.8749
  23   2.0000      -0.600009       -16.3271
  24   2.0000      -0.593963       -16.1625
  25   2.0000      -0.589424       -16.0390
  26   2.0000      -0.575842       -15.6695
  27   2.0000      -0.554406       -15.0862
  28   2.0000      -0.527426       -14.3520
  29   2.0000      -0.521335       -14.1862
  30   2.0000      -0.515819       -14.0361
  31   2.0000      -0.508340       -13.8326
  32   2.0000      -0.505788       -13.7632
  33   2.0000      -0.502459       -13.6726
  34   2.0000      -0.461026       -12.5452
  35   0.0000       0.081751         2.2246
  36   0.0000       0.126627         3.4457
  37   0.0000       0.145045         3.9469
  38   0.0000       0.149354         4.0641
  39   0.0000       0.167732         4.5642

MULLIKEN ATOMIC CHARGES
-----------------------
   0 O :   -0.751434
   1 H :    0.345527
   2 H :    0.379829
   3 O :   -0.722259
   4 H :    0.383122
   5 H :    0.370210
   6 O :   -0.735795
   7 H :    0.361781
   8 H :    0.337053
   9 O :   -0.710911
  10 H :    0.376413
  11 H :    0.360333
  12 O :   -0.709500
  13 H :    0.355469
  14 H :    0.381342
  15 O :   -0.672821
  16 H :    0.328608
  17 H :    0.348693
  18 O :   -0.756167
  19 H :    0.348853
  20 H :    0.381653
Sum of atomic charges:    0.0000000

LOEWDIN ATOMIC CHARGES
----------------------
   0 O :   -0.345761
   1 H :    0.157638
   2 H :    0.144775
   3 O :   -0.285479
   4 H :    0.155475
   5 H :    0.150355
   6 O :   -0.371696
   7 H :    0.143433
   8 H :    0.133262
   9 O :   -0.276306
  10 H :    0.180668
  11 H :    0.178750
  12 O :   -0.282981
  13 H :    0.171586
  14 H :    0.154848
  15 O :   -0.328678
  16 H :    0.159758
  17 H :    0.172183
  18 O :   -0.315794
  19 H :    0.158177
  20 H :    0.145788

  Mayer bond orders larger than 0.100000
B(  0-O ,  1-H ) :   0.8462 B(  0-O ,  2-H ) :   0.7465 B(  2-H , 12-O ) :   0.1124
B(  3-O ,  4-H ) :   0.8110 B(  3-O ,  5-H ) :   0.7907 B(  3-O , 20-H ) :   0.1206
B(  6-O ,  7-H ) :   0.8228 B(  6-O ,  8-H ) :   0.8213 B(  9-O , 10-H ) :   0.8237
B(  9-O , 11-H ) :   0.8244 B( 12-O , 13-H ) :   0.8373 B( 12-O , 14-H ) :   0.7848
B( 15-O , 16-H ) :   0.8567 B( 15-O , 17-H ) :   0.8457 B( 18-O , 19-H ) :   0.8410
B( 18-O , 20-H ) :   0.7288

MP2 TOTAL ENERGY:     -534.259618616 Eh
FINAL SINGLE POINT ENERGY      -534.259618615847

DIPOLE MOMENT
-------------
                                X             Y             Z
Electronic contribution:     -0.15910      -0.12620       0.11248
Nuclear contribution   :      0.56611      -0.45337      -0.57908
                        -----------------------------------------
Total Dipole Moment    :      0.40700      -0.57957      -0.46660
                        -----------------------------------------
Magnitude (a.u.)       :      0.84809
Magnitude (Debye)      :      2.15569

Rotational constants in cm-1:     0.038719     0.022233     0.020090
Rotational constants in MHz :  1160.772340   666.532202   602.284202

                             ****ORCA TERMINATED NORMALLY****
TOTAL RUN TIME: 0 days 0 hours 1 minutes 59 seconds 356 msec
