                         Program Version 4.2.0 -  RELEASE  -
|  1> # 12h2o.su.etal.mol1,2,5,6,7,9,10,11
|  2> ! MP2 def2-TZVP EnGrad TightSCF
|  3>
|  4> %pal
|  5>     nprocs 6
|  6> end
|  7>
|  8> %maxcore 8000
|  9>
| 10> %scf
| 11>     ConvForced true
| 12> end
| 13>
| 14> *xyz 0 1
| 15> O  -1.794470000  -0.923410000   2.768350000
| 16> H  -2.338250000  -1.359750000   3.430940000
| 17> H  -0.879480000  -1.303000000   2.865760000
| 18> O   0.923410000  -1.794470000  -2.768350000
| 19> H   1.359750000  -2.338250000  -3.430940000
| 20> H   1.303000000  -0.879480000  -2.865760000
| 21> O   0.885520000  -1.737840000   0.052730000
| 22> H   1.284090000  -0.839590000   0.017130000
| 23> H   1.032320000  -2.090180000  -0.841890000
| 24> O   1.737840000   0.885520000  -0.052730000
| 25> H   2.090180000   1.032320000   0.841890000
| 26> H   0.839590000   1.284090000  -0.017130000
| 27> O  -1.737840000  -0.885520000  -0.052730000
| 28> H  -2.090180000  -1.032320000   0.841890000
| 29> H  -0.839590000  -1.284090000  -0.017130000
| 30> O   0.741530000  -1.752130000   2.896280000
| 31> H   0.920500000  -2.036450000   1.984040000
| 32> H   1.242140000  -0.921210000   2.984230000
| 33> O  -0.923410000   1.794470000  -2.768350000
| 34> H  -1.359750000   2.338250000  -3.430940000
| 35> H  -1.303000000   0.879480000  -2.865760000
| 36> O  -0.741530000   1.752130000   2.896280000
| 37> H  -0.920500000   2.036450000   1.984040000
| 38> H  -1.242140000   0.921210000   2.984230000
| 39> *
| 40>
| 41>                          ****END OF INPUT****

CARTESIAN COORDINATES (ANGSTROEM)
---------------------------------
  O     -1.794470   -0.923410    2.768350
  H     -2.338250   -1.359750    3.430940
  H     -0.879480   -1.303000    2.865760
  O      0.923410   -1.794470   -2.768350
  H      1.359750   -2.338250   -3.430940
  H      1.303000   -0.879480   -2.865760
  O      0.885520   -1.737840    0.052730
  H      1.284090   -0.839590    0.017130
  H      1.032320   -2.090180   -0.841890
  O      1.737840    0.885520   -0.052730
  H      2.090180    1.032320    0.841890
  H      0.839590    1.284090   -0.017130
  O     -1.737840   -0.885520   -0.052730
  H     -2.090180   -1.032320    0.841890
  H     -0.839590   -1.284090   -0.017130
  O      0.741530   -1.752130    2.896280
  H      0.920500   -2.036450    1.984040
  H      1.242140   -0.921210    2.984230
  O     -0.923410    1.794470   -2.768350
  H     -1.359750    2.338250   -3.430940
  H     -1.303000    0.879480   -2.865760
  O     -0.741530    1.752130    2.896280
  H     -0.920500    2.036450    1.984040
  H     -1.242140    0.921210    2.984230

 Total Charge           Charge          ....    0
 Multiplicity           Mult            ....    1
 Number of Electrons    NEL             ....   80
 Basis Dimension        Dim             ....  344

ORBITAL ENERGIES
----------------

  NO   OCC          E(Eh)            E(eV)
   0   2.0000     -20.599714      -560.5467
   1   2.0000     -20.592313      -560.3453
   2   2.0000     -20.577465      -559.9413
   3   2.0000     -20.560086      -559.4684
   4   2.0000     -20.557701      -559.4035
   5   2.0000     -20.554265      -559.3100
   6   2.0000     -20.536390      -558.8236
   7   2.0000     -20.496399      -557.7354
   8   2.0000      -1.381664       -37.5970
   9   2.0000      -1.370999       -37.3068
  10   2.0000      -1.368843       -37.2481
  11   2.0000      -1.345669       -36.6175
  12   2.0000      -1.339478       -36.4491
  13   2.0000      -1.335417       -36.3386
  14   2.0000      -1.317671       -35.8557
  15   2.0000      -1.280542       -34.8453
  16   2.0000      -0.738566       -20.0974
  17   2.0000      -0.737180       -20.0597
  18   2.0000      -0.730172       -19.8690
  19   2.0000      -0.721501       -19.6330
  20   2.0000      -0.717570       -19.5261
  21   2.0000      -0.703332       -19.1386
  22   2.0000      -0.686500       -18.6806
  23   2.0000      -0.664076       -18.0704
  24   2.0000      -0.636429       -17.3181
  25   2.0000      -0.613860       -16.7040
  26   2.0000      -0.610463       -16.6116
  27   2.0000      -0.587842       -15.9960
  28   2.0000      -0.579672       -15.7737
  29   2.0000      -0.573040       -15.5932
  30   2.0000      -0.561172       -15.2703
  31   2.0000      -0.541876       -14.7452
  32   2.0000      -0.536037       -14.5863
  33   2.0000      -0.527366       -14.3504
  34   2.0000      -0.515604       -14.0303
  35   2.0000      -0.503667       -13.7055
  36   2.0000      -0.500613       -13.6224
  37   2.0000      -0.489243       -13.3130
  38   2.0000      -0.483565       -13.1585
  39   2.0000      -0.447445       -12.1756
  40   0.0000       0.089185         2.4269
  41   0.0000       0.113630         3.0920
  42   0.0000       0.137071         3.7299
  43   0.0000       0.150077         4.0838
  44   0.0000       0.159751         4.3471

MULLIKEN ATOMIC CHARGES
-----------------------
   0 O :   -0.748857
   1 H :    0.345179
   2 H :    0.383995
   3 O :   -0.700233
   4 H :    0.351528
   5 H :    0.366670
   6 O :   -0.752225
   7 H :    0.350917
   8 H :    0.384629
   9 O :   -0.690615
  10 H :    0.354211
  11 H :    0.375918
  12 O :   -0.744045
  13 H :    0.357292
  14 H :    0.347491
  15 O :   -0.698949
  16 H :    0.393053
  17 H :    0.344582
  18 O :   -0.699573
  19 H :    0.338430
  20 H :    0.361763
  21 O :   -0.716455
  22 H :    0.328432
  23 H :    0.366860
Sum of atomic charges:    0.0000000

LOEWDIN ATOMIC CHARGES
----------------------
   0 O :   -0.313240
   1 H :    0.156676
   2 H :    0.146630
   3 O :   -0.309860
   4 H :    0.163592
   5 H :    0.189283
   6 O :   -0.304707
   7 H :    0.139431
   8 H :    0.154630
   9 O :   -0.287648
  10 H :    0.170318
  11 H :    0.184370
  12 O :   -0.373752
  13 H :    0.141938
  14 H :    0.134086
  15 O :   -0.274762
  16 H :    0.159379
  17 H :    0.167371
  18 O :   -0.344539
  19 H :    0.158129
  20 H :    0.186652
  21 O :   -0.349618
  22 H :    0.157011
  23 H :    0.148631

  Mayer bond orders larger than 0.100000
B(  0-O ,  1-H ) :   0.8429 B(  0-O ,  2-H ) :   0.7430 B(  3-O ,  4-H ) :   0.8421
B(  3-O ,  5-H ) :   0.8243 B(  6-O ,  7-H ) :   0.7744 B(  6-O ,  8-H ) :   0.7982
B(  9-O , 10-H ) :   0.8382 B(  9-O , 11-H ) :   0.8154 B( 12-O , 13-H ) :   0.8252
B( 12-O , 14-H ) :   0.8054 B( 15-O , 16-H ) :   0.7907 B( 15-O , 17-H ) :   0.8416
B( 18-O , 19-H ) :   0.8528 B( 18-O , 20-H ) :   0.8295 B( 21-O , 22-H ) :   0.8557
B( 21-O , 23-H ) :   0.8042

MP2 TOTAL ENERGY:     -610.573719992 Eh
FINAL SINGLE POINT ENERGY      -610.573719991663

DIPOLE MOMENT
-------------
                                X             Y             Z
Electronic contribution:      0.33652      -0.10570      -0.07739
Nuclear contribution   :      0.76293      -0.22475      -1.23053
                        -----------------------------------------
Total Dipole Moment    :      1.09945      -0.33046      -1.30791
                        -----------------------------------------
Magnitude (a.u.)       :      1.74029
Magnitude (Debye)      :      4.42348

Rotational constants in cm-1:     0.031912     0.018493     0.015894
Rotational constants in MHz :   956.695439   554.415006   476.496324

                             ****ORCA TERMINATED NORMALLY****
TOTAL RUN TIME: 0 days 0 hours 3 minutes 5 seconds 957 msec
