                         Program Version 4.2.0 -  RELEASE  -
|  1> # 12meoh.boyd.etal.mol1,2,9
|  2> ! MP2 def2-TZVP EnGrad TightSCF
|  3>
|  4> %pal
|  5>     nprocs 6
|  6> end
|  7>
|  8> %maxcore 8000
|  9>
| 10> %scf
| 11>     ConvForced true
| 12> end
| 13>
| 14> *xyz 0 1
| 15> O   0.666045193  -2.600503172   0.138317521
| 16> H  -0.227115049  -2.712051982  -0.281868004
| 17> C   0.490021232  -1.851247678   1.341189459
| 18> H   1.466500502  -1.466176022   1.645844415
| 19> H   0.097564527  -2.488364683   2.146902740
| 20> H  -0.187588112  -1.000787499   1.200739571
| 21> O  -3.839777402   2.233595098   0.660436763
| 22> H  -2.958345897   1.907036203   0.973588449
| 23> C  -3.600368059   3.168790682  -0.390480452
| 24> H  -4.551709193   3.344148967  -0.901254863
| 25> H  -2.868237594   2.789240199  -1.113617525
| 26> H  -3.243594915   4.128998607   0.009549480
| 27> O   1.390610024   3.194080770  -1.536658882
| 28> H   2.162932299   2.881562730  -0.993525056
| 29> C   1.202977189   4.580367182  -1.302880219
| 30> H   0.374773115   4.915764831  -1.934164643
| 31> H   2.098649340   5.157710875  -1.570472348
| 32> H   0.950320401   4.800436015  -0.254328827
| 33> *
| 34>
| 35>                          ****END OF INPUT****

CARTESIAN COORDINATES (ANGSTROEM)
---------------------------------
  O      0.666045   -2.600503    0.138318
  H     -0.227115   -2.712052   -0.281868
  C      0.490021   -1.851248    1.341189
  H      1.466501   -1.466176    1.645844
  H      0.097565   -2.488365    2.146903
  H     -0.187588   -1.000787    1.200740
  O     -3.839777    2.233595    0.660437
  H     -2.958346    1.907036    0.973588
  C     -3.600368    3.168791   -0.390480
  H     -4.551709    3.344149   -0.901255
  H     -2.868238    2.789240   -1.113618
  H     -3.243595    4.128999    0.009549
  O      1.390610    3.194081   -1.536659
  H      2.162932    2.881563   -0.993525
  C      1.202977    4.580367   -1.302880
  H      0.374773    4.915765   -1.934165
  H      2.098649    5.157711   -1.570472
  H      0.950320    4.800436   -0.254329

 Total Charge           Charge          ....    0
 Multiplicity           Mult            ....    1
 Number of Electrons    NEL             ....   54
 Basis Dimension        Dim             ....  258

ORBITAL ENERGIES
----------------

  NO   OCC          E(Eh)            E(eV)
   0   2.0000     -20.563196      -559.5530
   1   2.0000     -20.557951      -559.4103
   2   2.0000     -20.556950      -559.3830
   3   2.0000     -11.277083      -306.8650
   4   2.0000     -11.273871      -306.7776
   5   2.0000     -11.270737      -306.6923
   6   2.0000      -1.353879       -36.8409
   7   2.0000      -1.346325       -36.6354
   8   2.0000      -1.346132       -36.6301
   9   2.0000      -0.925089       -25.1729
  10   2.0000      -0.921744       -25.0819
  11   2.0000      -0.918840       -25.0029
  12   2.0000      -0.688448       -18.7336
  13   2.0000      -0.682046       -18.5594
  14   2.0000      -0.681182       -18.5359
  15   2.0000      -0.622771       -16.9465
  16   2.0000      -0.618135       -16.8203
  17   2.0000      -0.616069       -16.7641
  18   2.0000      -0.597967       -16.2715
  19   2.0000      -0.591389       -16.0925
  20   2.0000      -0.589567       -16.0429
  21   2.0000      -0.504942       -13.7402
  22   2.0000      -0.502545       -13.6750
  23   2.0000      -0.500980       -13.6324
  24   2.0000      -0.454265       -12.3612
  25   2.0000      -0.450498       -12.2587
  26   2.0000      -0.448900       -12.2152
  27   0.0000       0.105988         2.8841
  28   0.0000       0.130507         3.5513
  29   0.0000       0.144135         3.9221
  30   0.0000       0.156416         4.2563
  31   0.0000       0.179521         4.8850

MULLIKEN ATOMIC CHARGES
-----------------------
   0 O :   -0.496190
   1 H :    0.323661
   2 C :   -0.171781
   3 H :    0.126392
   4 H :    0.112552
   5 H :    0.105305
   6 O :   -0.497962
   7 H :    0.320157
   8 C :   -0.178204
   9 H :    0.128262
  10 H :    0.121006
  11 H :    0.106450
  12 O :   -0.499096
  13 H :    0.324063
  14 C :   -0.173776
  15 H :    0.129074
  16 H :    0.113091
  17 H :    0.106995
Sum of atomic charges:    0.0000000

LOEWDIN ATOMIC CHARGES
----------------------
   0 O :   -0.111754
   1 H :    0.190659
   2 C :   -0.378178
   3 H :    0.108369
   4 H :    0.096601
   5 H :    0.094299
   6 O :   -0.111881
   7 H :    0.187355
   8 C :   -0.378505
   9 H :    0.109429
  10 H :    0.098475
  11 H :    0.095021
  12 O :   -0.106172
  13 H :    0.191630
  14 C :   -0.386691
  15 H :    0.110193
  16 H :    0.096520
  17 H :    0.094629

  Mayer bond orders larger than 0.100000
B(  0-O ,  1-H ) :   0.8420 B(  0-O ,  2-C ) :   0.9302 B(  2-C ,  3-H ) :   0.9383
B(  2-C ,  4-H ) :   0.9380 B(  2-C ,  5-H ) :   0.9415 B(  6-O ,  7-H ) :   0.8447
B(  6-O ,  8-C ) :   0.9244 B(  8-C ,  9-H ) :   0.9373 B(  8-C , 10-H ) :   0.9406
B(  8-C , 11-H ) :   0.9380 B( 12-O , 13-H ) :   0.8404 B( 12-O , 14-C ) :   0.9246
B( 14-C , 15-H ) :   0.9375 B( 14-C , 16-H ) :   0.9404 B( 14-C , 17-H ) :   0.9372

MP2 TOTAL ENERGY:     -346.520350608 Eh
FINAL SINGLE POINT ENERGY      -346.520350608200

DIPOLE MOMENT
-------------
                                X             Y             Z
Electronic contribution:      0.06639      -3.85727      -0.61555
Nuclear contribution   :      0.37763       4.63762       0.99539
                        -----------------------------------------
Total Dipole Moment    :      0.44402       0.78034       0.37984
                        -----------------------------------------
Magnitude (a.u.)       :      0.97487
Magnitude (Debye)      :      2.47791

Rotational constants in cm-1:     0.033601     0.020802     0.013389
Rotational constants in MHz :  1007.319483   623.615718   401.393403

                             ****ORCA TERMINATED NORMALLY****
TOTAL RUN TIME: 0 days 0 hours 0 minutes 48 seconds 412 msec
