                         Program Version 4.2.0 -  RELEASE  -
|  1> # 12h2o.su.etal.mol1,2,4,5,6,7,8
|  2> ! MP2 def2-TZVP EnGrad TightSCF
|  3>
|  4> %pal
|  5>     nprocs 6
|  6> end
|  7>
|  8> %maxcore 8000
|  9>
| 10> %scf
| 11>     ConvForced true
| 12> end
| 13>
| 14> *xyz 0 1
| 15> O  -1.794470000  -0.923410000   2.768350000
| 16> H  -2.338250000  -1.359750000   3.430940000
| 17> H  -0.879480000  -1.303000000   2.865760000
| 18> O   0.923410000  -1.794470000  -2.768350000
| 19> H   1.359750000  -2.338250000  -3.430940000
| 20> H   1.303000000  -0.879480000  -2.865760000
| 21> O  -0.885520000   1.737840000   0.052730000
| 22> H  -1.032320000   2.090180000  -0.841890000
| 23> H  -1.284090000   0.839590000   0.017130000
| 24> O   0.885520000  -1.737840000   0.052730000
| 25> H   1.284090000  -0.839590000   0.017130000
| 26> H   1.032320000  -2.090180000  -0.841890000
| 27> O   1.737840000   0.885520000  -0.052730000
| 28> H   2.090180000   1.032320000   0.841890000
| 29> H   0.839590000   1.284090000  -0.017130000
| 30> O  -1.737840000  -0.885520000  -0.052730000
| 31> H  -2.090180000  -1.032320000   0.841890000
| 32> H  -0.839590000  -1.284090000  -0.017130000
| 33> O   1.752130000   0.741530000  -2.896280000
| 34> H   2.036450000   0.920500000  -1.984040000
| 35> H   0.921210000   1.242140000  -2.984230000
| 36> *
| 37>
| 38>                          ****END OF INPUT****

CARTESIAN COORDINATES (ANGSTROEM)
---------------------------------
  O     -1.794470   -0.923410    2.768350
  H     -2.338250   -1.359750    3.430940
  H     -0.879480   -1.303000    2.865760
  O      0.923410   -1.794470   -2.768350
  H      1.359750   -2.338250   -3.430940
  H      1.303000   -0.879480   -2.865760
  O     -0.885520    1.737840    0.052730
  H     -1.032320    2.090180   -0.841890
  H     -1.284090    0.839590    0.017130
  O      0.885520   -1.737840    0.052730
  H      1.284090   -0.839590    0.017130
  H      1.032320   -2.090180   -0.841890
  O      1.737840    0.885520   -0.052730
  H      2.090180    1.032320    0.841890
  H      0.839590    1.284090   -0.017130
  O     -1.737840   -0.885520   -0.052730
  H     -2.090180   -1.032320    0.841890
  H     -0.839590   -1.284090   -0.017130
  O      1.752130    0.741530   -2.896280
  H      2.036450    0.920500   -1.984040
  H      0.921210    1.242140   -2.984230

 Total Charge           Charge          ....    0
 Multiplicity           Mult            ....    1
 Number of Electrons    NEL             ....   70
 Basis Dimension        Dim             ....  301

ORBITAL ENERGIES
----------------

  NO   OCC          E(Eh)            E(eV)
   0   2.0000     -20.584216      -560.1250
   1   2.0000     -20.583398      -560.1027
   2   2.0000     -20.580976      -560.0368
   3   2.0000     -20.561736      -559.5133
   4   2.0000     -20.536964      -558.8392
   5   2.0000     -20.530243      -558.6563
   6   2.0000     -20.523689      -558.4780
   7   2.0000      -1.379014       -37.5249
   8   2.0000      -1.367032       -37.1988
   9   2.0000      -1.361524       -37.0489
  10   2.0000      -1.346022       -36.6271
  11   2.0000      -1.327140       -36.1133
  12   2.0000      -1.317011       -35.8377
  13   2.0000      -1.304488       -35.4969
  14   2.0000      -0.741923       -20.1887
  15   2.0000      -0.728198       -19.8153
  16   2.0000      -0.727610       -19.7993
  17   2.0000      -0.711844       -19.3703
  18   2.0000      -0.705606       -19.2005
  19   2.0000      -0.693954       -18.8835
  20   2.0000      -0.684892       -18.6368
  21   2.0000      -0.637345       -17.3430
  22   2.0000      -0.606157       -16.4944
  23   2.0000      -0.600456       -16.3392
  24   2.0000      -0.588132       -16.0039
  25   2.0000      -0.586508       -15.9597
  26   2.0000      -0.561719       -15.2852
  27   2.0000      -0.550017       -14.9667
  28   2.0000      -0.522404       -14.2153
  29   2.0000      -0.517752       -14.0887
  30   2.0000      -0.514312       -13.9951
  31   2.0000      -0.508173       -13.8281
  32   2.0000      -0.485574       -13.2131
  33   2.0000      -0.478053       -13.0085
  34   2.0000      -0.472242       -12.8504
  35   0.0000       0.097767         2.6604
  36   0.0000       0.119376         3.2484
  37   0.0000       0.144044         3.9196
  38   0.0000       0.158709         4.3187
  39   0.0000       0.193948         5.2776

MULLIKEN ATOMIC CHARGES
-----------------------
   0 O :   -0.698394
   1 H :    0.349730
   2 H :    0.361117
   3 O :   -0.734982
   4 H :    0.334374
   5 H :    0.371197
   6 O :   -0.713709
   7 H :    0.335314
   8 H :    0.381080
   9 O :   -0.740636
  10 H :    0.349784
  11 H :    0.380104
  12 O :   -0.743383
  13 H :    0.362054
  14 H :    0.365918
  15 O :   -0.736766
  16 H :    0.370512
  17 H :    0.365411
  18 O :   -0.691607
  19 H :    0.389631
  20 H :    0.343251
Sum of atomic charges:    0.0000000

LOEWDIN ATOMIC CHARGES
----------------------
   0 O :   -0.311780
   1 H :    0.162286
   2 H :    0.187649
   3 O :   -0.339781
   4 H :    0.152764
   5 H :    0.144177
   6 O :   -0.308510
   7 H :    0.159530
   8 H :    0.147972
   9 O :   -0.323241
  10 H :    0.135951
  11 H :    0.151200
  12 O :   -0.300542
  13 H :    0.172898
  14 H :    0.144820
  15 O :   -0.317839
  16 H :    0.147479
  17 H :    0.140924
  18 O :   -0.273707
  19 H :    0.159149
  20 H :    0.168601

  Mayer bond orders larger than 0.100000
B(  0-O ,  1-H ) :   0.8433 B(  0-O ,  2-H ) :   0.8294 B(  3-O ,  4-H ) :   0.8520
B(  3-O ,  5-H ) :   0.7630 B(  6-O ,  7-H ) :   0.8499 B(  6-O ,  8-H ) :   0.7426
B(  6-O , 14-H ) :   0.1273 B(  8-H , 15-O ) :   0.1291 B(  9-O , 10-H ) :   0.7949
B(  9-O , 11-H ) :   0.7966 B(  9-O , 17-H ) :   0.1056 B( 12-O , 13-H ) :   0.8340
B( 12-O , 14-H ) :   0.7446 B( 15-O , 16-H ) :   0.8127 B( 15-O , 17-H ) :   0.7684
B( 18-O , 19-H ) :   0.7985 B( 18-O , 20-H ) :   0.8447

MP2 TOTAL ENERGY:     -534.268780674 Eh
FINAL SINGLE POINT ENERGY      -534.268780673943

DIPOLE MOMENT
-------------
                                X             Y             Z
Electronic contribution:     -0.08296       0.15213       0.05437
Nuclear contribution   :      0.53316       0.19549       0.68611
                        -----------------------------------------
Total Dipole Moment    :      0.45020       0.34762       0.74047
                        -----------------------------------------
Magnitude (a.u.)       :      0.93371
Magnitude (Debye)      :      2.37330

Rotational constants in cm-1:     0.053008     0.024820     0.021373
Rotational constants in MHz :  1589.136490   744.075173   640.743584

                             ****ORCA TERMINATED NORMALLY****
TOTAL RUN TIME: 0 days 0 hours 2 minutes 5 seconds 512 msec
