                         Program Version 4.2.0 -  RELEASE  -
|  1> # 12h2o.su.etal.mol1,3,4,7,8,9,10
|  2> ! MP2 def2-TZVP EnGrad TightSCF
|  3>
|  4> %pal
|  5>     nprocs 6
|  6> end
|  7>
|  8> %maxcore 8000
|  9>
| 10> %scf
| 11>     ConvForced true
| 12> end
| 13>
| 14> *xyz 0 1
| 15> O  -1.794470000  -0.923410000   2.768350000
| 16> H  -2.338250000  -1.359750000   3.430940000
| 17> H  -0.879480000  -1.303000000   2.865760000
| 18> O  -1.752130000  -0.741530000  -2.896280000
| 19> H  -2.036450000  -0.920500000  -1.984040000
| 20> H  -0.921210000  -1.242140000  -2.984230000
| 21> O  -0.885520000   1.737840000   0.052730000
| 22> H  -1.032320000   2.090180000  -0.841890000
| 23> H  -1.284090000   0.839590000   0.017130000
| 24> O  -1.737840000  -0.885520000  -0.052730000
| 25> H  -2.090180000  -1.032320000   0.841890000
| 26> H  -0.839590000  -1.284090000  -0.017130000
| 27> O   1.752130000   0.741530000  -2.896280000
| 28> H   2.036450000   0.920500000  -1.984040000
| 29> H   0.921210000   1.242140000  -2.984230000
| 30> O   0.741530000  -1.752130000   2.896280000
| 31> H   0.920500000  -2.036450000   1.984040000
| 32> H   1.242140000  -0.921210000   2.984230000
| 33> O  -0.923410000   1.794470000  -2.768350000
| 34> H  -1.359750000   2.338250000  -3.430940000
| 35> H  -1.303000000   0.879480000  -2.865760000
| 36> *
| 37>
| 38>                          ****END OF INPUT****

CARTESIAN COORDINATES (ANGSTROEM)
---------------------------------
  O     -1.794470   -0.923410    2.768350
  H     -2.338250   -1.359750    3.430940
  H     -0.879480   -1.303000    2.865760
  O     -1.752130   -0.741530   -2.896280
  H     -2.036450   -0.920500   -1.984040
  H     -0.921210   -1.242140   -2.984230
  O     -0.885520    1.737840    0.052730
  H     -1.032320    2.090180   -0.841890
  H     -1.284090    0.839590    0.017130
  O     -1.737840   -0.885520   -0.052730
  H     -2.090180   -1.032320    0.841890
  H     -0.839590   -1.284090   -0.017130
  O      1.752130    0.741530   -2.896280
  H      2.036450    0.920500   -1.984040
  H      0.921210    1.242140   -2.984230
  O      0.741530   -1.752130    2.896280
  H      0.920500   -2.036450    1.984040
  H      1.242140   -0.921210    2.984230
  O     -0.923410    1.794470   -2.768350
  H     -1.359750    2.338250   -3.430940
  H     -1.303000    0.879480   -2.865760

 Total Charge           Charge          ....    0
 Multiplicity           Mult            ....    1
 Number of Electrons    NEL             ....   70
 Basis Dimension        Dim             ....  301

ORBITAL ENERGIES
----------------

  NO   OCC          E(Eh)            E(eV)
   0   2.0000     -20.622193      -561.1584
   1   2.0000     -20.594363      -560.4011
   2   2.0000     -20.581178      -560.0423
   3   2.0000     -20.561696      -559.5122
   4   2.0000     -20.554481      -559.3159
   5   2.0000     -20.530284      -558.6574
   6   2.0000     -20.498312      -557.7874
   7   2.0000      -1.407678       -38.3049
   8   2.0000      -1.383388       -37.6439
   9   2.0000      -1.369375       -37.2626
  10   2.0000      -1.344127       -36.5756
  11   2.0000      -1.340062       -36.4649
  12   2.0000      -1.312085       -35.7036
  13   2.0000      -1.282719       -34.9046
  14   2.0000      -0.764702       -20.8086
  15   2.0000      -0.746875       -20.3235
  16   2.0000      -0.731318       -19.9002
  17   2.0000      -0.727320       -19.7914
  18   2.0000      -0.721870       -19.6431
  19   2.0000      -0.681288       -18.5388
  20   2.0000      -0.669087       -18.2068
  21   2.0000      -0.648650       -17.6507
  22   2.0000      -0.634669       -17.2702
  23   2.0000      -0.607092       -16.5198
  24   2.0000      -0.589613       -16.0442
  25   2.0000      -0.585436       -15.9305
  26   2.0000      -0.561176       -15.2704
  27   2.0000      -0.549069       -14.9409
  28   2.0000      -0.543255       -14.7827
  29   2.0000      -0.518446       -14.1076
  30   2.0000      -0.514255       -13.9936
  31   2.0000      -0.510793       -13.8994
  32   2.0000      -0.493159       -13.4195
  33   2.0000      -0.478171       -13.0117
  34   2.0000      -0.449123       -12.2212
  35   0.0000       0.070146         1.9088
  36   0.0000       0.121836         3.3153
  37   0.0000       0.145148         3.9497
  38   0.0000       0.149872         4.0782
  39   0.0000       0.168382         4.5819

MULLIKEN ATOMIC CHARGES
-----------------------
   0 O :   -0.730588
   1 H :    0.342467
   2 H :    0.369975
   3 O :   -0.699946
   4 H :    0.390064
   5 H :    0.353014
   6 O :   -0.738002
   7 H :    0.358479
   8 H :    0.344272
   9 O :   -0.719956
  10 H :    0.395932
  11 H :    0.327972
  12 O :   -0.718044
  13 H :    0.329165
  14 H :    0.364351
  15 O :   -0.675042
  16 H :    0.350493
  17 H :    0.375377
  18 O :   -0.747838
  19 H :    0.345238
  20 H :    0.382616
Sum of atomic charges:   -0.0000000

LOEWDIN ATOMIC CHARGES
----------------------
   0 O :   -0.334525
   1 H :    0.157159
   2 H :    0.143679
   3 O :   -0.274341
   4 H :    0.158519
   5 H :    0.171684
   6 O :   -0.371874
   7 H :    0.142315
   8 H :    0.134380
   9 O :   -0.284623
  10 H :    0.160193
  11 H :    0.164795
  12 O :   -0.352866
  13 H :    0.159110
  14 H :    0.147263
  15 O :   -0.265597
  16 H :    0.170115
  17 H :    0.184499
  18 O :   -0.312964
  19 H :    0.156707
  20 H :    0.146373

  Mayer bond orders larger than 0.100000
B(  0-O ,  1-H ) :   0.8477 B(  0-O ,  2-H ) :   0.7698 B(  3-O ,  4-H ) :   0.7983
B(  3-O ,  5-H ) :   0.8367 B(  6-O ,  7-H ) :   0.8247 B(  6-O ,  8-H ) :   0.8179
B(  9-O , 10-H ) :   0.7758 B(  9-O , 11-H ) :   0.8458 B( 12-O , 13-H ) :   0.8563
B( 12-O , 14-H ) :   0.8081 B( 15-O , 16-H ) :   0.8416 B( 15-O , 17-H ) :   0.8257
B( 18-O , 19-H ) :   0.8429 B( 18-O , 20-H ) :   0.7452

MP2 TOTAL ENERGY:     -534.249828649 Eh
FINAL SINGLE POINT ENERGY      -534.249828649380

DIPOLE MOMENT
-------------
                                X             Y             Z
Electronic contribution:     -0.13576      -0.25007       0.25327
Nuclear contribution   :      0.19594      -1.44150       0.68611
                        -----------------------------------------
Total Dipole Moment    :      0.06018      -1.69157       0.93938
                        -----------------------------------------
Magnitude (a.u.)       :      1.93583
Magnitude (Debye)      :      4.92050

Rotational constants in cm-1:     0.050169     0.018131     0.016722
Rotational constants in MHz :  1504.041329   543.547920   501.306812

                             ****ORCA TERMINATED NORMALLY****
TOTAL RUN TIME: 0 days 0 hours 2 minutes 17 seconds 381 msec
