                         Program Version 4.2.0 -  RELEASE  -
|  1> # 12h2o.su.etal.mol0,1,2,3,4,5,7,8,11
|  2> ! MP2 def2-TZVP EnGrad TightSCF
|  3>
|  4> %pal
|  5>     nprocs 6
|  6> end
|  7>
|  8> %maxcore 8000
|  9>
| 10> %scf
| 11>     ConvForced true
| 12> end
| 13>
| 14> *xyz 0 1
| 15> O   1.794470000   0.923410000   2.768350000
| 16> H   2.338250000   1.359750000   3.430940000
| 17> H   0.879480000   1.303000000   2.865760000
| 18> O  -1.794470000  -0.923410000   2.768350000
| 19> H  -2.338250000  -1.359750000   3.430940000
| 20> H  -0.879480000  -1.303000000   2.865760000
| 21> O   0.923410000  -1.794470000  -2.768350000
| 22> H   1.359750000  -2.338250000  -3.430940000
| 23> H   1.303000000  -0.879480000  -2.865760000
| 24> O  -1.752130000  -0.741530000  -2.896280000
| 25> H  -2.036450000  -0.920500000  -1.984040000
| 26> H  -0.921210000  -1.242140000  -2.984230000
| 27> O  -0.885520000   1.737840000   0.052730000
| 28> H  -1.032320000   2.090180000  -0.841890000
| 29> H  -1.284090000   0.839590000   0.017130000
| 30> O   0.885520000  -1.737840000   0.052730000
| 31> H   1.284090000  -0.839590000   0.017130000
| 32> H   1.032320000  -2.090180000  -0.841890000
| 33> O  -1.737840000  -0.885520000  -0.052730000
| 34> H  -2.090180000  -1.032320000   0.841890000
| 35> H  -0.839590000  -1.284090000  -0.017130000
| 36> O   1.752130000   0.741530000  -2.896280000
| 37> H   2.036450000   0.920500000  -1.984040000
| 38> H   0.921210000   1.242140000  -2.984230000
| 39> O  -0.741530000   1.752130000   2.896280000
| 40> H  -0.920500000   2.036450000   1.984040000
| 41> H  -1.242140000   0.921210000   2.984230000
| 42> *
| 43>
| 44>                          ****END OF INPUT****

CARTESIAN COORDINATES (ANGSTROEM)
---------------------------------
  O      1.794470    0.923410    2.768350
  H      2.338250    1.359750    3.430940
  H      0.879480    1.303000    2.865760
  O     -1.794470   -0.923410    2.768350
  H     -2.338250   -1.359750    3.430940
  H     -0.879480   -1.303000    2.865760
  O      0.923410   -1.794470   -2.768350
  H      1.359750   -2.338250   -3.430940
  H      1.303000   -0.879480   -2.865760
  O     -1.752130   -0.741530   -2.896280
  H     -2.036450   -0.920500   -1.984040
  H     -0.921210   -1.242140   -2.984230
  O     -0.885520    1.737840    0.052730
  H     -1.032320    2.090180   -0.841890
  H     -1.284090    0.839590    0.017130
  O      0.885520   -1.737840    0.052730
  H      1.284090   -0.839590    0.017130
  H      1.032320   -2.090180   -0.841890
  O     -1.737840   -0.885520   -0.052730
  H     -2.090180   -1.032320    0.841890
  H     -0.839590   -1.284090   -0.017130
  O      1.752130    0.741530   -2.896280
  H      2.036450    0.920500   -1.984040
  H      0.921210    1.242140   -2.984230
  O     -0.741530    1.752130    2.896280
  H     -0.920500    2.036450    1.984040
  H     -1.242140    0.921210    2.984230

 Total Charge           Charge          ....    0
 Multiplicity           Mult            ....    1
 Number of Electrons    NEL             ....   90
 Basis Dimension        Dim             ....  387

ORBITAL ENERGIES
----------------

  NO   OCC          E(Eh)            E(eV)
   0   2.0000     -20.614465      -560.9481
   1   2.0000     -20.613634      -560.9255
   2   2.0000     -20.576865      -559.9250
   3   2.0000     -20.573756      -559.8404
   4   2.0000     -20.557106      -559.3873
   5   2.0000     -20.554155      -559.3070
   6   2.0000     -20.542903      -559.0008
   7   2.0000     -20.514077      -558.2164
   8   2.0000     -20.513275      -558.1946
   9   2.0000      -1.400206       -38.1016
  10   2.0000      -1.395128       -37.9634
  11   2.0000      -1.367111       -37.2010
  12   2.0000      -1.357763       -36.9466
  13   2.0000      -1.347539       -36.6684
  14   2.0000      -1.338630       -36.4260
  15   2.0000      -1.329443       -36.1760
  16   2.0000      -1.299062       -35.3493
  17   2.0000      -1.294295       -35.2196
  18   2.0000      -0.760345       -20.6900
  19   2.0000      -0.755772       -20.5656
  20   2.0000      -0.744791       -20.2668
  21   2.0000      -0.722054       -19.6481
  22   2.0000      -0.719438       -19.5769
  23   2.0000      -0.711469       -19.3601
  24   2.0000      -0.700425       -19.0595
  25   2.0000      -0.680199       -18.5092
  26   2.0000      -0.677461       -18.4347
  27   2.0000      -0.646722       -17.5982
  28   2.0000      -0.638636       -17.3782
  29   2.0000      -0.615230       -16.7413
  30   2.0000      -0.600358       -16.3366
  31   2.0000      -0.598147       -16.2764
  32   2.0000      -0.590424       -16.0663
  33   2.0000      -0.568085       -15.4584
  34   2.0000      -0.555939       -15.1279
  35   2.0000      -0.548657       -14.9297
  36   2.0000      -0.535648       -14.5757
  37   2.0000      -0.532421       -14.4879
  38   2.0000      -0.517233       -14.0746
  39   2.0000      -0.514450       -13.9989
  40   2.0000      -0.506487       -13.7822
  41   2.0000      -0.500295       -13.6137
  42   2.0000      -0.482660       -13.1338
  43   2.0000      -0.464293       -12.6340
  44   2.0000      -0.464126       -12.6295
  45   0.0000       0.084207         2.2914
  46   0.0000       0.105387         2.8677
  47   0.0000       0.138358         3.7649
  48   0.0000       0.147881         4.0240
  49   0.0000       0.164833         4.4853

MULLIKEN ATOMIC CHARGES
-----------------------
   0 O :   -0.746035
   1 H :    0.322931
   2 H :    0.370371
   3 O :   -0.726398
   4 H :    0.366229
   5 H :    0.386705
   6 O :   -0.752548
   7 H :    0.354332
   8 H :    0.382247
   9 O :   -0.735024
  10 H :    0.370022
  11 H :    0.347432
  12 O :   -0.736962
  13 H :    0.336169
  14 H :    0.363623
  15 O :   -0.703842
  16 H :    0.349778
  17 H :    0.381332
  18 O :   -0.748709
  19 H :    0.377369
  20 H :    0.363828
  21 O :   -0.684368
  22 H :    0.362973
  23 H :    0.370517
  24 O :   -0.716549
  25 H :    0.386424
  26 H :    0.358157
Sum of atomic charges:   -0.0000000

LOEWDIN ATOMIC CHARGES
----------------------
   0 O :   -0.380242
   1 H :    0.147513
   2 H :    0.141853
   3 O :   -0.288783
   4 H :    0.169089
   5 H :    0.197762
   6 O :   -0.313066
   7 H :    0.161113
   8 H :    0.145984
   9 O :   -0.357518
  10 H :    0.148362
  11 H :    0.140114
  12 O :   -0.342500
  13 H :    0.160166
  14 H :    0.143493
  15 O :   -0.296525
  16 H :    0.171999
  17 H :    0.153125
  18 O :   -0.300232
  19 H :    0.150081
  20 H :    0.142756
  21 O :   -0.265205
  22 H :    0.174725
  23 H :    0.179751
  24 O :   -0.287935
  25 H :    0.158035
  26 H :    0.146087

  Mayer bond orders larger than 0.100000
B(  0-O ,  1-H ) :   0.8613 B(  0-O ,  2-H ) :   0.7647 B(  2-H , 24-O ) :   0.1064
B(  3-O ,  4-H ) :   0.8312 B(  3-O ,  5-H ) :   0.8077 B(  6-O ,  7-H ) :   0.8383
B(  6-O ,  8-H ) :   0.7486 B(  9-O , 10-H ) :   0.8207 B(  9-O , 11-H ) :   0.8258
B( 12-O , 13-H ) :   0.8493 B( 12-O , 14-H ) :   0.7643 B( 14-H , 18-O ) :   0.1015
B( 15-O , 16-H ) :   0.8333 B( 15-O , 17-H ) :   0.7963 B( 15-O , 20-H ) :   0.1040
B( 18-O , 19-H ) :   0.8076 B( 18-O , 20-H ) :   0.7603 B( 21-O , 22-H ) :   0.8326
B( 21-O , 23-H ) :   0.8239 B( 24-O , 25-H ) :   0.8007 B( 24-O , 26-H ) :   0.8184

MP2 TOTAL ENERGY:     -686.911926031 Eh
FINAL SINGLE POINT ENERGY      -686.911926031246

DIPOLE MOMENT
-------------
                                X             Y             Z
Electronic contribution:     -0.08198      -0.09353      -0.15123
Nuclear contribution   :      0.56789      -0.59993       0.54442
                        -----------------------------------------
Total Dipole Moment    :      0.48591      -0.69346       0.39320
                        -----------------------------------------
Magnitude (a.u.)       :      0.93359
Magnitude (Debye)      :      2.37300

Rotational constants in cm-1:     0.030098     0.014653     0.013221
Rotational constants in MHz :   902.304774   439.283377   396.357702

                             ****ORCA TERMINATED NORMALLY****
TOTAL RUN TIME: 0 days 0 hours 4 minutes 39 seconds 822 msec
