                         Program Version 4.2.0 -  RELEASE  -
|  1> # 12meoh.boyd.etal.mol4,7
|  2> ! MP2 def2-TZVP EnGrad TightSCF
|  3>
|  4> %pal
|  5>     nprocs 6
|  6> end
|  7>
|  8> %maxcore 8000
|  9>
| 10> %scf
| 11>     ConvForced true
| 12> end
| 13>
| 14> *xyz 0 1
| 15> O  -1.358578914   1.232360421   1.189721000
| 16> H  -1.058250183   1.216459361   0.238591307
| 17> C  -0.389763452   1.957872567   1.943072362
| 18> H  -0.747220771   2.012806578   2.975200343
| 19> H  -0.260410585   2.982763209   1.565366540
| 20> H   0.585220638   1.453754179   1.934070793
| 21> O   4.310535586  -1.588322800   0.656128299
| 22> H   3.804372199  -1.630404735  -0.196849819
| 23> C   4.312298137  -2.894980854   1.222112691
| 24> H   4.713177833  -2.819907076   2.237066773
| 25> H   4.957796734  -3.574699304   0.648211180
| 26> H   3.302735989  -3.324433205   1.269756773
| 27> *
| 28>
| 29>                          ****END OF INPUT****

CARTESIAN COORDINATES (ANGSTROEM)
---------------------------------
  O     -1.358579    1.232360    1.189721
  H     -1.058250    1.216459    0.238591
  C     -0.389763    1.957873    1.943072
  H     -0.747221    2.012807    2.975200
  H     -0.260411    2.982763    1.565367
  H      0.585221    1.453754    1.934071
  O      4.310536   -1.588323    0.656128
  H      3.804372   -1.630405   -0.196850
  C      4.312298   -2.894981    1.222113
  H      4.713178   -2.819907    2.237067
  H      4.957797   -3.574699    0.648211
  H      3.302736   -3.324433    1.269757

 Total Charge           Charge          ....    0
 Multiplicity           Mult            ....    1
 Number of Electrons    NEL             ....   36
 Basis Dimension        Dim             ....  172

ORBITAL ENERGIES
----------------

  NO   OCC          E(Eh)            E(eV)
   0   2.0000     -20.559528      -559.4532
   1   2.0000     -20.556653      -559.3750
   2   2.0000     -11.273120      -306.7572
   3   2.0000     -11.269808      -306.6671
   4   2.0000      -1.349151       -36.7123
   5   2.0000      -1.344150       -36.5762
   6   2.0000      -0.921158       -25.0660
   7   2.0000      -0.917496       -24.9663
   8   2.0000      -0.683781       -18.6066
   9   2.0000      -0.679069       -18.4784
  10   2.0000      -0.618643       -16.8341
  11   2.0000      -0.615083       -16.7373
  12   2.0000      -0.592666       -16.1273
  13   2.0000      -0.588617       -16.0171
  14   2.0000      -0.502732       -13.6800
  15   2.0000      -0.498859       -13.5747
  16   2.0000      -0.450989       -12.2720
  17   2.0000      -0.447942       -12.1891
  18   0.0000       0.126558         3.4438
  19   0.0000       0.140475         3.8225
  20   0.0000       0.173479         4.7206
  21   0.0000       0.178819         4.8659
  22   0.0000       0.227197         6.1823

MULLIKEN ATOMIC CHARGES
-----------------------
   0 O :   -0.498085
   1 H :    0.320224
   2 C :   -0.176124
   3 H :    0.128984
   4 H :    0.109013
   5 H :    0.115792
   6 O :   -0.497229
   7 H :    0.320722
   8 C :   -0.174637
   9 H :    0.129700
  10 H :    0.109667
  11 H :    0.111973
Sum of atomic charges:    0.0000000

LOEWDIN ATOMIC CHARGES
----------------------
   0 O :   -0.113281
   1 H :    0.191082
   2 C :   -0.380465
   3 H :    0.110297
   4 H :    0.095533
   5 H :    0.096736
   6 O :   -0.109966
   7 H :    0.189041
   8 C :   -0.380937
   9 H :    0.110259
  10 H :    0.095523
  11 H :    0.096177

  Mayer bond orders larger than 0.100000
B(  0-O ,  1-H ) :   0.8426 B(  0-O ,  2-C ) :   0.9234 B(  2-C ,  3-H ) :   0.9374
B(  2-C ,  4-H ) :   0.9386 B(  2-C ,  5-H ) :   0.9386 B(  6-O ,  7-H ) :   0.8435
B(  6-O ,  8-C ) :   0.9247 B(  8-C ,  9-H ) :   0.9377 B(  8-C , 10-H ) :   0.9382
B(  8-C , 11-H ) :   0.9401

MP2 TOTAL ENERGY:     -231.013299015 Eh
FINAL SINGLE POINT ENERGY      -231.013299014577

DIPOLE MOMENT
-------------
                                X             Y             Z
Electronic contribution:     -1.21744       0.75570      -1.38960
Nuclear contribution   :      1.48957      -1.03154       0.83181
                        -----------------------------------------
Total Dipole Moment    :      0.27212      -0.27584      -0.55779
                        -----------------------------------------
Magnitude (a.u.)       :      0.67917
Magnitude (Debye)      :      1.72632

Rotational constants in cm-1:     0.451055     0.024400     0.024063
Rotational constants in MHz : 13522.297743   731.482524   721.376447

                             ****ORCA TERMINATED NORMALLY****
TOTAL RUN TIME: 0 days 0 hours 0 minutes 17 seconds 352 msec
