                         Program Version 4.2.0 -  RELEASE  -
|  1> # 12meoh.boyd.etal.mol0,3,5
|  2> ! MP2 def2-TZVP EnGrad TightSCF
|  3>
|  4> %pal
|  5>     nprocs 6
|  6> end
|  7>
|  8> %maxcore 8000
|  9>
| 10> %scf
| 11>     ConvForced true
| 12> end
| 13>
| 14> *xyz 0 1
| 15> O  -1.776108874  -2.741384797  -1.019308298
| 16> H  -2.520094035  -2.452295987  -0.420778302
| 17> C  -2.174025166  -3.952700964  -1.647004581
| 18> H  -1.359803895  -4.272673416  -2.304149236
| 19> H  -3.075973971  -3.808692420  -2.256751112
| 20> H  -2.370225393  -4.752784761  -0.918966137
| 21> O  -3.821405976  -2.118091637   0.596795346
| 22> H  -4.342989117  -1.344303030   0.251966383
| 23> C  -3.443883586  -1.809641231   1.934889393
| 24> H  -2.831494349  -2.637429600   2.305201764
| 25> H  -4.325601146  -1.719364371   2.585074667
| 26> H  -2.858527126  -0.882644791   1.996110694
| 27> O  -0.662721750   1.449094618  -1.383082065
| 28> H   0.064188300   2.119867608  -1.465650660
| 29> C  -0.353319239   0.341218776  -2.229326771
| 30> H  -1.072358530  -0.454743281  -2.019906495
| 31> H   0.657636746  -0.044472139  -2.042736771
| 32> H  -0.434616607   0.624733901  -3.287793021
| 33> *
| 34>
| 35>                          ****END OF INPUT****

CARTESIAN COORDINATES (ANGSTROEM)
---------------------------------
  O     -1.776109   -2.741385   -1.019308
  H     -2.520094   -2.452296   -0.420778
  C     -2.174025   -3.952701   -1.647005
  H     -1.359804   -4.272673   -2.304149
  H     -3.075974   -3.808692   -2.256751
  H     -2.370225   -4.752785   -0.918966
  O     -3.821406   -2.118092    0.596795
  H     -4.342989   -1.344303    0.251966
  C     -3.443884   -1.809641    1.934889
  H     -2.831494   -2.637430    2.305202
  H     -4.325601   -1.719364    2.585075
  H     -2.858527   -0.882645    1.996111
  O     -0.662722    1.449095   -1.383082
  H      0.064188    2.119868   -1.465651
  C     -0.353319    0.341219   -2.229327
  H     -1.072359   -0.454743   -2.019906
  H      0.657637   -0.044472   -2.042737
  H     -0.434617    0.624734   -3.287793

 Total Charge           Charge          ....    0
 Multiplicity           Mult            ....    1
 Number of Electrons    NEL             ....   54
 Basis Dimension        Dim             ....  258

ORBITAL ENERGIES
----------------

  NO   OCC          E(Eh)            E(eV)
   0   2.0000     -20.589269      -560.2625
   1   2.0000     -20.544711      -559.0500
   2   2.0000     -20.515858      -558.2649
   3   2.0000     -11.287370      -307.1449
   4   2.0000     -11.251896      -306.1797
   5   2.0000     -11.249215      -306.1067
   6   2.0000      -1.382531       -37.6206
   7   2.0000      -1.332567       -36.2610
   8   2.0000      -1.312888       -35.7255
   9   2.0000      -0.939192       -25.5567
  10   2.0000      -0.902413       -24.5559
  11   2.0000      -0.895557       -24.3693
  12   2.0000      -0.714717       -19.4484
  13   2.0000      -0.673519       -18.3274
  14   2.0000      -0.667005       -18.1501
  15   2.0000      -0.633048       -17.2261
  16   2.0000      -0.608024       -16.5452
  17   2.0000      -0.600909       -16.3516
  18   2.0000      -0.592067       -16.1110
  19   2.0000      -0.575584       -15.6624
  20   2.0000      -0.561298       -15.2737
  21   2.0000      -0.526933       -14.3386
  22   2.0000      -0.489501       -13.3200
  23   2.0000      -0.483091       -13.1456
  24   2.0000      -0.455705       -12.4004
  25   2.0000      -0.435498       -11.8505
  26   2.0000      -0.417602       -11.3635
  27   0.0000       0.119076         3.2402
  28   0.0000       0.146368         3.9829
  29   0.0000       0.163332         4.4445
  30   0.0000       0.171203         4.6587
  31   0.0000       0.195639         5.3236

MULLIKEN ATOMIC CHARGES
-----------------------
   0 O :   -0.535648
   1 H :    0.349218
   2 C :   -0.157454
   3 H :    0.118414
   4 H :    0.096981
   5 H :    0.099009
   6 O :   -0.516382
   7 H :    0.344590
   8 C :   -0.189944
   9 H :    0.142807
  10 H :    0.124448
  11 H :    0.139350
  12 O :   -0.511080
  13 H :    0.317998
  14 C :   -0.178117
  15 H :    0.153917
  16 H :    0.104439
  17 H :    0.097452
Sum of atomic charges:    0.0000000

LOEWDIN ATOMIC CHARGES
----------------------
   0 O :   -0.119767
   1 H :    0.159415
   2 C :   -0.395831
   3 H :    0.104837
   4 H :    0.091610
   5 H :    0.093630
   6 O :   -0.074084
   7 H :    0.201177
   8 C :   -0.371918
   9 H :    0.116207
  10 H :    0.103775
  11 H :    0.105681
  12 O :   -0.119709
  13 H :    0.185596
  14 C :   -0.380337
  15 H :    0.112168
  16 H :    0.096036
  17 H :    0.091515

  Mayer bond orders larger than 0.100000
B(  0-O ,  1-H ) :   0.7750 B(  0-O ,  2-C ) :   0.9364 B(  1-H ,  6-O ) :   0.1010
B(  2-C ,  3-H ) :   0.9418 B(  2-C ,  4-H ) :   0.9434 B(  2-C ,  5-H ) :   0.9343
B(  6-O ,  7-H ) :   0.8263 B(  6-O ,  8-C ) :   0.8662 B(  8-C ,  9-H ) :   0.9388
B(  8-C , 10-H ) :   0.9335 B(  8-C , 11-H ) :   0.9383 B( 12-O , 13-H ) :   0.8454
B( 12-O , 14-C ) :   0.9168 B( 14-C , 15-H ) :   0.9267 B( 14-C , 16-H ) :   0.9440
B( 14-C , 17-H ) :   0.9387

MP2 TOTAL ENERGY:     -346.532732481 Eh
FINAL SINGLE POINT ENERGY      -346.532732480709

DIPOLE MOMENT
-------------
                                X             Y             Z
Electronic contribution:     -0.52639       2.36547       0.52858
Nuclear contribution   :      0.05994      -2.06455      -0.09995
                        -----------------------------------------
Total Dipole Moment    :     -0.46645       0.30092       0.42863
                        -----------------------------------------
Magnitude (a.u.)       :      0.70132
Magnitude (Debye)      :      1.78262

Rotational constants in cm-1:     0.075643     0.034002     0.024548
Rotational constants in MHz :  2267.724454  1019.355396   735.933243

                             ****ORCA TERMINATED NORMALLY****
TOTAL RUN TIME: 0 days 0 hours 1 minutes 44 seconds 69 msec
