                         Program Version 4.2.0 -  RELEASE  -
|  1> # 12h2o.su.etal.mol1
|  2> ! MP2 def2-TZVP EnGrad TightSCF
|  3>
|  4> %pal
|  5>     nprocs 6
|  6> end
|  7>
|  8> %maxcore 8000
|  9>
| 10> %scf
| 11>     ConvForced true
| 12> end
| 13>
| 14> *xyz 0 1
| 15> O  -1.794470000  -0.923410000   2.768350000
| 16> H  -2.338250000  -1.359750000   3.430940000
| 17> H  -0.879480000  -1.303000000   2.865760000
| 18> *
| 19>
| 20>                          ****END OF INPUT****

CARTESIAN COORDINATES (ANGSTROEM)
---------------------------------
  O     -1.794470   -0.923410    2.768350
  H     -2.338250   -1.359750    3.430940
  H     -0.879480   -1.303000    2.865760

 Total Charge           Charge          ....    0
 Multiplicity           Mult            ....    1
 Number of Electrons    NEL             ....   10
 Basis Dimension        Dim             ....   43

ORBITAL ENERGIES
----------------

  NO   OCC          E(Eh)            E(eV)
   0   2.0000     -20.562685      -559.5391
   1   2.0000      -1.338019       -36.4094
   2   2.0000      -0.706452       -19.2235
   3   2.0000      -0.573838       -15.6149
   4   2.0000      -0.505821       -13.7641
   5   0.0000       0.125562         3.4167
   6   0.0000       0.195099         5.3089
   7   0.0000       0.520417        14.1613
   8   0.0000       0.561850        15.2887
   9   0.0000       0.597975        16.2717

MULLIKEN ATOMIC CHARGES
-----------------------
   0 O :   -0.680764
   1 H :    0.338603
   2 H :    0.342160
Sum of atomic charges:    0.0000000

LOEWDIN ATOMIC CHARGES
----------------------
   0 O :   -0.338375
   1 H :    0.157719
   2 H :    0.180656

  Mayer bond orders larger than 0.100000
B(  0-O ,  1-H ) :   0.8533 B(  0-O ,  2-H ) :   0.8462

MP2 TOTAL ENERGY:      -76.311952438 Eh
FINAL SINGLE POINT ENERGY       -76.311952438219

DIPOLE MOMENT
-------------
                                X             Y             Z
Electronic contribution:     -0.05625       0.10600      -0.09596
Nuclear contribution   :      0.30898      -0.67915       0.63259
                        -----------------------------------------
Total Dipole Moment    :      0.25273      -0.57315       0.53663
                        -----------------------------------------
Magnitude (a.u.)       :      0.82483
Magnitude (Debye)      :      2.09655

Rotational constants in cm-1:    27.338640    13.631097     9.095876
Rotational constants in MHz : 819591.815672 408649.993287 272687.501378

                             ****ORCA TERMINATED NORMALLY****
TOTAL RUN TIME: 0 days 0 hours 0 minutes 26 seconds 404 msec
