                         Program Version 4.2.0 -  RELEASE  -
|  1> # 12h2o.su.etal.mol4,9,10
|  2> ! MP2 def2-TZVP EnGrad TightSCF
|  3>
|  4> %pal
|  5>     nprocs 6
|  6> end
|  7>
|  8> %maxcore 8000
|  9>
| 10> %scf
| 11>     ConvForced true
| 12> end
| 13>
| 14> *xyz 0 1
| 15> O  -0.885520000   1.737840000   0.052730000
| 16> H  -1.032320000   2.090180000  -0.841890000
| 17> H  -1.284090000   0.839590000   0.017130000
| 18> O   0.741530000  -1.752130000   2.896280000
| 19> H   0.920500000  -2.036450000   1.984040000
| 20> H   1.242140000  -0.921210000   2.984230000
| 21> O  -0.923410000   1.794470000  -2.768350000
| 22> H  -1.359750000   2.338250000  -3.430940000
| 23> H  -1.303000000   0.879480000  -2.865760000
| 24> *
| 25>
| 26>                          ****END OF INPUT****

CARTESIAN COORDINATES (ANGSTROEM)
---------------------------------
  O     -0.885520    1.737840    0.052730
  H     -1.032320    2.090180   -0.841890
  H     -1.284090    0.839590    0.017130
  O      0.741530   -1.752130    2.896280
  H      0.920500   -2.036450    1.984040
  H      1.242140   -0.921210    2.984230
  O     -0.923410    1.794470   -2.768350
  H     -1.359750    2.338250   -3.430940
  H     -1.303000    0.879480   -2.865760

 Total Charge           Charge          ....    0
 Multiplicity           Mult            ....    1
 Number of Electrons    NEL             ....   30
 Basis Dimension        Dim             ....  129

ORBITAL ENERGIES
----------------

  NO   OCC          E(Eh)            E(eV)
   0   2.0000     -20.594834      -560.4139
   1   2.0000     -20.556835      -559.3799
   2   2.0000     -20.535029      -558.7865
   3   2.0000      -1.372644       -37.3515
   4   2.0000      -1.336052       -36.3558
   5   2.0000      -1.314003       -35.7558
   6   2.0000      -0.739604       -20.1257
   7   2.0000      -0.698938       -19.0191
   8   2.0000      -0.683779       -18.6066
   9   2.0000      -0.609355       -16.5814
  10   2.0000      -0.573719       -15.6117
  11   2.0000      -0.562591       -15.3089
  12   2.0000      -0.527746       -14.3607
  13   2.0000      -0.500960       -13.6318
  14   2.0000      -0.480571       -13.0770
  15   0.0000       0.098485         2.6799
  16   0.0000       0.126702         3.4477
  17   0.0000       0.164344         4.4720
  18   0.0000       0.194146         5.2830
  19   0.0000       0.204035         5.5521

MULLIKEN ATOMIC CHARGES
-----------------------
   0 O :   -0.691977
   1 H :    0.365616
   2 H :    0.315556
   3 O :   -0.676254
   4 H :    0.333890
   5 H :    0.342714
   6 O :   -0.690081
   7 H :    0.351838
   8 H :    0.348699
Sum of atomic charges:    0.0000000

LOEWDIN ATOMIC CHARGES
----------------------
   0 O :   -0.346869
   1 H :    0.148717
   2 H :    0.160940
   3 O :   -0.332904
   4 H :    0.163965
   5 H :    0.169176
   6 O :   -0.309323
   7 H :    0.163184
   8 H :    0.183115

  Mayer bond orders larger than 0.100000
B(  0-O ,  1-H ) :   0.8212 B(  0-O ,  2-H ) :   0.8627 B(  3-O ,  4-H ) :   0.8553
B(  3-O ,  5-H ) :   0.8498 B(  6-O ,  7-H ) :   0.8418 B(  6-O ,  8-H ) :   0.8380

MP2 TOTAL ENERGY:     -228.943392086 Eh
FINAL SINGLE POINT ENERGY      -228.943392085863

DIPOLE MOMENT
-------------
                                X             Y             Z
Electronic contribution:      0.11336       0.11319       0.15077
Nuclear contribution   :     -0.56744      -0.30841      -2.09298
                        -----------------------------------------
Total Dipole Moment    :     -0.45408      -0.19522      -1.94221
                        -----------------------------------------
Magnitude (a.u.)       :      2.00412
Magnitude (Debye)      :      5.09406

Rotational constants in cm-1:     0.554824     0.037874     0.035702
Rotational constants in MHz : 16633.209372  1135.431303  1070.324432

                             ****ORCA TERMINATED NORMALLY****
TOTAL RUN TIME: 0 days 0 hours 0 minutes 8 seconds 875 msec
