                         Program Version 4.2.0 -  RELEASE  -
|  1> # 12meoh.boyd.etal.mol4,8,10
|  2> ! MP2 def2-TZVP EnGrad TightSCF
|  3>
|  4> %pal
|  5>     nprocs 6
|  6> end
|  7>
|  8> %maxcore 8000
|  9>
| 10> %scf
| 11>     ConvForced true
| 12> end
| 13>
| 14> *xyz 0 1
| 15> O  -1.358578914   1.232360421   1.189721000
| 16> H  -1.058250183   1.216459361   0.238591307
| 17> C  -0.389763452   1.957872567   1.943072362
| 18> H  -0.747220771   2.012806578   2.975200343
| 19> H  -0.260410585   2.982763209   1.565366540
| 20> H   0.585220638   1.453754179   1.934070793
| 21> O   3.570084754   2.361662577  -0.202416728
| 22> H   3.393280933   1.755669977   0.560634073
| 23> C   4.368082883   1.644741793  -1.143112807
| 24> H   4.552851717   2.311801738  -1.989632421
| 25> H   3.862427494   0.740851663  -1.508095690
| 26> H   5.333949674   1.357289092  -0.706288100
| 27> O  -5.201143618   0.064582726  -0.172223772
| 28> H  -4.686891530   0.869258890   0.107806143
| 29> C  -6.513192168   0.171391798   0.359883449
| 30> H  -7.049381312  -0.749234190   0.111361174
| 31> H  -7.057741163   1.017801101  -0.081819420
| 32> H  -6.514770575   0.292264928   1.453058834
| 33> *
| 34>
| 35>                          ****END OF INPUT****

CARTESIAN COORDINATES (ANGSTROEM)
---------------------------------
  O     -1.358579    1.232360    1.189721
  H     -1.058250    1.216459    0.238591
  C     -0.389763    1.957873    1.943072
  H     -0.747221    2.012807    2.975200
  H     -0.260411    2.982763    1.565367
  H      0.585221    1.453754    1.934071
  O      3.570085    2.361663   -0.202417
  H      3.393281    1.755670    0.560634
  C      4.368083    1.644742   -1.143113
  H      4.552852    2.311802   -1.989632
  H      3.862427    0.740852   -1.508096
  H      5.333950    1.357289   -0.706288
  O     -5.201144    0.064583   -0.172224
  H     -4.686892    0.869259    0.107806
  C     -6.513192    0.171392    0.359883
  H     -7.049381   -0.749234    0.111361
  H     -7.057741    1.017801   -0.081819
  H     -6.514771    0.292265    1.453059

 Total Charge           Charge          ....    0
 Multiplicity           Mult            ....    1
 Number of Electrons    NEL             ....   54
 Basis Dimension        Dim             ....  258

ORBITAL ENERGIES
----------------

  NO   OCC          E(Eh)            E(eV)
   0   2.0000     -20.563452      -559.5600
   1   2.0000     -20.560587      -559.4820
   2   2.0000     -20.548611      -559.1561
   3   2.0000     -11.276652      -306.8533
   4   2.0000     -11.274131      -306.7847
   5   2.0000     -11.264568      -306.5245
   6   2.0000      -1.352775       -36.8109
   7   2.0000      -1.347966       -36.6800
   8   2.0000      -1.338904       -36.4334
   9   2.0000      -0.925001       -25.1706
  10   2.0000      -0.921537       -25.0763
  11   2.0000      -0.911978       -24.8162
  12   2.0000      -0.687644       -18.7118
  13   2.0000      -0.682781       -18.5794
  14   2.0000      -0.674045       -18.3417
  15   2.0000      -0.622337       -16.9346
  16   2.0000      -0.619265       -16.8510
  17   2.0000      -0.609303       -16.5800
  18   2.0000      -0.595207       -16.1964
  19   2.0000      -0.592625       -16.1261
  20   2.0000      -0.583707       -15.8835
  21   2.0000      -0.507068       -13.7980
  22   2.0000      -0.502849       -13.6832
  23   2.0000      -0.492207       -13.3936
  24   2.0000      -0.455488       -12.3945
  25   2.0000      -0.452022       -12.3001
  26   2.0000      -0.440417       -11.9844
  27   0.0000       0.111104         3.0233
  28   0.0000       0.134492         3.6597
  29   0.0000       0.155512         4.2317
  30   0.0000       0.163683         4.4540
  31   0.0000       0.186308         5.0697

MULLIKEN ATOMIC CHARGES
-----------------------
   0 O :   -0.501091
   1 H :    0.326071
   2 C :   -0.163687
   3 H :    0.128885
   4 H :    0.118242
   5 H :    0.093014
   6 O :   -0.497755
   7 H :    0.320224
   8 C :   -0.176296
   9 H :    0.131250
  10 H :    0.110828
  11 H :    0.112923
  12 O :   -0.499575
  13 H :    0.326952
  14 C :   -0.171799
  15 H :    0.126090
  16 H :    0.105837
  17 H :    0.109887
Sum of atomic charges:    0.0000000

LOEWDIN ATOMIC CHARGES
----------------------
   0 O :   -0.113784
   1 H :    0.193679
   2 C :   -0.378835
   3 H :    0.110109
   4 H :    0.098605
   5 H :    0.091592
   6 O :   -0.110734
   7 H :    0.186081
   8 C :   -0.377928
   9 H :    0.110970
  10 H :    0.095627
  11 H :    0.096494
  12 O :   -0.107230
  13 H :    0.192547
  14 C :   -0.385900
  15 H :    0.109183
  16 H :    0.093978
  17 H :    0.095544

  Mayer bond orders larger than 0.100000
B(  0-O ,  1-H ) :   0.8386 B(  0-O ,  2-C ) :   0.9233 B(  2-C ,  3-H ) :   0.9372
B(  2-C ,  4-H ) :   0.9393 B(  2-C ,  5-H ) :   0.9393 B(  6-O ,  7-H ) :   0.8432
B(  6-O ,  8-C ) :   0.9225 B(  8-C ,  9-H ) :   0.9374 B(  8-C , 10-H ) :   0.9372
B(  8-C , 11-H ) :   0.9407 B( 12-O , 13-H ) :   0.8365 B( 12-O , 14-C ) :   0.9330
B( 14-C , 15-H ) :   0.9380 B( 14-C , 16-H ) :   0.9395 B( 14-C , 17-H ) :   0.9384

MP2 TOTAL ENERGY:     -346.522197593 Eh
FINAL SINGLE POINT ENERGY      -346.522197593291

DIPOLE MOMENT
-------------
                                X             Y             Z
Electronic contribution:     -0.61017      -0.17156      -0.46901
Nuclear contribution   :      1.25249       0.35100       0.66057
                        -----------------------------------------
Total Dipole Moment    :      0.64232       0.17944       0.19156
                        -----------------------------------------
Magnitude (a.u.)       :      0.69388
Magnitude (Debye)      :      1.76370

Rotational constants in cm-1:     0.151538     0.010267     0.009708
Rotational constants in MHz :  4542.994812   307.803370   291.049430

                             ****ORCA TERMINATED NORMALLY****
TOTAL RUN TIME: 0 days 0 hours 0 minutes 48 seconds 500 msec
