                         Program Version 4.2.0 -  RELEASE  -
|  1> # 12h2o.su.etal.mol0,2,4,7,8,9,10,11
|  2> ! MP2 def2-TZVP EnGrad TightSCF
|  3>
|  4> %pal
|  5>     nprocs 6
|  6> end
|  7>
|  8> %maxcore 8000
|  9>
| 10> %scf
| 11>     ConvForced true
| 12> end
| 13>
| 14> *xyz 0 1
| 15> O   1.794470000   0.923410000   2.768350000
| 16> H   2.338250000   1.359750000   3.430940000
| 17> H   0.879480000   1.303000000   2.865760000
| 18> O   0.923410000  -1.794470000  -2.768350000
| 19> H   1.359750000  -2.338250000  -3.430940000
| 20> H   1.303000000  -0.879480000  -2.865760000
| 21> O  -0.885520000   1.737840000   0.052730000
| 22> H  -1.032320000   2.090180000  -0.841890000
| 23> H  -1.284090000   0.839590000   0.017130000
| 24> O  -1.737840000  -0.885520000  -0.052730000
| 25> H  -2.090180000  -1.032320000   0.841890000
| 26> H  -0.839590000  -1.284090000  -0.017130000
| 27> O   1.752130000   0.741530000  -2.896280000
| 28> H   2.036450000   0.920500000  -1.984040000
| 29> H   0.921210000   1.242140000  -2.984230000
| 30> O   0.741530000  -1.752130000   2.896280000
| 31> H   0.920500000  -2.036450000   1.984040000
| 32> H   1.242140000  -0.921210000   2.984230000
| 33> O  -0.923410000   1.794470000  -2.768350000
| 34> H  -1.359750000   2.338250000  -3.430940000
| 35> H  -1.303000000   0.879480000  -2.865760000
| 36> O  -0.741530000   1.752130000   2.896280000
| 37> H  -0.920500000   2.036450000   1.984040000
| 38> H  -1.242140000   0.921210000   2.984230000
| 39> *
| 40>
| 41>                          ****END OF INPUT****

CARTESIAN COORDINATES (ANGSTROEM)
---------------------------------
  O      1.794470    0.923410    2.768350
  H      2.338250    1.359750    3.430940
  H      0.879480    1.303000    2.865760
  O      0.923410   -1.794470   -2.768350
  H      1.359750   -2.338250   -3.430940
  H      1.303000   -0.879480   -2.865760
  O     -0.885520    1.737840    0.052730
  H     -1.032320    2.090180   -0.841890
  H     -1.284090    0.839590    0.017130
  O     -1.737840   -0.885520   -0.052730
  H     -2.090180   -1.032320    0.841890
  H     -0.839590   -1.284090   -0.017130
  O      1.752130    0.741530   -2.896280
  H      2.036450    0.920500   -1.984040
  H      0.921210    1.242140   -2.984230
  O      0.741530   -1.752130    2.896280
  H      0.920500   -2.036450    1.984040
  H      1.242140   -0.921210    2.984230
  O     -0.923410    1.794470   -2.768350
  H     -1.359750    2.338250   -3.430940
  H     -1.303000    0.879480   -2.865760
  O     -0.741530    1.752130    2.896280
  H     -0.920500    2.036450    1.984040
  H     -1.242140    0.921210    2.984230

 Total Charge           Charge          ....    0
 Multiplicity           Mult            ....    1
 Number of Electrons    NEL             ....   80
 Basis Dimension        Dim             ....  344

ORBITAL ENERGIES
----------------

  NO   OCC          E(Eh)            E(eV)
   0   2.0000     -20.620242      -561.1053
   1   2.0000     -20.599462      -560.5399
   2   2.0000     -20.574059      -559.8486
   3   2.0000     -20.567160      -559.6609
   4   2.0000     -20.543547      -559.0183
   5   2.0000     -20.535354      -558.7954
   6   2.0000     -20.534925      -558.7837
   7   2.0000     -20.526280      -558.5485
   8   2.0000      -1.400772       -38.1169
   9   2.0000      -1.380286       -37.5595
  10   2.0000      -1.362782       -37.0832
  11   2.0000      -1.357854       -36.9491
  12   2.0000      -1.328450       -36.1490
  13   2.0000      -1.322709       -35.9927
  14   2.0000      -1.312307       -35.7097
  15   2.0000      -1.307967       -35.5916
  16   2.0000      -0.766284       -20.8517
  17   2.0000      -0.737531       -20.0692
  18   2.0000      -0.725288       -19.7361
  19   2.0000      -0.720590       -19.6083
  20   2.0000      -0.706834       -19.2339
  21   2.0000      -0.702866       -19.1260
  22   2.0000      -0.695169       -18.9165
  23   2.0000      -0.683692       -18.6042
  24   2.0000      -0.644176       -17.5289
  25   2.0000      -0.624610       -16.9965
  26   2.0000      -0.605924       -16.4880
  27   2.0000      -0.603604       -16.4249
  28   2.0000      -0.583200       -15.8697
  29   2.0000      -0.570331       -15.5195
  30   2.0000      -0.557617       -15.1735
  31   2.0000      -0.549672       -14.9573
  32   2.0000      -0.545889       -14.8544
  33   2.0000      -0.529028       -14.3956
  34   2.0000      -0.507445       -13.8083
  35   2.0000      -0.505175       -13.7465
  36   2.0000      -0.494599       -13.4587
  37   2.0000      -0.486374       -13.2349
  38   2.0000      -0.480671       -13.0797
  39   2.0000      -0.477114       -12.9829
  40   0.0000       0.084561         2.3010
  41   0.0000       0.106489         2.8977
  42   0.0000       0.138920         3.7802
  43   0.0000       0.156247         4.2517
  44   0.0000       0.161978         4.4076

MULLIKEN ATOMIC CHARGES
-----------------------
   0 O :   -0.741696
   1 H :    0.335993
   2 H :    0.385168
   3 O :   -0.743116
   4 H :    0.329343
   5 H :    0.365836
   6 O :   -0.743074
   7 H :    0.367195
   8 H :    0.342008
   9 O :   -0.686531
  10 H :    0.355456
  11 H :    0.369287
  12 O :   -0.702582
  13 H :    0.361952
  14 H :    0.372473
  15 O :   -0.713659
  16 H :    0.321613
  17 H :    0.366277
  18 O :   -0.723918
  19 H :    0.366320
  20 H :    0.384356
  21 O :   -0.699835
  22 H :    0.391665
  23 H :    0.339468
Sum of atomic charges:   -0.0000000

LOEWDIN ATOMIC CHARGES
----------------------
   0 O :   -0.341189
   1 H :    0.153252
   2 H :    0.146309
   3 O :   -0.378101
   4 H :    0.150708
   5 H :    0.140952
   6 O :   -0.347162
   7 H :    0.147914
   8 H :    0.137736
   9 O :   -0.288695
  10 H :    0.170952
  11 H :    0.182799
  12 O :   -0.281833
  13 H :    0.174670
  14 H :    0.152172
  15 O :   -0.350112
  16 H :    0.154348
  17 H :    0.149175
  18 O :   -0.287870
  19 H :    0.169195
  20 H :    0.196796
  21 O :   -0.277203
  22 H :    0.160220
  23 H :    0.164964

  Mayer bond orders larger than 0.100000
B(  0-O ,  1-H ) :   0.8511 B(  0-O ,  2-H ) :   0.7543 B(  3-O ,  4-H ) :   0.8582
B(  3-O ,  5-H ) :   0.7736 B(  6-O ,  7-H ) :   0.8208 B(  6-O ,  8-H ) :   0.7861
B(  9-O , 10-H ) :   0.8375 B(  9-O , 11-H ) :   0.8210 B( 12-O , 13-H ) :   0.8338
B( 12-O , 14-H ) :   0.8055 B( 15-O , 16-H ) :   0.8606 B( 15-O , 17-H ) :   0.7970
B( 18-O , 19-H ) :   0.8309 B( 18-O , 20-H ) :   0.8098 B( 21-O , 22-H ) :   0.7894
B( 21-O , 23-H ) :   0.8449

MP2 TOTAL ENERGY:     -610.573750277 Eh
FINAL SINGLE POINT ENERGY      -610.573750277098

DIPOLE MOMENT
-------------
                                X             Y             Z
Electronic contribution:     -0.23373       0.41562      -0.17087
Nuclear contribution   :     -0.76350       0.33647      -1.31870
                        -----------------------------------------
Total Dipole Moment    :     -0.99723       0.75209      -1.48957
                        -----------------------------------------
Magnitude (a.u.)       :      1.94394
Magnitude (Debye)      :      4.94111

Rotational constants in cm-1:     0.031091     0.015709     0.013911
Rotational constants in MHz :   932.076078   470.943448   417.034781

                             ****ORCA TERMINATED NORMALLY****
TOTAL RUN TIME: 0 days 0 hours 2 minutes 42 seconds 387 msec
