                         Program Version 4.2.0 -  RELEASE  -
|  1> # 12meoh.boyd.etal.mol3,8
|  2> ! MP2 def2-TZVP EnGrad TightSCF
|  3>
|  4> %pal
|  5>     nprocs 6
|  6> end
|  7>
|  8> %maxcore 8000
|  9>
| 10> %scf
| 11>     ConvForced true
| 12> end
| 13>
| 14> *xyz 0 1
| 15> O  -3.821405976  -2.118091637   0.596795346
| 16> H  -4.342989117  -1.344303030   0.251966383
| 17> C  -3.443883586  -1.809641231   1.934889393
| 18> H  -2.831494349  -2.637429600   2.305201764
| 19> H  -4.325601146  -1.719364371   2.585074667
| 20> H  -2.858527126  -0.882644791   1.996110694
| 21> O   3.570084754   2.361662577  -0.202416728
| 22> H   3.393280933   1.755669977   0.560634073
| 23> C   4.368082883   1.644741793  -1.143112807
| 24> H   4.552851717   2.311801738  -1.989632421
| 25> H   3.862427494   0.740851663  -1.508095690
| 26> H   5.333949674   1.357289092  -0.706288100
| 27> *
| 28>
| 29>                          ****END OF INPUT****

CARTESIAN COORDINATES (ANGSTROEM)
---------------------------------
  O     -3.821406   -2.118092    0.596795
  H     -4.342989   -1.344303    0.251966
  C     -3.443884   -1.809641    1.934889
  H     -2.831494   -2.637430    2.305202
  H     -4.325601   -1.719364    2.585075
  H     -2.858527   -0.882645    1.996111
  O      3.570085    2.361663   -0.202417
  H      3.393281    1.755670    0.560634
  C      4.368083    1.644742   -1.143113
  H      4.552852    2.311802   -1.989632
  H      3.862427    0.740852   -1.508096
  H      5.333950    1.357289   -0.706288

 Total Charge           Charge          ....    0
 Multiplicity           Mult            ....    1
 Number of Electrons    NEL             ....   36
 Basis Dimension        Dim             ....  172

ORBITAL ENERGIES
----------------

  NO   OCC          E(Eh)            E(eV)
   0   2.0000     -20.558314      -559.4202
   1   2.0000     -20.557221      -559.3904
   2   2.0000     -11.272410      -306.7379
   3   2.0000     -11.271767      -306.7204
   4   2.0000      -1.347395       -36.6645
   5   2.0000      -1.346706       -36.6457
   6   2.0000      -0.919896       -25.0316
   7   2.0000      -0.919868       -25.0309
   8   2.0000      -0.681846       -18.5540
   9   2.0000      -0.681825       -18.5534
  10   2.0000      -0.618228       -16.8228
  11   2.0000      -0.617018       -16.7899
  12   2.0000      -0.590775       -16.0758
  13   2.0000      -0.589646       -16.0451
  14   2.0000      -0.501602       -13.6493
  15   2.0000      -0.501423       -13.6444
  16   2.0000      -0.450152       -12.2492
  17   2.0000      -0.449775       -12.2390
  18   0.0000       0.134479         3.6593
  19   0.0000       0.135194         3.6788
  20   0.0000       0.175388         4.7725
  21   0.0000       0.176359         4.7990
  22   0.0000       0.228147         6.2082

MULLIKEN ATOMIC CHARGES
-----------------------
   0 O :   -0.495054
   1 H :    0.321460
   2 C :   -0.174887
   3 H :    0.128584
   4 H :    0.109863
   5 H :    0.110034
   6 O :   -0.496264
   7 H :    0.320402
   8 C :   -0.174529
   9 H :    0.129677
  10 H :    0.110954
  11 H :    0.109760
Sum of atomic charges:   -0.0000000

LOEWDIN ATOMIC CHARGES
----------------------
   0 O :   -0.109752
   1 H :    0.190870
   2 C :   -0.382175
   3 H :    0.110179
   4 H :    0.095617
   5 H :    0.095261
   6 O :   -0.110184
   7 H :    0.187488
   8 C :   -0.378883
   9 H :    0.110475
  10 H :    0.095621
  11 H :    0.095483

  Mayer bond orders larger than 0.100000
B(  0-O ,  1-H ) :   0.8427 B(  0-O ,  2-C ) :   0.9267 B(  2-C ,  3-H ) :   0.9377
B(  2-C ,  4-H ) :   0.9392 B(  2-C ,  5-H ) :   0.9384 B(  6-O ,  7-H ) :   0.8441
B(  6-O ,  8-C ) :   0.9248 B(  8-C ,  9-H ) :   0.9378 B(  8-C , 10-H ) :   0.9381
B(  8-C , 11-H ) :   0.9394

MP2 TOTAL ENERGY:     -231.013577344 Eh
FINAL SINGLE POINT ENERGY      -231.013577343793

DIPOLE MOMENT
-------------
                                X             Y             Z
Electronic contribution:     -1.39529       0.49836      -0.59793
Nuclear contribution   :      1.44569      -0.56444       1.01043
                        -----------------------------------------
Total Dipole Moment    :      0.05040      -0.06607       0.41250
                        -----------------------------------------
Magnitude (a.u.)       :      0.42079
Magnitude (Debye)      :      1.06955

Rotational constants in cm-1:     0.432416     0.013495     0.013279
Rotational constants in MHz : 12963.520147   404.584236   398.088556

                             ****ORCA TERMINATED NORMALLY****
TOTAL RUN TIME: 0 days 0 hours 0 minutes 15 seconds 36 msec
