                         Program Version 4.2.0 -  RELEASE  -
|  1> # 12mecn.remya.etal.2.mol0,6,11
|  2> ! MP2 def2-TZVP EnGrad TightSCF
|  3>
|  4> %pal
|  5>     nprocs 6
|  6> end
|  7>
|  8> %maxcore 8000
|  9>
| 10> %scf
| 11>     ConvForced true
| 12> end
| 13>
| 14> *xyz 0 1
| 15> C  -0.869520000  -3.929380000   1.700199000
| 16> H  -0.057420000  -3.268850000   2.015352000
| 17> H  -0.697530000  -4.930670000   2.101524000
| 18> H  -1.821490000  -3.546590000   2.077146000
| 19> C  -0.916080000  -3.969960000   0.256749000
| 20> N  -0.955390000  -3.995980000  -0.909290000
| 21> C   5.300864000  -2.920090000   1.401103000
| 22> H   5.986071000  -2.139770000   1.737487000
| 23> H   5.636642000  -3.888750000   1.778233000
| 24> H   4.307359000  -2.697240000   1.799307000
| 25> C   5.234791000  -2.933140000  -0.043290000
| 26> N   5.170868000  -2.941760000  -1.207750000
| 27> C   4.214163000   3.378139000   1.593627000
| 28> H   3.242643000   3.657109000   2.012358000
| 29> H   4.969258000   4.086643000   1.941290000
| 30> H   4.482966000   2.372549000   1.931698000
| 31> C   4.130759000   3.388436000   0.150192000
| 32> N   4.050180000   3.381449000  -1.013420000
| 33> *
| 34>
| 35>                          ****END OF INPUT****

CARTESIAN COORDINATES (ANGSTROEM)
---------------------------------
  C     -0.869520   -3.929380    1.700199
  H     -0.057420   -3.268850    2.015352
  H     -0.697530   -4.930670    2.101524
  H     -1.821490   -3.546590    2.077146
  C     -0.916080   -3.969960    0.256749
  N     -0.955390   -3.995980   -0.909290
  C      5.300864   -2.920090    1.401103
  H      5.986071   -2.139770    1.737487
  H      5.636642   -3.888750    1.778233
  H      4.307359   -2.697240    1.799307
  C      5.234791   -2.933140   -0.043290
  N      5.170868   -2.941760   -1.207750
  C      4.214163    3.378139    1.593627
  H      3.242643    3.657109    2.012358
  H      4.969258    4.086643    1.941290
  H      4.482966    2.372549    1.931698
  C      4.130759    3.388436    0.150192
  N      4.050180    3.381449   -1.013420

 Total Charge           Charge          ....    0
 Multiplicity           Mult            ....    1
 Number of Electrons    NEL             ....   66
 Basis Dimension        Dim             ....  333

ORBITAL ENERGIES
----------------

  NO   OCC          E(Eh)            E(eV)
   0   2.0000     -15.574082      -423.7923
   1   2.0000     -15.573611      -423.7795
   2   2.0000     -15.573536      -423.7775
   3   2.0000     -11.288940      -307.1877
   4   2.0000     -11.288551      -307.1771
   5   2.0000     -11.287904      -307.1595
   6   2.0000     -11.280326      -306.9533
   7   2.0000     -11.279712      -306.9366
   8   2.0000     -11.279484      -306.9304
   9   2.0000      -1.215177       -33.0666
  10   2.0000      -1.214551       -33.0496
  11   2.0000      -1.214280       -33.0422
  12   2.0000      -1.046945       -28.4888
  13   2.0000      -1.046498       -28.4767
  14   2.0000      -1.046312       -28.4716
  15   2.0000      -0.704038       -19.1578
  16   2.0000      -0.703043       -19.1308
  17   2.0000      -0.702198       -19.1078
  18   2.0000      -0.636505       -17.3202
  19   2.0000      -0.635435       -17.2911
  20   2.0000      -0.635145       -17.2832
  21   2.0000      -0.634442       -17.2640
  22   2.0000      -0.633974       -17.2513
  23   2.0000      -0.633963       -17.2510
  24   2.0000      -0.556023       -15.1302
  25   2.0000      -0.555302       -15.1105
  26   2.0000      -0.555234       -15.1087
  27   2.0000      -0.458383       -12.4732
  28   2.0000      -0.458293       -12.4708
  29   2.0000      -0.458004       -12.4629
  30   2.0000      -0.457595       -12.4518
  31   2.0000      -0.457523       -12.4498
  32   2.0000      -0.457338       -12.4448
  33   0.0000       0.094224         2.5640
  34   0.0000       0.111797         3.0422
  35   0.0000       0.127236         3.4623
  36   0.0000       0.155780         4.2390
  37   0.0000       0.165773         4.5109

MULLIKEN ATOMIC CHARGES
-----------------------
   0 C :   -0.279162
   1 H :    0.164634
   2 H :    0.172242
   3 H :    0.172948
   4 C :   -0.145667
   5 N :   -0.084997
   6 C :   -0.282495
   7 H :    0.170018
   8 H :    0.173619
   9 H :    0.164463
  10 C :   -0.144741
  11 N :   -0.080869
  12 C :   -0.280235
  13 H :    0.172243
  14 H :    0.173118
  15 H :    0.164962
  16 C :   -0.145781
  17 N :   -0.084301
Sum of atomic charges:   -0.0000000

LOEWDIN ATOMIC CHARGES
----------------------
   0 C :   -0.285062
   1 H :    0.150265
   2 H :    0.151173
   3 H :    0.152883
   4 C :   -0.220846
   5 N :    0.051586
   6 C :   -0.285969
   7 H :    0.150316
   8 H :    0.151275
   9 H :    0.150173
  10 C :   -0.220289
  11 N :    0.054493
  12 C :   -0.285387
  13 H :    0.152533
  14 H :    0.151037
  15 H :    0.150620
  16 C :   -0.220463
  17 N :    0.051661

  Mayer bond orders larger than 0.100000
B(  0-C ,  1-H ) :   0.9186 B(  0-C ,  2-H ) :   0.9172 B(  0-C ,  3-H ) :   0.9168
B(  0-C ,  4-C ) :   0.9015 B(  4-C ,  5-N ) :   2.8320 B(  6-C ,  7-H ) :   0.9182
B(  6-C ,  8-H ) :   0.9164 B(  6-C ,  9-H ) :   0.9194 B(  6-C , 10-C ) :   0.9023
B( 10-C , 11-N ) :   2.8304 B( 12-C , 13-H ) :   0.9170 B( 12-C , 14-H ) :   0.9168
B( 12-C , 15-H ) :   0.9183 B( 12-C , 16-C ) :   0.9025 B( 16-C , 17-N ) :   2.8323

MP2 TOTAL ENERGY:     -397.446790168 Eh
FINAL SINGLE POINT ENERGY      -397.446790168233

DIPOLE MOMENT
-------------
                                X             Y             Z
Electronic contribution:     -0.40992      -0.11535      -9.47604
Nuclear contribution   :      0.62244       0.16780      13.93574
                        -----------------------------------------
Total Dipole Moment    :      0.21252       0.05245       4.45970
                        -----------------------------------------
Magnitude (a.u.)       :      4.46507
Magnitude (Debye)      :     11.34930

Rotational constants in cm-1:     0.023557     0.009392     0.007689
Rotational constants in MHz :   706.235854   281.578022   230.508195

                             ****ORCA TERMINATED NORMALLY****
TOTAL RUN TIME: 0 days 0 hours 2 minutes 18 seconds 908 msec
