                         Program Version 4.2.0 -  RELEASE  -
|  1> # 12h2o.su.etal.mol7,8,9,11
|  2> ! MP2 def2-TZVP EnGrad TightSCF
|  3>
|  4> %pal
|  5>     nprocs 6
|  6> end
|  7>
|  8> %maxcore 8000
|  9>
| 10> %scf
| 11>     ConvForced true
| 12> end
| 13>
| 14> *xyz 0 1
| 15> O  -1.737840000  -0.885520000  -0.052730000
| 16> H  -2.090180000  -1.032320000   0.841890000
| 17> H  -0.839590000  -1.284090000  -0.017130000
| 18> O   1.752130000   0.741530000  -2.896280000
| 19> H   2.036450000   0.920500000  -1.984040000
| 20> H   0.921210000   1.242140000  -2.984230000
| 21> O   0.741530000  -1.752130000   2.896280000
| 22> H   0.920500000  -2.036450000   1.984040000
| 23> H   1.242140000  -0.921210000   2.984230000
| 24> O  -0.741530000   1.752130000   2.896280000
| 25> H  -0.920500000   2.036450000   1.984040000
| 26> H  -1.242140000   0.921210000   2.984230000
| 27> *
| 28>
| 29>                          ****END OF INPUT****

CARTESIAN COORDINATES (ANGSTROEM)
---------------------------------
  O     -1.737840   -0.885520   -0.052730
  H     -2.090180   -1.032320    0.841890
  H     -0.839590   -1.284090   -0.017130
  O      1.752130    0.741530   -2.896280
  H      2.036450    0.920500   -1.984040
  H      0.921210    1.242140   -2.984230
  O      0.741530   -1.752130    2.896280
  H      0.920500   -2.036450    1.984040
  H      1.242140   -0.921210    2.984230
  O     -0.741530    1.752130    2.896280
  H     -0.920500    2.036450    1.984040
  H     -1.242140    0.921210    2.984230

 Total Charge           Charge          ....    0
 Multiplicity           Mult            ....    1
 Number of Electrons    NEL             ....   40
 Basis Dimension        Dim             ....  172

ORBITAL ENERGIES
----------------

  NO   OCC          E(Eh)            E(eV)
   0   2.0000     -20.581329      -560.0464
   1   2.0000     -20.581241      -560.0440
   2   2.0000     -20.571508      -559.7792
   3   2.0000     -20.568681      -559.7023
   4   2.0000      -1.360363       -37.0173
   5   2.0000      -1.356854       -36.9219
   6   2.0000      -1.350543       -36.7501
   7   2.0000      -1.347881       -36.6777
   8   2.0000      -0.723283       -19.6815
   9   2.0000      -0.718817       -19.5600
  10   2.0000      -0.713058       -19.4033
  11   2.0000      -0.710673       -19.3384
  12   2.0000      -0.598156       -16.2767
  13   2.0000      -0.595812       -16.2129
  14   2.0000      -0.588248       -16.0070
  15   2.0000      -0.585215       -15.9245
  16   2.0000      -0.526609       -14.3298
  17   2.0000      -0.523013       -14.2319
  18   2.0000      -0.514652       -14.0044
  19   2.0000      -0.512671       -13.9505
  20   0.0000       0.073957         2.0125
  21   0.0000       0.119531         3.2526
  22   0.0000       0.129447         3.5224
  23   0.0000       0.153976         4.1899
  24   0.0000       0.178473         4.8565

MULLIKEN ATOMIC CHARGES
-----------------------
   0 O :   -0.670623
   1 H :    0.338337
   2 H :    0.331425
   3 O :   -0.673154
   4 H :    0.332373
   5 H :    0.341233
   6 O :   -0.676095
   7 H :    0.327312
   8 H :    0.350186
   9 O :   -0.678570
  10 H :    0.339549
  11 H :    0.338026
Sum of atomic charges:    0.0000000

LOEWDIN ATOMIC CHARGES
----------------------
   0 O :   -0.332587
   1 H :    0.163951
   2 H :    0.167920
   3 O :   -0.331496
   4 H :    0.163269
   5 H :    0.168517
   6 O :   -0.328233
   7 H :    0.159378
   8 H :    0.170498
   9 O :   -0.330644
  10 H :    0.165540
  11 H :    0.163887

  Mayer bond orders larger than 0.100000
B(  0-O ,  1-H ) :   0.8507 B(  0-O ,  2-H ) :   0.8524 B(  3-O ,  4-H ) :   0.8560
B(  3-O ,  5-H ) :   0.8506 B(  6-O ,  7-H ) :   0.8566 B(  6-O ,  8-H ) :   0.8415
B(  9-O , 10-H ) :   0.8506 B(  9-O , 11-H ) :   0.8491

MP2 TOTAL ENERGY:     -305.255750226 Eh
FINAL SINGLE POINT ENERGY      -305.255750225661

DIPOLE MOMENT
-------------
                                X             Y             Z
Electronic contribution:     -0.00617      -0.01116      -0.00383
Nuclear contribution   :     -0.00057       0.11171       0.08817
                        -----------------------------------------
Total Dipole Moment    :     -0.00674       0.10056       0.08434
                        -----------------------------------------
Magnitude (a.u.)       :      0.13142
Magnitude (Debye)      :      0.33403

Rotational constants in cm-1:     0.072050     0.031293     0.029678
Rotational constants in MHz :  2159.996164   938.127454   889.723515

                             ****ORCA TERMINATED NORMALLY****
TOTAL RUN TIME: 0 days 0 hours 0 minutes 16 seconds 838 msec
