                         Program Version 4.2.0 -  RELEASE  -
|  1> # 12h2o.su.etal.mol1,4,6,7,9,10,11
|  2> ! MP2 def2-TZVP EnGrad TightSCF
|  3>
|  4> %pal
|  5>     nprocs 6
|  6> end
|  7>
|  8> %maxcore 8000
|  9>
| 10> %scf
| 11>     ConvForced true
| 12> end
| 13>
| 14> *xyz 0 1
| 15> O  -1.794470000  -0.923410000   2.768350000
| 16> H  -2.338250000  -1.359750000   3.430940000
| 17> H  -0.879480000  -1.303000000   2.865760000
| 18> O  -0.885520000   1.737840000   0.052730000
| 19> H  -1.032320000   2.090180000  -0.841890000
| 20> H  -1.284090000   0.839590000   0.017130000
| 21> O   1.737840000   0.885520000  -0.052730000
| 22> H   2.090180000   1.032320000   0.841890000
| 23> H   0.839590000   1.284090000  -0.017130000
| 24> O  -1.737840000  -0.885520000  -0.052730000
| 25> H  -2.090180000  -1.032320000   0.841890000
| 26> H  -0.839590000  -1.284090000  -0.017130000
| 27> O   0.741530000  -1.752130000   2.896280000
| 28> H   0.920500000  -2.036450000   1.984040000
| 29> H   1.242140000  -0.921210000   2.984230000
| 30> O  -0.923410000   1.794470000  -2.768350000
| 31> H  -1.359750000   2.338250000  -3.430940000
| 32> H  -1.303000000   0.879480000  -2.865760000
| 33> O  -0.741530000   1.752130000   2.896280000
| 34> H  -0.920500000   2.036450000   1.984040000
| 35> H  -1.242140000   0.921210000   2.984230000
| 36> *
| 37>
| 38>                          ****END OF INPUT****

CARTESIAN COORDINATES (ANGSTROEM)
---------------------------------
  O     -1.794470   -0.923410    2.768350
  H     -2.338250   -1.359750    3.430940
  H     -0.879480   -1.303000    2.865760
  O     -0.885520    1.737840    0.052730
  H     -1.032320    2.090180   -0.841890
  H     -1.284090    0.839590    0.017130
  O      1.737840    0.885520   -0.052730
  H      2.090180    1.032320    0.841890
  H      0.839590    1.284090   -0.017130
  O     -1.737840   -0.885520   -0.052730
  H     -2.090180   -1.032320    0.841890
  H     -0.839590   -1.284090   -0.017130
  O      0.741530   -1.752130    2.896280
  H      0.920500   -2.036450    1.984040
  H      1.242140   -0.921210    2.984230
  O     -0.923410    1.794470   -2.768350
  H     -1.359750    2.338250   -3.430940
  H     -1.303000    0.879480   -2.865760
  O     -0.741530    1.752130    2.896280
  H     -0.920500    2.036450    1.984040
  H     -1.242140    0.921210    2.984230

 Total Charge           Charge          ....    0
 Multiplicity           Mult            ....    1
 Number of Electrons    NEL             ....   70
 Basis Dimension        Dim             ....  301

ORBITAL ENERGIES
----------------

  NO   OCC          E(Eh)            E(eV)
   0   2.0000     -20.614510      -560.9493
   1   2.0000     -20.586705      -560.1927
   2   2.0000     -20.580655      -560.0281
   3   2.0000     -20.577732      -559.9485
   4   2.0000     -20.543970      -559.0299
   5   2.0000     -20.524918      -558.5114
   6   2.0000     -20.508696      -558.0700
   7   2.0000      -1.401059       -38.1248
   8   2.0000      -1.370352       -37.2892
   9   2.0000      -1.364830       -37.1389
  10   2.0000      -1.358376       -36.9633
  11   2.0000      -1.334834       -36.3227
  12   2.0000      -1.304558       -35.4988
  13   2.0000      -1.293578       -35.2000
  14   2.0000      -0.756745       -20.5921
  15   2.0000      -0.745645       -20.2900
  16   2.0000      -0.731774       -19.9126
  17   2.0000      -0.726864       -19.7790
  18   2.0000      -0.708483       -19.2788
  19   2.0000      -0.678944       -18.4750
  20   2.0000      -0.671843       -18.2818
  21   2.0000      -0.646274       -17.5860
  22   2.0000      -0.620477       -16.8840
  23   2.0000      -0.607398       -16.5281
  24   2.0000      -0.593832       -16.1590
  25   2.0000      -0.583327       -15.8731
  26   2.0000      -0.556310       -15.1380
  27   2.0000      -0.550588       -14.9823
  28   2.0000      -0.538116       -14.6429
  29   2.0000      -0.525823       -14.3084
  30   2.0000      -0.517768       -14.0892
  31   2.0000      -0.512304       -13.9405
  32   2.0000      -0.488826       -13.3016
  33   2.0000      -0.472856       -12.8671
  34   2.0000      -0.458688       -12.4815
  35   0.0000       0.083561         2.2738
  36   0.0000       0.115840         3.1522
  37   0.0000       0.140800         3.8314
  38   0.0000       0.146865         3.9964
  39   0.0000       0.179390         4.8814

MULLIKEN ATOMIC CHARGES
-----------------------
   0 O :   -0.751491
   1 H :    0.354042
   2 H :    0.381440
   3 O :   -0.749915
   4 H :    0.379554
   5 H :    0.357061
   6 O :   -0.725190
   7 H :    0.319048
   8 H :    0.367841
   9 O :   -0.700819
  10 H :    0.384463
  11 H :    0.337949
  12 O :   -0.683493
  13 H :    0.356882
  14 H :    0.374350
  15 O :   -0.693739
  16 H :    0.350548
  17 H :    0.360298
  18 O :   -0.735074
  19 H :    0.371106
  20 H :    0.345138
Sum of atomic charges:   -0.0000000

LOEWDIN ATOMIC CHARGES
----------------------
   0 O :   -0.312689
   1 H :    0.160957
   2 H :    0.145838
   3 O :   -0.301585
   4 H :    0.151985
   5 H :    0.140897
   6 O :   -0.363907
   7 H :    0.151789
   8 H :    0.142492
   9 O :   -0.298167
  10 H :    0.154394
  11 H :    0.167772
  12 O :   -0.265379
  13 H :    0.172153
  14 H :    0.181440
  15 O :   -0.308848
  16 H :    0.162962
  17 H :    0.187584
  18 O :   -0.357781
  19 H :    0.148967
  20 H :    0.139128

  Mayer bond orders larger than 0.100000
B(  0-O ,  1-H ) :   0.8385 B(  0-O ,  2-H ) :   0.7489 B(  3-O ,  4-H ) :   0.8021
B(  3-O ,  5-H ) :   0.7717 B(  6-O ,  7-H ) :   0.8612 B(  6-O ,  8-H ) :   0.7820
B(  9-O , 10-H ) :   0.7934 B(  9-O , 11-H ) :   0.8432 B( 12-O , 13-H ) :   0.8361
B( 12-O , 14-H ) :   0.8209 B( 15-O , 16-H ) :   0.8430 B( 15-O , 17-H ) :   0.8307
B( 18-O , 19-H ) :   0.8181 B( 18-O , 20-H ) :   0.8287

MP2 TOTAL ENERGY:     -534.254817217 Eh
FINAL SINGLE POINT ENERGY      -534.254817216827

DIPOLE MOMENT
-------------
                                X             Y             Z
Electronic contribution:      0.01073      -0.08850      -0.06277
Nuclear contribution   :     -0.82411      -1.44252      -0.59793
                        -----------------------------------------
Total Dipole Moment    :     -0.81338      -1.53102      -0.66071
                        -----------------------------------------
Magnitude (a.u.)       :      1.85530
Magnitude (Debye)      :      4.71581

Rotational constants in cm-1:     0.048995     0.022576     0.021650
Rotational constants in MHz :  1468.842369   676.805366   649.049588

                             ****ORCA TERMINATED NORMALLY****
TOTAL RUN TIME: 0 days 0 hours 2 minutes 23 seconds 802 msec
