                         Program Version 4.2.0 -  RELEASE  -
|  1> # 12h2o.su.etal.mol4,7,9
|  2> ! MP2 def2-TZVP EnGrad TightSCF
|  3>
|  4> %pal
|  5>     nprocs 6
|  6> end
|  7>
|  8> %maxcore 8000
|  9>
| 10> %scf
| 11>     ConvForced true
| 12> end
| 13>
| 14> *xyz 0 1
| 15> O  -0.885520000   1.737840000   0.052730000
| 16> H  -1.032320000   2.090180000  -0.841890000
| 17> H  -1.284090000   0.839590000   0.017130000
| 18> O  -1.737840000  -0.885520000  -0.052730000
| 19> H  -2.090180000  -1.032320000   0.841890000
| 20> H  -0.839590000  -1.284090000  -0.017130000
| 21> O   0.741530000  -1.752130000   2.896280000
| 22> H   0.920500000  -2.036450000   1.984040000
| 23> H   1.242140000  -0.921210000   2.984230000
| 24> *
| 25>
| 26>                          ****END OF INPUT****

CARTESIAN COORDINATES (ANGSTROEM)
---------------------------------
  O     -0.885520    1.737840    0.052730
  H     -1.032320    2.090180   -0.841890
  H     -1.284090    0.839590    0.017130
  O     -1.737840   -0.885520   -0.052730
  H     -2.090180   -1.032320    0.841890
  H     -0.839590   -1.284090   -0.017130
  O      0.741530   -1.752130    2.896280
  H      0.920500   -2.036450    1.984040
  H      1.242140   -0.921210    2.984230

 Total Charge           Charge          ....    0
 Multiplicity           Mult            ....    1
 Number of Electrons    NEL             ....   30
 Basis Dimension        Dim             ....  129

ORBITAL ENERGIES
----------------

  NO   OCC          E(Eh)            E(eV)
   0   2.0000     -20.598438      -560.5120
   1   2.0000     -20.577418      -559.9400
   2   2.0000     -20.529754      -558.6430
   3   2.0000      -1.378870       -37.5210
   4   2.0000      -1.356379       -36.9090
   5   2.0000      -1.311007       -35.6743
   6   2.0000      -0.736993       -20.0546
   7   2.0000      -0.719194       -19.5703
   8   2.0000      -0.687487       -18.7075
   9   2.0000      -0.617708       -16.8087
  10   2.0000      -0.593621       -16.1532
  11   2.0000      -0.566110       -15.4046
  12   2.0000      -0.523178       -14.2364
  13   2.0000      -0.520894       -14.1743
  14   2.0000      -0.478137       -13.0108
  15   0.0000       0.086056         2.3417
  16   0.0000       0.148435         4.0391
  17   0.0000       0.166419         4.5285
  18   0.0000       0.174338         4.7440
  19   0.0000       0.230032         6.2595

MULLIKEN ATOMIC CHARGES
-----------------------
   0 O :   -0.716671
   1 H :    0.328030
   2 H :    0.352163
   3 O :   -0.676580
   4 H :    0.364508
   5 H :    0.345190
   6 O :   -0.671337
   7 H :    0.325525
   8 H :    0.349171
Sum of atomic charges:   -0.0000000

LOEWDIN ATOMIC CHARGES
----------------------
   0 O :   -0.364305
   1 H :    0.158494
   2 H :    0.140716
   3 O :   -0.287218
   4 H :    0.175873
   5 H :    0.173655
   6 O :   -0.328286
   7 H :    0.158708
   8 H :    0.172361

  Mayer bond orders larger than 0.100000
B(  0-O ,  1-H ) :   0.8586 B(  0-O ,  2-H ) :   0.8032 B(  3-O ,  4-H ) :   0.8330
B(  3-O ,  5-H ) :   0.8409 B(  6-O ,  7-H ) :   0.8583 B(  6-O ,  8-H ) :   0.8455

MP2 TOTAL ENERGY:     -228.947334877 Eh
FINAL SINGLE POINT ENERGY      -228.947334876535

DIPOLE MOMENT
-------------
                                X             Y             Z
Electronic contribution:     -0.16324      -0.16436       0.17210
Nuclear contribution   :      0.56611      -0.45337      -0.68611
                        -----------------------------------------
Total Dipole Moment    :      0.40286      -0.61773      -0.51401
                        -----------------------------------------
Magnitude (a.u.)       :      0.89894
Magnitude (Debye)      :      2.28492

Rotational constants in cm-1:     0.279353     0.077088     0.061277
Rotational constants in MHz :  8374.779642  2311.029997  1837.045557

                             ****ORCA TERMINATED NORMALLY****
TOTAL RUN TIME: 0 days 0 hours 0 minutes 9 seconds 686 msec
