                         Program Version 4.2.0 -  RELEASE  -
|  1> # 12mecn.remya.etal.2.mol0,2,7
|  2> ! MP2 def2-TZVP EnGrad TightSCF
|  3>
|  4> %pal
|  5>     nprocs 6
|  6> end
|  7>
|  8> %maxcore 8000
|  9>
| 10> %scf
| 11>     ConvForced true
| 12> end
| 13>
| 14> *xyz 0 1
| 15> C  -0.869520000  -3.929380000   1.700199000
| 16> H  -0.057420000  -3.268850000   2.015352000
| 17> H  -0.697530000  -4.930670000   2.101524000
| 18> H  -1.821490000  -3.546590000   2.077146000
| 19> C  -0.916080000  -3.969960000   0.256749000
| 20> N  -0.955390000  -3.995980000  -0.909290000
| 21> C  -4.219070000  -3.477410000  -1.501740000
| 22> H  -3.251530000  -3.803540000  -1.893830000
| 23> H  -4.452920000  -2.481700000  -1.890840000
| 24> H  -4.992170000  -4.178130000  -1.824640000
| 25> C  -4.154550000  -3.418790000  -0.058340000
| 26> N  -4.091140000  -3.354840000   1.104432000
| 27> C   1.502241000   0.651296000   1.710523000
| 28> H   1.309219000   1.637164000   2.143202000
| 29> H   2.493408000   0.297996000   2.009069000
| 30> H   0.746597000  -0.059850000   2.055508000
| 31> C   1.447974000   0.738517000   0.269805000
| 32> N   1.405612000   0.808047000  -0.894380000
| 33> *
| 34>
| 35>                          ****END OF INPUT****

CARTESIAN COORDINATES (ANGSTROEM)
---------------------------------
  C     -0.869520   -3.929380    1.700199
  H     -0.057420   -3.268850    2.015352
  H     -0.697530   -4.930670    2.101524
  H     -1.821490   -3.546590    2.077146
  C     -0.916080   -3.969960    0.256749
  N     -0.955390   -3.995980   -0.909290
  C     -4.219070   -3.477410   -1.501740
  H     -3.251530   -3.803540   -1.893830
  H     -4.452920   -2.481700   -1.890840
  H     -4.992170   -4.178130   -1.824640
  C     -4.154550   -3.418790   -0.058340
  N     -4.091140   -3.354840    1.104432
  C      1.502241    0.651296    1.710523
  H      1.309219    1.637164    2.143202
  H      2.493408    0.297996    2.009069
  H      0.746597   -0.059850    2.055508
  C      1.447974    0.738517    0.269805
  N      1.405612    0.808047   -0.894380

 Total Charge           Charge          ....    0
 Multiplicity           Mult            ....    1
 Number of Electrons    NEL             ....   66
 Basis Dimension        Dim             ....  333

ORBITAL ENERGIES
----------------

  NO   OCC          E(Eh)            E(eV)
   0   2.0000     -15.573156      -423.7671
   1   2.0000     -15.571785      -423.7298
   2   2.0000     -15.571628      -423.7255
   3   2.0000     -11.287248      -307.1416
   4   2.0000     -11.284000      -307.0533
   5   2.0000     -11.282871      -307.0225
   6   2.0000     -11.279600      -306.9335
   7   2.0000     -11.275059      -306.8100
   8   2.0000     -11.271195      -306.7048
   9   2.0000      -1.218754       -33.1640
  10   2.0000      -1.214342       -33.0439
  11   2.0000      -1.214130       -33.0381
  12   2.0000      -1.045887       -28.4600
  13   2.0000      -1.038553       -28.2605
  14   2.0000      -1.033947       -28.1351
  15   2.0000      -0.700337       -19.0571
  16   2.0000      -0.696584       -18.9550
  17   2.0000      -0.691726       -18.8228
  18   2.0000      -0.635325       -17.2881
  19   2.0000      -0.634102       -17.2548
  20   2.0000      -0.632435       -17.2094
  21   2.0000      -0.625713       -17.0265
  22   2.0000      -0.621052       -16.8997
  23   2.0000      -0.615381       -16.7454
  24   2.0000      -0.559772       -15.2322
  25   2.0000      -0.556221       -15.1356
  26   2.0000      -0.555266       -15.1096
  27   2.0000      -0.460690       -12.5360
  28   2.0000      -0.460184       -12.5223
  29   2.0000      -0.457670       -12.4538
  30   2.0000      -0.457282       -12.4433
  31   2.0000      -0.456725       -12.4281
  32   2.0000      -0.455971       -12.4076
  33   0.0000       0.099475         2.7069
  34   0.0000       0.133580         3.6349
  35   0.0000       0.144980         3.9451
  36   0.0000       0.165897         4.5143
  37   0.0000       0.169973         4.6252

MULLIKEN ATOMIC CHARGES
-----------------------
   0 C :   -0.286346
   1 H :    0.154762
   2 H :    0.169789
   3 H :    0.206343
   4 C :   -0.100643
   5 N :   -0.145059
   6 C :   -0.285627
   7 H :    0.206771
   8 H :    0.168405
   9 H :    0.166369
  10 C :   -0.100021
  11 N :   -0.154758
  12 C :   -0.279615
  13 H :    0.174842
  14 H :    0.172623
  15 H :    0.165317
  16 C :   -0.144530
  17 N :   -0.088622
Sum of atomic charges:   -0.0000000

LOEWDIN ATOMIC CHARGES
----------------------
   0 C :   -0.283760
   1 H :    0.147022
   2 H :    0.152202
   3 H :    0.156816
   4 C :   -0.209020
   5 N :    0.035307
   6 C :   -0.281310
   7 H :    0.157687
   8 H :    0.153962
   9 H :    0.149879
  10 C :   -0.206201
  11 N :    0.027441
  12 C :   -0.284276
  13 H :    0.153156
  14 H :    0.152860
  15 H :    0.150126
  16 C :   -0.221226
  17 N :    0.049334

  Mayer bond orders larger than 0.100000
B(  0-C ,  1-H ) :   0.9195 B(  0-C ,  2-H ) :   0.9150 B(  0-C ,  3-H ) :   0.9015
B(  0-C ,  4-C ) :   0.9003 B(  4-C ,  5-N ) :   2.7648 B(  6-C ,  7-H ) :   0.9008
B(  6-C ,  8-H ) :   0.9136 B(  6-C ,  9-H ) :   0.9163 B(  6-C , 10-C ) :   0.9027
B( 10-C , 11-N ) :   2.7703 B( 12-C , 13-H ) :   0.9164 B( 12-C , 14-H ) :   0.9171
B( 12-C , 15-H ) :   0.9185 B( 12-C , 16-C ) :   0.8995 B( 16-C , 17-N ) :   2.8330

MP2 TOTAL ENERGY:     -397.458648517 Eh
FINAL SINGLE POINT ENERGY      -397.458648516952

DIPOLE MOMENT
-------------
                                X             Y             Z
Electronic contribution:     -0.09529       0.22493      -3.16982
Nuclear contribution   :      0.11276      -0.34917       4.60982
                        -----------------------------------------
Total Dipole Moment    :      0.01747      -0.12424       1.44001
                        -----------------------------------------
Magnitude (a.u.)       :      1.44546
Magnitude (Debye)      :      3.67407

Rotational constants in cm-1:     0.053847     0.014229     0.013522
Rotational constants in MHz :  1614.285814   426.573431   405.390752

                             ****ORCA TERMINATED NORMALLY****
TOTAL RUN TIME: 0 days 0 hours 3 minutes 14 seconds 490 msec
