                         Program Version 3.0.3 - RELEASE   -
|  1> ! wB97X-D3 MA-Def2-TZVP def2-TZVP/J RIJCOSX TightSCF Grid4
|  2>
|  3> %pal nprocs 1 end
|  4>
|  5> %scf
|  6>         maxiter 400
|  7> end
|  8>
|  9> * xyz  0  1
| 10> O  0.901961	-3.120213	-0.259040
| 11> H  0.515299	-2.474485	-0.934429
| 12> H  0.989594	-3.974955	-0.718415
| 13> O  -2.695138	1.590580	-0.881687
| 14> H  -2.227589	1.364984	-1.734872
| 15> H  -2.622909	0.746549	-0.354516
| 16> O  2.800583	-1.478863	0.919545
| 17> H  2.281310	-2.207567	0.488660
| 18> H  2.293574	-1.326777	1.760449
| 19> O  -0.921244	3.074375	0.206259
| 20> H  -1.294821	3.937099	0.462054
| 21> H  -1.709606	2.525233	-0.217145
| 22> O  0.982228	-0.933724	2.962388
| 23> H  1.235071	-0.780047	3.890582
| 24> H  0.652230	-0.044875	2.610348
| 25> O  -0.898061	-2.611922	1.810843
| 26> H  -0.269416	-2.122934	2.403673
| 27> H  -0.292246	-2.966519	1.107621
| 28> O  -0.174741	-1.115552	-1.501951
| 29> H  -0.847789	-0.911967	-0.752758
| 30> H  -0.463666	-0.512643	-2.248274
| 31> O  -1.724721	-0.506722	0.500598
| 32> H  -1.615742	-1.370112	1.038547
| 33> H  -1.054979	0.106077	0.944322
| 34> O  0.182772	1.069107	1.524097
| 35> H  0.850500	0.886567	0.764871
| 36> H  -0.214426	1.955837	1.277524
| 37> O  1.741235	0.458668	-0.470156
| 38> H  1.068168	-0.146525	-0.917597
| 39> H  2.345055	-0.211630	0.013697
| 40> O  0.777615	2.542846	-1.874431
| 41> H  0.244699	2.920531	-1.119308
| 42> H  1.393230	1.905535	-1.416130
| 43> O  -0.959219	0.980557	-2.907667
| 44> H  -0.226153	1.648688	-2.561782
| 45> H  -1.071659	1.167194	-3.857525
| 46> **                         ****END OF INPUT****

CARTESIAN COORDINATES (ANGSTROEM)
---------------------------------
  O      0.901961   -3.120213   -0.259040
  H      0.515299   -2.474485   -0.934429
  H      0.989594   -3.974955   -0.718415
  O     -2.695138    1.590580   -0.881687
  H     -2.227589    1.364984   -1.734872
  H     -2.622909    0.746549   -0.354516
  O      2.800583   -1.478863    0.919545
  H      2.281310   -2.207567    0.488660
  H      2.293574   -1.326777    1.760449
  O     -0.921244    3.074375    0.206259
  H     -1.294821    3.937099    0.462054
  H     -1.709606    2.525233   -0.217145
  O      0.982228   -0.933724    2.962388
  H      1.235071   -0.780047    3.890582
  H      0.652230   -0.044875    2.610348
  O     -0.898061   -2.611922    1.810843
  H     -0.269416   -2.122934    2.403673
  H     -0.292246   -2.966519    1.107621
  O     -0.174741   -1.115552   -1.501951
  H     -0.847789   -0.911967   -0.752758
  H     -0.463666   -0.512643   -2.248274
  O     -1.724721   -0.506722    0.500598
  H     -1.615742   -1.370112    1.038547
  H     -1.054979    0.106077    0.944322
  O      0.182772    1.069107    1.524097
  H      0.850500    0.886567    0.764871
  H     -0.214426    1.955837    1.277524
  O      1.741235    0.458668   -0.470156
  H      1.068168   -0.146525   -0.917597
  H      2.345055   -0.211630    0.013697
  O      0.777615    2.542846   -1.874431
  H      0.244699    2.920531   -1.119308
  H      1.393230    1.905535   -1.416130
  O     -0.959219    0.980557   -2.907667
  H     -0.226153    1.648688   -2.561782
  H     -1.071659    1.167194   -3.857525

 Total Charge           Charge          ....    0
 Multiplicity           Mult            ....    1
 Number of Electrons    NEL             ....  120
 Basis Dimension        Dim             ....  564

ORBITAL ENERGIES
----------------

  NO   OCC          E(Eh)            E(eV)
   0   2.0000     -19.261797      -524.1401
   1   2.0000     -19.261760      -524.1391
   2   2.0000     -19.253665      -523.9189
   3   2.0000     -19.253419      -523.9122
   4   2.0000     -19.239585      -523.5357
   5   2.0000     -19.239323      -523.5286
   6   2.0000     -19.237548      -523.4803
   7   2.0000     -19.237034      -523.4663
   8   2.0000     -19.232704      -523.3485
   9   2.0000     -19.232217      -523.3352
  10   2.0000     -19.227942      -523.2189
  11   2.0000     -19.227414      -523.2045
  12   2.0000      -1.160726       -31.5850
  13   2.0000      -1.150546       -31.3079
  14   2.0000      -1.150211       -31.2988
  15   2.0000      -1.139326       -31.0026
  16   2.0000      -1.134091       -30.8602
  17   2.0000      -1.131842       -30.7990
  18   2.0000      -1.120359       -30.4865
  19   2.0000      -1.117278       -30.4027
  20   2.0000      -1.115541       -30.3554
  21   2.0000      -1.109352       -30.1870
  22   2.0000      -1.102526       -30.0013
  23   2.0000      -1.089325       -29.6420
  24   2.0000      -0.673846       -18.3363
  25   2.0000      -0.673611       -18.3299
  26   2.0000      -0.655095       -17.8260
  27   2.0000      -0.652067       -17.7436
  28   2.0000      -0.643693       -17.5158
  29   2.0000      -0.637584       -17.3495
  30   2.0000      -0.632106       -17.2005
  31   2.0000      -0.628154       -17.0929
  32   2.0000      -0.622109       -16.9285
  33   2.0000      -0.621798       -16.9200
  34   2.0000      -0.617577       -16.8051
  35   2.0000      -0.613519       -16.6947
  36   2.0000      -0.586383       -15.9563
  37   2.0000      -0.559899       -15.2356
  38   2.0000      -0.549656       -14.9569
  39   2.0000      -0.534330       -14.5398
  40   2.0000      -0.523084       -14.2338
  41   2.0000      -0.519956       -14.1487
  42   2.0000      -0.511818       -13.9273
  43   2.0000      -0.508279       -13.8310
  44   2.0000      -0.492513       -13.4019
  45   2.0000      -0.488795       -13.3008
  46   2.0000      -0.477998       -13.0070
  47   2.0000      -0.457396       -12.4464
  48   2.0000      -0.442575       -12.0431
  49   2.0000      -0.440541       -11.9877
  50   2.0000      -0.437912       -11.9162
  51   2.0000      -0.435679       -11.8554
  52   2.0000      -0.426467       -11.6048
  53   2.0000      -0.422902       -11.5077
  54   2.0000      -0.421037       -11.4570
  55   2.0000      -0.419833       -11.4242
  56   2.0000      -0.418945       -11.4001
  57   2.0000      -0.415773       -11.3137
  58   2.0000      -0.404089       -10.9958
  59   2.0000      -0.403237       -10.9726
  60   0.0000       0.051202         1.3933
  61   0.0000       0.067209         1.8288
  62   0.0000       0.068343         1.8597
  63   0.0000       0.079982         2.1764
  64   0.0000       0.104811         2.8521

MULLIKEN ATOMIC CHARGES
-----------------------
   0 O :   -0.809734
   1 H :    0.423955
   2 H :    0.361867
   3 O :   -0.757035
   4 H :    0.415226
   5 H :    0.437000
   6 O :   -0.725050
   7 H :    0.398603
   8 H :    0.389310
   9 O :   -0.859628
  10 H :    0.361918
  11 H :    0.424942
  12 O :   -0.808590
  13 H :    0.361495
  14 H :    0.424643
  15 O :   -0.726938
  16 H :    0.399621
  17 H :    0.389236
  18 O :   -0.849976
  19 H :    0.432180
  20 H :    0.427540
  21 O :   -0.941305
  22 H :    0.473553
  23 H :    0.399652
  24 O :   -0.856340
  25 H :    0.431332
  26 H :    0.428338
  27 O :   -0.937798
  28 H :    0.395756
  29 H :    0.474022
  30 O :   -0.755468
  31 H :    0.415224
  32 H :    0.436345
  33 O :   -0.860502
  34 H :    0.424756
  35 H :    0.361847
Sum of atomic charges:   -0.0000000

LOEWDIN ATOMIC CHARGES
----------------------
   0 O :   -0.393564
   1 H :    0.202892
   2 H :    0.198058
   3 O :   -0.356391
   4 H :    0.200585
   5 H :    0.207067
   6 O :   -0.376971
   7 H :    0.198509
   8 H :    0.197500
   9 O :   -0.417852
  10 H :    0.195063
  11 H :    0.195517
  12 O :   -0.393528
  13 H :    0.197911
  14 H :    0.202774
  15 O :   -0.377875
  16 H :    0.198363
  17 H :    0.197471
  18 O :   -0.420530
  19 H :    0.193307
  20 H :    0.201601
  21 O :   -0.420704
  22 H :    0.204506
  23 H :    0.191490
  24 O :   -0.419660
  25 H :    0.193099
  26 H :    0.201617
  27 O :   -0.420232
  28 H :    0.191993
  29 H :    0.204018
  30 O :   -0.355309
  31 H :    0.200704
  32 H :    0.206970
  33 O :   -0.418679
  34 H :    0.195171
  35 H :    0.195111

  Mayer bond orders larger than 0.1
B(  0-O ,  1-H ) :   0.7911 B(  0-O ,  2-H ) :   0.8718 B(  3-O ,  4-H ) :   0.8377
B(  3-O ,  5-H ) :   0.8171 B(  3-O , 11-H ) :   0.1635 B(  6-O ,  7-H ) :   0.8560
B(  6-O ,  8-H ) :   0.8584 B(  9-O , 10-H ) :   0.8693 B(  9-O , 11-H ) :   0.7062
B( 12-O , 13-H ) :   0.8722 B( 12-O , 14-H ) :   0.7908 B( 15-O , 16-H ) :   0.8563
B( 15-O , 17-H ) :   0.8590 B( 18-O , 19-H ) :   0.7480 B( 18-O , 20-H ) :   0.7922
B( 19-H , 21-O ) :   0.1252 B( 21-O , 22-H ) :   0.7518 B( 21-O , 23-H ) :   0.8014
B( 24-O , 25-H ) :   0.7479 B( 24-O , 26-H ) :   0.7915 B( 25-H , 27-O ) :   0.1266
B( 27-O , 28-H ) :   0.8026 B( 27-O , 29-H ) :   0.7499 B( 30-O , 31-H ) :   0.8385
B( 30-O , 32-H ) :   0.8172 B( 30-O , 34-H ) :   0.1643 B( 33-O , 34-H ) :   0.7055
B( 33-O , 35-H ) :   0.8695

Dispersion correction           -0.022759573
FINAL SINGLE POINT ENERGY      -917.469326289106

DIPOLE MOMENT
-------------
                                X             Y             Z
Electronic contribution:      0.00573      -0.00848       0.00737
Nuclear contribution   :     -0.05728       0.17894      -0.10654
                        -----------------------------------------
Total Dipole Moment    :     -0.05154       0.17046      -0.09917
                        -----------------------------------------
Magnitude (a.u.)       :      0.20384
Magnitude (Debye)      :      0.51811

                             ****ORCA TERMINATED NORMALLY****
TOTAL RUN TIME: 0 days 0 hours 35 minutes 33 seconds 355 msec
