                         Program Version 3.0.3 - RELEASE   -
|  1> ! wB97X-D3 Def2-TZVP def2-TZVP/J RIJCOSX TightSCF Grid4 COSMO
|  2>
|  3> %pal nprocs 12 end
|  4>
|  5> %scf
|  6>         maxiter 400
|  7> end
|  8>
|  9> %cosmo
| 10>         SMD true
| 11>         solvent "WATER"
| 12> end
| 13>
| 14> * xyz  0  1
| 15> O  0.904218	-3.095578	-0.227893
| 16> H  0.517915	-2.487120	-0.924846
| 17> H  1.008812	-3.965265	-0.661380
| 18> O  -2.765372	1.546274	-0.923281
| 19> H  -2.232254	1.356307	-1.751790
| 20> H  -2.614012	0.732144	-0.372104
| 21> O  2.790146	-1.526608	0.964111
| 22> H  2.236450	-2.222777	0.508908
| 23> H  2.249872	-1.343991	1.785697
| 24> O  -0.925431	3.065912	0.149124
| 25> H  -1.263068	3.940213	0.425736
| 26> H  -1.729109	2.559227	-0.240780
| 27> O  0.977885	-0.959486	2.941220
| 28> H  1.240757	-0.837709	3.874508
| 29> H  0.662506	-0.061221	2.627932
| 30> O  -0.846442	-2.650704	1.826570
| 31> H  -0.219787	-2.117841	2.393315
| 32> H  -0.239918	-2.959744	1.093307
| 33> O  -0.194001	-1.086520	-1.528478
| 34> H  -0.848875	-0.905790	-0.768873
| 35> H  -0.488124	-0.442231	-2.243231
| 36> O  -1.723145	-0.514910	0.547151
| 37> H  -1.554339	-1.381262	1.058442
| 38> H  -1.050439	0.116398	0.963751
| 39> O  0.173378	1.101826	1.508359
| 40> H  0.846026	0.901911	0.770397
| 41> H  -0.233300	1.974016	1.213438
| 42> O  1.765307	0.417805	-0.486942
| 43> H  1.070097	-0.162217	-0.937531
| 44> H  2.315625	-0.264095	0.036656
| 45> O  0.836011	2.600672	-1.848368
| 46> H  0.241583	2.925334	-1.108678
| 47> H  1.388110	1.908290	-1.395525
| 48> O  -0.974371	1.029306	-2.883154
| 49> H  -0.239463	1.685926	-2.589339
| 50> H  -1.112248	1.185903	-3.838030
| 51> **                         ****END OF INPUT****

CARTESIAN COORDINATES (ANGSTROEM)
---------------------------------
  O      0.904218   -3.095578   -0.227893
  H      0.517915   -2.487120   -0.924846
  H      1.008812   -3.965265   -0.661380
  O     -2.765372    1.546274   -0.923281
  H     -2.232254    1.356307   -1.751790
  H     -2.614012    0.732144   -0.372104
  O      2.790146   -1.526608    0.964111
  H      2.236450   -2.222777    0.508908
  H      2.249872   -1.343991    1.785697
  O     -0.925431    3.065912    0.149124
  H     -1.263068    3.940213    0.425736
  H     -1.729109    2.559227   -0.240780
  O      0.977885   -0.959486    2.941220
  H      1.240757   -0.837709    3.874508
  H      0.662506   -0.061221    2.627932
  O     -0.846442   -2.650704    1.826570
  H     -0.219787   -2.117841    2.393315
  H     -0.239918   -2.959744    1.093307
  O     -0.194001   -1.086520   -1.528478
  H     -0.848875   -0.905790   -0.768873
  H     -0.488124   -0.442231   -2.243231
  O     -1.723145   -0.514910    0.547151
  H     -1.554339   -1.381262    1.058442
  H     -1.050439    0.116398    0.963751
  O      0.173378    1.101826    1.508359
  H      0.846026    0.901911    0.770397
  H     -0.233300    1.974016    1.213438
  O      1.765307    0.417805   -0.486942
  H      1.070097   -0.162217   -0.937531
  H      2.315625   -0.264095    0.036656
  O      0.836011    2.600672   -1.848368
  H      0.241583    2.925334   -1.108678
  H      1.388110    1.908290   -1.395525
  O     -0.974371    1.029306   -2.883154
  H     -0.239463    1.685926   -2.589339
  H     -1.112248    1.185903   -3.838030

 Total Charge           Charge          ....    0
 Multiplicity           Mult            ....    1
 Number of Electrons    NEL             ....  120
 Basis Dimension        Dim             ....  516

ORBITAL ENERGIES
----------------

  NO   OCC          E(Eh)            E(eV)
   0   2.0000     -19.246584      -523.7262
   1   2.0000     -19.246404      -523.7213
   2   2.0000     -19.241857      -523.5976
   3   2.0000     -19.241352      -523.5838
   4   2.0000     -19.232900      -523.3538
   5   2.0000     -19.232693      -523.3482
   6   2.0000     -19.232566      -523.3447
   7   2.0000     -19.232485      -523.3425
   8   2.0000     -19.230437      -523.2868
   9   2.0000     -19.230284      -523.2826
  10   2.0000     -19.228170      -523.2251
  11   2.0000     -19.227742      -523.2135
  12   2.0000      -1.152620       -31.3644
  13   2.0000      -1.140932       -31.0463
  14   2.0000      -1.137239       -30.9458
  15   2.0000      -1.129290       -30.7296
  16   2.0000      -1.127197       -30.6726
  17   2.0000      -1.126317       -30.6487
  18   2.0000      -1.117338       -30.4043
  19   2.0000      -1.112863       -30.2825
  20   2.0000      -1.108385       -30.1607
  21   2.0000      -1.103658       -30.0320
  22   2.0000      -1.101166       -29.9643
  23   2.0000      -1.085791       -29.5459
  24   2.0000      -0.658236       -17.9115
  25   2.0000      -0.657547       -17.8928
  26   2.0000      -0.643257       -17.5039
  27   2.0000      -0.639270       -17.3954
  28   2.0000      -0.638127       -17.3643
  29   2.0000      -0.631501       -17.1840
  30   2.0000      -0.624401       -16.9908
  31   2.0000      -0.623616       -16.9695
  32   2.0000      -0.616866       -16.7858
  33   2.0000      -0.614426       -16.7194
  34   2.0000      -0.613620       -16.6974
  35   2.0000      -0.611500       -16.6398
  36   2.0000      -0.577479       -15.7140
  37   2.0000      -0.555951       -15.1282
  38   2.0000      -0.542061       -14.7502
  39   2.0000      -0.530826       -14.4445
  40   2.0000      -0.517976       -14.0948
  41   2.0000      -0.513145       -13.9634
  42   2.0000      -0.508493       -13.8368
  43   2.0000      -0.504205       -13.7201
  44   2.0000      -0.492767       -13.4089
  45   2.0000      -0.480197       -13.0668
  46   2.0000      -0.474011       -12.8985
  47   2.0000      -0.457955       -12.4616
  48   2.0000      -0.432501       -11.7689
  49   2.0000      -0.429257       -11.6807
  50   2.0000      -0.427548       -11.6342
  51   2.0000      -0.425837       -11.5876
  52   2.0000      -0.421963       -11.4822
  53   2.0000      -0.421065       -11.4578
  54   2.0000      -0.417391       -11.3578
  55   2.0000      -0.416887       -11.3441
  56   2.0000      -0.416489       -11.3332
  57   2.0000      -0.413877       -11.2622
  58   2.0000      -0.409528       -11.1438
  59   2.0000      -0.409129       -11.1330
  60   0.0000       0.095080         2.5873
  61   0.0000       0.125583         3.4173
  62   0.0000       0.140082         3.8118
  63   0.0000       0.154538         4.2052
  64   0.0000       0.171193         4.6584

MULLIKEN ATOMIC CHARGES
-----------------------
   0 O :   -0.765393
   1 H :    0.400861
   2 H :    0.411498
   3 O :   -0.760365
   4 H :    0.383045
   5 H :    0.400107
   6 O :   -0.772330
   7 H :    0.380942
   8 H :    0.376912
   9 O :   -0.783118
  10 H :    0.410408
  11 H :    0.382378
  12 O :   -0.765319
  13 H :    0.411126
  14 H :    0.400727
  15 O :   -0.773785
  16 H :    0.381470
  17 H :    0.376440
  18 O :   -0.795805
  19 H :    0.370856
  20 H :    0.404606
  21 O :   -0.811450
  22 H :    0.408381
  23 H :    0.359084
  24 O :   -0.794131
  25 H :    0.370189
  26 H :    0.404770
  27 O :   -0.811379
  28 H :    0.358503
  29 H :    0.408676
  30 O :   -0.758293
  31 H :    0.381965
  32 H :    0.400537
  33 O :   -0.784567
  34 H :    0.382536
  35 H :    0.409918
Sum of atomic charges:    0.0000000

LOEWDIN ATOMIC CHARGES
----------------------
   0 O :   -0.277971
   1 H :    0.158221
   2 H :    0.196165
   3 O :   -0.321075
   4 H :    0.149679
   5 H :    0.154759
   6 O :   -0.337080
   7 H :    0.149412
   8 H :    0.149200
   9 O :   -0.288559
  10 H :    0.192069
  11 H :    0.152441
  12 O :   -0.278711
  13 H :    0.195949
  14 H :    0.158367
  15 O :   -0.339066
  16 H :    0.149128
  17 H :    0.148415
  18 O :   -0.320879
  19 H :    0.140175
  20 H :    0.150718
  21 O :   -0.334473
  22 H :    0.150798
  23 H :    0.137655
  24 O :   -0.318630
  25 H :    0.140382
  26 H :    0.150876
  27 O :   -0.334552
  28 H :    0.138142
  29 H :    0.150364
  30 O :   -0.318790
  31 H :    0.149179
  32 H :    0.154840
  33 O :   -0.290810
  34 H :    0.152031
  35 H :    0.191634

  Mayer bond orders larger than 0.1
B(  0-O ,  1-H ) :   0.7850 B(  0-O ,  2-H ) :   0.8345 B(  0-O , 17-H ) :   0.1034
B(  3-O ,  4-H ) :   0.7898 B(  3-O ,  5-H ) :   0.8098 B(  3-O , 11-H ) :   0.1655
B(  4-H , 33-O ) :   0.1101 B(  6-O ,  7-H ) :   0.8029 B(  6-O ,  8-H ) :   0.8015
B(  6-O , 29-H ) :   0.1463 B(  8-H , 12-O ) :   0.1026 B(  9-O , 10-H ) :   0.8348
B(  9-O , 11-H ) :   0.7337 B(  9-O , 26-H ) :   0.1213 B(  9-O , 31-H ) :   0.1098
B( 12-O , 13-H ) :   0.8349 B( 12-O , 14-H ) :   0.7858 B( 15-O , 16-H ) :   0.8030
B( 15-O , 17-H ) :   0.8012 B( 15-O , 22-H ) :   0.1442 B( 18-O , 19-H ) :   0.7453
B( 18-O , 20-H ) :   0.7644 B( 18-O , 28-H ) :   0.1480 B( 19-H , 21-O ) :   0.1614
B( 20-H , 33-O ) :   0.1211 B( 21-O , 22-H ) :   0.7434 B( 21-O , 23-H ) :   0.7607
B( 23-H , 24-O ) :   0.1498 B( 24-O , 25-H ) :   0.7467 B( 24-O , 26-H ) :   0.7643
B( 25-H , 27-O ) :   0.1602 B( 27-O , 28-H ) :   0.7632 B( 27-O , 29-H ) :   0.7413
B( 30-O , 31-H ) :   0.7910 B( 30-O , 32-H ) :   0.8093 B( 30-O , 34-H ) :   0.1676
B( 33-O , 34-H ) :   0.7316 B( 33-O , 35-H ) :   0.8353

Dispersion correction           -0.022760945
FINAL SINGLE POINT ENERGY      -917.503646805549

DIPOLE MOMENT
-------------
                                X             Y             Z
Electronic contribution:     -0.00831       0.05157      -0.01943
Nuclear contribution   :     -0.06954       0.23175      -0.13056
                        -----------------------------------------
Total Dipole Moment    :     -0.07785       0.28332      -0.14999
                        -----------------------------------------
Magnitude (a.u.)       :      0.32989
Magnitude (Debye)      :      0.83852

                             ****ORCA TERMINATED NORMALLY****
TOTAL RUN TIME: 0 days 0 hours 1 minutes 36 seconds 834 msec
