                         Program Version 3.0.3 - RELEASE   -
|  1> ! wB97X-D3 MA-Def2-TZVP def2-TZVP/J RIJCOSX TightSCF Grid4
|  2>
|  3> %pal nprocs 1 end
|  4>
|  5> %scf
|  6>         maxiter 400
|  7> end
|  8>
|  9> %cosmo
| 10>         SMD true
| 11>         solvent "WATER"
| 12> end
| 13>
| 14> * xyz  0  1
| 15> O  0.904218	-3.095578	-0.227893
| 16> H  0.517915	-2.487120	-0.924846
| 17> H  1.008812	-3.965265	-0.661380
| 18> O  -2.765372	1.546274	-0.923281
| 19> H  -2.232254	1.356307	-1.751790
| 20> H  -2.614012	0.732144	-0.372104
| 21> O  2.790146	-1.526608	0.964111
| 22> H  2.236450	-2.222777	0.508908
| 23> H  2.249872	-1.343991	1.785697
| 24> O  -0.925431	3.065912	0.149124
| 25> H  -1.263068	3.940213	0.425736
| 26> H  -1.729109	2.559227	-0.240780
| 27> O  0.977885	-0.959486	2.941220
| 28> H  1.240757	-0.837709	3.874508
| 29> H  0.662506	-0.061221	2.627932
| 30> O  -0.846442	-2.650704	1.826570
| 31> H  -0.219787	-2.117841	2.393315
| 32> H  -0.239918	-2.959744	1.093307
| 33> O  -0.194001	-1.086520	-1.528478
| 34> H  -0.848875	-0.905790	-0.768873
| 35> H  -0.488124	-0.442231	-2.243231
| 36> O  -1.723145	-0.514910	0.547151
| 37> H  -1.554339	-1.381262	1.058442
| 38> H  -1.050439	0.116398	0.963751
| 39> O  0.173378	1.101826	1.508359
| 40> H  0.846026	0.901911	0.770397
| 41> H  -0.233300	1.974016	1.213438
| 42> O  1.765307	0.417805	-0.486942
| 43> H  1.070097	-0.162217	-0.937531
| 44> H  2.315625	-0.264095	0.036656
| 45> O  0.836011	2.600672	-1.848368
| 46> H  0.241583	2.925334	-1.108678
| 47> H  1.388110	1.908290	-1.395525
| 48> O  -0.974371	1.029306	-2.883154
| 49> H  -0.239463	1.685926	-2.589339
| 50> H  -1.112248	1.185903	-3.838030
| 51> **                         ****END OF INPUT****

CARTESIAN COORDINATES (ANGSTROEM)
---------------------------------
  O      0.904218   -3.095578   -0.227893
  H      0.517915   -2.487120   -0.924846
  H      1.008812   -3.965265   -0.661380
  O     -2.765372    1.546274   -0.923281
  H     -2.232254    1.356307   -1.751790
  H     -2.614012    0.732144   -0.372104
  O      2.790146   -1.526608    0.964111
  H      2.236450   -2.222777    0.508908
  H      2.249872   -1.343991    1.785697
  O     -0.925431    3.065912    0.149124
  H     -1.263068    3.940213    0.425736
  H     -1.729109    2.559227   -0.240780
  O      0.977885   -0.959486    2.941220
  H      1.240757   -0.837709    3.874508
  H      0.662506   -0.061221    2.627932
  O     -0.846442   -2.650704    1.826570
  H     -0.219787   -2.117841    2.393315
  H     -0.239918   -2.959744    1.093307
  O     -0.194001   -1.086520   -1.528478
  H     -0.848875   -0.905790   -0.768873
  H     -0.488124   -0.442231   -2.243231
  O     -1.723145   -0.514910    0.547151
  H     -1.554339   -1.381262    1.058442
  H     -1.050439    0.116398    0.963751
  O      0.173378    1.101826    1.508359
  H      0.846026    0.901911    0.770397
  H     -0.233300    1.974016    1.213438
  O      1.765307    0.417805   -0.486942
  H      1.070097   -0.162217   -0.937531
  H      2.315625   -0.264095    0.036656
  O      0.836011    2.600672   -1.848368
  H      0.241583    2.925334   -1.108678
  H      1.388110    1.908290   -1.395525
  O     -0.974371    1.029306   -2.883154
  H     -0.239463    1.685926   -2.589339
  H     -1.112248    1.185903   -3.838030

 Total Charge           Charge          ....    0
 Multiplicity           Mult            ....    1
 Number of Electrons    NEL             ....  120
 Basis Dimension        Dim             ....  564

ORBITAL ENERGIES
----------------

  NO   OCC          E(Eh)            E(eV)
   0   2.0000     -19.248276      -523.7722
   1   2.0000     -19.248083      -523.7670
   2   2.0000     -19.243527      -523.6430
   3   2.0000     -19.243026      -523.6294
   4   2.0000     -19.234809      -523.4058
   5   2.0000     -19.234490      -523.3971
   6   2.0000     -19.234091      -523.3862
   7   2.0000     -19.233904      -523.3811
   8   2.0000     -19.231942      -523.3278
   9   2.0000     -19.231802      -523.3239
  10   2.0000     -19.230315      -523.2835
  11   2.0000     -19.229887      -523.2718
  12   2.0000      -1.153690       -31.3935
  13   2.0000      -1.142068       -31.0773
  14   2.0000      -1.138256       -30.9735
  15   2.0000      -1.130425       -30.7604
  16   2.0000      -1.128281       -30.7021
  17   2.0000      -1.127360       -30.6770
  18   2.0000      -1.118609       -30.4389
  19   2.0000      -1.114048       -30.3148
  20   2.0000      -1.109382       -30.1878
  21   2.0000      -1.104860       -30.0648
  22   2.0000      -1.102365       -29.9969
  23   2.0000      -1.086872       -29.5753
  24   2.0000      -0.659216       -17.9382
  25   2.0000      -0.658494       -17.9185
  26   2.0000      -0.644296       -17.5322
  27   2.0000      -0.640283       -17.4230
  28   2.0000      -0.639144       -17.3920
  29   2.0000      -0.632494       -17.2110
  30   2.0000      -0.625466       -17.0198
  31   2.0000      -0.624737       -17.0000
  32   2.0000      -0.617913       -16.8143
  33   2.0000      -0.615471       -16.7478
  34   2.0000      -0.614538       -16.7224
  35   2.0000      -0.612511       -16.6673
  36   2.0000      -0.578548       -15.7431
  37   2.0000      -0.557134       -15.1604
  38   2.0000      -0.543075       -14.7778
  39   2.0000      -0.531826       -14.4717
  40   2.0000      -0.519118       -14.1259
  41   2.0000      -0.514305       -13.9950
  42   2.0000      -0.509533       -13.8651
  43   2.0000      -0.505311       -13.7502
  44   2.0000      -0.493889       -13.4394
  45   2.0000      -0.481263       -13.0958
  46   2.0000      -0.475216       -12.9313
  47   2.0000      -0.459171       -12.4947
  48   2.0000      -0.433647       -11.8001
  49   2.0000      -0.430345       -11.7103
  50   2.0000      -0.428635       -11.6637
  51   2.0000      -0.426958       -11.6181
  52   2.0000      -0.423103       -11.5132
  53   2.0000      -0.422032       -11.4841
  54   2.0000      -0.418432       -11.3861
  55   2.0000      -0.418069       -11.3762
  56   2.0000      -0.417567       -11.3626
  57   2.0000      -0.414932       -11.2909
  58   2.0000      -0.410721       -11.1763
  59   2.0000      -0.410342       -11.1660
  60   0.0000       0.063512         1.7283
  61   0.0000       0.083198         2.2639
  62   0.0000       0.089726         2.4416
  63   0.0000       0.100995         2.7482
  64   0.0000       0.104844         2.8530

MULLIKEN ATOMIC CHARGES
-----------------------
   0 O :   -0.835933
   1 H :    0.440330
   2 H :    0.421897
   3 O :   -0.827149
   4 H :    0.432316
   5 H :    0.446063
   6 O :   -0.811220
   7 H :    0.421539
   8 H :    0.414929
   9 O :   -0.872784
  10 H :    0.420114
  11 H :    0.439827
  12 O :   -0.834976
  13 H :    0.421541
  14 H :    0.440723
  15 O :   -0.812831
  16 H :    0.422380
  17 H :    0.413792
  18 O :   -0.901457
  19 H :    0.442641
  20 H :    0.448977
  21 O :   -0.970029
  22 H :    0.469711
  23 H :    0.424792
  24 O :   -0.906882
  25 H :    0.443870
  26 H :    0.448929
  27 O :   -0.969486
  28 H :    0.422467
  29 H :    0.470229
  30 O :   -0.824700
  31 H :    0.430611
  32 H :    0.445806
  33 O :   -0.876129
  34 H :    0.440543
  35 H :    0.419549
Sum of atomic charges:   -0.0000000

LOEWDIN ATOMIC CHARGES
----------------------
   0 O :   -0.373328
   1 H :    0.207856
   2 H :    0.223894
   3 O :   -0.407279
   4 H :    0.201633
   5 H :    0.205571
   6 O :   -0.420886
   7 H :    0.201147
   8 H :    0.201034
   9 O :   -0.385027
  10 H :    0.221105
  11 H :    0.202234
  12 O :   -0.373852
  13 H :    0.223636
  14 H :    0.207995
  15 O :   -0.422767
  16 H :    0.200912
  17 H :    0.200334
  18 O :   -0.430007
  19 H :    0.195808
  20 H :    0.203145
  21 O :   -0.442048
  22 H :    0.202388
  23 H :    0.194114
  24 O :   -0.428021
  25 H :    0.196026
  26 H :    0.203166
  27 O :   -0.442107
  28 H :    0.194698
  29 H :    0.201860
  30 O :   -0.405073
  31 H :    0.201085
  32 H :    0.205544
  33 O :   -0.387357
  34 H :    0.201809
  35 H :    0.220757

  Mayer bond orders larger than 0.1
B(  0-O ,  1-H ) :   0.7972 B(  0-O ,  2-H ) :   0.8275 B(  3-O ,  4-H ) :   0.8023
B(  3-O ,  5-H ) :   0.8117 B(  6-O ,  7-H ) :   0.8144 B(  6-O ,  8-H ) :   0.8139
B(  9-O , 10-H ) :   0.8265 B(  9-O , 11-H ) :   0.7454 B( 12-O , 13-H ) :   0.8281
B( 12-O , 14-H ) :   0.7977 B( 15-O , 16-H ) :   0.8146 B( 15-O , 17-H ) :   0.8139
B( 18-O , 19-H ) :   0.7604 B( 18-O , 20-H ) :   0.7701 B( 21-O , 22-H ) :   0.7490
B( 21-O , 23-H ) :   0.7799 B( 24-O , 25-H ) :   0.7621 B( 24-O , 26-H ) :   0.7702
B( 27-O , 28-H ) :   0.7826 B( 27-O , 29-H ) :   0.7469 B( 30-O , 31-H ) :   0.8038
B( 30-O , 32-H ) :   0.8114 B( 33-O , 34-H ) :   0.7431 B( 33-O , 35-H ) :   0.8271

Dispersion correction           -0.022760945
FINAL SINGLE POINT ENERGY      -917.508504860313

DIPOLE MOMENT
-------------
                                X             Y             Z
Electronic contribution:     -0.01128       0.05860      -0.02353
Nuclear contribution   :     -0.06954       0.23175      -0.13056
                        -----------------------------------------
Total Dipole Moment    :     -0.08082       0.29035      -0.15409
                        -----------------------------------------
Magnitude (a.u.)       :      0.33850
Magnitude (Debye)      :      0.86040

                             ****ORCA TERMINATED NORMALLY****
TOTAL RUN TIME: 0 days 0 hours 16 minutes 22 seconds 975 msec
