                         Program Version 4.2.0 -  RELEASE  -
|  1> # 12h2o.su.etal.mol0,3,4,6,8,10
|  2> ! MP2 def2-TZVP EnGrad TightSCF
|  3>
|  4> %pal
|  5>     nprocs 6
|  6> end
|  7>
|  8> %maxcore 8000
|  9>
| 10> %scf
| 11>     ConvForced true
| 12> end
| 13>
| 14> *xyz 0 1
| 15> O   1.794470000   0.923410000   2.768350000
| 16> H   2.338250000   1.359750000   3.430940000
| 17> H   0.879480000   1.303000000   2.865760000
| 18> O  -1.752130000  -0.741530000  -2.896280000
| 19> H  -2.036450000  -0.920500000  -1.984040000
| 20> H  -0.921210000  -1.242140000  -2.984230000
| 21> O  -0.885520000   1.737840000   0.052730000
| 22> H  -1.032320000   2.090180000  -0.841890000
| 23> H  -1.284090000   0.839590000   0.017130000
| 24> O   1.737840000   0.885520000  -0.052730000
| 25> H   2.090180000   1.032320000   0.841890000
| 26> H   0.839590000   1.284090000  -0.017130000
| 27> O   1.752130000   0.741530000  -2.896280000
| 28> H   2.036450000   0.920500000  -1.984040000
| 29> H   0.921210000   1.242140000  -2.984230000
| 30> O  -0.923410000   1.794470000  -2.768350000
| 31> H  -1.359750000   2.338250000  -3.430940000
| 32> H  -1.303000000   0.879480000  -2.865760000
| 33> *
| 34>
| 35>                          ****END OF INPUT****

CARTESIAN COORDINATES (ANGSTROEM)
---------------------------------
  O      1.794470    0.923410    2.768350
  H      2.338250    1.359750    3.430940
  H      0.879480    1.303000    2.865760
  O     -1.752130   -0.741530   -2.896280
  H     -2.036450   -0.920500   -1.984040
  H     -0.921210   -1.242140   -2.984230
  O     -0.885520    1.737840    0.052730
  H     -1.032320    2.090180   -0.841890
  H     -1.284090    0.839590    0.017130
  O      1.737840    0.885520   -0.052730
  H      2.090180    1.032320    0.841890
  H      0.839590    1.284090   -0.017130
  O      1.752130    0.741530   -2.896280
  H      2.036450    0.920500   -1.984040
  H      0.921210    1.242140   -2.984230
  O     -0.923410    1.794470   -2.768350
  H     -1.359750    2.338250   -3.430940
  H     -1.303000    0.879480   -2.865760

 Total Charge           Charge          ....    0
 Multiplicity           Mult            ....    1
 Number of Electrons    NEL             ....   60
 Basis Dimension        Dim             ....  258

ORBITAL ENERGIES
----------------

  NO   OCC          E(Eh)            E(eV)
   0   2.0000     -20.613882      -560.9323
   1   2.0000     -20.581806      -560.0594
   2   2.0000     -20.575793      -559.8958
   3   2.0000     -20.572493      -559.8060
   4   2.0000     -20.510578      -558.1212
   5   2.0000     -20.492961      -557.6418
   6   2.0000      -1.400140       -38.0998
   7   2.0000      -1.364720       -37.1359
   8   2.0000      -1.359626       -36.9973
   9   2.0000      -1.353033       -36.8179
  10   2.0000      -1.298218       -35.3263
  11   2.0000      -1.277247       -34.7556
  12   2.0000      -0.756031       -20.5727
  13   2.0000      -0.740890       -20.1607
  14   2.0000      -0.726768       -19.7764
  15   2.0000      -0.722303       -19.6549
  16   2.0000      -0.679402       -18.4875
  17   2.0000      -0.657858       -17.9012
  18   2.0000      -0.641438       -17.4544
  19   2.0000      -0.613689       -16.6993
  20   2.0000      -0.599065       -16.3014
  21   2.0000      -0.587442       -15.9851
  22   2.0000      -0.562425       -15.3044
  23   2.0000      -0.548061       -14.9135
  24   2.0000      -0.530889       -14.4462
  25   2.0000      -0.518755       -14.1160
  26   2.0000      -0.507278       -13.8037
  27   2.0000      -0.498279       -13.5589
  28   2.0000      -0.462372       -12.5818
  29   2.0000      -0.442926       -12.0526
  30   0.0000       0.082338         2.2405
  31   0.0000       0.118550         3.2259
  32   0.0000       0.144562         3.9337
  33   0.0000       0.160836         4.3766
  34   0.0000       0.188744         5.1360

MULLIKEN ATOMIC CHARGES
-----------------------
   0 O :   -0.693240
   1 H :    0.347718
   2 H :    0.356693
   3 O :   -0.682718
   4 H :    0.350386
   5 H :    0.382204
   6 O :   -0.691735
   7 H :    0.383646
   8 H :    0.326650
   9 O :   -0.743786
  10 H :    0.363383
  11 H :    0.340737
  12 O :   -0.737648
  13 H :    0.373468
  14 H :    0.340344
  15 O :   -0.747924
  16 H :    0.352143
  17 H :    0.379679
Sum of atomic charges:   -0.0000000

LOEWDIN ATOMIC CHARGES
----------------------
   0 O :   -0.310774
   1 H :    0.161341
   2 H :    0.185639
   3 O :   -0.266072
   4 H :    0.170043
   5 H :    0.185859
   6 O :   -0.298880
   7 H :    0.154123
   8 H :    0.164142
   9 O :   -0.350283
  10 H :    0.146906
  11 H :    0.136924
  12 O :   -0.361296
  13 H :    0.151395
  14 H :    0.136975
  15 O :   -0.311641
  16 H :    0.160045
  17 H :    0.145554

  Mayer bond orders larger than 0.100000
B(  0-O ,  1-H ) :   0.8443 B(  0-O ,  2-H ) :   0.8331 B(  3-O ,  4-H ) :   0.8414
B(  3-O ,  5-H ) :   0.8166 B(  6-O ,  7-H ) :   0.7941 B(  6-O ,  8-H ) :   0.8523
B(  9-O , 10-H ) :   0.8205 B(  9-O , 11-H ) :   0.7924 B( 12-O , 13-H ) :   0.8125
B( 12-O , 14-H ) :   0.8341 B( 15-O , 16-H ) :   0.8396 B( 15-O , 17-H ) :   0.7519

MP2 TOTAL ENERGY:     -457.925264304 Eh
FINAL SINGLE POINT ENERGY      -457.925264303784

DIPOLE MOMENT
-------------
                                X             Y             Z
Electronic contribution:     -0.08274      -0.23541      -0.11785
Nuclear contribution   :     -1.89647       0.36972       1.37221
                        -----------------------------------------
Total Dipole Moment    :     -1.97921       0.13431       1.25436
                        -----------------------------------------
Magnitude (a.u.)       :      2.34707
Magnitude (Debye)      :      5.96577

Rotational constants in cm-1:     0.072661     0.025966     0.022951
Rotational constants in MHz :  2178.313780   778.428565   688.058406

                             ****ORCA TERMINATED NORMALLY****
TOTAL RUN TIME: 0 days 0 hours 1 minutes 7 seconds 901 msec
