                         Program Version 4.2.0 -  RELEASE  -
|  1> # 12h2o.su.etal.mol0,2,5,8
|  2> ! MP2 def2-TZVP EnGrad TightSCF
|  3>
|  4> %pal
|  5>     nprocs 6
|  6> end
|  7>
|  8> %maxcore 8000
|  9>
| 10> %scf
| 11>     ConvForced true
| 12> end
| 13>
| 14> *xyz 0 1
| 15> O   1.794470000   0.923410000   2.768350000
| 16> H   2.338250000   1.359750000   3.430940000
| 17> H   0.879480000   1.303000000   2.865760000
| 18> O   0.923410000  -1.794470000  -2.768350000
| 19> H   1.359750000  -2.338250000  -3.430940000
| 20> H   1.303000000  -0.879480000  -2.865760000
| 21> O   0.885520000  -1.737840000   0.052730000
| 22> H   1.284090000  -0.839590000   0.017130000
| 23> H   1.032320000  -2.090180000  -0.841890000
| 24> O   1.752130000   0.741530000  -2.896280000
| 25> H   2.036450000   0.920500000  -1.984040000
| 26> H   0.921210000   1.242140000  -2.984230000
| 27> *
| 28>
| 29>                          ****END OF INPUT****

CARTESIAN COORDINATES (ANGSTROEM)
---------------------------------
  O      1.794470    0.923410    2.768350
  H      2.338250    1.359750    3.430940
  H      0.879480    1.303000    2.865760
  O      0.923410   -1.794470   -2.768350
  H      1.359750   -2.338250   -3.430940
  H      1.303000   -0.879480   -2.865760
  O      0.885520   -1.737840    0.052730
  H      1.284090   -0.839590    0.017130
  H      1.032320   -2.090180   -0.841890
  O      1.752130    0.741530   -2.896280
  H      2.036450    0.920500   -1.984040
  H      0.921210    1.242140   -2.984230

 Total Charge           Charge          ....    0
 Multiplicity           Mult            ....    1
 Number of Electrons    NEL             ....   40
 Basis Dimension        Dim             ....  172

ORBITAL ENERGIES
----------------

  NO   OCC          E(Eh)            E(eV)
   0   2.0000     -20.609901      -560.8239
   1   2.0000     -20.566342      -559.6386
   2   2.0000     -20.541623      -558.9660
   3   2.0000     -20.517486      -558.3092
   4   2.0000      -1.395295       -37.9679
   5   2.0000      -1.341574       -36.5061
   6   2.0000      -1.326785       -36.1037
   7   2.0000      -1.295876       -35.2626
   8   2.0000      -0.752482       -20.4761
   9   2.0000      -0.713341       -19.4110
  10   2.0000      -0.709932       -19.3182
  11   2.0000      -0.665393       -18.1063
  12   2.0000      -0.631800       -17.1921
  13   2.0000      -0.578976       -15.7547
  14   2.0000      -0.577306       -15.7093
  15   2.0000      -0.545954       -14.8562
  16   2.0000      -0.527974       -14.3669
  17   2.0000      -0.509457       -13.8630
  18   2.0000      -0.487530       -13.2664
  19   2.0000      -0.463021       -12.5994
  20   0.0000       0.093130         2.5342
  21   0.0000       0.123060         3.3486
  22   0.0000       0.163032         4.4363
  23   0.0000       0.166242         4.5237
  24   0.0000       0.193268         5.2591

MULLIKEN ATOMIC CHARGES
-----------------------
   0 O :   -0.681462
   1 H :    0.339066
   2 H :    0.344402
   3 O :   -0.730835
   4 H :    0.335381
   5 H :    0.365038
   6 O :   -0.689387
   7 H :    0.305363
   8 H :    0.365347
   9 O :   -0.675697
  10 H :    0.357441
  11 H :    0.365340
Sum of atomic charges:    0.0000000

LOEWDIN ATOMIC CHARGES
----------------------
   0 O :   -0.337956
   1 H :    0.158176
   2 H :    0.181608
   3 O :   -0.338515
   4 H :    0.153019
   5 H :    0.142304
   6 O :   -0.346555
   7 H :    0.154264
   8 H :    0.148116
   9 O :   -0.267209
  10 H :    0.173021
  11 H :    0.179727

  Mayer bond orders larger than 0.100000
B(  0-O ,  1-H ) :   0.8525 B(  0-O ,  2-H ) :   0.8443 B(  3-O ,  4-H ) :   0.8513
B(  3-O ,  5-H ) :   0.7752 B(  6-O ,  7-H ) :   0.8662 B(  6-O ,  8-H ) :   0.8145
B(  9-O , 10-H ) :   0.8364 B(  9-O , 11-H ) :   0.8325

MP2 TOTAL ENERGY:     -305.265099241 Eh
FINAL SINGLE POINT ENERGY      -305.265099240842

DIPOLE MOMENT
-------------
                                X             Y             Z
Electronic contribution:     -0.00193      -0.05325      -0.16237
Nuclear contribution   :      0.36914       2.00818      -0.08817
                        -----------------------------------------
Total Dipole Moment    :      0.36722       1.95493      -0.25054
                        -----------------------------------------
Magnitude (a.u.)       :      2.00483
Magnitude (Debye)      :      5.09588

Rotational constants in cm-1:     0.143794     0.039919     0.031531
Rotational constants in MHz :  4310.843792  1196.728254   945.260870

                             ****ORCA TERMINATED NORMALLY****
TOTAL RUN TIME: 0 days 0 hours 0 minutes 19 seconds 531 msec
