                         Program Version 3.0.3 - RELEASE   -
|  1> ! BP86 Def2-SVP TightSCF Opt D3BJ
|  2>
|  3> %pal nprocs 12 end
|  4>
|  5> %scf
|  6>         maxiter 800
|  7> end
|  8>
|  9> * xyz  0  1
| 10>   O      0.626597    2.379461    0.094233
| 11>   H     -0.213615    2.080784   -0.253715
| 12>   H      0.536947    3.330545    0.154512
| 13>   O     -2.032177   -0.481306    1.304586
| 14>   H     -1.239469   -0.118478    1.699809
| 15>   H     -2.694487   -0.416911    1.992649
| 16>   O     -1.649780    1.290088   -0.812103
| 17>   H     -1.962881    0.718868   -0.110742
| 18>   H     -1.286441    0.691632   -1.464841
| 19>   O      1.704338   -1.378437    0.833847
| 20>   H      0.963887   -1.873508    0.483319
| 21>   H      1.990121   -0.826462    0.105916
| 22>   O     -0.269659   -0.559013   -2.261623
| 23>   H     -0.416590   -1.298503   -1.671879
| 24>   H      0.616019   -0.260065   -2.055625
| 25>   O      2.096410    0.456491   -1.211328
| 26>   H      1.682289    1.202595   -0.777665
| 27>   H      2.890792    0.817990   -1.604402
| 28>   O     -0.688242   -2.358141   -0.190066
| 29>   H     -1.245921   -1.791886    0.343395
| 30>   H     -1.116937   -3.213479   -0.160919
| 31>   O      0.294926    0.539564    2.160439
| 32>   H      0.886527   -0.151572    1.862830
| 33>   H      0.482342    1.280515    1.584159
| 34> **                         ****END OF INPUT****
 Total Charge           Charge          ....    0
 Multiplicity           Mult            ....    1
 Number of Electrons    NEL             ....   80
Dispersion correction           -0.022500154
FINAL SINGLE POINT ENERGY      -611.073840635142
Dispersion correction            ...
Dispersion correction           -0.022066533
FINAL SINGLE POINT ENERGY      -611.089509502120
Dispersion correction            ...
Dispersion correction           -0.022266468
FINAL SINGLE POINT ENERGY      -611.093032967043
Dispersion correction            ...
FINAL SINGLE POINT ENERGY      -611.095410630498
FINAL SINGLE POINT ENERGY      -611.097329864919
FINAL SINGLE POINT ENERGY      -611.098825792778
FINAL SINGLE POINT ENERGY      -611.099869308709
FINAL SINGLE POINT ENERGY      -611.100501415607
FINAL SINGLE POINT ENERGY      -611.100806519155
FINAL SINGLE POINT ENERGY      -611.100959977244
FINAL SINGLE POINT ENERGY      -611.102326139639
FINAL SINGLE POINT ENERGY      -611.102331102341
FINAL SINGLE POINT ENERGY      -611.102334958930
FINAL SINGLE POINT ENERGY      -611.102339707235
FINAL SINGLE POINT ENERGY      -611.102346157555
FINAL SINGLE POINT ENERGY      -611.102354751259
FINAL SINGLE POINT ENERGY      -611.102364556525
Dispersion correction            ...
Dispersion correction           -0.023772064
FINAL SINGLE POINT ENERGY      -611.102372512655
Dispersion correction            ...
Dispersion correction           -0.023768276
FINAL SINGLE POINT ENERGY      -611.102377421128
Dispersion correction            ...
                    ***********************HURRAY********************

CARTESIAN COORDINATES (ANGSTROEM)
---------------------------------
  O      0.535765    2.160074    0.128320
  H     -0.415213    1.914285   -0.332478
  H      0.622931    3.130519    0.109060
  O     -1.850951   -0.377899    1.171740
  H     -0.983288   -0.022494    1.715635
  H     -2.563922   -0.509904    1.822780
  O     -1.603135    1.376444   -0.880310
  H     -1.908180    0.793254   -0.129531
  H     -1.224282    0.694500   -1.540533
  O      1.723431   -1.331828    0.950746
  H      0.974710   -1.854739    0.560945
  H      2.003832   -0.774190    0.177699
  O     -0.377724   -0.487068   -2.287618
  H     -0.501838   -1.263759   -1.680824
  H      0.552012   -0.210481   -2.075972
  O      1.973761    0.414701   -1.155116
  H      1.530825    1.203682   -0.685812
  H      2.778843    0.761398   -1.579387
  O     -0.628202   -2.239515   -0.181330
  H     -1.217202   -1.621136    0.374300
  H     -1.035498   -3.123207   -0.136246
  O      0.251813    0.453782    2.222896
  H      0.897910   -0.251976    1.863074
  H      0.418597    1.226329    1.612747

 Multiplicity           Mult            ....    1
 Number of Electrons    NEL             ....   80
 Basis Dimension        Dim             ....  192

ORBITAL ENERGIES
----------------

  NO   OCC          E(Eh)            E(eV)
   0   2.0000     -18.791608      -511.3457
   1   2.0000     -18.791497      -511.3426
   2   2.0000     -18.783226      -511.1176
   3   2.0000     -18.782340      -511.0934
   4   2.0000     -18.756233      -510.3831
   5   2.0000     -18.755544      -510.3643
   6   2.0000     -18.749977      -510.2128
   7   2.0000     -18.749733      -510.2062
   8   2.0000      -0.926288       -25.2056
   9   2.0000      -0.918672       -24.9983
  10   2.0000      -0.907081       -24.6829
  11   2.0000      -0.898630       -24.4530
  12   2.0000      -0.887198       -24.1419
  13   2.0000      -0.880272       -23.9534
  14   2.0000      -0.868451       -23.6318
  15   2.0000      -0.860194       -23.4071
  16   2.0000      -0.498619       -13.5681
  17   2.0000      -0.497063       -13.5258
  18   2.0000      -0.471876       -12.8404
  19   2.0000      -0.470405       -12.8004
  20   2.0000      -0.451843       -12.2953
  21   2.0000      -0.445106       -12.1120
  22   2.0000      -0.442540       -12.0421
  23   2.0000      -0.441543       -12.0150
  24   2.0000      -0.397767       -10.8238
  25   2.0000      -0.363894        -9.9021
  26   2.0000      -0.362813        -9.8727
  27   2.0000      -0.337926        -9.1954
  28   2.0000      -0.335080        -9.1180
  29   2.0000      -0.320399        -8.7185
  30   2.0000      -0.315848        -8.5947
  31   2.0000      -0.285464        -7.7679
  32   2.0000      -0.272934        -7.4269
  33   2.0000      -0.270976        -7.3736
  34   2.0000      -0.266620        -7.2551
  35   2.0000      -0.264081        -7.1860
  36   2.0000      -0.248612        -6.7651
  37   2.0000      -0.248237        -6.7549
  38   2.0000      -0.231147        -6.2898
  39   2.0000      -0.230643        -6.2761
  40   0.0000       0.004936         0.1343
  41   0.0000       0.024861         0.6765
  42   0.0000       0.045274         1.2320
  43   0.0000       0.054444         1.4815
  44   0.0000       0.114832         3.1247

MULLIKEN ATOMIC CHARGES
-----------------------
   0 O :   -0.366665
   1 H :    0.186774
   2 H :    0.182956
   3 O :   -0.365807
   4 H :    0.185054
   5 H :    0.183634
   6 O :   -0.306763
   7 H :    0.146569
   8 H :    0.161275
   9 O :   -0.315331
  10 H :    0.139345
  11 H :    0.143808
  12 O :   -0.314837
  13 H :    0.142206
  14 H :    0.140624
  15 O :   -0.308373
  16 H :    0.155901
  17 H :    0.182045
  18 O :   -0.305254
  19 H :    0.152758
  20 H :    0.181698
  21 O :   -0.307372
  22 H :    0.161009
  23 H :    0.144743
Sum of atomic charges:   -0.0000000

LOEWDIN ATOMIC CHARGES
----------------------
   0 O :   -0.111039
   1 H :    0.025033
   2 H :    0.080547
   3 O :   -0.110549
   4 H :    0.025080
   5 H :    0.080883
   6 O :   -0.064908
   7 H :    0.037246
   8 H :    0.037986
   9 O :   -0.109964
  10 H :    0.037557
  11 H :    0.038169
  12 O :   -0.108730
  13 H :    0.038607
  14 H :    0.037853
  15 O :   -0.090253
  16 H :    0.031875
  17 H :    0.087345
  18 O :   -0.090377
  19 H :    0.031313
  20 H :    0.087382
  21 O :   -0.066329
  22 H :    0.038261
  23 H :    0.037013

  Mayer bond orders larger than 0.1
B(  0-O ,  1-H ) :   0.6947 B(  0-O ,  2-H ) :   0.9767 B(  0-O , 16-H ) :   0.2437
B(  0-O , 23-H ) :   0.1853 B(  1-H ,  6-O ) :   0.3696 B(  3-O ,  4-H ) :   0.6957
B(  3-O ,  5-H ) :   0.9761 B(  3-O ,  7-H ) :   0.1827 B(  3-O , 19-H ) :   0.2451
B(  4-H , 21-O ) :   0.3687 B(  6-O ,  7-H ) :   0.9034 B(  6-O ,  8-H ) :   0.8448
B(  8-H , 12-O ) :   0.2521 B(  9-O , 10-H ) :   0.9167 B(  9-O , 11-H ) :   0.9147
B(  9-O , 22-H ) :   0.2539 B( 10-H , 18-O ) :   0.1722 B( 11-H , 15-O ) :   0.1711
B( 12-O , 13-H ) :   0.9151 B( 12-O , 14-H ) :   0.9172 B( 13-H , 18-O ) :   0.1718
B( 14-H , 15-O ) :   0.1707 B( 15-O , 16-H ) :   0.8228 B( 15-O , 17-H ) :   0.9780
B( 18-O , 19-H ) :   0.8232 B( 18-O , 20-H ) :   0.9781 B( 21-O , 22-H ) :   0.8432
B( 21-O , 23-H ) :   0.9027

Dispersion correction           -0.023766042
FINAL SINGLE POINT ENERGY      -611.102379900309

DIPOLE MOMENT
-------------
                                X             Y             Z
Electronic contribution:      0.01453      -0.01884      -0.02652
Nuclear contribution   :     -0.09928       0.12877       0.11387
                        -----------------------------------------
Total Dipole Moment    :     -0.08475       0.10993       0.08735
                        -----------------------------------------
Magnitude (a.u.)       :      0.16400
Magnitude (Debye)      :      0.41685

                             ****ORCA TERMINATED NORMALLY****
TOTAL RUN TIME: 0 days 0 hours 32 minutes 40 seconds 536 msec
