                         Program Version 4.2.0 -  RELEASE  -
|  1> # 12h2o.su.etal.mol1,2,3,4,9,11
|  2> ! MP2 def2-TZVP EnGrad TightSCF
|  3>
|  4> %pal
|  5>     nprocs 6
|  6> end
|  7>
|  8> %maxcore 8000
|  9>
| 10> %scf
| 11>     ConvForced true
| 12> end
| 13>
| 14> *xyz 0 1
| 15> O  -1.794470000  -0.923410000   2.768350000
| 16> H  -2.338250000  -1.359750000   3.430940000
| 17> H  -0.879480000  -1.303000000   2.865760000
| 18> O   0.923410000  -1.794470000  -2.768350000
| 19> H   1.359750000  -2.338250000  -3.430940000
| 20> H   1.303000000  -0.879480000  -2.865760000
| 21> O  -1.752130000  -0.741530000  -2.896280000
| 22> H  -2.036450000  -0.920500000  -1.984040000
| 23> H  -0.921210000  -1.242140000  -2.984230000
| 24> O  -0.885520000   1.737840000   0.052730000
| 25> H  -1.032320000   2.090180000  -0.841890000
| 26> H  -1.284090000   0.839590000   0.017130000
| 27> O   0.741530000  -1.752130000   2.896280000
| 28> H   0.920500000  -2.036450000   1.984040000
| 29> H   1.242140000  -0.921210000   2.984230000
| 30> O  -0.741530000   1.752130000   2.896280000
| 31> H  -0.920500000   2.036450000   1.984040000
| 32> H  -1.242140000   0.921210000   2.984230000
| 33> *
| 34>
| 35>                          ****END OF INPUT****

CARTESIAN COORDINATES (ANGSTROEM)
---------------------------------
  O     -1.794470   -0.923410    2.768350
  H     -2.338250   -1.359750    3.430940
  H     -0.879480   -1.303000    2.865760
  O      0.923410   -1.794470   -2.768350
  H      1.359750   -2.338250   -3.430940
  H      1.303000   -0.879480   -2.865760
  O     -1.752130   -0.741530   -2.896280
  H     -2.036450   -0.920500   -1.984040
  H     -0.921210   -1.242140   -2.984230
  O     -0.885520    1.737840    0.052730
  H     -1.032320    2.090180   -0.841890
  H     -1.284090    0.839590    0.017130
  O      0.741530   -1.752130    2.896280
  H      0.920500   -2.036450    1.984040
  H      1.242140   -0.921210    2.984230
  O     -0.741530    1.752130    2.896280
  H     -0.920500    2.036450    1.984040
  H     -1.242140    0.921210    2.984230

 Total Charge           Charge          ....    0
 Multiplicity           Mult            ....    1
 Number of Electrons    NEL             ....   60
 Basis Dimension        Dim             ....  258

ORBITAL ENERGIES
----------------

  NO   OCC          E(Eh)            E(eV)
   0   2.0000     -20.604413      -560.6746
   1   2.0000     -20.599901      -560.5518
   2   2.0000     -20.576247      -559.9082
   3   2.0000     -20.549631      -559.1839
   4   2.0000     -20.545530      -559.0723
   5   2.0000     -20.498965      -557.8052
   6   2.0000      -1.385672       -37.7061
   7   2.0000      -1.382086       -37.6085
   8   2.0000      -1.354530       -36.8586
   9   2.0000      -1.331712       -36.2377
  10   2.0000      -1.329635       -36.1812
  11   2.0000      -1.284004       -34.9395
  12   2.0000      -0.749294       -20.3893
  13   2.0000      -0.742231       -20.1971
  14   2.0000      -0.716856       -19.5066
  15   2.0000      -0.714904       -19.4535
  16   2.0000      -0.700770       -19.0689
  17   2.0000      -0.661868       -18.0103
  18   2.0000      -0.624888       -17.0041
  19   2.0000      -0.621887       -16.9224
  20   2.0000      -0.596634       -16.2352
  21   2.0000      -0.575941       -15.6722
  22   2.0000      -0.573812       -15.6142
  23   2.0000      -0.541180       -14.7263
  24   2.0000      -0.535091       -14.5606
  25   2.0000      -0.525476       -14.2989
  26   2.0000      -0.514566       -14.0021
  27   2.0000      -0.496600       -13.5132
  28   2.0000      -0.489929       -13.3317
  29   2.0000      -0.449147       -12.2219
  30   0.0000       0.084458         2.2982
  31   0.0000       0.112164         3.0521
  32   0.0000       0.128447         3.4952
  33   0.0000       0.161796         4.4027
  34   0.0000       0.165501         4.5035

MULLIKEN ATOMIC CHARGES
-----------------------
   0 O :   -0.740075
   1 H :    0.340803
   2 H :    0.377432
   3 O :   -0.699455
   4 H :    0.357797
   5 H :    0.362294
   6 O :   -0.700902
   7 H :    0.325233
   8 H :    0.359149
   9 O :   -0.695000
  10 H :    0.350006
  11 H :    0.342959
  12 O :   -0.686764
  13 H :    0.358493
  14 H :    0.372670
  15 O :   -0.735807
  16 H :    0.364839
  17 H :    0.346328
Sum of atomic charges:    0.0000000

LOEWDIN ATOMIC CHARGES
----------------------
   0 O :   -0.341909
   1 H :    0.155516
   2 H :    0.144579
   3 O :   -0.312153
   4 H :    0.165913
   5 H :    0.188976
   6 O :   -0.344258
   7 H :    0.156733
   8 H :    0.147900
   9 O :   -0.318266
  10 H :    0.169486
  11 H :    0.171690
  12 O :   -0.270449
  13 H :    0.174809
  14 H :    0.181249
  15 O :   -0.359323
  16 H :    0.149136
  17 H :    0.140370

  Mayer bond orders larger than 0.100000
B(  0-O ,  1-H ) :   0.8489 B(  0-O ,  2-H ) :   0.7666 B(  3-O ,  4-H ) :   0.8386
B(  3-O ,  5-H ) :   0.8294 B(  6-O ,  7-H ) :   0.8589 B(  6-O ,  8-H ) :   0.8160
B(  9-O , 10-H ) :   0.8410 B(  9-O , 11-H ) :   0.8390 B( 12-O , 13-H ) :   0.8370
B( 12-O , 14-H ) :   0.8233 B( 15-O , 16-H ) :   0.8279 B( 15-O , 17-H ) :   0.8206

MP2 TOTAL ENERGY:     -457.913971295 Eh
FINAL SINGLE POINT ENERGY      -457.913971294810

DIPOLE MOMENT
-------------
                                X             Y             Z
Electronic contribution:      0.28892      -0.10667       0.04916
Nuclear contribution   :      0.98915      -1.39022      -1.46039
                        -----------------------------------------
Total Dipole Moment    :      1.27807      -1.49689      -1.41123
                        -----------------------------------------
Magnitude (a.u.)       :      2.42192
Magnitude (Debye)      :      6.15603

Rotational constants in cm-1:     0.048405     0.020564     0.017248
Rotational constants in MHz :  1451.137168   616.502021   517.073694

                             ****ORCA TERMINATED NORMALLY****
TOTAL RUN TIME: 0 days 0 hours 0 minutes 52 seconds 289 msec
