                         Program Version 4.2.0 -  RELEASE  -
|  1> ! MP2 def2-TZVP EnGrad TightSCF FrozenCore
|  2>
|  3> %pal
|  4>     nprocs 12
|  5> end
|  6>
|  7> %maxcore 8000
|  8>
|  9> %scf
| 10>     ConvForced true
| 11> end
| 12>
| 13> *xyz 0 1
| 14> C     3.761437    -1.773573    -0.755131
| 15> H     3.799815    -1.545541     0.314170
| 16> H     4.768070    -1.987452    -1.123562
| 17> H     3.114883    -2.641342    -0.904520
| 18> C     3.206995    -0.622015    -1.460987
| 19> N     2.780495     0.301555    -2.023264
| 20> C    -2.683767    -2.376960    -0.699355
| 21> H    -3.292293    -3.282195    -0.627754
| 22> H    -1.650524    -2.653707    -0.930848
| 23> H    -3.084659    -1.733131    -1.488084
| 24> C    -2.713000    -1.655110     0.569471
| 25> N    -2.734786    -1.082373     1.580599
| 26> C    -0.428350     0.153113    -2.160533
| 27> H    -0.045491    -0.858146    -1.992926
| 28> H     0.204718     0.641616    -2.904966
| 29> H    -1.465558     0.118537    -2.507516
| 30> C    -0.367842     0.895051    -0.905061
| 31> N    -0.339670     1.493673     0.091763
| 32> C    -3.514356     2.127625     0.739988
| 33> H    -4.483922     2.526737     1.048471
| 34> H    -2.798891     2.943658     0.613397
| 35> H    -3.134707     1.444114     1.505191
| 36> C    -3.650558     1.395411    -0.515852
| 37> N    -3.753086     0.804165    -1.511447
| 38> C     2.645827     2.774326     0.351498
| 39> H     3.458817     3.489738     0.500063
| 40> H     1.701987     3.202439     0.696690
| 41> H     2.553925     2.535076    -0.712076
| 42> C     2.924435     1.544739     1.087848
| 43> N     3.164178     0.568466     1.671226
| 44> C     0.389558    -0.880181     2.506990
| 45> H     1.341253    -0.862397     3.042729
| 46> H    -0.381359    -1.385433     3.093661
| 47> H     0.069359     0.147550     2.310054
| 48> C     0.558217    -1.564602     1.229090
| 49> N     0.676155    -2.115066     0.211126
| 50> *
| 51>
| 52>                          ****END OF INPUT****

CARTESIAN COORDINATES (ANGSTROEM)
---------------------------------
  C      3.761437   -1.773573   -0.755131
  H      3.799815   -1.545541    0.314170
  H      4.768070   -1.987452   -1.123562
  H      3.114883   -2.641342   -0.904520
  C      3.206995   -0.622015   -1.460987
  N      2.780495    0.301555   -2.023264
  C     -2.683767   -2.376960   -0.699355
  H     -3.292293   -3.282195   -0.627754
  H     -1.650524   -2.653707   -0.930848
  H     -3.084659   -1.733131   -1.488084
  C     -2.713000   -1.655110    0.569471
  N     -2.734786   -1.082373    1.580599
  C     -0.428350    0.153113   -2.160533
  H     -0.045491   -0.858146   -1.992926
  H      0.204718    0.641616   -2.904966
  H     -1.465558    0.118537   -2.507516
  C     -0.367842    0.895051   -0.905061
  N     -0.339670    1.493673    0.091763
  C     -3.514356    2.127625    0.739988
  H     -4.483922    2.526737    1.048471
  H     -2.798891    2.943658    0.613397
  H     -3.134707    1.444114    1.505191
  C     -3.650558    1.395411   -0.515852
  N     -3.753086    0.804165   -1.511447
  C      2.645827    2.774326    0.351498
  H      3.458817    3.489738    0.500063
  H      1.701987    3.202439    0.696690
  H      2.553925    2.535076   -0.712076
  C      2.924435    1.544739    1.087848
  N      3.164178    0.568466    1.671226
  C      0.389558   -0.880181    2.506990
  H      1.341253   -0.862397    3.042729
  H     -0.381359   -1.385433    3.093661
  H      0.069359    0.147550    2.310054
  C      0.558217   -1.564602    1.229090
  N      0.676155   -2.115066    0.211126

 Total Charge           Charge          ....    0
 Multiplicity           Mult            ....    1
 Number of Electrons    NEL             ....  132
 Basis Dimension        Dim             ....  666

ORBITAL ENERGIES
----------------

  NO   OCC          E(Eh)            E(eV)
   0   2.0000     -15.566178      -423.5772
   1   2.0000     -15.565375      -423.5554
   2   2.0000     -15.563650      -423.5085
   3   2.0000     -15.563603      -423.5072
   4   2.0000     -15.562264      -423.4707
   5   2.0000     -15.561312      -423.4448
   6   2.0000     -11.280407      -306.9555
   7   2.0000     -11.280256      -306.9514
   8   2.0000     -11.279462      -306.9298
   9   2.0000     -11.279214      -306.9230
  10   2.0000     -11.278780      -306.9112
  11   2.0000     -11.278628      -306.9071
  12   2.0000     -11.268095      -306.6205
  13   2.0000     -11.264623      -306.5260
  14   2.0000     -11.263666      -306.4999
  15   2.0000     -11.263199      -306.4872
  16   2.0000     -11.257712      -306.3379
  17   2.0000     -11.254106      -306.2398
  18   2.0000      -1.218499       -33.1570
  19   2.0000      -1.215703       -33.0810
  20   2.0000      -1.214081       -33.0368
  21   2.0000      -1.212572       -32.9958
  22   2.0000      -1.211292       -32.9609
  23   2.0000      -1.210276       -32.9333
  24   2.0000      -1.028407       -27.9844
  25   2.0000      -1.024026       -27.8652
  26   2.0000      -1.023680       -27.8558
  27   2.0000      -1.022088       -27.8124
  28   2.0000      -1.018968       -27.7275
  29   2.0000      -1.015523       -27.6338
  30   2.0000      -0.688345       -18.7308
  31   2.0000      -0.684337       -18.6218
  32   2.0000      -0.683051       -18.5868
  33   2.0000      -0.680855       -18.5270
  34   2.0000      -0.678521       -18.4635
  35   2.0000      -0.675178       -18.3725
  36   2.0000      -0.628073       -17.0907
  37   2.0000      -0.624764       -17.0007
  38   2.0000      -0.621291       -16.9062
  39   2.0000      -0.617423       -16.8009
  40   2.0000      -0.615986       -16.7618
  41   2.0000      -0.614739       -16.7279
  42   2.0000      -0.610770       -16.6199
  43   2.0000      -0.607921       -16.5424
  44   2.0000      -0.605292       -16.4708
  45   2.0000      -0.602448       -16.3934
  46   2.0000      -0.601220       -16.3600
  47   2.0000      -0.596670       -16.2362
  48   2.0000      -0.557828       -15.1793
  49   2.0000      -0.554887       -15.0993
  50   2.0000      -0.553335       -15.0570
  51   2.0000      -0.551956       -15.0195
  52   2.0000      -0.551265       -15.0007
  53   2.0000      -0.549892       -14.9633
  54   2.0000      -0.465583       -12.6691
  55   2.0000      -0.464339       -12.6353
  56   2.0000      -0.460913       -12.5421
  57   2.0000      -0.458905       -12.4874
  58   2.0000      -0.457059       -12.4372
  59   2.0000      -0.455469       -12.3939
  60   2.0000      -0.454664       -12.3720
  61   2.0000      -0.452814       -12.3217
  62   2.0000      -0.451719       -12.2919
  63   2.0000      -0.449641       -12.2353
  64   2.0000      -0.448020       -12.1912
  65   2.0000      -0.447740       -12.1836
  66   0.0000       0.129546         3.5251
  67   0.0000       0.146846         3.9959
  68   0.0000       0.147938         4.0256
  69   0.0000       0.156053         4.2464
  70   0.0000       0.161895         4.4054

MULLIKEN ATOMIC CHARGES
-----------------------
   0 C :   -0.286877
   1 H :    0.194614
   2 H :    0.168588
   3 H :    0.181099
   4 C :   -0.075915
   5 N :   -0.181119
   6 C :   -0.296391
   7 H :    0.173963
   8 H :    0.187078
   9 H :    0.192603
  10 C :   -0.087506
  11 N :   -0.168785
  12 C :   -0.292779
  13 H :    0.178998
  14 H :    0.189617
  15 H :    0.196204
  16 C :   -0.041512
  17 N :   -0.229477
  18 C :   -0.269785
  19 H :    0.168350
  20 H :    0.171514
  21 H :    0.197278
  22 C :   -0.098250
  23 N :   -0.170543
  24 C :   -0.287799
  25 H :    0.169073
  26 H :    0.179271
  27 H :    0.194263
  28 C :   -0.072400
  29 N :   -0.182276
  30 C :   -0.271487
  31 H :    0.187407
  32 H :    0.180961
  33 H :    0.183647
  34 C :   -0.056082
  35 N :   -0.225546
Sum of atomic charges:   -0.0000000

LOEWDIN ATOMIC CHARGES
----------------------
   0 C :   -0.284589
   1 H :    0.155423
   2 H :    0.146858
   3 H :    0.152605
   4 C :   -0.198433
   5 N :    0.028823
   6 C :   -0.282694
   7 H :    0.149794
   8 H :    0.151902
   9 H :    0.152934
  10 C :   -0.200496
  11 N :    0.034972
  12 C :   -0.286337
  13 H :    0.151333
  14 H :    0.153757
  15 H :    0.149922
  16 C :   -0.195174
  17 N :    0.029604
  18 C :   -0.283344
  19 H :    0.147543
  20 H :    0.151869
  21 H :    0.156442
  22 C :   -0.200852
  23 N :    0.022614
  24 C :   -0.284618
  25 H :    0.146906
  26 H :    0.152188
  27 H :    0.155244
  28 C :   -0.197707
  29 N :    0.028730
  30 C :   -0.286105
  31 H :    0.150967
  32 H :    0.150703
  33 H :    0.155818
  34 C :   -0.194232
  35 N :    0.017628

  Mayer bond orders larger than 0.100000
B(  0-C ,  1-H ) :   0.9090 B(  0-C ,  2-H ) :   0.9101 B(  0-C ,  3-H ) :   0.9142
B(  0-C ,  4-C ) :   0.8943 B(  4-C ,  5-N ) :   2.7332 B(  6-C ,  7-H ) :   0.9081
B(  6-C ,  8-H ) :   0.9117 B(  6-C ,  9-H ) :   0.9090 B(  6-C , 10-C ) :   0.8944
B( 10-C , 11-N ) :   2.7306 B( 12-C , 13-H ) :   0.9166 B( 12-C , 14-H ) :   0.9040
B( 12-C , 15-H ) :   0.9026 B( 12-C , 16-C ) :   0.8894 B( 16-C , 17-N ) :   2.6463
B( 18-C , 19-H ) :   0.9105 B( 18-C , 20-H ) :   0.9137 B( 18-C , 21-H ) :   0.9044
B( 18-C , 22-C ) :   0.9074 B( 22-C , 23-N ) :   2.7435 B( 24-C , 25-H ) :   0.9100
B( 24-C , 26-H ) :   0.9147 B( 24-C , 27-H ) :   0.9093 B( 24-C , 28-C ) :   0.8950
B( 28-C , 29-N ) :   2.7301 B( 30-C , 31-H ) :   0.9066 B( 30-C , 32-H ) :   0.9042
B( 30-C , 33-H ) :   0.9125 B( 30-C , 34-C ) :   0.9010 B( 34-C , 35-N ) :   2.6759

MP2 TOTAL ENERGY:     -794.958993865 Eh
FINAL SINGLE POINT ENERGY      -794.958993865328

DIPOLE MOMENT
-------------
                                X             Y             Z
Electronic contribution:     -0.45463      -0.03524       0.12925
Nuclear contribution   :      0.67856       0.10059      -0.06814
                        -----------------------------------------
Total Dipole Moment    :      0.22393       0.06535       0.06111
                        -----------------------------------------
Magnitude (a.u.)       :      0.24114
Magnitude (Debye)      :      0.61293

Rotational constants in cm-1:     0.016118     0.007989     0.007435
Rotational constants in MHz :   483.214572   239.489597   222.881608

                             ****ORCA TERMINATED NORMALLY****
TOTAL RUN TIME: 0 days 1 hours 5 minutes 43 seconds 813 msec
