                         Program Version 4.2.0 -  RELEASE  -
|  1> ! MP2 def2-TZVP EnGrad TightSCF FrozenCore
|  2>
|  3> %pal
|  4>     nprocs 12
|  5> end
|  6>
|  7> %maxcore 8000
|  8>
|  9> %scf
| 10>     ConvForced true
| 11> end
| 12>
| 13> *xyz 0 1
| 14> C     -1.726329     -2.249270     -0.815090
| 15> H     -1.685321     -2.157115      0.274213
| 16> H     -0.924210     -2.916510     -1.138616
| 17> H     -2.696187     -2.653706     -1.116146
| 18> C     -1.531909     -0.928596     -1.406598
| 19> N     -1.392986      0.125300     -1.876846
| 20> C      1.726328      0.815094     -2.249269
| 21> H      0.924208      1.138617     -2.916509
| 22> H      1.685324     -0.274210     -2.157113
| 23> H      2.696185      1.116152     -2.653705
| 24> C      1.531907      1.406602     -0.928596
| 25> N      1.392981      1.876850      0.125300
| 26> C     -1.726335      2.249265      0.815093
| 27> H     -1.685329      2.157109     -0.274211
| 28> H     -0.924218      2.916508      1.138618
| 29> H     -2.696194      2.653697      1.116150
| 30> C     -1.531910      0.928592      1.406601
| 31> N     -1.392982     -0.125303      1.876849
| 32> C      1.726336     -0.815089      2.249265
| 33> H      2.696196     -1.116143      2.653698
| 34> H      0.924220     -1.138617      2.916508
| 35> H      1.685326      0.274214      2.157111
| 36> C      1.531913     -1.406598      0.928593
| 37> N      1.392986     -1.876846     -0.125303
| 38> *
| 39>
| 40>                          ****END OF INPUT****

CARTESIAN COORDINATES (ANGSTROEM)
---------------------------------
  C     -1.726329   -2.249270   -0.815090
  H     -1.685321   -2.157115    0.274213
  H     -0.924210   -2.916510   -1.138616
  H     -2.696187   -2.653706   -1.116146
  C     -1.531909   -0.928596   -1.406598
  N     -1.392986    0.125300   -1.876846
  C      1.726328    0.815094   -2.249269
  H      0.924208    1.138617   -2.916509
  H      1.685324   -0.274210   -2.157113
  H      2.696185    1.116152   -2.653705
  C      1.531907    1.406602   -0.928596
  N      1.392981    1.876850    0.125300
  C     -1.726335    2.249265    0.815093
  H     -1.685329    2.157109   -0.274211
  H     -0.924218    2.916508    1.138618
  H     -2.696194    2.653697    1.116150
  C     -1.531910    0.928592    1.406601
  N     -1.392982   -0.125303    1.876849
  C      1.726336   -0.815089    2.249265
  H      2.696196   -1.116143    2.653698
  H      0.924220   -1.138617    2.916508
  H      1.685326    0.274214    2.157111
  C      1.531913   -1.406598    0.928593
  N      1.392986   -1.876846   -0.125303

 Total Charge           Charge          ....    0
 Multiplicity           Mult            ....    1
 Number of Electrons    NEL             ....   88
 Basis Dimension        Dim             ....  444

ORBITAL ENERGIES
----------------

  NO   OCC          E(Eh)            E(eV)
   0   2.0000     -15.562432      -423.4753
   1   2.0000     -15.562432      -423.4753
   2   2.0000     -15.562431      -423.4753
   3   2.0000     -15.562430      -423.4752
   4   2.0000     -11.277662      -306.8808
   5   2.0000     -11.277661      -306.8808
   6   2.0000     -11.277661      -306.8807
   7   2.0000     -11.277660      -306.8807
   8   2.0000     -11.261854      -306.4506
   9   2.0000     -11.261854      -306.4506
  10   2.0000     -11.261854      -306.4506
  11   2.0000     -11.261853      -306.4506
  12   2.0000      -1.215654       -33.0796
  13   2.0000      -1.212017       -32.9807
  14   2.0000      -1.210238       -32.9323
  15   2.0000      -1.210238       -32.9323
  16   2.0000      -1.022452       -27.8223
  17   2.0000      -1.022452       -27.8223
  18   2.0000      -1.021734       -27.8028
  19   2.0000      -1.018899       -27.7256
  20   2.0000      -0.683449       -18.5976
  21   2.0000      -0.682070       -18.5601
  22   2.0000      -0.679380       -18.4869
  23   2.0000      -0.679380       -18.4869
  24   2.0000      -0.622690       -16.9443
  25   2.0000      -0.617305       -16.7977
  26   2.0000      -0.613953       -16.7065
  27   2.0000      -0.613953       -16.7065
  28   2.0000      -0.613684       -16.6992
  29   2.0000      -0.607226       -16.5235
  30   2.0000      -0.601195       -16.3594
  31   2.0000      -0.601195       -16.3594
  32   2.0000      -0.552594       -15.0368
  33   2.0000      -0.552594       -15.0368
  34   2.0000      -0.551562       -15.0088
  35   2.0000      -0.549192       -14.9443
  36   2.0000      -0.464962       -12.6523
  37   2.0000      -0.457638       -12.4530
  38   2.0000      -0.455863       -12.4047
  39   2.0000      -0.455863       -12.4047
  40   2.0000      -0.453062       -12.3284
  41   2.0000      -0.450339       -12.2543
  42   2.0000      -0.447701       -12.1826
  43   2.0000      -0.447701       -12.1826
  44   0.0000       0.134125         3.6497
  45   0.0000       0.157118         4.2754
  46   0.0000       0.157118         4.2754
  47   0.0000       0.157763         4.2929
  48   0.0000       0.169565         4.6141

MULLIKEN ATOMIC CHARGES
-----------------------
   0 C :   -0.286245
   1 H :    0.194098
   2 H :    0.182841
   3 H :    0.167418
   4 C :   -0.073446
   5 N :   -0.184666
   6 C :   -0.286245
   7 H :    0.182841
   8 H :    0.194098
   9 H :    0.167418
  10 C :   -0.073446
  11 N :   -0.184666
  12 C :   -0.286245
  13 H :    0.194098
  14 H :    0.182841
  15 H :    0.167418
  16 C :   -0.073447
  17 N :   -0.184665
  18 C :   -0.286245
  19 H :    0.167418
  20 H :    0.182841
  21 H :    0.194098
  22 C :   -0.073446
  23 N :   -0.184667
Sum of atomic charges:   -0.0000000

LOEWDIN ATOMIC CHARGES
----------------------
   0 C :   -0.284947
   1 H :    0.155325
   2 H :    0.153333
   3 H :    0.146446
   4 C :   -0.198017
   5 N :    0.027861
   6 C :   -0.284947
   7 H :    0.153333
   8 H :    0.155325
   9 H :    0.146446
  10 C :   -0.198017
  11 N :    0.027861
  12 C :   -0.284947
  13 H :    0.155325
  14 H :    0.153333
  15 H :    0.146446
  16 C :   -0.198018
  17 N :    0.027861
  18 C :   -0.284947
  19 H :    0.146446
  20 H :    0.153333
  21 H :    0.155325
  22 C :   -0.198017
  23 N :    0.027861

  Mayer bond orders larger than 0.100000
B(  0-C ,  1-H ) :   0.9094 B(  0-C ,  2-H ) :   0.9140 B(  0-C ,  3-H ) :   0.9101
B(  0-C ,  4-C ) :   0.8950 B(  4-C ,  5-N ) :   2.7307 B(  6-C ,  7-H ) :   0.9140
B(  6-C ,  8-H ) :   0.9094 B(  6-C ,  9-H ) :   0.9101 B(  6-C , 10-C ) :   0.8950
B( 10-C , 11-N ) :   2.7307 B( 12-C , 13-H ) :   0.9094 B( 12-C , 14-H ) :   0.9140
B( 12-C , 15-H ) :   0.9101 B( 12-C , 16-C ) :   0.8950 B( 16-C , 17-N ) :   2.7307
B( 18-C , 19-H ) :   0.9101 B( 18-C , 20-H ) :   0.9140 B( 18-C , 21-H ) :   0.9094
B( 18-C , 22-C ) :   0.8950 B( 22-C , 23-N ) :   2.7307

MP2 TOTAL ENERGY:     -529.968164719 Eh
FINAL SINGLE POINT ENERGY      -529.968164718906

DIPOLE MOMENT
-------------
                                X             Y             Z
Electronic contribution:      0.00000       0.00000       0.00000
Nuclear contribution   :      0.00000      -0.00000      -0.00000
                        -----------------------------------------
Total Dipole Moment    :      0.00000      -0.00000      -0.00000
                        -----------------------------------------
Magnitude (a.u.)       :      0.00000
Magnitude (Debye)      :      0.00000

Rotational constants in cm-1:     0.024024     0.022190     0.022190
Rotational constants in MHz :   720.207206   665.227366   665.227257

                             ****ORCA TERMINATED NORMALLY****
TOTAL RUN TIME: 0 days 0 hours 12 minutes 28 seconds 69 msec
