                         Program Version 4.2.0 -  RELEASE  -
|  1> # 12h2o.su.etal.mol1,6,7,9
|  2> ! MP2 def2-TZVP EnGrad TightSCF
|  3>
|  4> %pal
|  5>     nprocs 6
|  6> end
|  7>
|  8> %maxcore 8000
|  9>
| 10> %scf
| 11>     ConvForced true
| 12> end
| 13>
| 14> *xyz 0 1
| 15> O  -1.794470000  -0.923410000   2.768350000
| 16> H  -2.338250000  -1.359750000   3.430940000
| 17> H  -0.879480000  -1.303000000   2.865760000
| 18> O   1.737840000   0.885520000  -0.052730000
| 19> H   2.090180000   1.032320000   0.841890000
| 20> H   0.839590000   1.284090000  -0.017130000
| 21> O  -1.737840000  -0.885520000  -0.052730000
| 22> H  -2.090180000  -1.032320000   0.841890000
| 23> H  -0.839590000  -1.284090000  -0.017130000
| 24> O   0.741530000  -1.752130000   2.896280000
| 25> H   0.920500000  -2.036450000   1.984040000
| 26> H   1.242140000  -0.921210000   2.984230000
| 27> *
| 28>
| 29>                          ****END OF INPUT****

CARTESIAN COORDINATES (ANGSTROEM)
---------------------------------
  O     -1.794470   -0.923410    2.768350
  H     -2.338250   -1.359750    3.430940
  H     -0.879480   -1.303000    2.865760
  O      1.737840    0.885520   -0.052730
  H      2.090180    1.032320    0.841890
  H      0.839590    1.284090   -0.017130
  O     -1.737840   -0.885520   -0.052730
  H     -2.090180   -1.032320    0.841890
  H     -0.839590   -1.284090   -0.017130
  O      0.741530   -1.752130    2.896280
  H      0.920500   -2.036450    1.984040
  H      1.242140   -0.921210    2.984230

 Total Charge           Charge          ....    0
 Multiplicity           Mult            ....    1
 Number of Electrons    NEL             ....   40
 Basis Dimension        Dim             ....  172

ORBITAL ENERGIES
----------------

  NO   OCC          E(Eh)            E(eV)
   0   2.0000     -20.617253      -561.0240
   1   2.0000     -20.576348      -559.9109
   2   2.0000     -20.550958      -559.2200
   3   2.0000     -20.532326      -558.7130
   4   2.0000      -1.402620       -38.1672
   5   2.0000      -1.352131       -36.7933
   6   2.0000      -1.336301       -36.3626
   7   2.0000      -1.310311       -35.6554
   8   2.0000      -0.759877       -20.6773
   9   2.0000      -0.722374       -19.6568
  10   2.0000      -0.713853       -19.4249
  11   2.0000      -0.679578       -18.4923
  12   2.0000      -0.639668       -17.4063
  13   2.0000      -0.591216       -16.0878
  14   2.0000      -0.588053       -16.0017
  15   2.0000      -0.557900       -15.1812
  16   2.0000      -0.537855       -14.6358
  17   2.0000      -0.519049       -14.1240
  18   2.0000      -0.497670       -13.5423
  19   2.0000      -0.477512       -12.9938
  20   0.0000       0.074809         2.0356
  21   0.0000       0.132623         3.6089
  22   0.0000       0.155437         4.2297
  23   0.0000       0.158856         4.3227
  24   0.0000       0.215176         5.8552

MULLIKEN ATOMIC CHARGES
-----------------------
   0 O :   -0.734273
   1 H :    0.338637
   2 H :    0.365236
   3 O :   -0.679479
   4 H :    0.324499
   5 H :    0.355954
   6 O :   -0.692150
   7 H :    0.369361
   8 H :    0.307464
   9 O :   -0.672132
  10 H :    0.359644
  11 H :    0.357238
Sum of atomic charges:    0.0000000

LOEWDIN ATOMIC CHARGES
----------------------
   0 O :   -0.339662
   1 H :    0.154495
   2 H :    0.142215
   3 O :   -0.335407
   4 H :    0.158283
   5 H :    0.178487
   6 O :   -0.346034
   7 H :    0.149651
   8 H :    0.154177
   9 O :   -0.264972
  10 H :    0.173502
  11 H :    0.175265

  Mayer bond orders larger than 0.100000
B(  0-O ,  1-H ) :   0.8496 B(  0-O ,  2-H ) :   0.7739 B(  3-O ,  4-H ) :   0.8588
B(  3-O ,  5-H ) :   0.8354 B(  6-O ,  7-H ) :   0.8106 B(  6-O ,  8-H ) :   0.8648
B(  9-O , 10-H ) :   0.8344 B(  9-O , 11-H ) :   0.8361

MP2 TOTAL ENERGY:     -305.268615695 Eh
FINAL SINGLE POINT ENERGY      -305.268615694778

DIPOLE MOMENT
-------------
                                X             Y             Z
Electronic contribution:      0.09686      -0.00811      -0.06198
Nuclear contribution   :      0.87464      -0.22418       1.49504
                        -----------------------------------------
Total Dipole Moment    :      0.97150      -0.23229       1.43306
                        -----------------------------------------
Magnitude (a.u.)       :      1.74684
Magnitude (Debye)      :      4.44010

Rotational constants in cm-1:     0.106183     0.067126     0.046066
Rotational constants in MHz :  3183.276956  2012.394888  1381.009415

                             ****ORCA TERMINATED NORMALLY****
TOTAL RUN TIME: 0 days 0 hours 0 minutes 18 seconds 7 msec
