                         Program Version 4.2.0 -  RELEASE  -
|  1> # 12meoh.boyd.etal.mol1,6,7
|  2> ! MP2 def2-TZVP EnGrad TightSCF
|  3>
|  4> %pal
|  5>     nprocs 6
|  6> end
|  7>
|  8> %maxcore 8000
|  9>
| 10> %scf
| 11>     ConvForced true
| 12> end
| 13>
| 14> *xyz 0 1
| 15> O   0.666045193  -2.600503172   0.138317521
| 16> H  -0.227115049  -2.712051982  -0.281868004
| 17> C   0.490021232  -1.851247678   1.341189459
| 18> H   1.466500502  -1.466176022   1.645844415
| 19> H   0.097564527  -2.488364683   2.146902740
| 20> H  -0.187588112  -1.000787499   1.200739571
| 21> O   2.622209273  -1.703002590  -1.445859723
| 22> H   1.828551432  -1.986513781  -0.909754968
| 23> C   2.781117675  -2.615822239  -2.525472890
| 24> H   3.691063626  -2.339003544  -3.065143454
| 25> H   1.934727323  -2.559520367  -3.223226661
| 26> H   2.879948338  -3.653846211  -2.177750170
| 27> O   4.310535586  -1.588322800   0.656128299
| 28> H   3.804372199  -1.630404735  -0.196849819
| 29> C   4.312298137  -2.894980854   1.222112691
| 30> H   4.713177833  -2.819907076   2.237066773
| 31> H   4.957796734  -3.574699304   0.648211180
| 32> H   3.302735989  -3.324433205   1.269756773
| 33> *
| 34>
| 35>                          ****END OF INPUT****

CARTESIAN COORDINATES (ANGSTROEM)
---------------------------------
  O      0.666045   -2.600503    0.138318
  H     -0.227115   -2.712052   -0.281868
  C      0.490021   -1.851248    1.341189
  H      1.466501   -1.466176    1.645844
  H      0.097565   -2.488365    2.146903
  H     -0.187588   -1.000787    1.200740
  O      2.622209   -1.703003   -1.445860
  H      1.828551   -1.986514   -0.909755
  C      2.781118   -2.615822   -2.525473
  H      3.691064   -2.339004   -3.065143
  H      1.934727   -2.559520   -3.223227
  H      2.879948   -3.653846   -2.177750
  O      4.310536   -1.588323    0.656128
  H      3.804372   -1.630405   -0.196850
  C      4.312298   -2.894981    1.222113
  H      4.713178   -2.819907    2.237067
  H      4.957797   -3.574699    0.648211
  H      3.302736   -3.324433    1.269757

 Total Charge           Charge          ....    0
 Multiplicity           Mult            ....    1
 Number of Electrons    NEL             ....   54
 Basis Dimension        Dim             ....  258

ORBITAL ENERGIES
----------------

  NO   OCC          E(Eh)            E(eV)
   0   2.0000     -20.599365      -560.5372
   1   2.0000     -20.545479      -559.0709
   2   2.0000     -20.508804      -558.0729
   3   2.0000     -11.291941      -307.2693
   4   2.0000     -11.269062      -306.6468
   5   2.0000     -11.246352      -306.0288
   6   2.0000      -1.391874       -37.8748
   7   2.0000      -1.345666       -36.6174
   8   2.0000      -1.305152       -35.5150
   9   2.0000      -0.945973       -25.7412
  10   2.0000      -0.919350       -25.0168
  11   2.0000      -0.892151       -24.2767
  12   2.0000      -0.727065       -19.7845
  13   2.0000      -0.692971       -18.8567
  14   2.0000      -0.663776       -18.0623
  15   2.0000      -0.642129       -17.4732
  16   2.0000      -0.618518       -16.8307
  17   2.0000      -0.609355       -16.5814
  18   2.0000      -0.588063       -16.0020
  19   2.0000      -0.585842       -15.9416
  20   2.0000      -0.556779       -15.1507
  21   2.0000      -0.535479       -14.5711
  22   2.0000      -0.503595       -13.7035
  23   2.0000      -0.480096       -13.0641
  24   2.0000      -0.469054       -12.7636
  25   2.0000      -0.435937       -11.8625
  26   2.0000      -0.412431       -11.2228
  27   0.0000       0.108915         2.9637
  28   0.0000       0.153148         4.1674
  29   0.0000       0.160484         4.3670
  30   0.0000       0.187911         5.1133
  31   0.0000       0.209707         5.7064

MULLIKEN ATOMIC CHARGES
-----------------------
   0 O :   -0.525268
   1 H :    0.343529
   2 C :   -0.205917
   3 H :    0.172429
   4 H :    0.127854
   5 H :    0.131943
   6 O :   -0.546009
   7 H :    0.356377
   8 C :   -0.180016
   9 H :    0.135831
  10 H :    0.110536
  11 H :    0.117385
  12 O :   -0.534416
  13 H :    0.358208
  14 C :   -0.188094
  15 H :    0.120630
  16 H :    0.105514
  17 H :    0.099483
Sum of atomic charges:    0.0000000

LOEWDIN ATOMIC CHARGES
----------------------
   0 O :   -0.078594
   1 H :    0.198879
   2 C :   -0.368127
   3 H :    0.121000
   4 H :    0.105450
   5 H :    0.103486
   6 O :   -0.088321
   7 H :    0.163417
   8 C :   -0.388581
   9 H :    0.111422
  10 H :    0.098503
  11 H :    0.097983
  12 O :   -0.121596
  13 H :    0.159282
  14 C :   -0.400524
  15 H :    0.104481
  16 H :    0.092730
  17 H :    0.089111

  Mayer bond orders larger than 0.100000
B(  0-O ,  1-H ) :   0.8273 B(  0-O ,  2-C ) :   0.8504 B(  0-O ,  7-H ) :   0.1050
B(  2-C ,  3-H ) :   0.9305 B(  2-C ,  4-H ) :   0.9336 B(  2-C ,  5-H ) :   0.9387
B(  6-O ,  7-H ) :   0.7636 B(  6-O ,  8-C ) :   0.8918 B(  8-C ,  9-H ) :   0.9425
B(  8-C , 10-H ) :   0.9400 B(  8-C , 11-H ) :   0.9354 B( 12-O , 13-H ) :   0.7802
B( 12-O , 14-C ) :   0.9334 B( 14-C , 15-H ) :   0.9426 B( 14-C , 16-H ) :   0.9430
B( 14-C , 17-H ) :   0.9338

MP2 TOTAL ENERGY:     -346.543018123 Eh
FINAL SINGLE POINT ENERGY      -346.543018123422

DIPOLE MOMENT
-------------
                                X             Y             Z
Electronic contribution:     -0.09915       2.02366      -0.75508
Nuclear contribution   :     -1.72699      -2.83210       0.58362
                        -----------------------------------------
Total Dipole Moment    :     -1.82614      -0.80843      -0.17146
                        -----------------------------------------
Magnitude (a.u.)       :      2.00443
Magnitude (Debye)      :      5.09486

Rotational constants in cm-1:     0.074421     0.063821     0.039187
Rotational constants in MHz :  2231.091813  1913.304777  1174.782373

                             ****ORCA TERMINATED NORMALLY****
TOTAL RUN TIME: 0 days 0 hours 1 minutes 38 seconds 866 msec
