                         Program Version 3.0.3 - RELEASE   -
|  1> ! wB97X-D3 MA-Def2-TZVP def2-TZVP/J RIJCOSX TightSCF Grid4
|  2>
|  3> %pal nprocs 1 end
|  4>
|  5> %scf
|  6>         maxiter 400
|  7> end
|  8>
|  9> * xyz  0  1
| 10> O  1.796407	0.381782	0.275720
| 11> H  1.327718	0.100593	-0.581997
| 12> H  2.388025	-0.369135	0.468304
| 13> O  0.355702	-0.407128	-1.787697
| 14> H  -0.527259	-0.439176	-1.284218
| 15> H  0.219468	0.309069	-2.435643
| 16> O  -0.351462	0.381553	1.801830
| 17> H  0.535858	0.392028	1.304031
| 18> H  -0.509364	1.324103	1.997535
| 19> O  -1.806857	-0.356520	-0.274204
| 20> H  -2.093183	-1.263557	-0.058575
| 21> H  -1.335056	-0.053612	0.574913
| 22> **                         ****END OF INPUT****

CARTESIAN COORDINATES (ANGSTROEM)
---------------------------------
  O      1.796407    0.381782    0.275720
  H      1.327718    0.100593   -0.581997
  H      2.388025   -0.369135    0.468304
  O      0.355702   -0.407128   -1.787697
  H     -0.527259   -0.439176   -1.284218
  H      0.219468    0.309069   -2.435643
  O     -0.351462    0.381553    1.801830
  H      0.535858    0.392028    1.304031
  H     -0.509364    1.324103    1.997535
  O     -1.806857   -0.356520   -0.274204
  H     -2.093183   -1.263557   -0.058575
  H     -1.335056   -0.053612    0.574913

 Total Charge           Charge          ....    0
 Multiplicity           Mult            ....    1
 Number of Electrons    NEL             ....   40
 Basis Dimension        Dim             ....  188

ORBITAL ENERGIES
----------------

  NO   OCC          E(Eh)            E(eV)
   0   2.0000     -19.238135      -523.4963
   1   2.0000     -19.237962      -523.4916
   2   2.0000     -19.237774      -523.4865
   3   2.0000     -19.237409      -523.4765
   4   2.0000      -1.142684       -31.0940
   5   2.0000      -1.122465       -30.5438
   6   2.0000      -1.122358       -30.5409
   7   2.0000      -1.102590       -30.0030
   8   2.0000      -0.641663       -17.4605
   9   2.0000      -0.628428       -17.1004
  10   2.0000      -0.628214       -17.0946
  11   2.0000      -0.623443       -16.9648
  12   2.0000      -0.546954       -14.8834
  13   2.0000      -0.506126       -13.7724
  14   2.0000      -0.505415       -13.7531
  15   2.0000      -0.471638       -12.8339
  16   2.0000      -0.419750       -11.4220
  17   2.0000      -0.419639       -11.4190
  18   2.0000      -0.419189       -11.4067
  19   2.0000      -0.414579       -11.2813
  20   0.0000       0.063296         1.7224
  21   0.0000       0.102869         2.7992
  22   0.0000       0.102964         2.8018
  23   0.0000       0.115185         3.1343
  24   0.0000       0.143275         3.8987

MULLIKEN ATOMIC CHARGES
-----------------------
   0 O :   -0.738760
   1 H :    0.387744
   2 H :    0.349743
   3 O :   -0.735688
   4 H :    0.385716
   5 H :    0.350009
   6 O :   -0.735598
   7 H :    0.389028
   8 H :    0.349894
   9 O :   -0.737106
  10 H :    0.350004
  11 H :    0.385013
Sum of atomic charges:   -0.0000000

LOEWDIN ATOMIC CHARGES
----------------------
   0 O :   -0.385219
   1 H :    0.191595
   2 H :    0.194154
   3 O :   -0.385563
   4 H :    0.191292
   5 H :    0.194222
   6 O :   -0.385424
   7 H :    0.191299
   8 H :    0.194119
   9 O :   -0.385951
  10 H :    0.194101
  11 H :    0.191375

  Mayer bond orders larger than 0.1
B(  0-O ,  1-H ) :   0.7806 B(  0-O ,  2-H ) :   0.8915 B(  0-O ,  7-H ) :   0.1056
B(  1-H ,  3-O ) :   0.1066 B(  3-O ,  4-H ) :   0.7806 B(  3-O ,  5-H ) :   0.8918
B(  4-H ,  9-O ) :   0.1091 B(  6-O ,  7-H ) :   0.7812 B(  6-O ,  8-H ) :   0.8933
B(  6-O , 11-H ) :   0.1119 B(  9-O , 10-H ) :   0.8929 B(  9-O , 11-H ) :   0.7797

Dispersion correction           -0.003062766
FINAL SINGLE POINT ENERGY      -305.804574550037

DIPOLE MOMENT
-------------
                                X             Y             Z
Electronic contribution:      0.00103      -0.00081       0.00616
Nuclear contribution   :      0.01550       0.00078      -0.03908
                        -----------------------------------------
Total Dipole Moment    :      0.01654      -0.00003      -0.03292
                        -----------------------------------------
Magnitude (a.u.)       :      0.03684
Magnitude (Debye)      :      0.09364

                             ****ORCA TERMINATED NORMALLY****
TOTAL RUN TIME: 0 days 0 hours 1 minutes 2 seconds 888 msec
