                         Program Version 4.2.0 -  RELEASE  -
|  1> # 12h2o.su.etal.mol1,2,3,4,6,9,11
|  2> ! MP2 def2-TZVP EnGrad TightSCF
|  3>
|  4> %pal
|  5>     nprocs 6
|  6> end
|  7>
|  8> %maxcore 8000
|  9>
| 10> %scf
| 11>     ConvForced true
| 12> end
| 13>
| 14> *xyz 0 1
| 15> O  -1.794470000  -0.923410000   2.768350000
| 16> H  -2.338250000  -1.359750000   3.430940000
| 17> H  -0.879480000  -1.303000000   2.865760000
| 18> O   0.923410000  -1.794470000  -2.768350000
| 19> H   1.359750000  -2.338250000  -3.430940000
| 20> H   1.303000000  -0.879480000  -2.865760000
| 21> O  -1.752130000  -0.741530000  -2.896280000
| 22> H  -2.036450000  -0.920500000  -1.984040000
| 23> H  -0.921210000  -1.242140000  -2.984230000
| 24> O  -0.885520000   1.737840000   0.052730000
| 25> H  -1.032320000   2.090180000  -0.841890000
| 26> H  -1.284090000   0.839590000   0.017130000
| 27> O   1.737840000   0.885520000  -0.052730000
| 28> H   2.090180000   1.032320000   0.841890000
| 29> H   0.839590000   1.284090000  -0.017130000
| 30> O   0.741530000  -1.752130000   2.896280000
| 31> H   0.920500000  -2.036450000   1.984040000
| 32> H   1.242140000  -0.921210000   2.984230000
| 33> O  -0.741530000   1.752130000   2.896280000
| 34> H  -0.920500000   2.036450000   1.984040000
| 35> H  -1.242140000   0.921210000   2.984230000
| 36> *
| 37>
| 38>                          ****END OF INPUT****

CARTESIAN COORDINATES (ANGSTROEM)
---------------------------------
  O     -1.794470   -0.923410    2.768350
  H     -2.338250   -1.359750    3.430940
  H     -0.879480   -1.303000    2.865760
  O      0.923410   -1.794470   -2.768350
  H      1.359750   -2.338250   -3.430940
  H      1.303000   -0.879480   -2.865760
  O     -1.752130   -0.741530   -2.896280
  H     -2.036450   -0.920500   -1.984040
  H     -0.921210   -1.242140   -2.984230
  O     -0.885520    1.737840    0.052730
  H     -1.032320    2.090180   -0.841890
  H     -1.284090    0.839590    0.017130
  O      1.737840    0.885520   -0.052730
  H      2.090180    1.032320    0.841890
  H      0.839590    1.284090   -0.017130
  O      0.741530   -1.752130    2.896280
  H      0.920500   -2.036450    1.984040
  H      1.242140   -0.921210    2.984230
  O     -0.741530    1.752130    2.896280
  H     -0.920500    2.036450    1.984040
  H     -1.242140    0.921210    2.984230

 Total Charge           Charge          ....    0
 Multiplicity           Mult            ....    1
 Number of Electrons    NEL             ....   70
 Basis Dimension        Dim             ....  301

ORBITAL ENERGIES
----------------

  NO   OCC          E(Eh)            E(eV)
   0   2.0000     -20.609018      -560.7999
   1   2.0000     -20.601422      -560.5932
   2   2.0000     -20.591531      -560.3240
   3   2.0000     -20.551296      -559.2292
   4   2.0000     -20.548623      -559.1565
   5   2.0000     -20.544261      -559.0378
   6   2.0000     -20.515245      -558.2482
   7   2.0000      -1.391932       -37.8764
   8   2.0000      -1.387279       -37.7498
   9   2.0000      -1.369372       -37.2625
  10   2.0000      -1.335406       -36.3382
  11   2.0000      -1.330467       -36.2039
  12   2.0000      -1.325037       -36.0561
  13   2.0000      -1.300094       -35.3774
  14   2.0000      -0.749804       -20.4032
  15   2.0000      -0.743781       -20.2393
  16   2.0000      -0.736533       -20.0421
  17   2.0000      -0.720221       -19.5982
  18   2.0000      -0.701733       -19.0951
  19   2.0000      -0.698760       -19.0142
  20   2.0000      -0.679844       -18.4995
  21   2.0000      -0.632698       -17.2166
  22   2.0000      -0.622845       -16.9485
  23   2.0000      -0.610934       -16.6244
  24   2.0000      -0.586406       -15.9569
  25   2.0000      -0.578313       -15.7367
  26   2.0000      -0.569639       -15.5007
  27   2.0000      -0.543978       -14.8024
  28   2.0000      -0.534720       -14.5505
  29   2.0000      -0.530536       -14.4366
  30   2.0000      -0.528359       -14.3774
  31   2.0000      -0.497701       -13.5431
  32   2.0000      -0.495706       -13.4888
  33   2.0000      -0.492193       -13.3932
  34   2.0000      -0.465124       -12.6567
  35   0.0000       0.082461         2.2439
  36   0.0000       0.114173         3.1068
  37   0.0000       0.124735         3.3942
  38   0.0000       0.147273         4.0075
  39   0.0000       0.161781         4.4023

MULLIKEN ATOMIC CHARGES
-----------------------
   0 O :   -0.743249
   1 H :    0.343036
   2 H :    0.379159
   3 O :   -0.700826
   4 H :    0.352763
   5 H :    0.369542
   6 O :   -0.702340
   7 H :    0.322356
   8 H :    0.362102
   9 O :   -0.708713
  10 H :    0.371051
  11 H :    0.363684
  12 O :   -0.719404
  13 H :    0.330041
  14 H :    0.357987
  15 O :   -0.686449
  16 H :    0.364836
  17 H :    0.364664
  18 O :   -0.733074
  19 H :    0.361985
  20 H :    0.350849
Sum of atomic charges:   -0.0000000

LOEWDIN ATOMIC CHARGES
----------------------
   0 O :   -0.342741
   1 H :    0.156646
   2 H :    0.144944
   3 O :   -0.312122
   4 H :    0.163886
   5 H :    0.191312
   6 O :   -0.345335
   7 H :    0.155245
   8 H :    0.149083
   9 O :   -0.274291
  10 H :    0.177803
  11 H :    0.180213
  12 O :   -0.361684
  13 H :    0.157883
  14 H :    0.141673
  15 O :   -0.269194
  16 H :    0.176881
  17 H :    0.176781
  18 O :   -0.355738
  19 H :    0.146419
  20 H :    0.142336

  Mayer bond orders larger than 0.100000
B(  0-O ,  1-H ) :   0.8476 B(  0-O ,  2-H ) :   0.7636 B(  3-O ,  4-H ) :   0.8413
B(  3-O ,  5-H ) :   0.8228 B(  6-O ,  7-H ) :   0.8607 B(  6-O ,  8-H ) :   0.8111
B(  9-O , 10-H ) :   0.8256 B(  9-O , 11-H ) :   0.8219 B( 12-O , 13-H ) :   0.8559
B( 12-O , 14-H ) :   0.7988 B( 15-O , 16-H ) :   0.8317 B( 15-O , 17-H ) :   0.8281
B( 18-O , 19-H ) :   0.8325 B( 18-O , 20-H ) :   0.8150

MP2 TOTAL ENERGY:     -534.239143941 Eh
FINAL SINGLE POINT ENERGY      -534.239143941094

DIPOLE MOMENT
-------------
                                X             Y             Z
Electronic contribution:      0.11520      -0.10791      -0.05041
Nuclear contribution   :      0.53476      -0.93627      -0.68611
                        -----------------------------------------
Total Dipole Moment    :      0.64996      -1.04418      -0.73652
                        -----------------------------------------
Magnitude (a.u.)       :      1.43361
Magnitude (Debye)      :      3.64394

Rotational constants in cm-1:     0.037149     0.018177     0.017177
Rotational constants in MHz :  1113.705631   544.923217   514.952995

                             ****ORCA TERMINATED NORMALLY****
TOTAL RUN TIME: 0 days 0 hours 2 minutes 17 seconds 192 msec
