                         Program Version 4.2.0 -  RELEASE  -
|  1> # 12h2o.su.etal.mol3,5,6,7,8,11
|  2> ! MP2 def2-TZVP EnGrad TightSCF
|  3>
|  4> %pal
|  5>     nprocs 6
|  6> end
|  7>
|  8> %maxcore 8000
|  9>
| 10> %scf
| 11>     ConvForced true
| 12> end
| 13>
| 14> *xyz 0 1
| 15> O  -1.752130000  -0.741530000  -2.896280000
| 16> H  -2.036450000  -0.920500000  -1.984040000
| 17> H  -0.921210000  -1.242140000  -2.984230000
| 18> O   0.885520000  -1.737840000   0.052730000
| 19> H   1.284090000  -0.839590000   0.017130000
| 20> H   1.032320000  -2.090180000  -0.841890000
| 21> O   1.737840000   0.885520000  -0.052730000
| 22> H   2.090180000   1.032320000   0.841890000
| 23> H   0.839590000   1.284090000  -0.017130000
| 24> O  -1.737840000  -0.885520000  -0.052730000
| 25> H  -2.090180000  -1.032320000   0.841890000
| 26> H  -0.839590000  -1.284090000  -0.017130000
| 27> O   1.752130000   0.741530000  -2.896280000
| 28> H   2.036450000   0.920500000  -1.984040000
| 29> H   0.921210000   1.242140000  -2.984230000
| 30> O  -0.741530000   1.752130000   2.896280000
| 31> H  -0.920500000   2.036450000   1.984040000
| 32> H  -1.242140000   0.921210000   2.984230000
| 33> *
| 34>
| 35>                          ****END OF INPUT****

CARTESIAN COORDINATES (ANGSTROEM)
---------------------------------
  O     -1.752130   -0.741530   -2.896280
  H     -2.036450   -0.920500   -1.984040
  H     -0.921210   -1.242140   -2.984230
  O      0.885520   -1.737840    0.052730
  H      1.284090   -0.839590    0.017130
  H      1.032320   -2.090180   -0.841890
  O      1.737840    0.885520   -0.052730
  H      2.090180    1.032320    0.841890
  H      0.839590    1.284090   -0.017130
  O     -1.737840   -0.885520   -0.052730
  H     -2.090180   -1.032320    0.841890
  H     -0.839590   -1.284090   -0.017130
  O      1.752130    0.741530   -2.896280
  H      2.036450    0.920500   -1.984040
  H      0.921210    1.242140   -2.984230
  O     -0.741530    1.752130    2.896280
  H     -0.920500    2.036450    1.984040
  H     -1.242140    0.921210    2.984230

 Total Charge           Charge          ....    0
 Multiplicity           Mult            ....    1
 Number of Electrons    NEL             ....   60
 Basis Dimension        Dim             ....  258

ORBITAL ENERGIES
----------------

  NO   OCC          E(Eh)            E(eV)
   0   2.0000     -20.632745      -561.4455
   1   2.0000     -20.589057      -560.2567
   2   2.0000     -20.581544      -560.0523
   3   2.0000     -20.568744      -559.7040
   4   2.0000     -20.550264      -559.2011
   5   2.0000     -20.534461      -558.7711
   6   2.0000      -1.415957       -38.5301
   7   2.0000      -1.369444       -37.2645
   8   2.0000      -1.367919       -37.2230
   9   2.0000      -1.349470       -36.7209
  10   2.0000      -1.332124       -36.2489
  11   2.0000      -1.315859       -35.8063
  12   2.0000      -0.773479       -21.0474
  13   2.0000      -0.737197       -20.0602
  14   2.0000      -0.730845       -19.8873
  15   2.0000      -0.724146       -19.7050
  16   2.0000      -0.705660       -19.2020
  17   2.0000      -0.685129       -18.6433
  18   2.0000      -0.652370       -17.7519
  19   2.0000      -0.621804       -16.9202
  20   2.0000      -0.605184       -16.4679
  21   2.0000      -0.598479       -16.2854
  22   2.0000      -0.571022       -15.5383
  23   2.0000      -0.559497       -15.2247
  24   2.0000      -0.552008       -15.0209
  25   2.0000      -0.532696       -14.4954
  26   2.0000      -0.525316       -14.2946
  27   2.0000      -0.515361       -14.0237
  28   2.0000      -0.497020       -13.5246
  29   2.0000      -0.480213       -13.0673
  30   0.0000       0.065794         1.7903
  31   0.0000       0.113604         3.0913
  32   0.0000       0.121586         3.3085
  33   0.0000       0.146764         3.9937
  34   0.0000       0.167476         4.5573

MULLIKEN ATOMIC CHARGES
-----------------------
   0 O :   -0.698685
   1 H :    0.372329
   2 H :    0.319610
   3 O :   -0.709402
   4 H :    0.371638
   5 H :    0.354528
   6 O :   -0.712844
   7 H :    0.379125
   8 H :    0.360827
   9 O :   -0.729836
  10 H :    0.332456
  11 H :    0.354860
  12 O :   -0.697802
  13 H :    0.364724
  14 H :    0.335946
  15 O :   -0.669333
  16 H :    0.332022
  17 H :    0.339836
Sum of atomic charges:   -0.0000000

LOEWDIN ATOMIC CHARGES
----------------------
   0 O :   -0.339940
   1 H :    0.153000
   2 H :    0.155243
   3 O :   -0.305485
   4 H :    0.145288
   5 H :    0.168582
   6 O :   -0.273258
   7 H :    0.181628
   8 H :    0.179085
   9 O :   -0.342958
  10 H :    0.159055
  11 H :    0.141888
  12 O :   -0.336076
  13 H :    0.148958
  14 H :    0.163526
  15 O :   -0.326335
  16 H :    0.160545
  17 H :    0.167255

  Mayer bond orders larger than 0.100000
B(  0-O ,  1-H ) :   0.8172 B(  0-O ,  2-H ) :   0.8594 B(  3-O ,  4-H ) :   0.7851
B(  3-O ,  5-H ) :   0.8383 B(  3-O , 11-H ) :   0.1051 B(  6-O ,  7-H ) :   0.8210
B(  6-O ,  8-H ) :   0.8232 B(  9-O , 10-H ) :   0.8517 B(  9-O , 11-H ) :   0.7681
B( 12-O , 13-H ) :   0.8288 B( 12-O , 14-H ) :   0.8495 B( 15-O , 16-H ) :   0.8542
B( 15-O , 17-H ) :   0.8501

MP2 TOTAL ENERGY:     -457.914321338 Eh
FINAL SINGLE POINT ENERGY      -457.914321338494

DIPOLE MOMENT
-------------
                                X             Y             Z
Electronic contribution:      0.36260       0.16587       0.08349
Nuclear contribution   :     -0.11171      -0.00057       1.46039
                        -----------------------------------------
Total Dipole Moment    :      0.25088       0.16529       1.54387
                        -----------------------------------------
Magnitude (a.u.)       :      1.57283
Magnitude (Debye)      :      3.99782

Rotational constants in cm-1:     0.045270     0.030386     0.023550
Rotational constants in MHz :  1357.171485   910.950858   706.008391

                             ****ORCA TERMINATED NORMALLY****
TOTAL RUN TIME: 0 days 0 hours 0 minutes 56 seconds 4 msec
