                         Program Version 4.2.0 -  RELEASE  -
|  1> # 12mecn.remya.etal.2.mol0,2,6
|  2> ! MP2 def2-TZVP EnGrad TightSCF
|  3>
|  4> %pal
|  5>     nprocs 6
|  6> end
|  7>
|  8> %maxcore 8000
|  9>
| 10> %scf
| 11>     ConvForced true
| 12> end
| 13>
| 14> *xyz 0 1
| 15> C  -0.869520000  -3.929380000   1.700199000
| 16> H  -0.057420000  -3.268850000   2.015352000
| 17> H  -0.697530000  -4.930670000   2.101524000
| 18> H  -1.821490000  -3.546590000   2.077146000
| 19> C  -0.916080000  -3.969960000   0.256749000
| 20> N  -0.955390000  -3.995980000  -0.909290000
| 21> C  -4.219070000  -3.477410000  -1.501740000
| 22> H  -3.251530000  -3.803540000  -1.893830000
| 23> H  -4.452920000  -2.481700000  -1.890840000
| 24> H  -4.992170000  -4.178130000  -1.824640000
| 25> C  -4.154550000  -3.418790000  -0.058340000
| 26> N  -4.091140000  -3.354840000   1.104432000
| 27> C   5.300864000  -2.920090000   1.401103000
| 28> H   5.986071000  -2.139770000   1.737487000
| 29> H   5.636642000  -3.888750000   1.778233000
| 30> H   4.307359000  -2.697240000   1.799307000
| 31> C   5.234791000  -2.933140000  -0.043290000
| 32> N   5.170868000  -2.941760000  -1.207750000
| 33> *
| 34>
| 35>                          ****END OF INPUT****

CARTESIAN COORDINATES (ANGSTROEM)
---------------------------------
  C     -0.869520   -3.929380    1.700199
  H     -0.057420   -3.268850    2.015352
  H     -0.697530   -4.930670    2.101524
  H     -1.821490   -3.546590    2.077146
  C     -0.916080   -3.969960    0.256749
  N     -0.955390   -3.995980   -0.909290
  C     -4.219070   -3.477410   -1.501740
  H     -3.251530   -3.803540   -1.893830
  H     -4.452920   -2.481700   -1.890840
  H     -4.992170   -4.178130   -1.824640
  C     -4.154550   -3.418790   -0.058340
  N     -4.091140   -3.354840    1.104432
  C      5.300864   -2.920090    1.401103
  H      5.986071   -2.139770    1.737487
  H      5.636642   -3.888750    1.778233
  H      4.307359   -2.697240    1.799307
  C      5.234791   -2.933140   -0.043290
  N      5.170868   -2.941760   -1.207750

 Total Charge           Charge          ....    0
 Multiplicity           Mult            ....    1
 Number of Electrons    NEL             ....   66
 Basis Dimension        Dim             ....  333

ORBITAL ENERGIES
----------------

  NO   OCC          E(Eh)            E(eV)
   0   2.0000     -15.573140      -423.7667
   1   2.0000     -15.571462      -423.7210
   2   2.0000     -15.571116      -423.7116
   3   2.0000     -11.286181      -307.1126
   4   2.0000     -11.283621      -307.0429
   5   2.0000     -11.282502      -307.0125
   6   2.0000     -11.279703      -306.9363
   7   2.0000     -11.273207      -306.7596
   8   2.0000     -11.271676      -306.7179
   9   2.0000      -1.218404       -33.1545
  10   2.0000      -1.214502       -33.0483
  11   2.0000      -1.213948       -33.0332
  12   2.0000      -1.044832       -28.4313
  13   2.0000      -1.037327       -28.2271
  14   2.0000      -1.033962       -28.1355
  15   2.0000      -0.702087       -19.1047
  16   2.0000      -0.695756       -18.9325
  17   2.0000      -0.691393       -18.8138
  18   2.0000      -0.634013       -17.2524
  19   2.0000      -0.631766       -17.1912
  20   2.0000      -0.631361       -17.1802
  21   2.0000      -0.624228       -16.9861
  22   2.0000      -0.621358       -16.9080
  23   2.0000      -0.614955       -16.7338
  24   2.0000      -0.559370       -15.2212
  25   2.0000      -0.555826       -15.1248
  26   2.0000      -0.555547       -15.1172
  27   2.0000      -0.460321       -12.5260
  28   2.0000      -0.459747       -12.5104
  29   2.0000      -0.457939       -12.4612
  30   2.0000      -0.457330       -12.4446
  31   2.0000      -0.456834       -12.4311
  32   2.0000      -0.455561       -12.3964
  33   0.0000       0.105353         2.8668
  34   0.0000       0.130490         3.5508
  35   0.0000       0.140987         3.8364
  36   0.0000       0.163199         4.4409
  37   0.0000       0.169918         4.6237

MULLIKEN ATOMIC CHARGES
-----------------------
   0 C :   -0.284840
   1 H :    0.160295
   2 H :    0.166546
   3 H :    0.206432
   4 C :   -0.102757
   5 N :   -0.146357
   6 C :   -0.286729
   7 H :    0.206827
   8 H :    0.166939
   9 H :    0.166746
  10 C :   -0.100202
  11 N :   -0.152901
  12 C :   -0.280145
  13 H :    0.172762
  14 H :    0.172662
  15 H :    0.167211
  16 C :   -0.145454
  17 N :   -0.087037
Sum of atomic charges:   -0.0000000

LOEWDIN ATOMIC CHARGES
----------------------
   0 C :   -0.283329
   1 H :    0.149313
   2 H :    0.151401
   3 H :    0.157186
   4 C :   -0.208768
   5 N :    0.033035
   6 C :   -0.281845
   7 H :    0.157482
   8 H :    0.153345
   9 H :    0.149954
  10 C :   -0.206641
  11 N :    0.028870
  12 C :   -0.284495
  13 H :    0.151601
  14 H :    0.151236
  15 H :    0.151503
  16 C :   -0.219393
  17 N :    0.049546

  Mayer bond orders larger than 0.100000
B(  0-C ,  1-H ) :   0.9180 B(  0-C ,  2-H ) :   0.9154 B(  0-C ,  3-H ) :   0.9011
B(  0-C ,  4-C ) :   0.9010 B(  4-C ,  5-N ) :   2.7689 B(  6-C ,  7-H ) :   0.9010
B(  6-C ,  8-H ) :   0.9143 B(  6-C ,  9-H ) :   0.9163 B(  6-C , 10-C ) :   0.9022
B( 10-C , 11-N ) :   2.7698 B( 12-C , 13-H ) :   0.9169 B( 12-C , 14-H ) :   0.9164
B( 12-C , 15-H ) :   0.9181 B( 12-C , 16-C ) :   0.9026 B( 16-C , 17-N ) :   2.8345

MP2 TOTAL ENERGY:     -397.458607101 Eh
FINAL SINGLE POINT ENERGY      -397.458607100749

DIPOLE MOMENT
-------------
                                X             Y             Z
Electronic contribution:     -0.10164      -0.01926      -3.17235
Nuclear contribution   :      0.14137       0.00252       4.64749
                        -----------------------------------------
Total Dipole Moment    :      0.03973      -0.01674       1.47513
                        -----------------------------------------
Magnitude (a.u.)       :      1.47576
Magnitude (Debye)      :      3.75109

Rotational constants in cm-1:     0.091754     0.008859     0.008221
Rotational constants in MHz :  2750.700783   265.581409   246.472475

                             ****ORCA TERMINATED NORMALLY****
TOTAL RUN TIME: 0 days 0 hours 2 minutes 49 seconds 669 msec
