                         Program Version 3.0.3 - RELEASE   -
|  1> ! B3LYP Def2-SVP def2-SVP/J RIJCOSX TightSCF Grid4 D3BJ COSMO OPT
|  2>
|  3> %pal nprocs 12 end
|  4>
|  5> %scf
|  6>         maxiter 800
|  7> end
|  8>
|  9> %cosmo
| 10>         SMD true
| 11>         solvent "WATER"
| 12> end
| 13>
| 14> * xyz  0  1
| 15>   O      1.957369    1.404327    0.469203
| 16>   H      1.310735    1.225180    1.151846
| 17>   H      2.601645    1.972121    0.891992
| 18>   O     -0.010466    0.736885    2.174392
| 19>   H     -0.791209    1.012745    1.694212
| 20>   H     -0.018136   -0.218525    2.116382
| 21>   O      0.074205   -1.952169    1.485634
| 22>   H      0.779413   -1.788816    0.859352
| 23>   H      0.328539   -2.762288    1.927509
| 24>   O     -2.061124    1.274283    0.389304
| 25>   H     -2.098687    0.359187    0.111057
| 26>   H     -2.977537    1.534898    0.481494
| 27>   O      1.894868   -1.245039   -0.361168
| 28>   H      1.357514   -1.165457   -1.149298
| 29>   H      2.096824   -0.342021   -0.116211
| 30>   O     -0.025892    1.799266   -1.425852
| 31>   H      0.729324    1.813289   -0.837903
| 32>   H     -0.784386    1.789649   -0.842048
| 33>   O      0.029549   -0.726441   -2.344141
| 34>   H      0.008540    0.204449   -2.122254
| 35>   H      0.047348   -0.744733   -3.301000
| 36>   O     -1.858510   -1.291111   -0.387372
| 37>   H     -1.294300   -1.229102   -1.158121
| 38>   H     -1.295629   -1.660576    0.292990
| 39> **                         ****END OF INPUT****
 Total Charge           Charge          ....    0
 Multiplicity           Mult            ....    1
 Number of Electrons    NEL             ....   80
Dispersion correction           -0.024475665
FINAL SINGLE POINT ENERGY      -610.803613085913
Dispersion correction            ...
Dispersion correction           -0.023996009
FINAL SINGLE POINT ENERGY      -610.812583440433
Dispersion correction            ...
Dispersion correction           -0.024368388
FINAL SINGLE POINT ENERGY      -610.813889457656
Dispersion correction            ...
FINAL SINGLE POINT ENERGY      -610.814784818577
FINAL SINGLE POINT ENERGY      -610.815133432969
FINAL SINGLE POINT ENERGY      -610.815176419921
FINAL SINGLE POINT ENERGY      -610.815266058185
FINAL SINGLE POINT ENERGY      -610.815437695502
FINAL SINGLE POINT ENERGY      -610.815551335787
FINAL SINGLE POINT ENERGY      -610.815698720094
FINAL SINGLE POINT ENERGY      -610.816242139228
FINAL SINGLE POINT ENERGY      -610.816219174710
FINAL SINGLE POINT ENERGY      -610.816225355367
FINAL SINGLE POINT ENERGY      -610.816221296910
FINAL SINGLE POINT ENERGY      -610.816207942700
FINAL SINGLE POINT ENERGY      -610.816218420815
FINAL SINGLE POINT ENERGY      -610.816188377368
Dispersion correction            ...
Dispersion correction           -0.025072263
FINAL SINGLE POINT ENERGY      -610.816184091198
Dispersion correction            ...
Dispersion correction           -0.025078311
FINAL SINGLE POINT ENERGY      -610.816192184813
Dispersion correction            ...
                    ***********************HURRAY********************

CARTESIAN COORDINATES (ANGSTROEM)
---------------------------------
  O      1.927600    1.373891    0.374945
  H      1.271893    1.195759    1.114203
  H      2.613811    1.935313    0.766793
  O      0.064680    0.764488    2.148987
  H     -0.733253    1.005713    1.621493
  H      0.058879   -0.219898    2.096669
  O     -0.007728   -1.858871    1.441200
  H      0.767379   -1.734703    0.816555
  H      0.180382   -2.669217    1.938629
  O     -1.935190    1.103940    0.346229
  H     -2.064673    0.154390    0.059185
  H     -2.826004    1.475724    0.435182
  O      1.907772   -1.291769   -0.310070
  H      1.313398   -1.158519   -1.087281
  H      2.136866   -0.364999   -0.065510
  O     -0.035806    1.978169   -1.441682
  H      0.744600    1.925066   -0.841080
  H     -0.797987    1.829682   -0.833678
  O      0.000948   -0.604234   -2.152258
  H     -0.007024    0.383321   -1.992021
  H      0.091677   -0.708853   -3.111786
  O     -1.966965   -1.465995   -0.426717
  H     -1.357623   -1.291340   -1.181748
  H     -1.347636   -1.757058    0.283761

 Multiplicity           Mult            ....    1
 Number of Electrons    NEL             ....   80
 Basis Dimension        Dim             ....  192

ORBITAL ENERGIES
----------------

  NO   OCC          E(Eh)            E(eV)
   0   2.0000     -19.134158      -520.6669
   1   2.0000     -19.133043      -520.6366
   2   2.0000     -19.132713      -520.6276
   3   2.0000     -19.130443      -520.5658
   4   2.0000     -19.115738      -520.1657
   5   2.0000     -19.114954      -520.1443
   6   2.0000     -19.114836      -520.1411
   7   2.0000     -19.113806      -520.1131
   8   2.0000      -1.004394       -27.3310
   9   2.0000      -0.990600       -26.9556
  10   2.0000      -0.989347       -26.9215
  11   2.0000      -0.987928       -26.8829
  12   2.0000      -0.968711       -26.3600
  13   2.0000      -0.968170       -26.3452
  14   2.0000      -0.966768       -26.3071
  15   2.0000      -0.953698       -25.9514
  16   2.0000      -0.527920       -14.3654
  17   2.0000      -0.526971       -14.3396
  18   2.0000      -0.524588       -14.2748
  19   2.0000      -0.521232       -14.1834
  20   2.0000      -0.507431       -13.8079
  21   2.0000      -0.506810       -13.7910
  22   2.0000      -0.505497       -13.7553
  23   2.0000      -0.498680       -13.5698
  24   2.0000      -0.438495       -11.9321
  25   2.0000      -0.408834       -11.1249
  26   2.0000      -0.402270       -10.9463
  27   2.0000      -0.401496       -10.9253
  28   2.0000      -0.376929       -10.2568
  29   2.0000      -0.375315       -10.2128
  30   2.0000      -0.372541       -10.1374
  31   2.0000      -0.343309        -9.3419
  32   2.0000      -0.313174        -8.5219
  33   2.0000      -0.311877        -8.4866
  34   2.0000      -0.311549        -8.4777
  35   2.0000      -0.309850        -8.4315
  36   2.0000      -0.301423        -8.2021
  37   2.0000      -0.300597        -8.1797
  38   2.0000      -0.299985        -8.1630
  39   2.0000      -0.299094        -8.1388
  40   0.0000       0.043625         1.1871
  41   0.0000       0.085476         2.3259
  42   0.0000       0.086018         2.3407
  43   0.0000       0.086995         2.3673
  44   0.0000       0.164790         4.4842

MULLIKEN ATOMIC CHARGES
-----------------------
   0 O :   -0.331861
   1 H :    0.159068
   2 H :    0.216697
   3 O :   -0.368178
   4 H :    0.162856
   5 H :    0.157222
   6 O :   -0.326429
   7 H :    0.160071
   8 H :    0.219162
   9 O :   -0.324245
  10 H :    0.151544
  11 H :    0.221160
  12 O :   -0.367776
  13 H :    0.160927
  14 H :    0.159099
  15 O :   -0.367834
  16 H :    0.159272
  17 H :    0.161121
  18 O :   -0.323782
  19 H :    0.148474
  20 H :    0.218866
  21 O :   -0.367832
  22 H :    0.163427
  23 H :    0.158971
Sum of atomic charges:   -0.0000000

LOEWDIN ATOMIC CHARGES
----------------------
   0 O :   -0.097995
   1 H :    0.038173
   2 H :    0.109471
   3 O :   -0.142011
   4 H :    0.040896
   5 H :    0.040668
   6 O :   -0.088019
   7 H :    0.041141
   8 H :    0.111023
   9 O :   -0.083590
  10 H :    0.044019
  11 H :    0.112320
  12 O :   -0.144446
  13 H :    0.042973
  14 H :    0.044532
  15 O :   -0.150390
  16 H :    0.041172
  17 H :    0.042032
  18 O :   -0.087787
  19 H :    0.041960
  20 H :    0.111049
  21 O :   -0.152046
  22 H :    0.044372
  23 H :    0.040480

  Mayer bond orders larger than 0.1
B(  0-O ,  1-H ) :   0.8367 B(  0-O ,  2-H ) :   0.9634 B(  0-O , 14-H ) :   0.1713
B(  0-O , 16-H ) :   0.1759 B(  1-H ,  3-O ) :   0.2432 B(  3-O ,  4-H ) :   0.9072
B(  3-O ,  5-H ) :   0.9097 B(  4-H ,  9-O ) :   0.1714 B(  5-H ,  6-O ) :   0.1767
B(  6-O ,  7-H ) :   0.8398 B(  6-O ,  8-H ) :   0.9620 B(  6-O , 23-H ) :   0.1768
B(  7-H , 12-O ) :   0.2403 B(  9-O , 10-H ) :   0.8480 B(  9-O , 11-H ) :   0.9609
B(  9-O , 17-H ) :   0.1697 B( 10-H , 21-O ) :   0.2444 B( 12-O , 13-H ) :   0.9067
B( 12-O , 14-H ) :   0.9129 B( 13-H , 18-O ) :   0.1752 B( 15-O , 16-H ) :   0.9108
B( 15-O , 17-H ) :   0.9123 B( 15-O , 19-H ) :   0.2457 B( 18-O , 19-H ) :   0.8479
B( 18-O , 20-H ) :   0.9625 B( 18-O , 22-H ) :   0.1626 B( 21-O , 22-H ) :   0.9159
B( 21-O , 23-H ) :   0.9100

Dispersion correction           -0.025080692
FINAL SINGLE POINT ENERGY      -610.816202767557

DIPOLE MOMENT
-------------
                                X             Y             Z
Electronic contribution:     -0.03627      -0.02228       0.00659
Nuclear contribution   :      0.11159       0.00095       0.04836
                        -----------------------------------------
Total Dipole Moment    :      0.07532      -0.02133       0.05496
                        -----------------------------------------
Magnitude (a.u.)       :      0.09565
Magnitude (Debye)      :      0.24312

                             ****ORCA TERMINATED NORMALLY****
TOTAL RUN TIME: 0 days 0 hours 59 minutes 45 seconds 415 msec
