                         Program Version 3.0.3 - RELEASE   -
|  1> ! B3LYP Def2-SVP def2-SVP/J RIJCOSX TightSCF Grid4 D3BJ OPT
|  2>
|  3> %pal nprocs 12 end
|  4>
|  5> %scf
|  6>         maxiter 400
|  7> end
|  8>
|  9> * xyz  0  1
| 10>   O      1.957369    1.404327    0.469203
| 11>   H      1.310735    1.225180    1.151846
| 12>   H      2.601645    1.972121    0.891992
| 13>   O     -0.010466    0.736885    2.174392
| 14>   H     -0.791209    1.012745    1.694212
| 15>   H     -0.018136   -0.218525    2.116382
| 16>   O      0.074205   -1.952169    1.485634
| 17>   H      0.779413   -1.788816    0.859352
| 18>   H      0.328539   -2.762288    1.927509
| 19>   O     -2.061124    1.274283    0.389304
| 20>   H     -2.098687    0.359187    0.111057
| 21>   H     -2.977537    1.534898    0.481494
| 22>   O      1.894868   -1.245039   -0.361168
| 23>   H      1.357514   -1.165457   -1.149298
| 24>   H      2.096824   -0.342021   -0.116211
| 25>   O     -0.025892    1.799266   -1.425852
| 26>   H      0.729324    1.813289   -0.837903
| 27>   H     -0.784386    1.789649   -0.842048
| 28>   O      0.029549   -0.726441   -2.344141
| 29>   H      0.008540    0.204449   -2.122254
| 30>   H      0.047348   -0.744733   -3.301000
| 31>   O     -1.858510   -1.291111   -0.387372
| 32>   H     -1.294300   -1.229102   -1.158121
| 33>   H     -1.295629   -1.660576    0.292990
| 34> **                         ****END OF INPUT****
 Total Charge           Charge          ....    0
 Multiplicity           Mult            ....    1
 Number of Electrons    NEL             ....   80
Dispersion correction           -0.024475665
FINAL SINGLE POINT ENERGY      -610.773824485449
Dispersion correction            ...
Dispersion correction           -0.023970216
FINAL SINGLE POINT ENERGY      -610.782765718413
Dispersion correction            ...
Dispersion correction           -0.024243599
FINAL SINGLE POINT ENERGY      -610.784810807805
Dispersion correction            ...
FINAL SINGLE POINT ENERGY      -610.786190389597
FINAL SINGLE POINT ENERGY      -610.787049725718
FINAL SINGLE POINT ENERGY      -610.787366467856
FINAL SINGLE POINT ENERGY      -610.787429414332
FINAL SINGLE POINT ENERGY      -610.787608045347
FINAL SINGLE POINT ENERGY      -610.787704722912
FINAL SINGLE POINT ENERGY      -610.787784913292
FINAL SINGLE POINT ENERGY      -610.787959891261
FINAL SINGLE POINT ENERGY      -610.787984312688
FINAL SINGLE POINT ENERGY      -610.788014965321
FINAL SINGLE POINT ENERGY      -610.788042163822
FINAL SINGLE POINT ENERGY      -610.788060442392
FINAL SINGLE POINT ENERGY      -610.788073813922
FINAL SINGLE POINT ENERGY      -610.788085555478
Dispersion correction            ...
Dispersion correction           -0.025071375
FINAL SINGLE POINT ENERGY      -610.788094811208
Dispersion correction            ...
Dispersion correction           -0.025084303
FINAL SINGLE POINT ENERGY      -610.788101123597
Dispersion correction            ...
                    ***********************HURRAY********************

CARTESIAN COORDINATES (ANGSTROEM)
---------------------------------
  O      1.916305    1.393465    0.445749
  H      1.241190    1.198416    1.178690
  H      2.589590    1.958961    0.846374
  O      0.080334    0.773453    2.169258
  H     -0.740471    1.034663    1.693845
  H      0.046334   -0.208181    2.138032
  O      0.018508   -1.859705    1.420534
  H      0.786119   -1.701615    0.776213
  H      0.225397   -2.675153    1.895696
  O     -1.950243    1.138168    0.387910
  H     -2.044177    0.176476    0.079054
  H     -2.848884    1.483827    0.469692
  O      1.868375   -1.254411   -0.304684
  H      1.336279   -1.160367   -1.126678
  H      2.112291   -0.330490   -0.073673
  O     -0.015451    1.809748   -1.470107
  H      0.758179    1.854349   -0.863849
  H     -0.781961    1.773374   -0.855298
  O      0.010261   -0.666807   -2.249896
  H      0.003153    0.323812   -2.034072
  H      0.071736   -0.731084   -3.211889
  O     -1.955640   -1.350237   -0.407338
  H     -1.366386   -1.265905   -1.189875
  H     -1.360841   -1.714758    0.286311

 Multiplicity           Mult            ....    1
 Number of Electrons    NEL             ....   80
 Basis Dimension        Dim             ....  192

ORBITAL ENERGIES
----------------

  NO   OCC          E(Eh)            E(eV)
   0   2.0000     -19.137383      -520.7547
   1   2.0000     -19.136748      -520.7374
   2   2.0000     -19.134432      -520.6744
   3   2.0000     -19.134245      -520.6693
   4   2.0000     -19.112161      -520.0684
   5   2.0000     -19.111791      -520.0583
   6   2.0000     -19.111325      -520.0456
   7   2.0000     -19.110680      -520.0280
   8   2.0000      -1.006816       -27.3969
   9   2.0000      -0.994531       -27.0626
  10   2.0000      -0.992279       -27.0013
  11   2.0000      -0.991410       -26.9776
  12   2.0000      -0.967799       -26.3351
  13   2.0000      -0.967192       -26.3186
  14   2.0000      -0.965475       -26.2719
  15   2.0000      -0.953827       -25.9549
  16   2.0000      -0.535824       -14.5805
  17   2.0000      -0.534753       -14.5514
  18   2.0000      -0.531915       -14.4741
  19   2.0000      -0.530436       -14.4339
  20   2.0000      -0.507641       -13.8136
  21   2.0000      -0.506728       -13.7888
  22   2.0000      -0.503245       -13.6940
  23   2.0000      -0.500349       -13.6152
  24   2.0000      -0.440405       -11.9840
  25   2.0000      -0.404827       -11.0159
  26   2.0000      -0.403754       -10.9867
  27   2.0000      -0.401748       -10.9321
  28   2.0000      -0.371982       -10.1222
  29   2.0000      -0.371393       -10.1061
  30   2.0000      -0.370825       -10.0907
  31   2.0000      -0.336295        -9.1510
  32   2.0000      -0.315235        -8.5780
  33   2.0000      -0.314184        -8.5494
  34   2.0000      -0.312624        -8.5069
  35   2.0000      -0.311452        -8.4750
  36   2.0000      -0.297601        -8.0981
  37   2.0000      -0.294130        -8.0037
  38   2.0000      -0.293662        -7.9910
  39   2.0000      -0.293076        -7.9750
  40   0.0000       0.031188         0.8487
  41   0.0000       0.062420         1.6985
  42   0.0000       0.062660         1.7051
  43   0.0000       0.063464         1.7269
  44   0.0000       0.147727         4.0198

MULLIKEN ATOMIC CHARGES
-----------------------
   0 O :   -0.326552
   1 H :    0.163197
   2 H :    0.175956
   3 O :   -0.319504
   4 H :    0.156178
   5 H :    0.150171
   6 O :   -0.324005
   7 H :    0.163501
   8 H :    0.177700
   9 O :   -0.325502
  10 H :    0.159592
  11 H :    0.178484
  12 O :   -0.322552
  13 H :    0.152884
  14 H :    0.153028
  15 O :   -0.316812
  16 H :    0.154058
  17 H :    0.149522
  18 O :   -0.325157
  19 H :    0.160235
  20 H :    0.175794
  21 O :   -0.315253
  22 H :    0.152782
  23 H :    0.152258
Sum of atomic charges:   -0.0000000

LOEWDIN ATOMIC CHARGES
----------------------
   0 O :   -0.106437
   1 H :    0.032874
   2 H :    0.083071
   3 O :   -0.098278
   4 H :    0.042066
   5 H :    0.041511
   6 O :   -0.099970
   7 H :    0.034492
   8 H :    0.083568
   9 O :   -0.100571
  10 H :    0.036777
  11 H :    0.083968
  12 O :   -0.099612
  13 H :    0.042153
  14 H :    0.042988
  15 O :   -0.098170
  16 H :    0.043407
  17 H :    0.041890
  18 O :   -0.105889
  19 H :    0.032943
  20 H :    0.082832
  21 O :   -0.100909
  22 H :    0.044484
  23 H :    0.040810

  Mayer bond orders larger than 0.1
B(  0-O ,  1-H ) :   0.8148 B(  0-O ,  2-H ) :   0.9822 B(  0-O , 14-H ) :   0.1636
B(  0-O , 16-H ) :   0.1634 B(  1-H ,  3-O ) :   0.2636 B(  3-O ,  4-H ) :   0.9170
B(  3-O ,  5-H ) :   0.9207 B(  4-H ,  9-O ) :   0.1617 B(  5-H ,  6-O ) :   0.1643
B(  6-O ,  7-H ) :   0.8158 B(  6-O ,  8-H ) :   0.9816 B(  6-O , 23-H ) :   0.1669
B(  7-H , 12-O ) :   0.2624 B(  9-O , 10-H ) :   0.8174 B(  9-O , 11-H ) :   0.9813
B(  9-O , 17-H ) :   0.1629 B( 10-H , 21-O ) :   0.2693 B( 12-O , 13-H ) :   0.9161
B( 12-O , 14-H ) :   0.9189 B( 13-H , 18-O ) :   0.1670 B( 15-O , 16-H ) :   0.9189
B( 15-O , 17-H ) :   0.9214 B( 15-O , 19-H ) :   0.2651 B( 18-O , 19-H ) :   0.8179
B( 18-O , 20-H ) :   0.9828 B( 18-O , 22-H ) :   0.1556 B( 21-O , 22-H ) :   0.9251
B( 21-O , 23-H ) :   0.9181

Dispersion correction           -0.025095295
FINAL SINGLE POINT ENERGY      -610.788106279039

DIPOLE MOMENT
-------------
                                X             Y             Z
Electronic contribution:     -0.03173      -0.01109       0.00742
Nuclear contribution   :      0.06879       0.04077       0.02141
                        -----------------------------------------
Total Dipole Moment    :      0.03706       0.02967       0.02883
                        -----------------------------------------
Magnitude (a.u.)       :      0.05554
Magnitude (Debye)      :      0.14118

                             ****ORCA TERMINATED NORMALLY****
TOTAL RUN TIME: 0 days 0 hours 30 minutes 14 seconds 342 msec
