                         Program Version 3.0.3 - RELEASE   -
|  1> ! BP86 Def2-SVP TightSCF Opt D3BJ
|  2>
|  3> %pal nprocs 12 end
|  4>
|  5> %scf
|  6>         maxiter 800
|  7> end
|  8>
|  9> * xyz  0  1
| 10>   O      1.957369    1.404327    0.469203
| 11>   H      1.310735    1.225180    1.151846
| 12>   H      2.601645    1.972121    0.891992
| 13>   O     -0.010466    0.736885    2.174392
| 14>   H     -0.791209    1.012745    1.694212
| 15>   H     -0.018136   -0.218525    2.116382
| 16>   O      0.074205   -1.952169    1.485634
| 17>   H      0.779413   -1.788816    0.859352
| 18>   H      0.328539   -2.762288    1.927509
| 19>   O     -2.061124    1.274283    0.389304
| 20>   H     -2.098687    0.359187    0.111057
| 21>   H     -2.977537    1.534898    0.481494
| 22>   O      1.894868   -1.245039   -0.361168
| 23>   H      1.357514   -1.165457   -1.149298
| 24>   H      2.096824   -0.342021   -0.116211
| 25>   O     -0.025892    1.799266   -1.425852
| 26>   H      0.729324    1.813289   -0.837903
| 27>   H     -0.784386    1.789649   -0.842048
| 28>   O      0.029549   -0.726441   -2.344141
| 29>   H      0.008540    0.204449   -2.122254
| 30>   H      0.047348   -0.744733   -3.301000
| 31>   O     -1.858510   -1.291111   -0.387372
| 32>   H     -1.294300   -1.229102   -1.158121
| 33>   H     -1.295629   -1.660576    0.292990
| 34> **                         ****END OF INPUT****
 Total Charge           Charge          ....    0
 Multiplicity           Mult            ....    1
 Number of Electrons    NEL             ....   80
Dispersion correction           -0.022545585
FINAL SINGLE POINT ENERGY      -611.080504515336
Dispersion correction            ...
Dispersion correction           -0.022135072
FINAL SINGLE POINT ENERGY      -611.096462578693
Dispersion correction            ...
Dispersion correction           -0.022328245
FINAL SINGLE POINT ENERGY      -611.100282904633
Dispersion correction            ...
FINAL SINGLE POINT ENERGY      -611.102714695337
FINAL SINGLE POINT ENERGY      -611.104620962517
FINAL SINGLE POINT ENERGY      -611.106051138684
FINAL SINGLE POINT ENERGY      -611.106986129730
FINAL SINGLE POINT ENERGY      -611.107457198657
FINAL SINGLE POINT ENERGY      -611.107581881223
FINAL SINGLE POINT ENERGY      -611.107695052273
FINAL SINGLE POINT ENERGY      -611.108559967693
FINAL SINGLE POINT ENERGY      -611.108637114114
FINAL SINGLE POINT ENERGY      -611.108699291062
FINAL SINGLE POINT ENERGY      -611.108804314412
FINAL SINGLE POINT ENERGY      -611.108901815968
FINAL SINGLE POINT ENERGY      -611.108975605730
FINAL SINGLE POINT ENERGY      -611.109009984556
Dispersion correction            ...
Dispersion correction           -0.023913629
FINAL SINGLE POINT ENERGY      -611.109021586432
Dispersion correction            ...
Dispersion correction           -0.023912128
FINAL SINGLE POINT ENERGY      -611.109026592836
Dispersion correction            ...
                    ***********************HURRAY********************

CARTESIAN COORDINATES (ANGSTROEM)
---------------------------------
  O      1.815091    1.292341    0.442395
  H      1.129036    1.130352    1.221038
  H      2.515448    1.862818    0.807855
  O      0.031148    0.778502    2.189036
  H     -0.779439    1.033276    1.661463
  H      0.014450   -0.218928    2.113460
  O      0.077710   -1.798143    1.383888
  H      0.869013   -1.666267    0.705948
  H      0.269492   -2.619627    1.871320
  O     -1.909225    1.168677    0.346938
  H     -1.999747    0.166439    0.048641
  H     -2.817556    1.499979    0.468441
  O      1.892140   -1.294594   -0.332487
  H      1.319342   -1.178621   -1.144023
  H      2.085927   -0.345171   -0.084439
  O     -0.021535    1.792653   -1.479193
  H      0.749753    1.791824   -0.842505
  H     -0.802899    1.768221   -0.855198
  O      0.015651   -0.661455   -2.171771
  H      0.000187    0.369961   -1.975743
  H      0.038349   -0.758027   -3.141303
  O     -1.906511   -1.276891   -0.380647
  H     -1.297571   -1.199700   -1.170803
  H     -1.288258   -1.637618    0.317687

 Multiplicity           Mult            ....    1
 Number of Electrons    NEL             ....   80
 Basis Dimension        Dim             ....  192

ORBITAL ENERGIES
----------------

  NO   OCC          E(Eh)            E(eV)
   0   2.0000     -18.781789      -511.0785
   1   2.0000     -18.781579      -511.0727
   2   2.0000     -18.781375      -511.0672
   3   2.0000     -18.780894      -511.0541
   4   2.0000     -18.759526      -510.4727
   5   2.0000     -18.759302      -510.4666
   6   2.0000     -18.759107      -510.4612
   7   2.0000     -18.759021      -510.4589
   8   2.0000      -0.922688       -25.1076
   9   2.0000      -0.907844       -24.7037
  10   2.0000      -0.904877       -24.6230
  11   2.0000      -0.904528       -24.6135
  12   2.0000      -0.882043       -24.0016
  13   2.0000      -0.881944       -23.9989
  14   2.0000      -0.878813       -23.9137
  15   2.0000      -0.864879       -23.5346
  16   2.0000      -0.481631       -13.1058
  17   2.0000      -0.477899       -13.0043
  18   2.0000      -0.477634       -12.9971
  19   2.0000      -0.477227       -12.9860
  20   2.0000      -0.453681       -12.3453
  21   2.0000      -0.453122       -12.3301
  22   2.0000      -0.447602       -12.1799
  23   2.0000      -0.447377       -12.1737
  24   2.0000      -0.397340       -10.8122
  25   2.0000      -0.357325        -9.7233
  26   2.0000      -0.355423        -9.6715
  27   2.0000      -0.354939        -9.6584
  28   2.0000      -0.324779        -8.8377
  29   2.0000      -0.324489        -8.8298
  30   2.0000      -0.322244        -8.7687
  31   2.0000      -0.285249        -7.7620
  32   2.0000      -0.264825        -7.2063
  33   2.0000      -0.264474        -7.1967
  34   2.0000      -0.263190        -7.1618
  35   2.0000      -0.261646        -7.1198
  36   2.0000      -0.249225        -6.7818
  37   2.0000      -0.246371        -6.7041
  38   2.0000      -0.246280        -6.7016
  39   2.0000      -0.245033        -6.6677
  40   0.0000       0.010688         0.2908
  41   0.0000       0.042457         1.1553
  42   0.0000       0.042893         1.1672
  43   0.0000       0.043034         1.1710
  44   0.0000       0.126652         3.4464

MULLIKEN ATOMIC CHARGES
-----------------------
   0 O :   -0.338900
   1 H :    0.162930
   2 H :    0.183140
   3 O :   -0.304518
   4 H :    0.150928
   5 H :    0.148410
   6 O :   -0.340339
   7 H :    0.164291
   8 H :    0.182701
   9 O :   -0.342804
  10 H :    0.164544
  11 H :    0.183712
  12 O :   -0.305136
  13 H :    0.149907
  14 H :    0.147426
  15 O :   -0.301968
  16 H :    0.148667
  17 H :    0.149975
  18 O :   -0.337858
  19 H :    0.160486
  20 H :    0.182922
  21 O :   -0.304376
  22 H :    0.147000
  23 H :    0.148861
Sum of atomic charges:   -0.0000000

LOEWDIN ATOMIC CHARGES
----------------------
   0 O :   -0.105156
   1 H :    0.027646
   2 H :    0.084409
   3 O :   -0.083920
   4 H :    0.038620
   5 H :    0.038427
   6 O :   -0.105177
   7 H :    0.027631
   8 H :    0.084236
   9 O :   -0.105238
  10 H :    0.028584
  11 H :    0.084791
  12 O :   -0.083639
  13 H :    0.038380
  14 H :    0.038003
  15 O :   -0.082859
  16 H :    0.038327
  17 H :    0.038799
  18 O :   -0.103590
  19 H :    0.027188
  20 H :    0.084270
  21 O :   -0.085193
  22 H :    0.037697
  23 H :    0.037765

  Mayer bond orders larger than 0.1
B(  0-O ,  1-H ) :   0.7587 B(  0-O ,  2-H ) :   0.9764 B(  0-O , 14-H ) :   0.1923
B(  0-O , 16-H ) :   0.1914 B(  1-H ,  3-O ) :   0.3179 B(  3-O ,  4-H ) :   0.8958
B(  3-O ,  5-H ) :   0.8982 B(  4-H ,  9-O ) :   0.1904 B(  5-H ,  6-O ) :   0.1893
B(  6-O ,  7-H ) :   0.7592 B(  6-O ,  8-H ) :   0.9768 B(  6-O , 23-H ) :   0.1921
B(  7-H , 12-O ) :   0.3168 B(  9-O , 10-H ) :   0.7594 B(  9-O , 11-H ) :   0.9763
B(  9-O , 17-H ) :   0.1871 B( 10-H , 21-O ) :   0.3176 B( 12-O , 13-H ) :   0.8963
B( 12-O , 14-H ) :   0.8958 B( 13-H , 18-O ) :   0.1909 B( 15-O , 16-H ) :   0.8964
B( 15-O , 17-H ) :   0.8984 B( 15-O , 19-H ) :   0.3190 B( 18-O , 19-H ) :   0.7594
B( 18-O , 20-H ) :   0.9772 B( 18-O , 22-H ) :   0.1903 B( 21-O , 22-H ) :   0.8975
B( 21-O , 23-H ) :   0.8964

Dispersion correction           -0.023911544
FINAL SINGLE POINT ENERGY      -611.109032045031

DIPOLE MOMENT
-------------
                                X             Y             Z
Electronic contribution:     -0.00178       0.00870      -0.00551
Nuclear contribution   :      0.01381      -0.00272       0.00459
                        -----------------------------------------
Total Dipole Moment    :      0.01203       0.00598      -0.00091
                        -----------------------------------------
Magnitude (a.u.)       :      0.01346
Magnitude (Debye)      :      0.03422

                             ****ORCA TERMINATED NORMALLY****
TOTAL RUN TIME: 0 days 0 hours 19 minutes 8 seconds 783 msec
