                         Program Version 4.2.0 -  RELEASE  -
|  1> # 12h2o.su.etal.mol1,2,3,6,8
|  2> ! MP2 def2-TZVP EnGrad TightSCF
|  3>
|  4> %pal
|  5>     nprocs 6
|  6> end
|  7>
|  8> %maxcore 8000
|  9>
| 10> %scf
| 11>     ConvForced true
| 12> end
| 13>
| 14> *xyz 0 1
| 15> O  -1.794470000  -0.923410000   2.768350000
| 16> H  -2.338250000  -1.359750000   3.430940000
| 17> H  -0.879480000  -1.303000000   2.865760000
| 18> O   0.923410000  -1.794470000  -2.768350000
| 19> H   1.359750000  -2.338250000  -3.430940000
| 20> H   1.303000000  -0.879480000  -2.865760000
| 21> O  -1.752130000  -0.741530000  -2.896280000
| 22> H  -2.036450000  -0.920500000  -1.984040000
| 23> H  -0.921210000  -1.242140000  -2.984230000
| 24> O   1.737840000   0.885520000  -0.052730000
| 25> H   2.090180000   1.032320000   0.841890000
| 26> H   0.839590000   1.284090000  -0.017130000
| 27> O   1.752130000   0.741530000  -2.896280000
| 28> H   2.036450000   0.920500000  -1.984040000
| 29> H   0.921210000   1.242140000  -2.984230000
| 30> *
| 31>
| 32>                          ****END OF INPUT****

CARTESIAN COORDINATES (ANGSTROEM)
---------------------------------
  O     -1.794470   -0.923410    2.768350
  H     -2.338250   -1.359750    3.430940
  H     -0.879480   -1.303000    2.865760
  O      0.923410   -1.794470   -2.768350
  H      1.359750   -2.338250   -3.430940
  H      1.303000   -0.879480   -2.865760
  O     -1.752130   -0.741530   -2.896280
  H     -2.036450   -0.920500   -1.984040
  H     -0.921210   -1.242140   -2.984230
  O      1.737840    0.885520   -0.052730
  H      2.090180    1.032320    0.841890
  H      0.839590    1.284090   -0.017130
  O      1.752130    0.741530   -2.896280
  H      2.036450    0.920500   -1.984040
  H      0.921210    1.242140   -2.984230

 Total Charge           Charge          ....    0
 Multiplicity           Mult            ....    1
 Number of Electrons    NEL             ....   50
 Basis Dimension        Dim             ....  215

ORBITAL ENERGIES
----------------

  NO   OCC          E(Eh)            E(eV)
   0   2.0000     -20.596863      -560.4691
   1   2.0000     -20.571167      -559.7699
   2   2.0000     -20.570066      -559.7400
   3   2.0000     -20.531307      -558.6853
   4   2.0000     -20.520511      -558.3915
   5   2.0000      -1.376276       -37.4504
   6   2.0000      -1.357784       -36.9472
   7   2.0000      -1.346489       -36.6398
   8   2.0000      -1.316356       -35.8199
   9   2.0000      -1.301235       -35.4084
  10   2.0000      -0.739658       -20.1271
  11   2.0000      -0.717678       -19.5290
  12   2.0000      -0.714979       -19.4556
  13   2.0000      -0.699465       -19.0334
  14   2.0000      -0.670525       -18.2459
  15   2.0000      -0.624544       -16.9947
  16   2.0000      -0.593941       -16.1620
  17   2.0000      -0.582805       -15.8589
  18   2.0000      -0.563567       -15.3354
  19   2.0000      -0.540676       -14.7126
  20   2.0000      -0.538522       -14.6539
  21   2.0000      -0.514413       -13.9979
  22   2.0000      -0.504890       -13.7388
  23   2.0000      -0.480404       -13.0725
  24   2.0000      -0.468212       -12.7407
  25   0.0000       0.091109         2.4792
  26   0.0000       0.124227         3.3804
  27   0.0000       0.145986         3.9725
  28   0.0000       0.170404         4.6369
  29   0.0000       0.182871         4.9762

MULLIKEN ATOMIC CHARGES
-----------------------
   0 O :   -0.685755
   1 H :    0.342769
   2 H :    0.342971
   3 O :   -0.737904
   4 H :    0.334319
   5 H :    0.382644
   6 O :   -0.718963
   7 H :    0.329457
   8 H :    0.361688
   9 O :   -0.695240
  10 H :    0.353716
  11 H :    0.353233
  12 O :   -0.700384
  13 H :    0.385686
  14 H :    0.351763
Sum of atomic charges:   -0.0000000

LOEWDIN ATOMIC CHARGES
----------------------
   0 O :   -0.340518
   1 H :    0.159667
   2 H :    0.180788
   3 O :   -0.340009
   4 H :    0.152460
   5 H :    0.145857
   6 O :   -0.354596
   7 H :    0.159584
   8 H :    0.146991
   9 O :   -0.317697
  10 H :    0.173286
  11 H :    0.178989
  12 O :   -0.275689
  13 H :    0.159626
  14 H :    0.171263

  Mayer bond orders larger than 0.100000
B(  0-O ,  1-H ) :   0.8511 B(  0-O ,  2-H ) :   0.8453 B(  3-O ,  4-H ) :   0.8521
B(  3-O ,  5-H ) :   0.7588 B(  6-O ,  7-H ) :   0.8577 B(  6-O ,  8-H ) :   0.8035
B(  9-O , 10-H ) :   0.8409 B(  9-O , 11-H ) :   0.8370 B( 12-O , 13-H ) :   0.8023
B( 12-O , 14-H ) :   0.8376

MP2 TOTAL ENERGY:     -381.593737380 Eh
FINAL SINGLE POINT ENERGY      -381.593737380205

DIPOLE MOMENT
-------------
                                X             Y             Z
Electronic contribution:      0.22594       0.21964      -0.12720
Nuclear contribution   :      0.53373       0.08378       2.14649
                        -----------------------------------------
Total Dipole Moment    :      0.75968       0.30342       2.01929
                        -----------------------------------------
Magnitude (a.u.)       :      2.17869
Magnitude (Debye)      :      5.53779

Rotational constants in cm-1:     0.060058     0.029524     0.022648
Rotational constants in MHz :  1800.489845   885.121004   678.966916

                             ****ORCA TERMINATED NORMALLY****
TOTAL RUN TIME: 0 days 0 hours 0 minutes 39 seconds 248 msec
