                         Program Version 4.2.0 -  RELEASE  -
|  1> # 12mecn.remya.etal.2.mol6,9
|  2> ! MP2 def2-TZVP EnGrad TightSCF
|  3>
|  4> %pal
|  5>     nprocs 6
|  6> end
|  7>
|  8> %maxcore 8000
|  9>
| 10> %scf
| 11>     ConvForced true
| 12> end
| 13>
| 14> *xyz 0 1
| 15> C   5.300864000  -2.920090000   1.401103000
| 16> H   5.986071000  -2.139770000   1.737487000
| 17> H   5.636642000  -3.888750000   1.778233000
| 18> H   4.307359000  -2.697240000   1.799307000
| 19> C   5.234791000  -2.933140000  -0.043290000
| 20> N   5.170868000  -2.941760000  -1.207750000
| 21> C   0.923766000   4.000693000  -1.575910000
| 22> H   0.011949000   4.478423000  -1.939550000
| 23> H   0.947903000   2.966558000  -1.929960000
| 24> H   1.805950000   4.519548000  -1.956520000
| 25> C   0.942834000   3.994846000  -0.131200000
| 26> N   0.960035000   3.982544000   1.035639000
| 27> *
| 28>
| 29>                          ****END OF INPUT****

CARTESIAN COORDINATES (ANGSTROEM)
---------------------------------
  C      5.300864   -2.920090    1.401103
  H      5.986071   -2.139770    1.737487
  H      5.636642   -3.888750    1.778233
  H      4.307359   -2.697240    1.799307
  C      5.234791   -2.933140   -0.043290
  N      5.170868   -2.941760   -1.207750
  C      0.923766    4.000693   -1.575910
  H      0.011949    4.478423   -1.939550
  H      0.947903    2.966558   -1.929960
  H      1.805950    4.519548   -1.956520
  C      0.942834    3.994846   -0.131200
  N      0.960035    3.982544    1.035639

 Total Charge           Charge          ....    0
 Multiplicity           Mult            ....    1
 Number of Electrons    NEL             ....   44
 Basis Dimension        Dim             ....  222

ORBITAL ENERGIES
----------------

  NO   OCC          E(Eh)            E(eV)
   0   2.0000     -15.573450      -423.7751
   1   2.0000     -15.573390      -423.7735
   2   2.0000     -11.284258      -307.0603
   3   2.0000     -11.284123      -307.0566
   4   2.0000     -11.280655      -306.9622
   5   2.0000     -11.280579      -306.9602
   6   2.0000      -1.215218       -33.0678
   7   2.0000      -1.214697       -33.0536
   8   2.0000      -1.043965       -28.4077
   9   2.0000      -1.043545       -28.3963
  10   2.0000      -0.700965       -19.0742
  11   2.0000      -0.700164       -19.0524
  12   2.0000      -0.633648       -17.2424
  13   2.0000      -0.632389       -17.2082
  14   2.0000      -0.629625       -17.1330
  15   2.0000      -0.629599       -17.1323
  16   2.0000      -0.556590       -15.1456
  17   2.0000      -0.556311       -15.1380
  18   2.0000      -0.458569       -12.4783
  19   2.0000      -0.458194       -12.4681
  20   2.0000      -0.457947       -12.4614
  21   2.0000      -0.457381       -12.4460
  22   0.0000       0.119727         3.2579
  23   0.0000       0.120214         3.2712
  24   0.0000       0.171471         4.6660
  25   0.0000       0.171659         4.6711
  26   0.0000       0.172126         4.6838

MULLIKEN ATOMIC CHARGES
-----------------------
   0 C :   -0.280072
   1 H :    0.172800
   2 H :    0.172182
   3 H :    0.173667
   4 C :   -0.145770
   5 N :   -0.092808
   6 C :   -0.278715
   7 H :    0.172039
   8 H :    0.174063
   9 H :    0.172437
  10 C :   -0.145661
  11 N :   -0.094163
Sum of atomic charges:    0.0000000

LOEWDIN ATOMIC CHARGES
----------------------
   0 C :   -0.283333
   1 H :    0.151940
   2 H :    0.151424
   3 H :    0.153695
   4 C :   -0.218566
   5 N :    0.044838
   6 C :   -0.283051
   7 H :    0.151594
   8 H :    0.154138
   9 H :    0.152186
  10 C :   -0.219155
  11 N :    0.044288

  Mayer bond orders larger than 0.100000
B(  0-C ,  1-H ) :   0.9165 B(  0-C ,  2-H ) :   0.9161 B(  0-C ,  3-H ) :   0.9162
B(  0-C ,  4-C ) :   0.9026 B(  4-C ,  5-N ) :   2.8385 B(  6-C ,  7-H ) :   0.9162
B(  6-C ,  8-H ) :   0.9164 B(  6-C ,  9-H ) :   0.9162 B(  6-C , 10-C ) :   0.9016
B( 10-C , 11-N ) :   2.8381

MP2 TOTAL ENERGY:     -264.966873252 Eh
FINAL SINGLE POINT ENERGY      -264.966873252268

DIPOLE MOMENT
-------------
                                X             Y             Z
Electronic contribution:     -0.09381      -0.03034      -0.00967
Nuclear contribution   :      0.14755       0.05104       0.00882
                        -----------------------------------------
Total Dipole Moment    :      0.05374       0.02070      -0.00085
                        -----------------------------------------
Magnitude (a.u.)       :      0.05760
Magnitude (Debye)      :      0.14640

Rotational constants in cm-1:     0.154845     0.012280     0.011428
Rotational constants in MHz :  4642.123407   368.152848   342.593046

                             ****ORCA TERMINATED NORMALLY****
TOTAL RUN TIME: 0 days 0 hours 1 minutes 15 seconds 664 msec
