                         Program Version 4.2.0 -  RELEASE  -
|  1> # 12mecn.remya.etal.2.mol4,5,9
|  2> ! MP2 def2-TZVP EnGrad TightSCF
|  3>
|  4> %pal
|  5>     nprocs 6
|  6> end
|  7>
|  8> %maxcore 8000
|  9>
| 10> %scf
| 11>     ConvForced true
| 12> end
| 13>
| 14> *xyz 0 1
| 15> C  -1.509690000  -0.693960000  -1.610140000
| 16> H  -1.327010000  -1.692700000  -2.017370000
| 17> H  -0.742170000  -0.000650000  -1.964400000
| 18> H  -2.491920000  -0.334310000  -1.929350000
| 19> C  -1.473570000  -0.748120000  -0.167200000
| 20> N  -1.447490000  -0.793720000   0.998938000
| 21> C  -1.955700000   2.515080000   1.698463000
| 22> H  -2.923830000   2.883163000   2.049269000
| 23> H  -1.154850000   3.171830000   2.050990000
| 24> H  -1.790380000   1.506115000   2.087896000
| 25> C  -1.948230000   2.482156000   0.253672000
| 26> N  -1.937550000   2.462523000  -0.913150000
| 27> C   0.923766000   4.000693000  -1.575910000
| 28> H   0.011949000   4.478423000  -1.939550000
| 29> H   0.947903000   2.966558000  -1.929960000
| 30> H   1.805950000   4.519548000  -1.956520000
| 31> C   0.942834000   3.994846000  -0.131200000
| 32> N   0.960035000   3.982544000   1.035639000
| 33> *
| 34>
| 35>                          ****END OF INPUT****

CARTESIAN COORDINATES (ANGSTROEM)
---------------------------------
  C     -1.509690   -0.693960   -1.610140
  H     -1.327010   -1.692700   -2.017370
  H     -0.742170   -0.000650   -1.964400
  H     -2.491920   -0.334310   -1.929350
  C     -1.473570   -0.748120   -0.167200
  N     -1.447490   -0.793720    0.998938
  C     -1.955700    2.515080    1.698463
  H     -2.923830    2.883163    2.049269
  H     -1.154850    3.171830    2.050990
  H     -1.790380    1.506115    2.087896
  C     -1.948230    2.482156    0.253672
  N     -1.937550    2.462523   -0.913150
  C      0.923766    4.000693   -1.575910
  H      0.011949    4.478423   -1.939550
  H      0.947903    2.966558   -1.929960
  H      1.805950    4.519548   -1.956520
  C      0.942834    3.994846   -0.131200
  N      0.960035    3.982544    1.035639

 Total Charge           Charge          ....    0
 Multiplicity           Mult            ....    1
 Number of Electrons    NEL             ....   66
 Basis Dimension        Dim             ....  333

ORBITAL ENERGIES
----------------

  NO   OCC          E(Eh)            E(eV)
   0   2.0000     -15.572255      -423.7426
   1   2.0000     -15.570508      -423.6951
   2   2.0000     -15.569089      -423.6565
   3   2.0000     -11.284315      -307.0618
   4   2.0000     -11.283534      -307.0406
   5   2.0000     -11.281583      -306.9875
   6   2.0000     -11.277197      -306.8681
   7   2.0000     -11.275837      -306.8311
   8   2.0000     -11.259741      -306.3931
   9   2.0000      -1.219089       -33.1731
  10   2.0000      -1.215626       -33.0789
  11   2.0000      -1.212835       -33.0029
  12   2.0000      -1.039194       -28.2779
  13   2.0000      -1.037396       -28.2290
  14   2.0000      -1.026293       -27.9269
  15   2.0000      -0.696912       -18.9639
  16   2.0000      -0.693709       -18.8768
  17   2.0000      -0.684228       -18.6188
  18   2.0000      -0.631425       -17.1819
  19   2.0000      -0.629456       -17.1284
  20   2.0000      -0.624758       -17.0005
  21   2.0000      -0.622787       -16.9469
  22   2.0000      -0.612668       -16.6715
  23   2.0000      -0.609186       -16.5768
  24   2.0000      -0.560431       -15.2501
  25   2.0000      -0.556491       -15.1429
  26   2.0000      -0.555306       -15.1106
  27   2.0000      -0.462480       -12.5847
  28   2.0000      -0.460865       -12.5408
  29   2.0000      -0.458916       -12.4877
  30   2.0000      -0.456628       -12.4255
  31   2.0000      -0.454560       -12.3692
  32   2.0000      -0.452909       -12.3243
  33   0.0000       0.112236         3.0541
  34   0.0000       0.143141         3.8951
  35   0.0000       0.154476         4.2035
  36   0.0000       0.164471         4.4755
  37   0.0000       0.172834         4.7031

MULLIKEN ATOMIC CHARGES
-----------------------
   0 C :   -0.252116
   1 H :    0.173075
   2 H :    0.166347
   3 H :    0.176301
   4 C :   -0.124903
   5 N :   -0.138593
   6 C :   -0.292692
   7 H :    0.160736
   8 H :    0.199221
   9 H :    0.200067
  10 C :   -0.085759
  11 N :   -0.183559
  12 C :   -0.258119
  13 H :    0.180921
  14 H :    0.163947
  15 H :    0.174042
  16 C :   -0.116963
  17 N :   -0.141954
Sum of atomic charges:    0.0000000

LOEWDIN ATOMIC CHARGES
----------------------
   0 C :   -0.285003
   1 H :    0.150087
   2 H :    0.152902
   3 H :    0.156757
   4 C :   -0.212616
   5 N :    0.033971
   6 C :   -0.280750
   7 H :    0.150199
   8 H :    0.156467
   9 H :    0.157599
  10 C :   -0.203187
  11 N :    0.023306
  12 C :   -0.284011
  13 H :    0.155646
  14 H :    0.153716
  15 H :    0.149890
  16 C :   -0.210095
  17 N :    0.035124

  Mayer bond orders larger than 0.100000
B(  0-C ,  1-H ) :   0.9109 B(  0-C ,  2-H ) :   0.9149 B(  0-C ,  3-H ) :   0.9134
B(  0-C ,  4-C ) :   0.9107 B(  4-C ,  5-N ) :   2.7789 B(  6-C ,  7-H ) :   0.9140
B(  6-C ,  8-H ) :   0.9027 B(  6-C ,  9-H ) :   0.9034 B(  6-C , 10-C ) :   0.8945
B( 10-C , 11-N ) :   2.7551 B( 12-C , 13-H ) :   0.9118 B( 12-C , 14-H ) :   0.9169
B( 12-C , 15-H ) :   0.9115 B( 12-C , 16-C ) :   0.9110 B( 16-C , 17-N ) :   2.7690

MP2 TOTAL ENERGY:     -397.466941420 Eh
FINAL SINGLE POINT ENERGY      -397.466941419753

DIPOLE MOMENT
-------------
                                X             Y             Z
Electronic contribution:      0.14466      -0.16360       3.15854
Nuclear contribution   :     -0.19757       0.26803      -4.63029
                        -----------------------------------------
Total Dipole Moment    :     -0.05291       0.10442      -1.47174
                        -----------------------------------------
Magnitude (a.u.)       :      1.47639
Magnitude (Debye)      :      3.75269

Rotational constants in cm-1:     0.061187     0.025042     0.021815
Rotational constants in MHz :  1834.343273   750.744890   654.006962

                             ****ORCA TERMINATED NORMALLY****
TOTAL RUN TIME: 0 days 0 hours 7 minutes 26 seconds 342 msec
