                         Program Version 4.2.0 -  RELEASE  -
|  1> # 12h2o.su.etal.mol5,7,9
|  2> ! MP2 def2-TZVP EnGrad TightSCF
|  3>
|  4> %pal
|  5>     nprocs 6
|  6> end
|  7>
|  8> %maxcore 8000
|  9>
| 10> %scf
| 11>     ConvForced true
| 12> end
| 13>
| 14> *xyz 0 1
| 15> O   0.885520000  -1.737840000   0.052730000
| 16> H   1.284090000  -0.839590000   0.017130000
| 17> H   1.032320000  -2.090180000  -0.841890000
| 18> O  -1.737840000  -0.885520000  -0.052730000
| 19> H  -2.090180000  -1.032320000   0.841890000
| 20> H  -0.839590000  -1.284090000  -0.017130000
| 21> O   0.741530000  -1.752130000   2.896280000
| 22> H   0.920500000  -2.036450000   1.984040000
| 23> H   1.242140000  -0.921210000   2.984230000
| 24> *
| 25>
| 26>                          ****END OF INPUT****

CARTESIAN COORDINATES (ANGSTROEM)
---------------------------------
  O      0.885520   -1.737840    0.052730
  H      1.284090   -0.839590    0.017130
  H      1.032320   -2.090180   -0.841890
  O     -1.737840   -0.885520   -0.052730
  H     -2.090180   -1.032320    0.841890
  H     -0.839590   -1.284090   -0.017130
  O      0.741530   -1.752130    2.896280
  H      0.920500   -2.036450    1.984040
  H      1.242140   -0.921210    2.984230

 Total Charge           Charge          ....    0
 Multiplicity           Mult            ....    1
 Number of Electrons    NEL             ....   30
 Basis Dimension        Dim             ....  129

ORBITAL ENERGIES
----------------

  NO   OCC          E(Eh)            E(eV)
   0   2.0000     -20.622436      -561.1650
   1   2.0000     -20.548481      -559.1526
   2   2.0000     -20.529780      -558.6437
   3   2.0000      -1.405228       -38.2382
   4   2.0000      -1.330344       -36.2005
   5   2.0000      -1.311188       -35.6792
   6   2.0000      -0.763806       -20.7842
   7   2.0000      -0.703534       -19.1441
   8   2.0000      -0.689977       -18.7752
   9   2.0000      -0.639997       -17.4152
  10   2.0000      -0.582805       -15.8589
  11   2.0000      -0.561467       -15.2783
  12   2.0000      -0.534215       -14.5367
  13   2.0000      -0.494543       -13.4572
  14   2.0000      -0.477911       -13.0046
  15   0.0000       0.090148         2.4530
  16   0.0000       0.147853         4.0233
  17   0.0000       0.174794         4.7564
  18   0.0000       0.187794         5.1101
  19   0.0000       0.258687         7.0392

MULLIKEN ATOMIC CHARGES
-----------------------
   0 O :   -0.705469
   1 H :    0.362930
   2 H :    0.371360
   3 O :   -0.714893
   4 H :    0.336441
   5 H :    0.349356
   6 O :   -0.688704
   7 H :    0.366592
   8 H :    0.322387
Sum of atomic charges:   -0.0000000

LOEWDIN ATOMIC CHARGES
----------------------
   0 O :   -0.276289
   1 H :    0.182221
   2 H :    0.179146
   3 O :   -0.360896
   4 H :    0.161827
   5 H :    0.138719
   6 O :   -0.334767
   7 H :    0.150310
   8 H :    0.159730

  Mayer bond orders larger than 0.100000
B(  0-O ,  1-H ) :   0.8280 B(  0-O ,  2-H ) :   0.8272 B(  3-O ,  4-H ) :   0.8531
B(  3-O ,  5-H ) :   0.8153 B(  6-O ,  7-H ) :   0.8261 B(  6-O ,  8-H ) :   0.8610

MP2 TOTAL ENERGY:     -228.950194041 Eh
FINAL SINGLE POINT ENERGY      -228.950194041019

DIPOLE MOMENT
-------------
                                X             Y             Z
Electronic contribution:     -0.02306      -0.16967      -0.02634
Nuclear contribution   :      1.47399       0.45542      -0.68611
                        -----------------------------------------
Total Dipole Moment    :      1.45093       0.28574      -0.71244
                        -----------------------------------------
Magnitude (a.u.)       :      1.64147
Magnitude (Debye)      :      4.17229

Rotational constants in cm-1:     0.316554     0.122095     0.090002
Rotational constants in MHz :  9490.043648  3660.306112  2698.183211

                             ****ORCA TERMINATED NORMALLY****
TOTAL RUN TIME: 0 days 0 hours 0 minutes 28 seconds 808 msec
