                         Program Version 4.2.0 -  RELEASE  -
|  1> # 12h2o.su.etal.mol1,2,3,4,5,6,7,11
|  2> ! MP2 def2-TZVP EnGrad TightSCF
|  3>
|  4> %pal
|  5>     nprocs 6
|  6> end
|  7>
|  8> %maxcore 8000
|  9>
| 10> %scf
| 11>     ConvForced true
| 12> end
| 13>
| 14> *xyz 0 1
| 15> O  -1.794470000  -0.923410000   2.768350000
| 16> H  -2.338250000  -1.359750000   3.430940000
| 17> H  -0.879480000  -1.303000000   2.865760000
| 18> O   0.923410000  -1.794470000  -2.768350000
| 19> H   1.359750000  -2.338250000  -3.430940000
| 20> H   1.303000000  -0.879480000  -2.865760000
| 21> O  -1.752130000  -0.741530000  -2.896280000
| 22> H  -2.036450000  -0.920500000  -1.984040000
| 23> H  -0.921210000  -1.242140000  -2.984230000
| 24> O  -0.885520000   1.737840000   0.052730000
| 25> H  -1.032320000   2.090180000  -0.841890000
| 26> H  -1.284090000   0.839590000   0.017130000
| 27> O   0.885520000  -1.737840000   0.052730000
| 28> H   1.284090000  -0.839590000   0.017130000
| 29> H   1.032320000  -2.090180000  -0.841890000
| 30> O   1.737840000   0.885520000  -0.052730000
| 31> H   2.090180000   1.032320000   0.841890000
| 32> H   0.839590000   1.284090000  -0.017130000
| 33> O  -1.737840000  -0.885520000  -0.052730000
| 34> H  -2.090180000  -1.032320000   0.841890000
| 35> H  -0.839590000  -1.284090000  -0.017130000
| 36> O  -0.741530000   1.752130000   2.896280000
| 37> H  -0.920500000   2.036450000   1.984040000
| 38> H  -1.242140000   0.921210000   2.984230000
| 39> *
| 40>
| 41>                          ****END OF INPUT****

CARTESIAN COORDINATES (ANGSTROEM)
---------------------------------
  O     -1.794470   -0.923410    2.768350
  H     -2.338250   -1.359750    3.430940
  H     -0.879480   -1.303000    2.865760
  O      0.923410   -1.794470   -2.768350
  H      1.359750   -2.338250   -3.430940
  H      1.303000   -0.879480   -2.865760
  O     -1.752130   -0.741530   -2.896280
  H     -2.036450   -0.920500   -1.984040
  H     -0.921210   -1.242140   -2.984230
  O     -0.885520    1.737840    0.052730
  H     -1.032320    2.090180   -0.841890
  H     -1.284090    0.839590    0.017130
  O      0.885520   -1.737840    0.052730
  H      1.284090   -0.839590    0.017130
  H      1.032320   -2.090180   -0.841890
  O      1.737840    0.885520   -0.052730
  H      2.090180    1.032320    0.841890
  H      0.839590    1.284090   -0.017130
  O     -1.737840   -0.885520   -0.052730
  H     -2.090180   -1.032320    0.841890
  H     -0.839590   -1.284090   -0.017130
  O     -0.741530    1.752130    2.896280
  H     -0.920500    2.036450    1.984040
  H     -1.242140    0.921210    2.984230

 Total Charge           Charge          ....    0
 Multiplicity           Mult            ....    1
 Number of Electrons    NEL             ....   80
 Basis Dimension        Dim             ....  344

ORBITAL ENERGIES
----------------

  NO   OCC          E(Eh)            E(eV)
   0   2.0000     -20.612677      -560.8994
   1   2.0000     -20.611626      -560.8709
   2   2.0000     -20.572439      -559.8045
   3   2.0000     -20.564112      -559.5779
   4   2.0000     -20.557386      -559.3949
   5   2.0000     -20.549026      -559.1674
   6   2.0000     -20.517132      -558.2995
   7   2.0000     -20.514895      -558.2387
   8   2.0000      -1.393281       -37.9131
   9   2.0000      -1.392055       -37.8797
  10   2.0000      -1.368732       -37.2451
  11   2.0000      -1.349357       -36.7179
  12   2.0000      -1.348677       -36.6994
  13   2.0000      -1.329321       -36.1727
  14   2.0000      -1.302259       -35.4363
  15   2.0000      -1.300003       -35.3749
  16   2.0000      -0.758575       -20.6419
  17   2.0000      -0.757464       -20.6116
  18   2.0000      -0.726942       -19.7811
  19   2.0000      -0.721360       -19.6292
  20   2.0000      -0.716476       -19.4963
  21   2.0000      -0.711239       -19.3538
  22   2.0000      -0.682419       -18.5696
  23   2.0000      -0.678791       -18.4709
  24   2.0000      -0.643218       -17.5029
  25   2.0000      -0.631814       -17.1925
  26   2.0000      -0.613417       -16.6919
  27   2.0000      -0.598957       -16.2985
  28   2.0000      -0.598140       -16.2762
  29   2.0000      -0.581577       -15.8255
  30   2.0000      -0.560520       -15.2525
  31   2.0000      -0.544756       -14.8236
  32   2.0000      -0.531781       -14.4705
  33   2.0000      -0.528134       -14.3713
  34   2.0000      -0.515807       -14.0358
  35   2.0000      -0.507576       -13.8118
  36   2.0000      -0.505610       -13.7583
  37   2.0000      -0.495862       -13.4931
  38   2.0000      -0.466824       -12.7029
  39   2.0000      -0.464721       -12.6457
  40   0.0000       0.094396         2.5687
  41   0.0000       0.106599         2.9007
  42   0.0000       0.139586         3.7983
  43   0.0000       0.162064         4.4100
  44   0.0000       0.181744         4.9455

MULLIKEN ATOMIC CHARGES
-----------------------
   0 O :   -0.719436
   1 H :    0.365383
   2 H :    0.378813
   3 O :   -0.718198
   4 H :    0.364215
   5 H :    0.377003
   6 O :   -0.727157
   7 H :    0.369908
   8 H :    0.342527
   9 O :   -0.743729
  10 H :    0.362130
  11 H :    0.374934
  12 O :   -0.735751
  13 H :    0.358075
  14 H :    0.374683
  15 O :   -0.726488
  16 H :    0.357225
  17 H :    0.372051
  18 O :   -0.753183
  19 H :    0.378648
  20 H :    0.361254
  21 O :   -0.724750
  22 H :    0.368512
  23 H :    0.343330
Sum of atomic charges:    0.0000000

LOEWDIN ATOMIC CHARGES
----------------------
   0 O :   -0.288242
   1 H :    0.168477
   2 H :    0.194924
   3 O :   -0.288056
   4 H :    0.167835
   5 H :    0.194220
   6 O :   -0.355260
   7 H :    0.148395
   8 H :    0.139959
   9 O :   -0.295722
  10 H :    0.171743
  11 H :    0.146384
  12 O :   -0.320104
  13 H :    0.139493
  14 H :    0.148537
  15 O :   -0.314357
  16 H :    0.170207
  17 H :    0.144694
  18 O :   -0.300807
  19 H :    0.150320
  20 H :    0.141357
  21 O :   -0.353292
  22 H :    0.148906
  23 H :    0.140389

  Mayer bond orders larger than 0.100000
B(  0-O ,  1-H ) :   0.8315 B(  0-O ,  2-H ) :   0.8143 B(  3-O ,  4-H ) :   0.8320
B(  3-O ,  5-H ) :   0.8155 B(  6-O ,  7-H ) :   0.8211 B(  6-O ,  8-H ) :   0.8351
B(  9-O , 10-H ) :   0.8311 B(  9-O , 11-H ) :   0.7489 B( 11-H , 18-O ) :   0.1074
B( 12-O , 13-H ) :   0.7722 B( 12-O , 14-H ) :   0.8127 B( 12-O , 20-H ) :   0.1195
B( 13-H , 15-O ) :   0.1099 B( 15-O , 16-H ) :   0.8370 B( 15-O , 17-H ) :   0.7680
B( 18-O , 19-H ) :   0.8062 B( 18-O , 20-H ) :   0.7516 B( 21-O , 22-H ) :   0.8238
B( 21-O , 23-H ) :   0.8344

MP2 TOTAL ENERGY:     -610.592757295 Eh
FINAL SINGLE POINT ENERGY      -610.592757294879

DIPOLE MOMENT
-------------
                                X             Y             Z
Electronic contribution:     -0.05670      -0.01618       0.01763
Nuclear contribution   :      0.87744      -1.39079       0.00000
                        -----------------------------------------
Total Dipole Moment    :      0.82074      -1.40697       0.01763
                        -----------------------------------------
Magnitude (a.u.)       :      1.62895
Magnitude (Debye)      :      4.14047

Rotational constants in cm-1:     0.039101     0.019587     0.018297
Rotational constants in MHz :  1172.206921   587.195334   548.526419

                             ****ORCA TERMINATED NORMALLY****
TOTAL RUN TIME: 0 days 0 hours 3 minutes 25 seconds 441 msec
