                         Program Version 4.2.0 -  RELEASE  -
|  1> # 12h2o.su.etal.mol1,3,4,6,8,9
|  2> ! MP2 def2-TZVP EnGrad TightSCF
|  3>
|  4> %pal
|  5>     nprocs 6
|  6> end
|  7>
|  8> %maxcore 8000
|  9>
| 10> %scf
| 11>     ConvForced true
| 12> end
| 13>
| 14> *xyz 0 1
| 15> O  -1.794470000  -0.923410000   2.768350000
| 16> H  -2.338250000  -1.359750000   3.430940000
| 17> H  -0.879480000  -1.303000000   2.865760000
| 18> O  -1.752130000  -0.741530000  -2.896280000
| 19> H  -2.036450000  -0.920500000  -1.984040000
| 20> H  -0.921210000  -1.242140000  -2.984230000
| 21> O  -0.885520000   1.737840000   0.052730000
| 22> H  -1.032320000   2.090180000  -0.841890000
| 23> H  -1.284090000   0.839590000   0.017130000
| 24> O   1.737840000   0.885520000  -0.052730000
| 25> H   2.090180000   1.032320000   0.841890000
| 26> H   0.839590000   1.284090000  -0.017130000
| 27> O   1.752130000   0.741530000  -2.896280000
| 28> H   2.036450000   0.920500000  -1.984040000
| 29> H   0.921210000   1.242140000  -2.984230000
| 30> O   0.741530000  -1.752130000   2.896280000
| 31> H   0.920500000  -2.036450000   1.984040000
| 32> H   1.242140000  -0.921210000   2.984230000
| 33> *
| 34>
| 35>                          ****END OF INPUT****

CARTESIAN COORDINATES (ANGSTROEM)
---------------------------------
  O     -1.794470   -0.923410    2.768350
  H     -2.338250   -1.359750    3.430940
  H     -0.879480   -1.303000    2.865760
  O     -1.752130   -0.741530   -2.896280
  H     -2.036450   -0.920500   -1.984040
  H     -0.921210   -1.242140   -2.984230
  O     -0.885520    1.737840    0.052730
  H     -1.032320    2.090180   -0.841890
  H     -1.284090    0.839590    0.017130
  O      1.737840    0.885520   -0.052730
  H      2.090180    1.032320    0.841890
  H      0.839590    1.284090   -0.017130
  O      1.752130    0.741530   -2.896280
  H      2.036450    0.920500   -1.984040
  H      0.921210    1.242140   -2.984230
  O      0.741530   -1.752130    2.896280
  H      0.920500   -2.036450    1.984040
  H      1.242140   -0.921210    2.984230

 Total Charge           Charge          ....    0
 Multiplicity           Mult            ....    1
 Number of Electrons    NEL             ....   60
 Basis Dimension        Dim             ....  258

ORBITAL ENERGIES
----------------

  NO   OCC          E(Eh)            E(eV)
   0   2.0000     -20.608231      -560.7785
   1   2.0000     -20.603459      -560.6486
   2   2.0000     -20.573956      -559.8458
   3   2.0000     -20.568127      -559.6872
   4   2.0000     -20.536728      -558.8328
   5   2.0000     -20.533139      -558.7351
   6   2.0000      -1.393485       -37.9187
   7   2.0000      -1.384685       -37.6792
   8   2.0000      -1.352924       -36.8149
   9   2.0000      -1.350808       -36.7573
  10   2.0000      -1.318034       -35.8655
  11   2.0000      -1.315329       -35.7919
  12   2.0000      -0.750960       -20.4347
  13   2.0000      -0.741126       -20.1671
  14   2.0000      -0.724574       -19.7166
  15   2.0000      -0.715450       -19.4684
  16   2.0000      -0.705573       -19.1996
  17   2.0000      -0.687281       -18.7019
  18   2.0000      -0.629302       -17.1242
  19   2.0000      -0.627753       -17.0820
  20   2.0000      -0.597617       -16.2620
  21   2.0000      -0.590507       -16.0685
  22   2.0000      -0.571368       -15.5477
  23   2.0000      -0.555248       -15.1091
  24   2.0000      -0.537328       -14.6214
  25   2.0000      -0.528024       -14.3683
  26   2.0000      -0.518045       -14.0967
  27   2.0000      -0.515828       -14.0364
  28   2.0000      -0.483591       -13.1592
  29   2.0000      -0.482671       -13.1342
  30   0.0000       0.073489         1.9997
  31   0.0000       0.101270         2.7557
  32   0.0000       0.132879         3.6158
  33   0.0000       0.154524         4.2048
  34   0.0000       0.165378         4.5002

MULLIKEN ATOMIC CHARGES
-----------------------
   0 O :   -0.737003
   1 H :    0.330906
   2 H :    0.365005
   3 O :   -0.679994
   4 H :    0.328843
   5 H :    0.353121
   6 O :   -0.676631
   7 H :    0.355558
   8 H :    0.361540
   9 O :   -0.724808
  10 H :    0.332082
  11 H :    0.356304
  12 O :   -0.696377
  13 H :    0.373209
  14 H :    0.316600
  15 O :   -0.675118
  16 H :    0.361932
  17 H :    0.354833
Sum of atomic charges:   -0.0000000

LOEWDIN ATOMIC CHARGES
----------------------
   0 O :   -0.374308
   1 H :    0.151651
   2 H :    0.141452
   3 O :   -0.329692
   4 H :    0.159686
   5 H :    0.171835
   6 O :   -0.283163
   7 H :    0.171083
   8 H :    0.179733
   9 O :   -0.341139
  10 H :    0.159251
  11 H :    0.143545
  12 O :   -0.339091
  13 H :    0.153639
  14 H :    0.153927
  15 O :   -0.268191
  16 H :    0.175795
  17 H :    0.173987

  Mayer bond orders larger than 0.100000
B(  0-O ,  1-H ) :   0.8574 B(  0-O ,  2-H ) :   0.7858 B(  3-O ,  4-H ) :   0.8559
B(  3-O ,  5-H ) :   0.8389 B(  6-O ,  7-H ) :   0.8370 B(  6-O ,  8-H ) :   0.8267
B(  9-O , 10-H ) :   0.8524 B(  9-O , 11-H ) :   0.7758 B( 12-O , 13-H ) :   0.8161
B( 12-O , 14-H ) :   0.8615 B( 15-O , 16-H ) :   0.8337 B( 15-O , 17-H ) :   0.8377

MP2 TOTAL ENERGY:     -457.907387798 Eh
FINAL SINGLE POINT ENERGY      -457.907387797892

DIPOLE MOMENT
-------------
                                X             Y             Z
Electronic contribution:      0.05886      -0.00692      -0.05161
Nuclear contribution   :     -0.03370      -0.22463       1.31870
                        -----------------------------------------
Total Dipole Moment    :      0.02515      -0.23155       1.26709
                        -----------------------------------------
Magnitude (a.u.)       :      1.28832
Magnitude (Debye)      :      3.27464

Rotational constants in cm-1:     0.047183     0.022565     0.019073
Rotational constants in MHz :  1414.518473   676.467248   571.779268

                             ****ORCA TERMINATED NORMALLY****
TOTAL RUN TIME: 0 days 0 hours 0 minutes 52 seconds 14 msec
