                         Program Version 4.2.0 -  RELEASE  -
|  1> # 12h2o.su.etal.mol1,2,4,5,7,9,10,11
|  2> ! MP2 def2-TZVP EnGrad TightSCF
|  3>
|  4> %pal
|  5>     nprocs 6
|  6> end
|  7>
|  8> %maxcore 8000
|  9>
| 10> %scf
| 11>     ConvForced true
| 12> end
| 13>
| 14> *xyz 0 1
| 15> O  -1.794470000  -0.923410000   2.768350000
| 16> H  -2.338250000  -1.359750000   3.430940000
| 17> H  -0.879480000  -1.303000000   2.865760000
| 18> O   0.923410000  -1.794470000  -2.768350000
| 19> H   1.359750000  -2.338250000  -3.430940000
| 20> H   1.303000000  -0.879480000  -2.865760000
| 21> O  -0.885520000   1.737840000   0.052730000
| 22> H  -1.032320000   2.090180000  -0.841890000
| 23> H  -1.284090000   0.839590000   0.017130000
| 24> O   0.885520000  -1.737840000   0.052730000
| 25> H   1.284090000  -0.839590000   0.017130000
| 26> H   1.032320000  -2.090180000  -0.841890000
| 27> O  -1.737840000  -0.885520000  -0.052730000
| 28> H  -2.090180000  -1.032320000   0.841890000
| 29> H  -0.839590000  -1.284090000  -0.017130000
| 30> O   0.741530000  -1.752130000   2.896280000
| 31> H   0.920500000  -2.036450000   1.984040000
| 32> H   1.242140000  -0.921210000   2.984230000
| 33> O  -0.923410000   1.794470000  -2.768350000
| 34> H  -1.359750000   2.338250000  -3.430940000
| 35> H  -1.303000000   0.879480000  -2.865760000
| 36> O  -0.741530000   1.752130000   2.896280000
| 37> H  -0.920500000   2.036450000   1.984040000
| 38> H  -1.242140000   0.921210000   2.984230000
| 39> *
| 40>
| 41>                          ****END OF INPUT****

CARTESIAN COORDINATES (ANGSTROEM)
---------------------------------
  O     -1.794470   -0.923410    2.768350
  H     -2.338250   -1.359750    3.430940
  H     -0.879480   -1.303000    2.865760
  O      0.923410   -1.794470   -2.768350
  H      1.359750   -2.338250   -3.430940
  H      1.303000   -0.879480   -2.865760
  O     -0.885520    1.737840    0.052730
  H     -1.032320    2.090180   -0.841890
  H     -1.284090    0.839590    0.017130
  O      0.885520   -1.737840    0.052730
  H      1.284090   -0.839590    0.017130
  H      1.032320   -2.090180   -0.841890
  O     -1.737840   -0.885520   -0.052730
  H     -2.090180   -1.032320    0.841890
  H     -0.839590   -1.284090   -0.017130
  O      0.741530   -1.752130    2.896280
  H      0.920500   -2.036450    1.984040
  H      1.242140   -0.921210    2.984230
  O     -0.923410    1.794470   -2.768350
  H     -1.359750    2.338250   -3.430940
  H     -1.303000    0.879480   -2.865760
  O     -0.741530    1.752130    2.896280
  H     -0.920500    2.036450    1.984040
  H     -1.242140    0.921210    2.984230

 Total Charge           Charge          ....    0
 Multiplicity           Mult            ....    1
 Number of Electrons    NEL             ....   80
 Basis Dimension        Dim             ....  344

ORBITAL ENERGIES
----------------

  NO   OCC          E(Eh)            E(eV)
   0   2.0000     -20.612671      -560.8993
   1   2.0000     -20.598021      -560.5006
   2   2.0000     -20.586559      -560.1887
   3   2.0000     -20.575150      -559.8783
   4   2.0000     -20.550681      -559.2125
   5   2.0000     -20.529306      -558.6308
   6   2.0000     -20.506524      -558.0109
   7   2.0000     -20.484280      -557.4056
   8   2.0000      -1.393604       -37.9219
   9   2.0000      -1.381908       -37.6036
  10   2.0000      -1.364448       -37.1285
  11   2.0000      -1.364328       -37.1253
  12   2.0000      -1.336825       -36.3769
  13   2.0000      -1.318223       -35.8707
  14   2.0000      -1.292471       -35.1699
  15   2.0000      -1.268757       -34.5246
  16   2.0000      -0.758773       -20.6473
  17   2.0000      -0.747466       -20.3396
  18   2.0000      -0.731105       -19.8944
  19   2.0000      -0.723245       -19.6805
  20   2.0000      -0.717600       -19.5269
  21   2.0000      -0.694748       -18.9051
  22   2.0000      -0.673676       -18.3317
  23   2.0000      -0.646738       -17.5986
  24   2.0000      -0.644007       -17.5243
  25   2.0000      -0.623361       -16.9625
  26   2.0000      -0.603453       -16.4208
  27   2.0000      -0.599791       -16.3211
  28   2.0000      -0.590018       -16.0552
  29   2.0000      -0.562407       -15.3039
  30   2.0000      -0.556881       -15.1535
  31   2.0000      -0.551955       -15.0195
  32   2.0000      -0.530203       -14.4276
  33   2.0000      -0.526660       -14.3312
  34   2.0000      -0.514350       -13.9962
  35   2.0000      -0.502905       -13.6847
  36   2.0000      -0.489034       -13.3073
  37   2.0000      -0.473842       -12.8939
  38   2.0000      -0.457929       -12.4609
  39   2.0000      -0.434538       -11.8244
  40   0.0000       0.081650         2.2218
  41   0.0000       0.123903         3.3716
  42   0.0000       0.127296         3.4639
  43   0.0000       0.155423         4.2293
  44   0.0000       0.172698         4.6994

MULLIKEN ATOMIC CHARGES
-----------------------
   0 O :   -0.747673
   1 H :    0.344875
   2 H :    0.382820
   3 O :   -0.702064
   4 H :    0.359064
   5 H :    0.362904
   6 O :   -0.751456
   7 H :    0.359891
   8 H :    0.345131
   9 O :   -0.734229
  10 H :    0.358472
  11 H :    0.391672
  12 O :   -0.731661
  13 H :    0.375431
  14 H :    0.359583
  15 O :   -0.702218
  16 H :    0.385980
  17 H :    0.360693
  18 O :   -0.703916
  19 H :    0.349393
  20 H :    0.364221
  21 O :   -0.740823
  22 H :    0.370554
  23 H :    0.343355
Sum of atomic charges:   -0.0000000

LOEWDIN ATOMIC CHARGES
----------------------
   0 O :   -0.313005
   1 H :    0.156548
   2 H :    0.146653
   3 O :   -0.309993
   4 H :    0.167107
   5 H :    0.188433
   6 O :   -0.353803
   7 H :    0.144808
   8 H :    0.136931
   9 O :   -0.285316
  10 H :    0.177858
  11 H :    0.159057
  12 O :   -0.319952
  13 H :    0.148846
  14 H :    0.138503
  15 O :   -0.275040
  16 H :    0.157138
  17 H :    0.175409
  18 O :   -0.314729
  19 H :    0.162177
  20 H :    0.187431
  21 O :   -0.363408
  22 H :    0.150023
  23 H :    0.138324

  Mayer bond orders larger than 0.100000
B(  0-O ,  1-H ) :   0.8434 B(  0-O ,  2-H ) :   0.7442 B(  3-O ,  4-H ) :   0.8379
B(  3-O ,  5-H ) :   0.8268 B(  6-O ,  7-H ) :   0.8239 B(  6-O ,  8-H ) :   0.7741
B(  8-H , 12-O ) :   0.1049 B(  9-O , 10-H ) :   0.8260 B(  9-O , 11-H ) :   0.7893
B( 12-O , 13-H ) :   0.8037 B( 12-O , 14-H ) :   0.7977 B( 15-O , 16-H ) :   0.8032
B( 15-O , 17-H ) :   0.8310 B( 18-O , 19-H ) :   0.8431 B( 18-O , 20-H ) :   0.8259
B( 21-O , 22-H ) :   0.8153 B( 21-O , 23-H ) :   0.8291

MP2 TOTAL ENERGY:     -610.581568482 Eh
FINAL SINGLE POINT ENERGY      -610.581568481924

DIPOLE MOMENT
-------------
                                X             Y             Z
Electronic contribution:      0.27231      -0.39569      -0.12290
Nuclear contribution   :      0.76337      -1.13309      -2.77909
                        -----------------------------------------
Total Dipole Moment    :      1.03568      -1.52878      -2.90199
                        -----------------------------------------
Magnitude (a.u.)       :      3.43967
Magnitude (Debye)      :      8.74295

Rotational constants in cm-1:     0.032622     0.020627     0.014900
Rotational constants in MHz :   977.981209   618.375573   446.701796

                             ****ORCA TERMINATED NORMALLY****
TOTAL RUN TIME: 0 days 0 hours 3 minutes 8 seconds 854 msec
