                         Program Version 4.2.0 -  RELEASE  -
|  1> # 12mecn.remya.etal.2.mol1,5,7
|  2> ! MP2 def2-TZVP EnGrad TightSCF
|  3>
|  4> %pal
|  5>     nprocs 6
|  6> end
|  7>
|  8> %maxcore 8000
|  9>
| 10> %scf
| 11>     ConvForced true
| 12> end
| 13>
| 14> *xyz 0 1
| 15> C  -4.697980000  -0.249690000   1.746215000
| 16> H  -4.927570000   0.755530000   2.111799000
| 17> H  -3.709180000  -0.561560000   2.093253000
| 18> H  -5.432280000  -0.961520000   2.128066000
| 19> C  -4.714100000  -0.247110000   0.301670000
| 20> N  -4.729750000  -0.234960000  -0.865260000
| 21> C  -1.955700000   2.515080000   1.698463000
| 22> H  -2.923830000   2.883163000   2.049269000
| 23> H  -1.154850000   3.171830000   2.050990000
| 24> H  -1.790380000   1.506115000   2.087896000
| 25> C  -1.948230000   2.482156000   0.253672000
| 26> N  -1.937550000   2.462523000  -0.913150000
| 27> C   1.502241000   0.651296000   1.710523000
| 28> H   1.309219000   1.637164000   2.143202000
| 29> H   2.493408000   0.297996000   2.009069000
| 30> H   0.746597000  -0.059850000   2.055508000
| 31> C   1.447974000   0.738517000   0.269805000
| 32> N   1.405612000   0.808047000  -0.894380000
| 33> *
| 34>
| 35>                          ****END OF INPUT****

CARTESIAN COORDINATES (ANGSTROEM)
---------------------------------
  C     -4.697980   -0.249690    1.746215
  H     -4.927570    0.755530    2.111799
  H     -3.709180   -0.561560    2.093253
  H     -5.432280   -0.961520    2.128066
  C     -4.714100   -0.247110    0.301670
  N     -4.729750   -0.234960   -0.865260
  C     -1.955700    2.515080    1.698463
  H     -2.923830    2.883163    2.049269
  H     -1.154850    3.171830    2.050990
  H     -1.790380    1.506115    2.087896
  C     -1.948230    2.482156    0.253672
  N     -1.937550    2.462523   -0.913150
  C      1.502241    0.651296    1.710523
  H      1.309219    1.637164    2.143202
  H      2.493408    0.297996    2.009069
  H      0.746597   -0.059850    2.055508
  C      1.447974    0.738517    0.269805
  N      1.405612    0.808047   -0.894380

 Total Charge           Charge          ....    0
 Multiplicity           Mult            ....    1
 Number of Electrons    NEL             ....   66
 Basis Dimension        Dim             ....  333

ORBITAL ENERGIES
----------------

  NO   OCC          E(Eh)            E(eV)
   0   2.0000     -15.572985      -423.7625
   1   2.0000     -15.572479      -423.7487
   2   2.0000     -15.570599      -423.6975
   3   2.0000     -11.294641      -307.3428
   4   2.0000     -11.292061      -307.2726
   5   2.0000     -11.292051      -307.2723
   6   2.0000     -11.277503      -306.8765
   7   2.0000     -11.276775      -306.8566
   8   2.0000     -11.273601      -306.7703
   9   2.0000      -1.212836       -33.0029
  10   2.0000      -1.212486       -32.9934
  11   2.0000      -1.209384       -32.9090
  12   2.0000      -1.051729       -28.6190
  13   2.0000      -1.049406       -28.5558
  14   2.0000      -1.048017       -28.5180
  15   2.0000      -0.706510       -19.2251
  16   2.0000      -0.704098       -19.1595
  17   2.0000      -0.702381       -19.1128
  18   2.0000      -0.647701       -17.6248
  19   2.0000      -0.645071       -17.5533
  20   2.0000      -0.640716       -17.4348
  21   2.0000      -0.638631       -17.3780
  22   2.0000      -0.633520       -17.2390
  23   2.0000      -0.632137       -17.2013
  24   2.0000      -0.553616       -15.0647
  25   2.0000      -0.552924       -15.0458
  26   2.0000      -0.549036       -14.9400
  27   2.0000      -0.462641       -12.5891
  28   2.0000      -0.460393       -12.5279
  29   2.0000      -0.456425       -12.4199
  30   2.0000      -0.455865       -12.4047
  31   2.0000      -0.448390       -12.2013
  32   2.0000      -0.445838       -12.1319
  33   0.0000       0.080310         2.1853
  34   0.0000       0.119391         3.2488
  35   0.0000       0.125846         3.4244
  36   0.0000       0.147729         4.0199
  37   0.0000       0.154418         4.2019

MULLIKEN ATOMIC CHARGES
-----------------------
   0 C :   -0.283744
   1 H :    0.164475
   2 H :    0.160139
   3 H :    0.183070
   4 C :   -0.153570
   5 N :   -0.070223
   6 C :   -0.294263
   7 H :    0.176514
   8 H :    0.178856
   9 H :    0.154096
  10 C :   -0.156454
  11 N :   -0.059237
  12 C :   -0.287496
  13 H :    0.162640
  14 H :    0.182653
  15 H :    0.165088
  16 C :   -0.153648
  17 N :   -0.068896
Sum of atomic charges:    0.0000000

LOEWDIN ATOMIC CHARGES
----------------------
   0 C :   -0.288617
   1 H :    0.149380
   2 H :    0.147869
   3 H :    0.152636
   4 C :   -0.224607
   5 N :    0.063423
   6 C :   -0.292342
   7 H :    0.150714
   8 H :    0.151088
   9 H :    0.144337
  10 C :   -0.228348
  11 N :    0.074250
  12 C :   -0.288869
  13 H :    0.147945
  14 H :    0.154205
  15 H :    0.149186
  16 C :   -0.226549
  17 N :    0.064299

  Mayer bond orders larger than 0.100000
B(  0-C ,  1-H ) :   0.9203 B(  0-C ,  2-H ) :   0.9239 B(  0-C ,  3-H ) :   0.9114
B(  0-C ,  4-C ) :   0.8986 B(  4-C ,  5-N ) :   2.8243 B(  6-C ,  7-H ) :   0.9177
B(  6-C ,  8-H ) :   0.9169 B(  6-C ,  9-H ) :   0.9247 B(  6-C , 10-C ) :   0.8921
B( 10-C , 11-N ) :   2.8119 B( 12-C , 13-H ) :   0.9208 B( 12-C , 14-H ) :   0.9123
B( 12-C , 15-H ) :   0.9238 B( 12-C , 16-C ) :   0.8940 B( 16-C , 17-N ) :   2.8227

MP2 TOTAL ENERGY:     -397.444272387 Eh
FINAL SINGLE POINT ENERGY      -397.444272386631

DIPOLE MOMENT
-------------
                                X             Y             Z
Electronic contribution:     -0.14878       0.15527      -9.69836
Nuclear contribution   :      0.21426      -0.23125      13.89711
                        -----------------------------------------
Total Dipole Moment    :      0.06547      -0.07598       4.19875
                        -----------------------------------------
Magnitude (a.u.)       :      4.19995
Magnitude (Debye)      :     10.67542

Rotational constants in cm-1:     0.055334     0.017755     0.017463
Rotational constants in MHz :  1658.871593   532.285161   523.521426

                             ****ORCA TERMINATED NORMALLY****
TOTAL RUN TIME: 0 days 0 hours 3 minutes 17 seconds 769 msec
