                         Program Version 4.2.0 -  RELEASE  -
|  1> ! MP2 def2-TZVP EnGrad TightSCF FrozenCore
|  2>
|  3> %pal
|  4>     nprocs 12
|  5> end
|  6>
|  7> %maxcore 8000
|  8>
|  9> %scf
| 10>     ConvForced true
| 11> end
| 12>
| 13> *xyz 0 1
| 14> C     3.986366    -0.667795    -1.425985
| 15> H     4.701554    -0.708645    -0.601462
| 16> H     4.505149    -0.790524    -2.380213
| 17> H     3.259965    -1.474958    -1.292453
| 18> C     3.280522     0.610121    -1.401785
| 19> N     2.708499     1.621789    -1.395731
| 20> C    -3.597051     1.636211     0.491988
| 21> H    -3.108026     2.591670     0.276948
| 22> H    -4.436627     1.801145     1.172095
| 23> H    -3.963608     1.188128    -0.437002
| 24> C    -2.626451     0.733980     1.104494
| 25> N    -1.845762     0.014311     1.578088
| 26> C    -2.253537    -2.944315    -0.213936
| 27> H    -1.932129    -2.511093     0.738368
| 28> H    -1.377324    -3.350495    -0.725855
| 29> H    -2.981754    -3.738787    -0.032488
| 30> C    -2.850321    -1.888783    -1.027643
| 31> N    -3.320948    -1.037932    -1.664272
| 32> C    -0.550790     0.822777    -2.072067
| 33> H     0.210193     1.607311    -2.126477
| 34> H    -1.391396     1.178946    -1.470428
| 35> H    -0.917405     0.578433    -3.072332
| 36> C     0.026660    -0.367987    -1.456183
| 37> N     0.499067    -1.313128    -0.969716
| 38> C     0.943657    -2.131831     2.134857
| 39> H     0.118302    -1.415652     2.052902
| 40> H     0.948262    -2.574154     3.134504
| 41> H     0.796159    -2.912002     1.383302
| 42> C     2.211148    -1.451915     1.882362
| 43> N     3.212414    -0.895025     1.687669
| 44> C     1.038123     1.797636     1.414736
| 45> H     1.045234     0.866040     0.842199
| 46> H     0.763531     1.575891     2.449906
| 47> H     2.043269     2.223580     1.373601
| 48> C     0.066013     2.715600     0.828149
| 49> N    -0.728897     3.421838     0.358383
| 50> *
| 51>
| 52>                          ****END OF INPUT****

CARTESIAN COORDINATES (ANGSTROEM)
---------------------------------
  C      3.986366   -0.667795   -1.425985
  H      4.701554   -0.708645   -0.601462
  H      4.505149   -0.790524   -2.380213
  H      3.259965   -1.474958   -1.292453
  C      3.280522    0.610121   -1.401785
  N      2.708499    1.621789   -1.395731
  C     -3.597051    1.636211    0.491988
  H     -3.108026    2.591670    0.276948
  H     -4.436627    1.801145    1.172095
  H     -3.963608    1.188128   -0.437002
  C     -2.626451    0.733980    1.104494
  N     -1.845762    0.014311    1.578088
  C     -2.253537   -2.944315   -0.213936
  H     -1.932129   -2.511093    0.738368
  H     -1.377324   -3.350495   -0.725855
  H     -2.981754   -3.738787   -0.032488
  C     -2.850321   -1.888783   -1.027643
  N     -3.320948   -1.037932   -1.664272
  C     -0.550790    0.822777   -2.072067
  H      0.210193    1.607311   -2.126477
  H     -1.391396    1.178946   -1.470428
  H     -0.917405    0.578433   -3.072332
  C      0.026660   -0.367987   -1.456183
  N      0.499067   -1.313128   -0.969716
  C      0.943657   -2.131831    2.134857
  H      0.118302   -1.415652    2.052902
  H      0.948262   -2.574154    3.134504
  H      0.796159   -2.912002    1.383302
  C      2.211148   -1.451915    1.882362
  N      3.212414   -0.895025    1.687669
  C      1.038123    1.797636    1.414736
  H      1.045234    0.866040    0.842199
  H      0.763531    1.575891    2.449906
  H      2.043269    2.223580    1.373601
  C      0.066013    2.715600    0.828149
  N     -0.728897    3.421838    0.358383

 Total Charge           Charge          ....    0
 Multiplicity           Mult            ....    1
 Number of Electrons    NEL             ....  132
 Basis Dimension        Dim             ....  666

ORBITAL ENERGIES
----------------

  NO   OCC          E(Eh)            E(eV)
   0   2.0000     -15.576352      -423.8541
   1   2.0000     -15.574848      -423.8132
   2   2.0000     -15.570819      -423.7035
   3   2.0000     -15.569405      -423.6650
   4   2.0000     -15.562726      -423.4833
   5   2.0000     -15.559978      -423.4085
   6   2.0000     -11.292211      -307.2767
   7   2.0000     -11.288568      -307.1775
   8   2.0000     -11.287822      -307.1572
   9   2.0000     -11.281698      -306.9906
  10   2.0000     -11.277648      -306.8804
  11   2.0000     -11.276689      -306.8543
  12   2.0000     -11.273611      -306.7705
  13   2.0000     -11.271026      -306.7002
  14   2.0000     -11.270976      -306.6989
  15   2.0000     -11.264892      -306.5333
  16   2.0000     -11.263417      -306.4932
  17   2.0000     -11.256958      -306.3174
  18   2.0000      -1.228047       -33.4169
  19   2.0000      -1.223702       -33.2986
  20   2.0000      -1.221202       -33.2306
  21   2.0000      -1.217519       -33.1304
  22   2.0000      -1.211552       -32.9680
  23   2.0000      -1.208841       -32.8942
  24   2.0000      -1.036571       -28.2065
  25   2.0000      -1.032374       -28.0923
  26   2.0000      -1.029663       -28.0186
  27   2.0000      -1.025464       -27.9043
  28   2.0000      -1.022835       -27.8327
  29   2.0000      -1.016443       -27.6588
  30   2.0000      -0.697665       -18.9844
  31   2.0000      -0.692525       -18.8446
  32   2.0000      -0.688520       -18.7356
  33   2.0000      -0.686123       -18.6703
  34   2.0000      -0.682276       -18.5657
  35   2.0000      -0.678528       -18.4637
  36   2.0000      -0.635424       -17.2908
  37   2.0000      -0.629770       -17.1369
  38   2.0000      -0.628082       -17.0910
  39   2.0000      -0.627075       -17.0636
  40   2.0000      -0.621380       -16.9086
  41   2.0000      -0.617279       -16.7970
  42   2.0000      -0.615639       -16.7524
  43   2.0000      -0.613952       -16.7065
  44   2.0000      -0.611344       -16.6355
  45   2.0000      -0.603977       -16.4351
  46   2.0000      -0.602437       -16.3932
  47   2.0000      -0.595414       -16.2020
  48   2.0000      -0.566457       -15.4141
  49   2.0000      -0.563498       -15.3336
  50   2.0000      -0.560644       -15.2559
  51   2.0000      -0.556187       -15.1346
  52   2.0000      -0.550833       -14.9889
  53   2.0000      -0.548789       -14.9333
  54   2.0000      -0.473888       -12.8951
  55   2.0000      -0.471175       -12.8213
  56   2.0000      -0.469349       -12.7716
  57   2.0000      -0.466358       -12.6902
  58   2.0000      -0.464000       -12.6261
  59   2.0000      -0.461651       -12.5622
  60   2.0000      -0.460204       -12.5228
  61   2.0000      -0.457777       -12.4567
  62   2.0000      -0.453825       -12.3492
  63   2.0000      -0.450261       -12.2522
  64   2.0000      -0.448866       -12.2143
  65   2.0000      -0.445701       -12.1281
  66   0.0000       0.120798         3.2871
  67   0.0000       0.140679         3.8281
  68   0.0000       0.144491         3.9318
  69   0.0000       0.149717         4.0740
  70   0.0000       0.155568         4.2332

MULLIKEN ATOMIC CHARGES
-----------------------
   0 C :   -0.284085
   1 H :    0.186436
   2 H :    0.169971
   3 H :    0.182034
   4 C :   -0.085386
   5 N :   -0.167499
   6 C :   -0.312552
   7 H :    0.208603
   8 H :    0.171841
   9 H :    0.199702
  10 C :   -0.096578
  11 N :   -0.167670
  12 C :   -0.291677
  13 H :    0.184484
  14 H :    0.181600
  15 H :    0.174704
  16 C :   -0.098329
  17 N :   -0.151341
  18 C :   -0.247884
  19 H :    0.214266
  20 H :    0.156659
  21 H :    0.175660
  22 C :   -0.083794
  23 N :   -0.210012
  24 C :   -0.266598
  25 H :    0.180284
  26 H :    0.170981
  27 H :    0.167666
  28 C :   -0.117892
  29 N :   -0.138663
  30 C :   -0.254201
  31 H :    0.151994
  32 H :    0.171197
  33 H :    0.185486
  34 C :   -0.116866
  35 N :   -0.142541
Sum of atomic charges:    0.0000000

LOEWDIN ATOMIC CHARGES
----------------------
   0 C :   -0.285483
   1 H :    0.154406
   2 H :    0.146448
   3 H :    0.153150
   4 C :   -0.202330
   5 N :    0.032857
   6 C :   -0.283041
   7 H :    0.157182
   8 H :    0.150492
   9 H :    0.155037
  10 C :   -0.199247
  11 N :    0.026623
  12 C :   -0.284456
  13 H :    0.152955
  14 H :    0.153476
  15 H :    0.147945
  16 C :   -0.203338
  17 N :    0.033227
  18 C :   -0.275535
  19 H :    0.158284
  20 H :    0.152525
  21 H :    0.153839
  22 C :   -0.200381
  23 N :    0.029556
  24 C :   -0.292490
  25 H :    0.151862
  26 H :    0.147222
  27 H :    0.150238
  28 C :   -0.211786
  29 N :    0.037575
  30 C :   -0.284211
  31 H :    0.152142
  32 H :    0.149868
  33 H :    0.155361
  34 C :   -0.205087
  35 N :    0.025113

  Mayer bond orders larger than 0.100000
B(  0-C ,  1-H ) :   0.9127 B(  0-C ,  2-H ) :   0.9104 B(  0-C ,  3-H ) :   0.9126
B(  0-C ,  4-C ) :   0.8985 B(  4-C ,  5-N ) :   2.7327 B(  6-C ,  7-H ) :   0.9037
B(  6-C ,  8-H ) :   0.9067 B(  6-C ,  9-H ) :   0.9082 B(  6-C , 10-C ) :   0.8870
B( 10-C , 11-N ) :   2.7279 B( 12-C , 13-H ) :   0.9103 B( 12-C , 14-H ) :   0.9118
B( 12-C , 15-H ) :   0.9118 B( 12-C , 16-C ) :   0.9051 B( 16-C , 17-N ) :   2.7550
B( 18-C , 19-H ) :   0.8998 B( 18-C , 20-H ) :   0.9205 B( 18-C , 21-H ) :   0.9023
B( 18-C , 22-C ) :   0.9002 B( 22-C , 23-N ) :   2.6781 B( 24-C , 25-H ) :   0.9079
B( 24-C , 26-H ) :   0.9121 B( 24-C , 27-H ) :   0.9153 B( 24-C , 28-C ) :   0.9036
B( 28-C , 29-N ) :   2.7692 B( 30-C , 31-H ) :   0.9098 B( 30-C , 32-H ) :   0.9077
B( 30-C , 33-H ) :   0.9021 B( 30-C , 34-C ) :   0.9326 B( 34-C , 35-N ) :   2.7744

MP2 TOTAL ENERGY:     -794.954952931 Eh
FINAL SINGLE POINT ENERGY      -794.954952931181

DIPOLE MOMENT
-------------
                                X             Y             Z
Electronic contribution:      1.14367       4.08125      -0.94573
Nuclear contribution   :     -1.72462      -5.89227       1.29100
                        -----------------------------------------
Total Dipole Moment    :     -0.58095      -1.81101       0.34527
                        -----------------------------------------
Magnitude (a.u.)       :      1.93300
Magnitude (Debye)      :      4.91329

Rotational constants in cm-1:     0.013678     0.008967     0.007923
Rotational constants in MHz :   410.042542   268.813352   237.538203

                             ****ORCA TERMINATED NORMALLY****
TOTAL RUN TIME: 0 days 0 hours 37 minutes 43 seconds 109 msec
