                         Program Version 3.0.3 - RELEASE   -
|  1> ! BP86 Def2-SVP TightSCF Opt D3BJ
|  2>
|  3> %pal nprocs 12 end
|  4>
|  5> %scf
|  6>         maxiter 800
|  7> end
|  8>
|  9> * xyz  0  1
| 10>   O      1.917812    1.163363    0.515807
| 11>   H      1.402840    1.558921   -0.187450
| 12>   H      1.307768    1.094004    1.250155
| 13>   O     -0.081997    0.618336    2.373167
| 14>   H     -0.125264   -0.315920    2.169393
| 15>   H     -0.104203    0.656691    3.329341
| 16>   O     -0.126737   -1.973437    1.455550
| 17>   H      0.602800   -1.858514    0.846616
| 18>   H     -0.047940   -2.878725    1.756343
| 19>   O     -1.785962    1.425392    0.335462
| 20>   H     -2.035183    0.551344    0.035194
| 21>   H     -1.302655    1.271530    1.147233
| 22>   O      1.785964   -1.425392   -0.335460
| 23>   H      1.302660   -1.271531   -1.147233
| 24>   H      2.035185   -0.551343   -0.035193
| 25>   O      0.126736    1.973436   -1.455551
| 26>   H      0.047941    2.878726   -1.756340
| 27>   H     -0.602800    1.858513   -0.846616
| 28>   O      0.081999   -0.618338   -2.373168
| 29>   H      0.125265    0.315919   -2.169394
| 30>   H      0.104188   -0.656693   -3.329341
| 31>   O     -1.917811   -1.163361   -0.515808
| 32>   H     -1.307766   -1.094003   -1.250156
| 33>   H     -1.402841   -1.558921    0.187449
| 34> **                         ****END OF INPUT****
 Total Charge           Charge          ....    0
 Multiplicity           Mult            ....    1
 Number of Electrons    NEL             ....   80
Dispersion correction           -0.022489600
FINAL SINGLE POINT ENERGY      -611.073889150636
Dispersion correction            ...
Dispersion correction           -0.022056912
FINAL SINGLE POINT ENERGY      -611.089129935471
Dispersion correction            ...
Dispersion correction           -0.022216936
FINAL SINGLE POINT ENERGY      -611.092803433073
Dispersion correction            ...
FINAL SINGLE POINT ENERGY      -611.095161958682
FINAL SINGLE POINT ENERGY      -611.097077136585
FINAL SINGLE POINT ENERGY      -611.098604067937
FINAL SINGLE POINT ENERGY      -611.099716029231
FINAL SINGLE POINT ENERGY      -611.100436954178
FINAL SINGLE POINT ENERGY      -611.100818052310
FINAL SINGLE POINT ENERGY      -611.100942958310
FINAL SINGLE POINT ENERGY      -611.102393892889
FINAL SINGLE POINT ENERGY      -611.102413096147
FINAL SINGLE POINT ENERGY      -611.102431609876
FINAL SINGLE POINT ENERGY      -611.102451747979
FINAL SINGLE POINT ENERGY      -611.102468457749
FINAL SINGLE POINT ENERGY      -611.102481790275
FINAL SINGLE POINT ENERGY      -611.102494585160
Dispersion correction            ...
Dispersion correction           -0.023765690
FINAL SINGLE POINT ENERGY      -611.102506737600
Dispersion correction            ...
Dispersion correction           -0.023768701
FINAL SINGLE POINT ENERGY      -611.102514825119
Dispersion correction            ...
                    ***********************HURRAY********************

CARTESIAN COORDINATES (ANGSTROEM)
---------------------------------
  O      2.051532    1.097154    0.526730
  H      1.482804    1.519451   -0.173114
  H      1.423730    1.043711    1.293118
  O     -0.064418    0.597699    2.244940
  H     -0.120509   -0.396767    2.020135
  H     -0.161931    0.670983    3.211493
  O     -0.131955   -1.814448    1.286191
  H      0.725702   -1.704082    0.638498
  H     -0.004630   -2.643515    1.781636
  O     -1.774149    1.404553    0.274919
  H     -2.035090    0.461960   -0.020397
  H     -1.266315    1.236579    1.115430
  O      1.774148   -1.404554   -0.274919
  H      1.266315   -1.236580   -1.115431
  H      2.035090   -0.461960    0.020397
  O      0.131954    1.814447   -1.286190
  H      0.004631    2.643515   -1.781636
  H     -0.725703    1.704082   -0.638499
  O      0.064419   -0.597699   -2.244940
  H      0.120509    0.396766   -2.020134
  H      0.161929   -0.670982   -3.211494
  O     -2.051532   -1.097154   -0.526730
  H     -1.423729   -1.043712   -1.293118
  H     -1.482805   -1.519452    0.173114

 Multiplicity           Mult            ....    1
 Number of Electrons    NEL             ....   80
 Basis Dimension        Dim             ....  192

ORBITAL ENERGIES
----------------

  NO   OCC          E(Eh)            E(eV)
   0   2.0000     -18.792533      -511.3708
   1   2.0000     -18.792531      -511.3708
   2   2.0000     -18.782270      -511.0916
   3   2.0000     -18.782263      -511.0914
   4   2.0000     -18.756916      -510.4016
   5   2.0000     -18.756912      -510.4015
   6   2.0000     -18.750829      -510.2360
   7   2.0000     -18.750825      -510.2359
   8   2.0000      -0.927071       -25.2269
   9   2.0000      -0.919315       -25.0158
  10   2.0000      -0.906465       -24.6662
  11   2.0000      -0.899718       -24.4826
  12   2.0000      -0.888460       -24.1762
  13   2.0000      -0.879503       -23.9325
  14   2.0000      -0.869034       -23.6476
  15   2.0000      -0.860977       -23.4284
  16   2.0000      -0.499529       -13.5929
  17   2.0000      -0.498058       -13.5529
  18   2.0000      -0.471023       -12.8172
  19   2.0000      -0.468548       -12.7498
  20   2.0000      -0.452089       -12.3020
  21   2.0000      -0.448021       -12.1913
  22   2.0000      -0.447833       -12.1862
  23   2.0000      -0.441357       -12.0099
  24   2.0000      -0.393338       -10.7033
  25   2.0000      -0.364189        -9.9101
  26   2.0000      -0.362457        -9.8630
  27   2.0000      -0.336236        -9.1495
  28   2.0000      -0.336159        -9.1474
  29   2.0000      -0.326072        -8.8729
  30   2.0000      -0.316560        -8.6140
  31   2.0000      -0.288419        -7.8483
  32   2.0000      -0.274029        -7.4567
  33   2.0000      -0.268375        -7.3029
  34   2.0000      -0.266018        -7.2387
  35   2.0000      -0.262965        -7.1556
  36   2.0000      -0.250491        -6.8162
  37   2.0000      -0.247785        -6.7426
  38   2.0000      -0.231525        -6.3001
  39   2.0000      -0.231478        -6.2988
  40   0.0000       0.003481         0.0947
  41   0.0000       0.024597         0.6693
  42   0.0000       0.044585         1.2132
  43   0.0000       0.053657         1.4601
  44   0.0000       0.111783         3.0418

MULLIKEN ATOMIC CHARGES
-----------------------
   0 O :   -0.312142
   1 H :    0.141983
   2 H :    0.139538
   3 O :   -0.308196
   4 H :    0.152477
   5 H :    0.181667
   6 O :   -0.356708
   7 H :    0.179367
   8 H :    0.182974
   9 O :   -0.306026
  10 H :    0.157795
  11 H :    0.147269
  12 O :   -0.306026
  13 H :    0.147269
  14 H :    0.157795
  15 O :   -0.356708
  16 H :    0.182974
  17 H :    0.179367
  18 O :   -0.308196
  19 H :    0.152477
  20 H :    0.181667
  21 O :   -0.312142
  22 H :    0.139538
  23 H :    0.141984
Sum of atomic charges:   -0.0000000

LOEWDIN ATOMIC CHARGES
----------------------
   0 O :   -0.109922
   1 H :    0.035833
   2 H :    0.038365
   3 O :   -0.091307
   4 H :    0.030697
   5 H :    0.087130
   6 O :   -0.106683
   7 H :    0.024209
   8 H :    0.081213
   9 O :   -0.065749
  10 H :    0.037523
  11 H :    0.038691
  12 O :   -0.065749
  13 H :    0.038691
  14 H :    0.037523
  15 O :   -0.106683
  16 H :    0.081213
  17 H :    0.024209
  18 O :   -0.091307
  19 H :    0.030697
  20 H :    0.087130
  21 O :   -0.109922
  22 H :    0.038365
  23 H :    0.035833

  Mayer bond orders larger than 0.1
B(  0-O ,  1-H ) :   0.9097 B(  0-O ,  2-H ) :   0.9215 B(  0-O , 14-H ) :   0.2573
B(  1-H , 15-O ) :   0.1760 B(  2-H ,  3-O ) :   0.1645 B(  3-O ,  4-H ) :   0.8183
B(  3-O ,  5-H ) :   0.9786 B(  3-O , 11-H ) :   0.1775 B(  4-H ,  6-O ) :   0.2505
B(  6-O ,  7-H ) :   0.7036 B(  6-O ,  8-H ) :   0.9766 B(  6-O , 23-H ) :   0.1760
B(  7-H , 12-O ) :   0.3633 B(  9-O , 10-H ) :   0.8419 B(  9-O , 11-H ) :   0.9076
B(  9-O , 17-H ) :   0.3633 B( 10-H , 21-O ) :   0.2573 B( 12-O , 13-H ) :   0.9076
B( 12-O , 14-H ) :   0.8419 B( 13-H , 18-O ) :   0.1775 B( 15-O , 16-H ) :   0.9766
B( 15-O , 17-H ) :   0.7036 B( 15-O , 19-H ) :   0.2505 B( 18-O , 19-H ) :   0.8183
B( 18-O , 20-H ) :   0.9786 B( 18-O , 22-H ) :   0.1645 B( 21-O , 22-H ) :   0.9215
B( 21-O , 23-H ) :   0.9097

Dispersion correction           -0.023770528
FINAL SINGLE POINT ENERGY      -611.102518783067

DIPOLE MOMENT
-------------
                                X             Y             Z
Electronic contribution:      0.00000      -0.00000      -0.00000
Nuclear contribution   :     -0.00000       0.00000      -0.00000
                        -----------------------------------------
Total Dipole Moment    :     -0.00000       0.00000      -0.00000
                        -----------------------------------------
Magnitude (a.u.)       :      0.00000
Magnitude (Debye)      :      0.00000

                             ****ORCA TERMINATED NORMALLY****
TOTAL RUN TIME: 0 days 0 hours 32 minutes 32 seconds 620 msec
