                         Program Version 4.2.0 -  RELEASE  -
|  1> # 12h2o.su.etal.mol2,3,4,5,6,8,9,11
|  2> ! MP2 def2-TZVP EnGrad TightSCF
|  3>
|  4> %pal
|  5>     nprocs 6
|  6> end
|  7>
|  8> %maxcore 8000
|  9>
| 10> %scf
| 11>     ConvForced true
| 12> end
| 13>
| 14> *xyz 0 1
| 15> O   0.923410000  -1.794470000  -2.768350000
| 16> H   1.359750000  -2.338250000  -3.430940000
| 17> H   1.303000000  -0.879480000  -2.865760000
| 18> O  -1.752130000  -0.741530000  -2.896280000
| 19> H  -2.036450000  -0.920500000  -1.984040000
| 20> H  -0.921210000  -1.242140000  -2.984230000
| 21> O  -0.885520000   1.737840000   0.052730000
| 22> H  -1.032320000   2.090180000  -0.841890000
| 23> H  -1.284090000   0.839590000   0.017130000
| 24> O   0.885520000  -1.737840000   0.052730000
| 25> H   1.284090000  -0.839590000   0.017130000
| 26> H   1.032320000  -2.090180000  -0.841890000
| 27> O   1.737840000   0.885520000  -0.052730000
| 28> H   2.090180000   1.032320000   0.841890000
| 29> H   0.839590000   1.284090000  -0.017130000
| 30> O   1.752130000   0.741530000  -2.896280000
| 31> H   2.036450000   0.920500000  -1.984040000
| 32> H   0.921210000   1.242140000  -2.984230000
| 33> O   0.741530000  -1.752130000   2.896280000
| 34> H   0.920500000  -2.036450000   1.984040000
| 35> H   1.242140000  -0.921210000   2.984230000
| 36> O  -0.741530000   1.752130000   2.896280000
| 37> H  -0.920500000   2.036450000   1.984040000
| 38> H  -1.242140000   0.921210000   2.984230000
| 39> *
| 40>
| 41>                          ****END OF INPUT****

CARTESIAN COORDINATES (ANGSTROEM)
---------------------------------
  O      0.923410   -1.794470   -2.768350
  H      1.359750   -2.338250   -3.430940
  H      1.303000   -0.879480   -2.865760
  O     -1.752130   -0.741530   -2.896280
  H     -2.036450   -0.920500   -1.984040
  H     -0.921210   -1.242140   -2.984230
  O     -0.885520    1.737840    0.052730
  H     -1.032320    2.090180   -0.841890
  H     -1.284090    0.839590    0.017130
  O      0.885520   -1.737840    0.052730
  H      1.284090   -0.839590    0.017130
  H      1.032320   -2.090180   -0.841890
  O      1.737840    0.885520   -0.052730
  H      2.090180    1.032320    0.841890
  H      0.839590    1.284090   -0.017130
  O      1.752130    0.741530   -2.896280
  H      2.036450    0.920500   -1.984040
  H      0.921210    1.242140   -2.984230
  O      0.741530   -1.752130    2.896280
  H      0.920500   -2.036450    1.984040
  H      1.242140   -0.921210    2.984230
  O     -0.741530    1.752130    2.896280
  H     -0.920500    2.036450    1.984040
  H     -1.242140    0.921210    2.984230

 Total Charge           Charge          ....    0
 Multiplicity           Mult            ....    1
 Number of Electrons    NEL             ....   80
 Basis Dimension        Dim             ....  344

ORBITAL ENERGIES
----------------

  NO   OCC          E(Eh)            E(eV)
   0   2.0000     -20.642465      -561.7100
   1   2.0000     -20.606848      -560.7408
   2   2.0000     -20.600250      -560.5613
   3   2.0000     -20.575403      -559.8852
   4   2.0000     -20.556577      -559.3729
   5   2.0000     -20.553595      -559.2917
   6   2.0000     -20.539868      -558.9182
   7   2.0000     -20.529061      -558.6242
   8   2.0000      -1.426378       -38.8137
   9   2.0000      -1.397388       -38.0249
  10   2.0000      -1.386795       -37.7366
  11   2.0000      -1.361204       -37.0402
  12   2.0000      -1.337908       -36.4063
  13   2.0000      -1.335458       -36.3396
  14   2.0000      -1.327251       -36.1163
  15   2.0000      -1.309578       -35.6354
  16   2.0000      -0.782934       -21.3047
  17   2.0000      -0.765598       -20.8330
  18   2.0000      -0.748460       -20.3666
  19   2.0000      -0.742735       -20.2108
  20   2.0000      -0.711541       -19.3620
  21   2.0000      -0.708004       -19.2658
  22   2.0000      -0.706471       -19.2240
  23   2.0000      -0.678982       -18.4760
  24   2.0000      -0.666612       -18.1394
  25   2.0000      -0.647616       -17.6225
  26   2.0000      -0.625839       -17.0300
  27   2.0000      -0.608551       -16.5595
  28   2.0000      -0.591699       -16.1009
  29   2.0000      -0.581380       -15.8202
  30   2.0000      -0.571158       -15.5420
  31   2.0000      -0.565892       -15.3987
  32   2.0000      -0.551878       -15.0174
  33   2.0000      -0.537756       -14.6331
  34   2.0000      -0.536442       -14.5973
  35   2.0000      -0.518654       -14.1133
  36   2.0000      -0.503746       -13.7076
  37   2.0000      -0.500167       -13.6102
  38   2.0000      -0.491375       -13.3710
  39   2.0000      -0.474858       -12.9215
  40   0.0000       0.063452         1.7266
  41   0.0000       0.115527         3.1436
  42   0.0000       0.121436         3.3044
  43   0.0000       0.131034         3.5656
  44   0.0000       0.163621         4.4524

MULLIKEN ATOMIC CHARGES
-----------------------
   0 O :   -0.753896
   1 H :    0.352536
   2 H :    0.385681
   3 O :   -0.710980
   4 H :    0.324093
   5 H :    0.368686
   6 O :   -0.713858
   7 H :    0.371872
   8 H :    0.371655
   9 O :   -0.748280
  10 H :    0.337669
  11 H :    0.372002
  12 O :   -0.737742
  13 H :    0.370686
  14 H :    0.369620
  15 O :   -0.693839
  16 H :    0.393125
  17 H :    0.346234
  18 O :   -0.699825
  19 H :    0.375863
  20 H :    0.314020
  21 O :   -0.698102
  22 H :    0.363447
  23 H :    0.339335
Sum of atomic charges:   -0.0000000

LOEWDIN ATOMIC CHARGES
----------------------
   0 O :   -0.313485
   1 H :    0.160390
   2 H :    0.146578
   3 O :   -0.346629
   4 H :    0.155142
   5 H :    0.149187
   6 O :   -0.272062
   7 H :    0.177252
   8 H :    0.183972
   9 O :   -0.349065
  10 H :    0.134039
  11 H :    0.148520
  12 O :   -0.294488
  13 H :    0.175872
  14 H :    0.145419
  15 O :   -0.270283
  16 H :    0.160148
  17 H :    0.168449
  18 O :   -0.342042
  19 H :    0.153050
  20 H :    0.152484
  21 O :   -0.335902
  22 H :    0.148306
  23 H :    0.165149

  Mayer bond orders larger than 0.100000
B(  0-O ,  1-H ) :   0.8391 B(  0-O ,  2-H ) :   0.7433 B(  3-O ,  4-H ) :   0.8586
B(  3-O ,  5-H ) :   0.8038 B(  6-O ,  7-H ) :   0.8248 B(  6-O ,  8-H ) :   0.8144
B(  9-O , 10-H ) :   0.7955 B(  9-O , 11-H ) :   0.8095 B( 12-O , 13-H ) :   0.8269
B( 12-O , 14-H ) :   0.7705 B( 15-O , 16-H ) :   0.7973 B( 15-O , 17-H ) :   0.8405
B( 18-O , 19-H ) :   0.8104 B( 18-O , 20-H ) :   0.8628 B( 21-O , 22-H ) :   0.8309
B( 21-O , 23-H ) :   0.8474

MP2 TOTAL ENERGY:     -610.575381502 Eh
FINAL SINGLE POINT ENERGY      -610.575381501886

DIPOLE MOMENT
-------------
                                X             Y             Z
Electronic contribution:      0.06874       0.34036      -0.12277
Nuclear contribution   :      0.22475       0.76293      -1.40687
                        -----------------------------------------
Total Dipole Moment    :      0.29349       1.10328      -1.52964
                        -----------------------------------------
Magnitude (a.u.)       :      1.90871
Magnitude (Debye)      :      4.85156

Rotational constants in cm-1:     0.033419     0.018174     0.016065
Rotational constants in MHz :  1001.878191   544.848759   481.607967

                             ****ORCA TERMINATED NORMALLY****
TOTAL RUN TIME: 0 days 0 hours 3 minutes 5 seconds 848 msec
