                         Program Version 4.2.0 -  RELEASE  -
|  1> # 12meoh.boyd.etal.mol3,8,9
|  2> ! MP2 def2-TZVP EnGrad TightSCF
|  3>
|  4> %pal
|  5>     nprocs 6
|  6> end
|  7>
|  8> %maxcore 8000
|  9>
| 10> %scf
| 11>     ConvForced true
| 12> end
| 13>
| 14> *xyz 0 1
| 15> O  -3.821405976  -2.118091637   0.596795346
| 16> H  -4.342989117  -1.344303030   0.251966383
| 17> C  -3.443883586  -1.809641231   1.934889393
| 18> H  -2.831494349  -2.637429600   2.305201764
| 19> H  -4.325601146  -1.719364371   2.585074667
| 20> H  -2.858527126  -0.882644791   1.996110694
| 21> O   3.570084754   2.361662577  -0.202416728
| 22> H   3.393280933   1.755669977   0.560634073
| 23> C   4.368082883   1.644741793  -1.143112807
| 24> H   4.552851717   2.311801738  -1.989632421
| 25> H   3.862427494   0.740851663  -1.508095690
| 26> H   5.333949674   1.357289092  -0.706288100
| 27> O   1.390610024   3.194080770  -1.536658882
| 28> H   2.162932299   2.881562730  -0.993525056
| 29> C   1.202977189   4.580367182  -1.302880219
| 30> H   0.374773115   4.915764831  -1.934164643
| 31> H   2.098649340   5.157710875  -1.570472348
| 32> H   0.950320401   4.800436015  -0.254328827
| 33> *
| 34>
| 35>                          ****END OF INPUT****

CARTESIAN COORDINATES (ANGSTROEM)
---------------------------------
  O     -3.821406   -2.118092    0.596795
  H     -4.342989   -1.344303    0.251966
  C     -3.443884   -1.809641    1.934889
  H     -2.831494   -2.637430    2.305202
  H     -4.325601   -1.719364    2.585075
  H     -2.858527   -0.882645    1.996111
  O      3.570085    2.361663   -0.202417
  H      3.393281    1.755670    0.560634
  C      4.368083    1.644742   -1.143113
  H      4.552852    2.311802   -1.989632
  H      3.862427    0.740852   -1.508096
  H      5.333950    1.357289   -0.706288
  O      1.390610    3.194081   -1.536659
  H      2.162932    2.881563   -0.993525
  C      1.202977    4.580367   -1.302880
  H      0.374773    4.915765   -1.934165
  H      2.098649    5.157711   -1.570472
  H      0.950320    4.800436   -0.254329

 Total Charge           Charge          ....    0
 Multiplicity           Mult            ....    1
 Number of Electrons    NEL             ....   54
 Basis Dimension        Dim             ....  258

ORBITAL ENERGIES
----------------

  NO   OCC          E(Eh)            E(eV)
   0   2.0000     -20.590223      -560.2885
   1   2.0000     -20.555811      -559.3520
   2   2.0000     -20.514619      -558.2312
   3   2.0000     -11.289245      -307.1960
   4   2.0000     -11.270330      -306.6813
   5   2.0000     -11.248751      -306.0941
   6   2.0000      -1.383821       -37.6557
   7   2.0000      -1.344913       -36.5969
   8   2.0000      -1.312753       -35.7218
   9   2.0000      -0.941225       -25.6120
  10   2.0000      -0.917752       -24.9733
  11   2.0000      -0.895590       -24.3702
  12   2.0000      -0.717776       -19.5317
  13   2.0000      -0.679455       -18.4889
  14   2.0000      -0.672877       -18.3099
  15   2.0000      -0.632512       -17.2115
  16   2.0000      -0.615972       -16.7614
  17   2.0000      -0.610034       -16.5999
  18   2.0000      -0.590484       -16.0679
  19   2.0000      -0.588517       -16.0144
  20   2.0000      -0.562940       -15.3184
  21   2.0000      -0.529299       -14.4029
  22   2.0000      -0.499180       -13.5834
  23   2.0000      -0.488444       -13.2912
  24   2.0000      -0.456014       -12.4088
  25   2.0000      -0.447777       -12.1846
  26   2.0000      -0.416754       -11.3405
  27   0.0000       0.119228         3.2444
  28   0.0000       0.137294         3.7360
  29   0.0000       0.163695         4.4544
  30   0.0000       0.171091         4.6556
  31   0.0000       0.177406         4.8275

MULLIKEN ATOMIC CHARGES
-----------------------
   0 O :   -0.494870
   1 H :    0.322160
   2 C :   -0.174928
   3 H :    0.127348
   4 H :    0.109003
   5 H :    0.111288
   6 O :   -0.514670
   7 H :    0.340856
   8 C :   -0.193434
   9 H :    0.145723
  10 H :    0.134264
  11 H :    0.125258
  12 O :   -0.534926
  13 H :    0.343376
  14 C :   -0.156667
  15 H :    0.118576
  16 H :    0.096486
  17 H :    0.095160
Sum of atomic charges:    0.0000000

LOEWDIN ATOMIC CHARGES
----------------------
   0 O :   -0.109518
   1 H :    0.191275
   2 C :   -0.382394
   3 H :    0.109755
   4 H :    0.095295
   5 H :    0.095587
   6 O :   -0.077518
   7 H :    0.196544
   8 C :   -0.370936
   9 H :    0.117082
  10 H :    0.104303
  11 H :    0.103329
  12 O :   -0.121801
  13 H :    0.157784
  14 C :   -0.396691
  15 H :    0.105068
  16 H :    0.091750
  17 H :    0.091087

  Mayer bond orders larger than 0.100000
B(  0-O ,  1-H ) :   0.8423 B(  0-O ,  2-C ) :   0.9278 B(  2-C ,  3-H ) :   0.9377
B(  2-C ,  4-H ) :   0.9392 B(  2-C ,  5-H ) :   0.9384 B(  6-O ,  7-H ) :   0.8294
B(  6-O ,  8-C ) :   0.8669 B(  8-C ,  9-H ) :   0.9383 B(  8-C , 10-H ) :   0.9398
B(  8-C , 11-H ) :   0.9334 B( 12-O , 13-H ) :   0.7880 B( 12-O , 14-C ) :   0.9451
B( 14-C , 15-H ) :   0.9409 B( 14-C , 16-H ) :   0.9366 B( 14-C , 17-H ) :   0.9423

MP2 TOTAL ENERGY:     -346.530058022 Eh
FINAL SINGLE POINT ENERGY      -346.530058021736

DIPOLE MOMENT
-------------
                                X             Y             Z
Electronic contribution:     -0.94375      -1.49358      -0.89571
Nuclear contribution   :      1.73054       1.55897       1.82299
                        -----------------------------------------
Total Dipole Moment    :      0.78680       0.06539       0.92728
                        -----------------------------------------
Magnitude (a.u.)       :      1.21786
Magnitude (Debye)      :      3.09555

Rotational constants in cm-1:     0.074138     0.011110     0.010073
Rotational constants in MHz :  2222.595910   333.066304   301.991596

                             ****ORCA TERMINATED NORMALLY****
TOTAL RUN TIME: 0 days 0 hours 0 minutes 57 seconds 484 msec
