                         Program Version 4.2.0 -  RELEASE  -
|  1> # 12meoh.boyd.etal.mol4,7,9
|  2> ! MP2 def2-TZVP EnGrad TightSCF
|  3>
|  4> %pal
|  5>     nprocs 6
|  6> end
|  7>
|  8> %maxcore 8000
|  9>
| 10> %scf
| 11>     ConvForced true
| 12> end
| 13>
| 14> *xyz 0 1
| 15> O  -1.358578914   1.232360421   1.189721000
| 16> H  -1.058250183   1.216459361   0.238591307
| 17> C  -0.389763452   1.957872567   1.943072362
| 18> H  -0.747220771   2.012806578   2.975200343
| 19> H  -0.260410585   2.982763209   1.565366540
| 20> H   0.585220638   1.453754179   1.934070793
| 21> O   4.310535586  -1.588322800   0.656128299
| 22> H   3.804372199  -1.630404735  -0.196849819
| 23> C   4.312298137  -2.894980854   1.222112691
| 24> H   4.713177833  -2.819907076   2.237066773
| 25> H   4.957796734  -3.574699304   0.648211180
| 26> H   3.302735989  -3.324433205   1.269756773
| 27> O   1.390610024   3.194080770  -1.536658882
| 28> H   2.162932299   2.881562730  -0.993525056
| 29> C   1.202977189   4.580367182  -1.302880219
| 30> H   0.374773115   4.915764831  -1.934164643
| 31> H   2.098649340   5.157710875  -1.570472348
| 32> H   0.950320401   4.800436015  -0.254328827
| 33> *
| 34>
| 35>                          ****END OF INPUT****

CARTESIAN COORDINATES (ANGSTROEM)
---------------------------------
  O     -1.358579    1.232360    1.189721
  H     -1.058250    1.216459    0.238591
  C     -0.389763    1.957873    1.943072
  H     -0.747221    2.012807    2.975200
  H     -0.260411    2.982763    1.565367
  H      0.585221    1.453754    1.934071
  O      4.310536   -1.588323    0.656128
  H      3.804372   -1.630405   -0.196850
  C      4.312298   -2.894981    1.222113
  H      4.713178   -2.819907    2.237067
  H      4.957797   -3.574699    0.648211
  H      3.302736   -3.324433    1.269757
  O      1.390610    3.194081   -1.536659
  H      2.162932    2.881563   -0.993525
  C      1.202977    4.580367   -1.302880
  H      0.374773    4.915765   -1.934165
  H      2.098649    5.157711   -1.570472
  H      0.950320    4.800436   -0.254329

 Total Charge           Charge          ....    0
 Multiplicity           Mult            ....    1
 Number of Electrons    NEL             ....   54
 Basis Dimension        Dim             ....  258

ORBITAL ENERGIES
----------------

  NO   OCC          E(Eh)            E(eV)
   0   2.0000     -20.566268      -559.6366
   1   2.0000     -20.560537      -559.4807
   2   2.0000     -20.551644      -559.2387
   3   2.0000     -11.277585      -306.8787
   4   2.0000     -11.273725      -306.7737
   5   2.0000     -11.267662      -306.6087
   6   2.0000      -1.356572       -36.9142
   7   2.0000      -1.350159       -36.7397
   8   2.0000      -1.339311       -36.4445
   9   2.0000      -0.926062       -25.1994
  10   2.0000      -0.921846       -25.0847
  11   2.0000      -0.914836       -24.8940
  12   2.0000      -0.690515       -18.7899
  13   2.0000      -0.684658       -18.6305
  14   2.0000      -0.675058       -18.3693
  15   2.0000      -0.624377       -16.9902
  16   2.0000      -0.619353       -16.8535
  17   2.0000      -0.611692       -16.6450
  18   2.0000      -0.599789       -16.3211
  19   2.0000      -0.593620       -16.1532
  20   2.0000      -0.584948       -15.9173
  21   2.0000      -0.506610       -13.7856
  22   2.0000      -0.503626       -13.7044
  23   2.0000      -0.495463       -13.4822
  24   2.0000      -0.456380       -12.4187
  25   2.0000      -0.451887       -12.2965
  26   2.0000      -0.444026       -12.0826
  27   0.0000       0.109961         2.9922
  28   0.0000       0.135359         3.6833
  29   0.0000       0.160265         4.3610
  30   0.0000       0.166729         4.5369
  31   0.0000       0.176229         4.7954

MULLIKEN ATOMIC CHARGES
-----------------------
   0 O :   -0.503847
   1 H :    0.328059
   2 C :   -0.169840
   3 H :    0.129058
   4 H :    0.103391
   5 H :    0.109070
   6 O :   -0.500363
   7 H :    0.321929
   8 C :   -0.174284
   9 H :    0.129326
  10 H :    0.110209
  11 H :    0.113394
  12 O :   -0.504962
  13 H :    0.326584
  14 C :   -0.172890
  15 H :    0.132105
  16 H :    0.116798
  17 H :    0.106266
Sum of atomic charges:   -0.0000000

LOEWDIN ATOMIC CHARGES
----------------------
   0 O :   -0.113135
   1 H :    0.193736
   2 C :   -0.381936
   3 H :    0.109450
   4 H :    0.094018
   5 H :    0.095134
   6 O :   -0.111310
   7 H :    0.189390
   8 C :   -0.380517
   9 H :    0.110146
  10 H :    0.095743
  11 H :    0.096655
  12 O :   -0.107196
  13 H :    0.192112
  14 C :   -0.384843
  15 H :    0.111577
  16 H :    0.097381
  17 H :    0.093596

  Mayer bond orders larger than 0.100000
B(  0-O ,  1-H ) :   0.8373 B(  0-O ,  2-C ) :   0.9278 B(  2-C ,  3-H ) :   0.9371
B(  2-C ,  4-H ) :   0.9390 B(  2-C ,  5-H ) :   0.9406 B(  6-O ,  7-H ) :   0.8429
B(  6-O ,  8-C ) :   0.9234 B(  8-C ,  9-H ) :   0.9377 B(  8-C , 10-H ) :   0.9384
B(  8-C , 11-H ) :   0.9402 B( 12-O , 13-H ) :   0.8386 B( 12-O , 14-C ) :   0.9193
B( 14-C , 15-H ) :   0.9377 B( 14-C , 16-H ) :   0.9417 B( 14-C , 17-H ) :   0.9353

MP2 TOTAL ENERGY:     -346.522871216 Eh
FINAL SINGLE POINT ENERGY      -346.522871215991

DIPOLE MOMENT
-------------
                                X             Y             Z
Electronic contribution:     -1.09243      -0.98323      -1.82601
Nuclear contribution   :      1.77442       1.09186       1.64437
                        -----------------------------------------
Total Dipole Moment    :      0.68199       0.10864      -0.18164
                        -----------------------------------------
Magnitude (a.u.)       :      0.71407
Magnitude (Debye)      :      1.81502

Rotational constants in cm-1:     0.051943     0.017453     0.013633
Rotational constants in MHz :  1557.214687   523.234093   408.700062

                             ****ORCA TERMINATED NORMALLY****
TOTAL RUN TIME: 0 days 0 hours 0 minutes 54 seconds 645 msec
