                         Program Version 4.2.0 -  RELEASE  -
|  1> # 12h2o.su.etal.mol1,4,5,6,7,8,9
|  2> ! MP2 def2-TZVP EnGrad TightSCF
|  3>
|  4> %pal
|  5>     nprocs 6
|  6> end
|  7>
|  8> %maxcore 8000
|  9>
| 10> %scf
| 11>     ConvForced true
| 12> end
| 13>
| 14> *xyz 0 1
| 15> O  -1.794470000  -0.923410000   2.768350000
| 16> H  -2.338250000  -1.359750000   3.430940000
| 17> H  -0.879480000  -1.303000000   2.865760000
| 18> O  -0.885520000   1.737840000   0.052730000
| 19> H  -1.032320000   2.090180000  -0.841890000
| 20> H  -1.284090000   0.839590000   0.017130000
| 21> O   0.885520000  -1.737840000   0.052730000
| 22> H   1.284090000  -0.839590000   0.017130000
| 23> H   1.032320000  -2.090180000  -0.841890000
| 24> O   1.737840000   0.885520000  -0.052730000
| 25> H   2.090180000   1.032320000   0.841890000
| 26> H   0.839590000   1.284090000  -0.017130000
| 27> O  -1.737840000  -0.885520000  -0.052730000
| 28> H  -2.090180000  -1.032320000   0.841890000
| 29> H  -0.839590000  -1.284090000  -0.017130000
| 30> O   1.752130000   0.741530000  -2.896280000
| 31> H   2.036450000   0.920500000  -1.984040000
| 32> H   0.921210000   1.242140000  -2.984230000
| 33> O   0.741530000  -1.752130000   2.896280000
| 34> H   0.920500000  -2.036450000   1.984040000
| 35> H   1.242140000  -0.921210000   2.984230000
| 36> *
| 37>
| 38>                          ****END OF INPUT****

CARTESIAN COORDINATES (ANGSTROEM)
---------------------------------
  O     -1.794470   -0.923410    2.768350
  H     -2.338250   -1.359750    3.430940
  H     -0.879480   -1.303000    2.865760
  O     -0.885520    1.737840    0.052730
  H     -1.032320    2.090180   -0.841890
  H     -1.284090    0.839590    0.017130
  O      0.885520   -1.737840    0.052730
  H      1.284090   -0.839590    0.017130
  H      1.032320   -2.090180   -0.841890
  O      1.737840    0.885520   -0.052730
  H      2.090180    1.032320    0.841890
  H      0.839590    1.284090   -0.017130
  O     -1.737840   -0.885520   -0.052730
  H     -2.090180   -1.032320    0.841890
  H     -0.839590   -1.284090   -0.017130
  O      1.752130    0.741530   -2.896280
  H      2.036450    0.920500   -1.984040
  H      0.921210    1.242140   -2.984230
  O      0.741530   -1.752130    2.896280
  H      0.920500   -2.036450    1.984040
  H      1.242140   -0.921210    2.984230

 Total Charge           Charge          ....    0
 Multiplicity           Mult            ....    1
 Number of Electrons    NEL             ....   70
 Basis Dimension        Dim             ....  301

ORBITAL ENERGIES
----------------

  NO   OCC          E(Eh)            E(eV)
   0   2.0000     -20.598384      -560.5105
   1   2.0000     -20.591683      -560.3282
   2   2.0000     -20.588864      -560.2515
   3   2.0000     -20.567790      -559.6780
   4   2.0000     -20.549979      -559.1933
   5   2.0000     -20.544182      -559.0356
   6   2.0000     -20.537824      -558.8626
   7   2.0000      -1.394146       -37.9366
   8   2.0000      -1.380990       -37.5786
   9   2.0000      -1.371913       -37.3317
  10   2.0000      -1.353383       -36.8274
  11   2.0000      -1.331719       -36.2379
  12   2.0000      -1.331219       -36.2243
  13   2.0000      -1.319318       -35.9005
  14   2.0000      -0.751944       -20.4614
  15   2.0000      -0.750153       -20.4127
  16   2.0000      -0.736157       -20.0319
  17   2.0000      -0.717600       -19.5269
  18   2.0000      -0.712979       -19.4012
  19   2.0000      -0.703441       -19.1416
  20   2.0000      -0.700371       -19.0581
  21   2.0000      -0.649939       -17.6857
  22   2.0000      -0.628801       -17.1105
  23   2.0000      -0.605961       -16.4890
  24   2.0000      -0.602260       -16.3883
  25   2.0000      -0.586423       -15.9574
  26   2.0000      -0.568310       -15.4645
  27   2.0000      -0.560205       -15.2440
  28   2.0000      -0.541190       -14.7265
  29   2.0000      -0.528285       -14.3754
  30   2.0000      -0.521992       -14.2041
  31   2.0000      -0.514630       -14.0038
  32   2.0000      -0.496141       -13.5007
  33   2.0000      -0.492918       -13.4130
  34   2.0000      -0.486729       -13.2446
  35   0.0000       0.082343         2.2407
  36   0.0000       0.116560         3.1718
  37   0.0000       0.144646         3.9360
  38   0.0000       0.152218         4.1421
  39   0.0000       0.187563         5.1038

MULLIKEN ATOMIC CHARGES
-----------------------
   0 O :   -0.738633
   1 H :    0.337436
   2 H :    0.371259
   3 O :   -0.714459
   4 H :    0.339371
   5 H :    0.383439
   6 O :   -0.745875
   7 H :    0.367059
   8 H :    0.373328
   9 O :   -0.737214
  10 H :    0.353351
  11 H :    0.369930
  12 O :   -0.735640
  13 H :    0.381045
  14 H :    0.353205
  15 O :   -0.691655
  16 H :    0.371321
  17 H :    0.320090
  18 O :   -0.689164
  19 H :    0.391431
  20 H :    0.340376
Sum of atomic charges:   -0.0000000

LOEWDIN ATOMIC CHARGES
----------------------
   0 O :   -0.341178
   1 H :    0.154168
   2 H :    0.143982
   3 O :   -0.306970
   4 H :    0.161621
   5 H :    0.148410
   6 O :   -0.297636
   7 H :    0.144095
   8 H :    0.177691
   9 O :   -0.295238
  10 H :    0.167359
  11 H :    0.146258
  12 O :   -0.317848
  13 H :    0.151342
  14 H :    0.137151
  15 O :   -0.336677
  16 H :    0.151004
  17 H :    0.158017
  18 O :   -0.272442
  19 H :    0.159546
  20 H :    0.167348

  Mayer bond orders larger than 0.100000
B(  0-O ,  1-H ) :   0.8504 B(  0-O ,  2-H ) :   0.7630 B(  3-O ,  4-H ) :   0.8470
B(  3-O ,  5-H ) :   0.7463 B(  3-O , 11-H ) :   0.1312 B(  5-H , 12-O ) :   0.1200
B(  6-O ,  7-H ) :   0.7606 B(  6-O ,  8-H ) :   0.8259 B(  9-O , 10-H ) :   0.8379
B(  9-O , 11-H ) :   0.7379 B( 12-O , 13-H ) :   0.7956 B( 12-O , 14-H ) :   0.7936
B( 15-O , 16-H ) :   0.8218 B( 15-O , 17-H ) :   0.8614 B( 18-O , 19-H ) :   0.7975
B( 18-O , 20-H ) :   0.8467

MP2 TOTAL ENERGY:     -534.268092671 Eh
FINAL SINGLE POINT ENERGY      -534.268092670620

DIPOLE MOMENT
-------------
                                X             Y             Z
Electronic contribution:      0.12120      -0.19649       0.08008
Nuclear contribution   :      0.41967       0.34148       0.63259
                        -----------------------------------------
Total Dipole Moment    :      0.54087       0.14499       0.71268
                        -----------------------------------------
Magnitude (a.u.)       :      0.90635
Magnitude (Debye)      :      2.30376

Rotational constants in cm-1:     0.053465     0.024762     0.021526
Rotational constants in MHz :  1602.849246   742.344575   645.341970

                             ****ORCA TERMINATED NORMALLY****
TOTAL RUN TIME: 0 days 0 hours 2 minutes 29 seconds 845 msec
