                         Program Version 4.2.0 -  RELEASE  -
|  1> # 12h2o.su.etal.mol0,4,5,8,11
|  2> ! MP2 def2-TZVP EnGrad TightSCF
|  3>
|  4> %pal
|  5>     nprocs 6
|  6> end
|  7>
|  8> %maxcore 8000
|  9>
| 10> %scf
| 11>     ConvForced true
| 12> end
| 13>
| 14> *xyz 0 1
| 15> O   1.794470000   0.923410000   2.768350000
| 16> H   2.338250000   1.359750000   3.430940000
| 17> H   0.879480000   1.303000000   2.865760000
| 18> O  -0.885520000   1.737840000   0.052730000
| 19> H  -1.032320000   2.090180000  -0.841890000
| 20> H  -1.284090000   0.839590000   0.017130000
| 21> O   0.885520000  -1.737840000   0.052730000
| 22> H   1.284090000  -0.839590000   0.017130000
| 23> H   1.032320000  -2.090180000  -0.841890000
| 24> O   1.752130000   0.741530000  -2.896280000
| 25> H   2.036450000   0.920500000  -1.984040000
| 26> H   0.921210000   1.242140000  -2.984230000
| 27> O  -0.741530000   1.752130000   2.896280000
| 28> H  -0.920500000   2.036450000   1.984040000
| 29> H  -1.242140000   0.921210000   2.984230000
| 30> *
| 31>
| 32>                          ****END OF INPUT****

CARTESIAN COORDINATES (ANGSTROEM)
---------------------------------
  O      1.794470    0.923410    2.768350
  H      2.338250    1.359750    3.430940
  H      0.879480    1.303000    2.865760
  O     -0.885520    1.737840    0.052730
  H     -1.032320    2.090180   -0.841890
  H     -1.284090    0.839590    0.017130
  O      0.885520   -1.737840    0.052730
  H      1.284090   -0.839590    0.017130
  H      1.032320   -2.090180   -0.841890
  O      1.752130    0.741530   -2.896280
  H      2.036450    0.920500   -1.984040
  H      0.921210    1.242140   -2.984230
  O     -0.741530    1.752130    2.896280
  H     -0.920500    2.036450    1.984040
  H     -1.242140    0.921210    2.984230

 Total Charge           Charge          ....    0
 Multiplicity           Mult            ....    1
 Number of Electrons    NEL             ....   50
 Basis Dimension        Dim             ....  215

ORBITAL ENERGIES
----------------

  NO   OCC          E(Eh)            E(eV)
   0   2.0000     -20.608942      -560.7978
   1   2.0000     -20.578581      -559.9717
   2   2.0000     -20.572698      -559.8116
   3   2.0000     -20.558223      -559.4177
   4   2.0000     -20.510824      -558.1279
   5   2.0000      -1.387741       -37.7624
   6   2.0000      -1.360210       -37.0132
   7   2.0000      -1.357527       -36.9402
   8   2.0000      -1.333944       -36.2985
   9   2.0000      -1.292873       -35.1809
  10   2.0000      -0.750645       -20.4261
  11   2.0000      -0.721924       -19.6446
  12   2.0000      -0.720330       -19.6012
  13   2.0000      -0.695513       -18.9259
  14   2.0000      -0.681502       -18.5446
  15   2.0000      -0.633085       -17.2271
  16   2.0000      -0.594787       -16.1850
  17   2.0000      -0.592776       -16.1302
  18   2.0000      -0.573740       -15.6123
  19   2.0000      -0.552567       -15.0361
  20   2.0000      -0.543418       -14.7872
  21   2.0000      -0.522020       -14.2049
  22   2.0000      -0.501133       -13.6365
  23   2.0000      -0.499807       -13.6004
  24   2.0000      -0.461307       -12.5528
  25   0.0000       0.071719         1.9516
  26   0.0000       0.126909         3.4534
  27   0.0000       0.133115         3.6222
  28   0.0000       0.165957         4.5159
  29   0.0000       0.183059         4.9813

MULLIKEN ATOMIC CHARGES
-----------------------
   0 O :   -0.734688
   1 H :    0.322164
   2 H :    0.368445
   3 O :   -0.696806
   4 H :    0.346958
   5 H :    0.357175
   6 O :   -0.681662
   7 H :    0.342621
   8 H :    0.336906
   9 O :   -0.667707
  10 H :    0.340644
  11 H :    0.328237
  12 O :   -0.691472
  13 H :    0.382792
  14 H :    0.346392
Sum of atomic charges:   -0.0000000

LOEWDIN ATOMIC CHARGES
----------------------
   0 O :   -0.373923
   1 H :    0.147502
   2 H :    0.142428
   3 O :   -0.315533
   4 H :    0.168773
   5 H :    0.178810
   6 O :   -0.336172
   7 H :    0.169663
   8 H :    0.164095
   9 O :   -0.325878
  10 H :    0.164551
  11 H :    0.162100
  12 O :   -0.275545
  13 H :    0.158528
  14 H :    0.170600

  Mayer bond orders larger than 0.100000
B(  0-O ,  1-H ) :   0.8619 B(  0-O ,  2-H ) :   0.7805 B(  3-O ,  4-H ) :   0.8432
B(  3-O ,  5-H ) :   0.8307 B(  6-O ,  7-H ) :   0.8417 B(  6-O ,  8-H ) :   0.8515
B(  9-O , 10-H ) :   0.8488 B(  9-O , 11-H ) :   0.8572 B( 12-O , 13-H ) :   0.8063
B( 12-O , 14-H ) :   0.8441

MP2 TOTAL ENERGY:     -381.583872996 Eh
FINAL SINGLE POINT ENERGY      -381.583872995727

DIPOLE MOMENT
-------------
                                X             Y             Z
Electronic contribution:     -0.06897      -0.02931      -0.00041
Nuclear contribution   :     -1.32960       0.78984      -0.91596
                        -----------------------------------------
Total Dipole Moment    :     -1.39857       0.76052      -0.91638
                        -----------------------------------------
Magnitude (a.u.)       :      1.83688
Magnitude (Debye)      :      4.66898

Rotational constants in cm-1:     0.070158     0.032438     0.027789
Rotational constants in MHz :  2103.269572   972.463706   833.106915

                             ****ORCA TERMINATED NORMALLY****
TOTAL RUN TIME: 0 days 0 hours 0 minutes 32 seconds 78 msec
