                         Program Version 4.2.0 -  RELEASE  -
|  1> # 12h2o.su.etal.mol1,2,4,7,11
|  2> ! MP2 def2-TZVP EnGrad TightSCF
|  3>
|  4> %pal
|  5>     nprocs 6
|  6> end
|  7>
|  8> %maxcore 8000
|  9>
| 10> %scf
| 11>     ConvForced true
| 12> end
| 13>
| 14> *xyz 0 1
| 15> O  -1.794470000  -0.923410000   2.768350000
| 16> H  -2.338250000  -1.359750000   3.430940000
| 17> H  -0.879480000  -1.303000000   2.865760000
| 18> O   0.923410000  -1.794470000  -2.768350000
| 19> H   1.359750000  -2.338250000  -3.430940000
| 20> H   1.303000000  -0.879480000  -2.865760000
| 21> O  -0.885520000   1.737840000   0.052730000
| 22> H  -1.032320000   2.090180000  -0.841890000
| 23> H  -1.284090000   0.839590000   0.017130000
| 24> O  -1.737840000  -0.885520000  -0.052730000
| 25> H  -2.090180000  -1.032320000   0.841890000
| 26> H  -0.839590000  -1.284090000  -0.017130000
| 27> O  -0.741530000   1.752130000   2.896280000
| 28> H  -0.920500000   2.036450000   1.984040000
| 29> H  -1.242140000   0.921210000   2.984230000
| 30> *
| 31>
| 32>                          ****END OF INPUT****

CARTESIAN COORDINATES (ANGSTROEM)
---------------------------------
  O     -1.794470   -0.923410    2.768350
  H     -2.338250   -1.359750    3.430940
  H     -0.879480   -1.303000    2.865760
  O      0.923410   -1.794470   -2.768350
  H      1.359750   -2.338250   -3.430940
  H      1.303000   -0.879480   -2.865760
  O     -0.885520    1.737840    0.052730
  H     -1.032320    2.090180   -0.841890
  H     -1.284090    0.839590    0.017130
  O     -1.737840   -0.885520   -0.052730
  H     -2.090180   -1.032320    0.841890
  H     -0.839590   -1.284090   -0.017130
  O     -0.741530    1.752130    2.896280
  H     -0.920500    2.036450    1.984040
  H     -1.242140    0.921210    2.984230

 Total Charge           Charge          ....    0
 Multiplicity           Mult            ....    1
 Number of Electrons    NEL             ....   50
 Basis Dimension        Dim             ....  215

ORBITAL ENERGIES
----------------

  NO   OCC          E(Eh)            E(eV)
   0   2.0000     -20.615147      -560.9667
   1   2.0000     -20.569920      -559.7360
   2   2.0000     -20.568516      -559.6978
   3   2.0000     -20.536006      -558.8131
   4   2.0000     -20.499771      -557.8271
   5   2.0000      -1.395573       -37.9755
   6   2.0000      -1.352749       -36.8102
   7   2.0000      -1.345190       -36.6045
   8   2.0000      -1.318967       -35.8909
   9   2.0000      -1.284766       -34.9603
  10   2.0000      -0.760981       -20.7073
  11   2.0000      -0.716478       -19.4964
  12   2.0000      -0.713307       -19.4101
  13   2.0000      -0.692672       -18.8486
  14   2.0000      -0.666178       -18.1276
  15   2.0000      -0.634436       -17.2639
  16   2.0000      -0.592109       -16.1121
  17   2.0000      -0.581765       -15.8306
  18   2.0000      -0.580165       -15.7871
  19   2.0000      -0.546494       -14.8709
  20   2.0000      -0.517253       -14.0752
  21   2.0000      -0.513152       -13.9636
  22   2.0000      -0.505510       -13.7556
  23   2.0000      -0.484185       -13.1753
  24   2.0000      -0.449514       -12.2319
  25   0.0000       0.092558         2.5186
  26   0.0000       0.114962         3.1283
  27   0.0000       0.154981         4.2172
  28   0.0000       0.164043         4.4638
  29   0.0000       0.197112         5.3637

MULLIKEN ATOMIC CHARGES
-----------------------
   0 O :   -0.712713
   1 H :    0.365983
   2 H :    0.368791
   3 O :   -0.686336
   4 H :    0.341493
   5 H :    0.346678
   6 O :   -0.725909
   7 H :    0.332191
   8 H :    0.356491
   9 O :   -0.691991
  10 H :    0.374529
  11 H :    0.350451
  12 O :   -0.724697
  13 H :    0.370436
  14 H :    0.334605
Sum of atomic charges:   -0.0000000

LOEWDIN ATOMIC CHARGES
----------------------
   0 O :   -0.286774
   1 H :    0.168568
   2 H :    0.191314
   3 O :   -0.340011
   4 H :    0.159309
   5 H :    0.182501
   6 O :   -0.343636
   7 H :    0.160531
   8 H :    0.143476
   9 O :   -0.294477
  10 H :    0.151007
  11 H :    0.174988
  12 O :   -0.355613
  13 H :    0.151914
  14 H :    0.136903

  Mayer bond orders larger than 0.100000
B(  0-O ,  1-H ) :   0.8309 B(  0-O ,  2-H ) :   0.8218 B(  3-O ,  4-H ) :   0.8514
B(  3-O ,  5-H ) :   0.8427 B(  6-O ,  7-H ) :   0.8526 B(  6-O ,  8-H ) :   0.7775
B(  9-O , 10-H ) :   0.8091 B(  9-O , 11-H ) :   0.8370 B( 12-O , 13-H ) :   0.8183
B( 12-O , 14-H ) :   0.8438

MP2 TOTAL ENERGY:     -381.592799398 Eh
FINAL SINGLE POINT ENERGY      -381.592799397544

DIPOLE MOMENT
-------------
                                X             Y             Z
Electronic contribution:     -0.19745      -0.13709       0.08978
Nuclear contribution   :      0.42292      -1.73347      -0.68611
                        -----------------------------------------
Total Dipole Moment    :      0.22547      -1.87056      -0.59632
                        -----------------------------------------
Magnitude (a.u.)       :      1.97622
Magnitude (Debye)      :      5.02314

Rotational constants in cm-1:     0.092530     0.030743     0.025657
Rotational constants in MHz :  2773.972133   921.654033   769.182908

                             ****ORCA TERMINATED NORMALLY****
TOTAL RUN TIME: 0 days 0 hours 0 minutes 29 seconds 469 msec
