                         Program Version 4.2.0 -  RELEASE  -
|  1> # 12h2o.su.etal.mol0,1,2,3,4,11
|  2> ! MP2 def2-TZVP EnGrad TightSCF
|  3>
|  4> %pal
|  5>     nprocs 6
|  6> end
|  7>
|  8> %maxcore 8000
|  9>
| 10> %scf
| 11>     ConvForced true
| 12> end
| 13>
| 14> *xyz 0 1
| 15> O   1.794470000   0.923410000   2.768350000
| 16> H   2.338250000   1.359750000   3.430940000
| 17> H   0.879480000   1.303000000   2.865760000
| 18> O  -1.794470000  -0.923410000   2.768350000
| 19> H  -2.338250000  -1.359750000   3.430940000
| 20> H  -0.879480000  -1.303000000   2.865760000
| 21> O   0.923410000  -1.794470000  -2.768350000
| 22> H   1.359750000  -2.338250000  -3.430940000
| 23> H   1.303000000  -0.879480000  -2.865760000
| 24> O  -1.752130000  -0.741530000  -2.896280000
| 25> H  -2.036450000  -0.920500000  -1.984040000
| 26> H  -0.921210000  -1.242140000  -2.984230000
| 27> O  -0.885520000   1.737840000   0.052730000
| 28> H  -1.032320000   2.090180000  -0.841890000
| 29> H  -1.284090000   0.839590000   0.017130000
| 30> O  -0.741530000   1.752130000   2.896280000
| 31> H  -0.920500000   2.036450000   1.984040000
| 32> H  -1.242140000   0.921210000   2.984230000
| 33> *
| 34>
| 35>                          ****END OF INPUT****

CARTESIAN COORDINATES (ANGSTROEM)
---------------------------------
  O      1.794470    0.923410    2.768350
  H      2.338250    1.359750    3.430940
  H      0.879480    1.303000    2.865760
  O     -1.794470   -0.923410    2.768350
  H     -2.338250   -1.359750    3.430940
  H     -0.879480   -1.303000    2.865760
  O      0.923410   -1.794470   -2.768350
  H      1.359750   -2.338250   -3.430940
  H      1.303000   -0.879480   -2.865760
  O     -1.752130   -0.741530   -2.896280
  H     -2.036450   -0.920500   -1.984040
  H     -0.921210   -1.242140   -2.984230
  O     -0.885520    1.737840    0.052730
  H     -1.032320    2.090180   -0.841890
  H     -1.284090    0.839590    0.017130
  O     -0.741530    1.752130    2.896280
  H     -0.920500    2.036450    1.984040
  H     -1.242140    0.921210    2.984230

 Total Charge           Charge          ....    0
 Multiplicity           Mult            ....    1
 Number of Electrons    NEL             ....   60
 Basis Dimension        Dim             ....  258

ORBITAL ENERGIES
----------------

  NO   OCC          E(Eh)            E(eV)
   0   2.0000     -20.594411      -560.4024
   1   2.0000     -20.593625      -560.3810
   2   2.0000     -20.578558      -559.9710
   3   2.0000     -20.545775      -559.0790
   4   2.0000     -20.537719      -558.8598
   5   2.0000     -20.501646      -557.8782
   6   2.0000      -1.372333       -37.3431
   7   2.0000      -1.371366       -37.3168
   8   2.0000      -1.357268       -36.9331
   9   2.0000      -1.329049       -36.1653
  10   2.0000      -1.327740       -36.1296
  11   2.0000      -1.283150       -34.9163
  12   2.0000      -0.739274       -20.1167
  13   2.0000      -0.738644       -20.0995
  14   2.0000      -0.720568       -19.6077
  15   2.0000      -0.696748       -18.9595
  16   2.0000      -0.695208       -18.9176
  17   2.0000      -0.669585       -18.2203
  18   2.0000      -0.617646       -16.8070
  19   2.0000      -0.611894       -16.6505
  20   2.0000      -0.598934       -16.2978
  21   2.0000      -0.568138       -15.4598
  22   2.0000      -0.566934       -15.4271
  23   2.0000      -0.538069       -14.6416
  24   2.0000      -0.531785       -14.4706
  25   2.0000      -0.524677       -14.2772
  26   2.0000      -0.519644       -14.1402
  27   2.0000      -0.492859       -13.4114
  28   2.0000      -0.476058       -12.9542
  29   2.0000      -0.452522       -12.3137
  30   0.0000       0.092406         2.5145
  31   0.0000       0.112142         3.0515
  32   0.0000       0.132706         3.6111
  33   0.0000       0.167176         4.5491
  34   0.0000       0.174832         4.7574

MULLIKEN ATOMIC CHARGES
-----------------------
   0 O :   -0.741473
   1 H :    0.319052
   2 H :    0.369047
   3 O :   -0.707740
   4 H :    0.356469
   5 H :    0.372267
   6 O :   -0.695617
   7 H :    0.354907
   8 H :    0.363096
   9 O :   -0.701994
  10 H :    0.322951
  11 H :    0.360843
  12 O :   -0.693633
  13 H :    0.354145
  14 H :    0.344588
  15 O :   -0.716838
  16 H :    0.382140
  17 H :    0.357791
Sum of atomic charges:   -0.0000000

LOEWDIN ATOMIC CHARGES
----------------------
   0 O :   -0.378344
   1 H :    0.145260
   2 H :    0.141549
   3 O :   -0.313912
   4 H :    0.165466
   5 H :    0.192718
   6 O :   -0.310250
   7 H :    0.164732
   8 H :    0.189583
   9 O :   -0.345227
  10 H :    0.155739
  11 H :    0.148660
  12 O :   -0.315721
  13 H :    0.172133
  14 H :    0.172704
  15 O :   -0.288616
  16 H :    0.156864
  17 H :    0.146662

  Mayer bond orders larger than 0.100000
B(  0-O ,  1-H ) :   0.8637 B(  0-O ,  2-H ) :   0.7699 B(  2-H , 15-O ) :   0.1027
B(  3-O ,  4-H ) :   0.8396 B(  3-O ,  5-H ) :   0.8210 B(  6-O ,  7-H ) :   0.8403
B(  6-O ,  8-H ) :   0.8291 B(  9-O , 10-H ) :   0.8604 B(  9-O , 11-H ) :   0.8131
B( 12-O , 13-H ) :   0.8394 B( 12-O , 14-H ) :   0.8390 B( 15-O , 16-H ) :   0.8077
B( 15-O , 17-H ) :   0.8131

MP2 TOTAL ENERGY:     -457.914140129 Eh
FINAL SINGLE POINT ENERGY      -457.914140128838

DIPOLE MOMENT
-------------
                                X             Y             Z
Electronic contribution:     -0.20118       0.01622      -0.20677
Nuclear contribution   :      0.11452      -1.16604      -0.14168
                        -----------------------------------------
Total Dipole Moment    :     -0.08667      -1.14981      -0.34845
                        -----------------------------------------
Magnitude (a.u.)       :      1.20457
Magnitude (Debye)      :      3.06179

Rotational constants in cm-1:     0.051777     0.018544     0.017326
Rotational constants in MHz :  1552.229489   555.935793   519.412908

                             ****ORCA TERMINATED NORMALLY****
TOTAL RUN TIME: 0 days 0 hours 0 minutes 52 seconds 233 msec
