                         Program Version 4.2.0 -  RELEASE  -
|  1> # 12h2o.su.etal.mol0,3,6,7,8,9,10
|  2> ! MP2 def2-TZVP EnGrad TightSCF
|  3>
|  4> %pal
|  5>     nprocs 6
|  6> end
|  7>
|  8> %maxcore 8000
|  9>
| 10> %scf
| 11>     ConvForced true
| 12> end
| 13>
| 14> *xyz 0 1
| 15> O   1.794470000   0.923410000   2.768350000
| 16> H   2.338250000   1.359750000   3.430940000
| 17> H   0.879480000   1.303000000   2.865760000
| 18> O  -1.752130000  -0.741530000  -2.896280000
| 19> H  -2.036450000  -0.920500000  -1.984040000
| 20> H  -0.921210000  -1.242140000  -2.984230000
| 21> O   1.737840000   0.885520000  -0.052730000
| 22> H   2.090180000   1.032320000   0.841890000
| 23> H   0.839590000   1.284090000  -0.017130000
| 24> O  -1.737840000  -0.885520000  -0.052730000
| 25> H  -2.090180000  -1.032320000   0.841890000
| 26> H  -0.839590000  -1.284090000  -0.017130000
| 27> O   1.752130000   0.741530000  -2.896280000
| 28> H   2.036450000   0.920500000  -1.984040000
| 29> H   0.921210000   1.242140000  -2.984230000
| 30> O   0.741530000  -1.752130000   2.896280000
| 31> H   0.920500000  -2.036450000   1.984040000
| 32> H   1.242140000  -0.921210000   2.984230000
| 33> O  -0.923410000   1.794470000  -2.768350000
| 34> H  -1.359750000   2.338250000  -3.430940000
| 35> H  -1.303000000   0.879480000  -2.865760000
| 36> *
| 37>
| 38>                          ****END OF INPUT****

CARTESIAN COORDINATES (ANGSTROEM)
---------------------------------
  O      1.794470    0.923410    2.768350
  H      2.338250    1.359750    3.430940
  H      0.879480    1.303000    2.865760
  O     -1.752130   -0.741530   -2.896280
  H     -2.036450   -0.920500   -1.984040
  H     -0.921210   -1.242140   -2.984230
  O      1.737840    0.885520   -0.052730
  H      2.090180    1.032320    0.841890
  H      0.839590    1.284090   -0.017130
  O     -1.737840   -0.885520   -0.052730
  H     -2.090180   -1.032320    0.841890
  H     -0.839590   -1.284090   -0.017130
  O      1.752130    0.741530   -2.896280
  H      2.036450    0.920500   -1.984040
  H      0.921210    1.242140   -2.984230
  O      0.741530   -1.752130    2.896280
  H      0.920500   -2.036450    1.984040
  H      1.242140   -0.921210    2.984230
  O     -0.923410    1.794470   -2.768350
  H     -1.359750    2.338250   -3.430940
  H     -1.303000    0.879480   -2.865760

 Total Charge           Charge          ....    0
 Multiplicity           Mult            ....    1
 Number of Electrons    NEL             ....   70
 Basis Dimension        Dim             ....  301

ORBITAL ENERGIES
----------------

  NO   OCC          E(Eh)            E(eV)
   0   2.0000     -20.630016      -561.3713
   1   2.0000     -20.597704      -560.4920
   2   2.0000     -20.567968      -559.6829
   3   2.0000     -20.563769      -559.5686
   4   2.0000     -20.558902      -559.4362
   5   2.0000     -20.531022      -558.6775
   6   2.0000     -20.492430      -557.6274
   7   2.0000      -1.410171       -38.3727
   8   2.0000      -1.376861       -37.4663
   9   2.0000      -1.355993       -36.8985
  10   2.0000      -1.345148       -36.6033
  11   2.0000      -1.341015       -36.4909
  12   2.0000      -1.314657       -35.7736
  13   2.0000      -1.277435       -34.7608
  14   2.0000      -0.775913       -21.1137
  15   2.0000      -0.740053       -20.1379
  16   2.0000      -0.716378       -19.4936
  17   2.0000      -0.715394       -19.4669
  18   2.0000      -0.711260       -19.3544
  19   2.0000      -0.698654       -19.0113
  20   2.0000      -0.654981       -17.8229
  21   2.0000      -0.646534       -17.5931
  22   2.0000      -0.624645       -16.9975
  23   2.0000      -0.602192       -16.3865
  24   2.0000      -0.592182       -16.1141
  25   2.0000      -0.577795       -15.7226
  26   2.0000      -0.561111       -15.2686
  27   2.0000      -0.554388       -15.0857
  28   2.0000      -0.541592       -14.7375
  29   2.0000      -0.522032       -14.2052
  30   2.0000      -0.507233       -13.8025
  31   2.0000      -0.505295       -13.7498
  32   2.0000      -0.501669       -13.6511
  33   2.0000      -0.477087       -12.9822
  34   2.0000      -0.442830       -12.0500
  35   0.0000       0.073124         1.9898
  36   0.0000       0.105304         2.8655
  37   0.0000       0.146509         3.9867
  38   0.0000       0.149163         4.0589
  39   0.0000       0.163740         4.4556

MULLIKEN ATOMIC CHARGES
-----------------------
   0 O :   -0.715268
   1 H :    0.370283
   2 H :    0.368987
   3 O :   -0.700721
   4 H :    0.385129
   5 H :    0.354180
   6 O :   -0.714324
   7 H :    0.368153
   8 H :    0.342503
   9 O :   -0.701170
  10 H :    0.359165
  11 H :    0.346658
  12 O :   -0.738701
  13 H :    0.363175
  14 H :    0.346972
  15 O :   -0.700009
  16 H :    0.328477
  17 H :    0.359991
  18 O :   -0.741073
  19 H :    0.334632
  20 H :    0.382958
Sum of atomic charges:    0.0000000

LOEWDIN ATOMIC CHARGES
----------------------
   0 O :   -0.286899
   1 H :    0.170772
   2 H :    0.191340
   3 O :   -0.275862
   4 H :    0.159097
   5 H :    0.172445
   6 O :   -0.324995
   7 H :    0.149318
   8 H :    0.169841
   9 O :   -0.317063
  10 H :    0.174214
  11 H :    0.172935
  12 O :   -0.361895
  13 H :    0.147300
  14 H :    0.140699
  15 O :   -0.342407
  16 H :    0.157868
  17 H :    0.147429
  18 O :   -0.342594
  19 H :    0.152610
  20 H :    0.145846

  Mayer bond orders larger than 0.100000
B(  0-O ,  1-H ) :   0.8284 B(  0-O ,  2-H ) :   0.8219 B(  3-O ,  4-H ) :   0.8037
B(  3-O ,  5-H ) :   0.8356 B(  6-O ,  7-H ) :   0.8158 B(  6-O ,  8-H ) :   0.8385
B(  9-O , 10-H ) :   0.8362 B(  9-O , 11-H ) :   0.8347 B( 12-O , 13-H ) :   0.8282
B( 12-O , 14-H ) :   0.8177 B( 15-O , 16-H ) :   0.8566 B( 15-O , 17-H ) :   0.8213
B( 18-O , 19-H ) :   0.8520 B( 18-O , 20-H ) :   0.7577

MP2 TOTAL ENERGY:     -534.241832007 Eh
FINAL SINGLE POINT ENERGY      -534.241832007344

DIPOLE MOMENT
-------------
                                X             Y             Z
Electronic contribution:     -0.09661      -0.21026       0.18626
Nuclear contribution   :     -0.42247       0.82514       2.23466
                        -----------------------------------------
Total Dipole Moment    :     -0.51908       0.61487       2.42092
                        -----------------------------------------
Magnitude (a.u.)       :      2.55115
Magnitude (Debye)      :      6.48452

Rotational constants in cm-1:     0.043532     0.019331     0.015261
Rotational constants in MHz :  1305.068198   579.527455   457.500978

                             ****ORCA TERMINATED NORMALLY****
TOTAL RUN TIME: 0 days 0 hours 1 minutes 41 seconds 968 msec
