                         Program Version 4.2.0 -  RELEASE  -
|  1> # 12h2o.su.etal.mol1,2,3,4,5,8,10,11
|  2> ! MP2 def2-TZVP EnGrad TightSCF
|  3>
|  4> %pal
|  5>     nprocs 6
|  6> end
|  7>
|  8> %maxcore 8000
|  9>
| 10> %scf
| 11>     ConvForced true
| 12> end
| 13>
| 14> *xyz 0 1
| 15> O  -1.794470000  -0.923410000   2.768350000
| 16> H  -2.338250000  -1.359750000   3.430940000
| 17> H  -0.879480000  -1.303000000   2.865760000
| 18> O   0.923410000  -1.794470000  -2.768350000
| 19> H   1.359750000  -2.338250000  -3.430940000
| 20> H   1.303000000  -0.879480000  -2.865760000
| 21> O  -1.752130000  -0.741530000  -2.896280000
| 22> H  -2.036450000  -0.920500000  -1.984040000
| 23> H  -0.921210000  -1.242140000  -2.984230000
| 24> O  -0.885520000   1.737840000   0.052730000
| 25> H  -1.032320000   2.090180000  -0.841890000
| 26> H  -1.284090000   0.839590000   0.017130000
| 27> O   0.885520000  -1.737840000   0.052730000
| 28> H   1.284090000  -0.839590000   0.017130000
| 29> H   1.032320000  -2.090180000  -0.841890000
| 30> O   1.752130000   0.741530000  -2.896280000
| 31> H   2.036450000   0.920500000  -1.984040000
| 32> H   0.921210000   1.242140000  -2.984230000
| 33> O  -0.923410000   1.794470000  -2.768350000
| 34> H  -1.359750000   2.338250000  -3.430940000
| 35> H  -1.303000000   0.879480000  -2.865760000
| 36> O  -0.741530000   1.752130000   2.896280000
| 37> H  -0.920500000   2.036450000   1.984040000
| 38> H  -1.242140000   0.921210000   2.984230000
| 39> *
| 40>
| 41>                          ****END OF INPUT****

CARTESIAN COORDINATES (ANGSTROEM)
---------------------------------
  O     -1.794470   -0.923410    2.768350
  H     -2.338250   -1.359750    3.430940
  H     -0.879480   -1.303000    2.865760
  O      0.923410   -1.794470   -2.768350
  H      1.359750   -2.338250   -3.430940
  H      1.303000   -0.879480   -2.865760
  O     -1.752130   -0.741530   -2.896280
  H     -2.036450   -0.920500   -1.984040
  H     -0.921210   -1.242140   -2.984230
  O     -0.885520    1.737840    0.052730
  H     -1.032320    2.090180   -0.841890
  H     -1.284090    0.839590    0.017130
  O      0.885520   -1.737840    0.052730
  H      1.284090   -0.839590    0.017130
  H      1.032320   -2.090180   -0.841890
  O      1.752130    0.741530   -2.896280
  H      2.036450    0.920500   -1.984040
  H      0.921210    1.242140   -2.984230
  O     -0.923410    1.794470   -2.768350
  H     -1.359750    2.338250   -3.430940
  H     -1.303000    0.879480   -2.865760
  O     -0.741530    1.752130    2.896280
  H     -0.920500    2.036450    1.984040
  H     -1.242140    0.921210    2.984230

 Total Charge           Charge          ....    0
 Multiplicity           Mult            ....    1
 Number of Electrons    NEL             ....   80
 Basis Dimension        Dim             ....  344

ORBITAL ENERGIES
----------------

  NO   OCC          E(Eh)            E(eV)
   0   2.0000     -20.591012      -560.3099
   1   2.0000     -20.590969      -560.3087
   2   2.0000     -20.583422      -560.1034
   3   2.0000     -20.582633      -560.0819
   4   2.0000     -20.576092      -559.9039
   5   2.0000     -20.556020      -559.3577
   6   2.0000     -20.548078      -559.1416
   7   2.0000     -20.492770      -557.6366
   8   2.0000      -1.390609       -37.8404
   9   2.0000      -1.380289       -37.5596
  10   2.0000      -1.369019       -37.2529
  11   2.0000      -1.359157       -36.9845
  12   2.0000      -1.353793       -36.8386
  13   2.0000      -1.336857       -36.3777
  14   2.0000      -1.326671       -36.1006
  15   2.0000      -1.278189       -34.7813
  16   2.0000      -0.751774       -20.4568
  17   2.0000      -0.750924       -20.4337
  18   2.0000      -0.740749       -20.1568
  19   2.0000      -0.735093       -20.0029
  20   2.0000      -0.720681       -19.6107
  21   2.0000      -0.706622       -19.2282
  22   2.0000      -0.696153       -18.9433
  23   2.0000      -0.655778       -17.8446
  24   2.0000      -0.649150       -17.6643
  25   2.0000      -0.623472       -16.9655
  26   2.0000      -0.612779       -16.6746
  27   2.0000      -0.597519       -16.2593
  28   2.0000      -0.591038       -16.0830
  29   2.0000      -0.576998       -15.7009
  30   2.0000      -0.569142       -15.4871
  31   2.0000      -0.536041       -14.5864
  32   2.0000      -0.534483       -14.5440
  33   2.0000      -0.532475       -14.4894
  34   2.0000      -0.526651       -14.3309
  35   2.0000      -0.524435       -14.2706
  36   2.0000      -0.507567       -13.8116
  37   2.0000      -0.497155       -13.5283
  38   2.0000      -0.492538       -13.4026
  39   2.0000      -0.442975       -12.0540
  40   0.0000       0.088490         2.4079
  41   0.0000       0.124863         3.3977
  42   0.0000       0.130131         3.5411
  43   0.0000       0.138683         3.7738
  44   0.0000       0.148949         4.0531

MULLIKEN ATOMIC CHARGES
-----------------------
   0 O :   -0.700618
   1 H :    0.348552
   2 H :    0.370080
   3 O :   -0.758038
   4 H :    0.355310
   5 H :    0.380667
   6 O :   -0.706395
   7 H :    0.357427
   8 H :    0.383553
   9 O :   -0.712911
  10 H :    0.371438
  11 H :    0.331708
  12 O :   -0.700825
  13 H :    0.323593
  14 H :    0.366900
  15 O :   -0.705438
  16 H :    0.356056
  17 H :    0.383866
  18 O :   -0.758580
  19 H :    0.356333
  20 H :    0.382310
  21 O :   -0.729726
  22 H :    0.364887
  23 H :    0.339852
Sum of atomic charges:   -0.0000000

LOEWDIN ATOMIC CHARGES
----------------------
   0 O :   -0.313617
   1 H :    0.161509
   2 H :    0.191217
   3 O :   -0.315153
   4 H :    0.161366
   5 H :    0.145268
   6 O :   -0.278322
   7 H :    0.171014
   8 H :    0.155798
   9 O :   -0.325308
  10 H :    0.149839
  11 H :    0.164176
  12 O :   -0.346720
  13 H :    0.161329
  14 H :    0.147757
  15 O :   -0.278083
  16 H :    0.170631
  17 H :    0.155827
  18 O :   -0.315051
  19 H :    0.161978
  20 H :    0.145433
  21 O :   -0.359032
  22 H :    0.148458
  23 H :    0.139685

  Mayer bond orders larger than 0.100000
B(  0-O ,  1-H ) :   0.8439 B(  0-O ,  2-H ) :   0.8227 B(  3-O ,  4-H ) :   0.8375
B(  3-O ,  5-H ) :   0.7341 B(  5-H , 15-O ) :   0.1127 B(  6-O ,  7-H ) :   0.8363
B(  6-O ,  8-H ) :   0.7845 B(  6-O , 20-H ) :   0.1129 B(  9-O , 10-H ) :   0.8075
B(  9-O , 11-H ) :   0.8435 B( 12-O , 13-H ) :   0.8541 B( 12-O , 14-H ) :   0.8156
B( 15-O , 16-H ) :   0.8369 B( 15-O , 17-H ) :   0.7848 B( 18-O , 19-H ) :   0.8371
B( 18-O , 20-H ) :   0.7338 B( 21-O , 22-H ) :   0.8261 B( 21-O , 23-H ) :   0.8324

MP2 TOTAL ENERGY:     -610.581652085 Eh
FINAL SINGLE POINT ENERGY      -610.581652084920

DIPOLE MOMENT
-------------
                                X             Y             Z
Electronic contribution:      0.00887       0.00094      -0.31256
Nuclear contribution   :     -0.25668      -1.13412      -1.49504
                        -----------------------------------------
Total Dipole Moment    :     -0.24780      -1.13318      -1.80760
                        -----------------------------------------
Magnitude (a.u.)       :      2.14777
Magnitude (Debye)      :      5.45921

Rotational constants in cm-1:     0.034231     0.016530     0.014394
Rotational constants in MHz :  1026.216442   495.556613   431.509517

                             ****ORCA TERMINATED NORMALLY****
TOTAL RUN TIME: 0 days 0 hours 2 minutes 54 seconds 254 msec
