                         Program Version 4.2.0 -  RELEASE  -
|  1> # 12h2o.su.etal.mol0,1,2,3,5,6,8
|  2> ! MP2 def2-TZVP EnGrad TightSCF
|  3>
|  4> %pal
|  5>     nprocs 6
|  6> end
|  7>
|  8> %maxcore 8000
|  9>
| 10> %scf
| 11>     ConvForced true
| 12> end
| 13>
| 14> *xyz 0 1
| 15> O   1.794470000   0.923410000   2.768350000
| 16> H   2.338250000   1.359750000   3.430940000
| 17> H   0.879480000   1.303000000   2.865760000
| 18> O  -1.794470000  -0.923410000   2.768350000
| 19> H  -2.338250000  -1.359750000   3.430940000
| 20> H  -0.879480000  -1.303000000   2.865760000
| 21> O   0.923410000  -1.794470000  -2.768350000
| 22> H   1.359750000  -2.338250000  -3.430940000
| 23> H   1.303000000  -0.879480000  -2.865760000
| 24> O  -1.752130000  -0.741530000  -2.896280000
| 25> H  -2.036450000  -0.920500000  -1.984040000
| 26> H  -0.921210000  -1.242140000  -2.984230000
| 27> O   0.885520000  -1.737840000   0.052730000
| 28> H   1.284090000  -0.839590000   0.017130000
| 29> H   1.032320000  -2.090180000  -0.841890000
| 30> O   1.737840000   0.885520000  -0.052730000
| 31> H   2.090180000   1.032320000   0.841890000
| 32> H   0.839590000   1.284090000  -0.017130000
| 33> O   1.752130000   0.741530000  -2.896280000
| 34> H   2.036450000   0.920500000  -1.984040000
| 35> H   0.921210000   1.242140000  -2.984230000
| 36> *
| 37>
| 38>                          ****END OF INPUT****

CARTESIAN COORDINATES (ANGSTROEM)
---------------------------------
  O      1.794470    0.923410    2.768350
  H      2.338250    1.359750    3.430940
  H      0.879480    1.303000    2.865760
  O     -1.794470   -0.923410    2.768350
  H     -2.338250   -1.359750    3.430940
  H     -0.879480   -1.303000    2.865760
  O      0.923410   -1.794470   -2.768350
  H      1.359750   -2.338250   -3.430940
  H      1.303000   -0.879480   -2.865760
  O     -1.752130   -0.741530   -2.896280
  H     -2.036450   -0.920500   -1.984040
  H     -0.921210   -1.242140   -2.984230
  O      0.885520   -1.737840    0.052730
  H      1.284090   -0.839590    0.017130
  H      1.032320   -2.090180   -0.841890
  O      1.737840    0.885520   -0.052730
  H      2.090180    1.032320    0.841890
  H      0.839590    1.284090   -0.017130
  O      1.752130    0.741530   -2.896280
  H      2.036450    0.920500   -1.984040
  H      0.921210    1.242140   -2.984230

 Total Charge           Charge          ....    0
 Multiplicity           Mult            ....    1
 Number of Electrons    NEL             ....   70
 Basis Dimension        Dim             ....  301

ORBITAL ENERGIES
----------------

  NO   OCC          E(Eh)            E(eV)
   0   2.0000     -20.606322      -560.7265
   1   2.0000     -20.593628      -560.3811
   2   2.0000     -20.577551      -559.9436
   3   2.0000     -20.557474      -559.3973
   4   2.0000     -20.550802      -559.2158
   5   2.0000     -20.520259      -558.3846
   6   2.0000     -20.497027      -557.7525
   7   2.0000      -1.387947       -37.7680
   8   2.0000      -1.377263       -37.4772
   9   2.0000      -1.365670       -37.1618
  10   2.0000      -1.336255       -36.3613
  11   2.0000      -1.332821       -36.2679
  12   2.0000      -1.302301       -35.4374
  13   2.0000      -1.281363       -34.8677
  14   2.0000      -0.752979       -20.4896
  15   2.0000      -0.743491       -20.2314
  16   2.0000      -0.724441       -19.7130
  17   2.0000      -0.718094       -19.5403
  18   2.0000      -0.700824       -19.0704
  19   2.0000      -0.671895       -18.2832
  20   2.0000      -0.667725       -18.1697
  21   2.0000      -0.639627       -17.4051
  22   2.0000      -0.618975       -16.8432
  23   2.0000      -0.596547       -16.2329
  24   2.0000      -0.582591       -15.8531
  25   2.0000      -0.569838       -15.5061
  26   2.0000      -0.556689       -15.1483
  27   2.0000      -0.547455       -14.8970
  28   2.0000      -0.538901       -14.6642
  29   2.0000      -0.514804       -14.0085
  30   2.0000      -0.511224       -13.9111
  31   2.0000      -0.500904       -13.6303
  32   2.0000      -0.490079       -13.3357
  33   2.0000      -0.468375       -12.7451
  34   2.0000      -0.447637       -12.1808
  35   0.0000       0.086015         2.3406
  36   0.0000       0.121662         3.3106
  37   0.0000       0.138714         3.7746
  38   0.0000       0.154823         4.2129
  39   0.0000       0.174769         4.7557

MULLIKEN ATOMIC CHARGES
-----------------------
   0 O :   -0.698292
   1 H :    0.356637
   2 H :    0.361593
   3 O :   -0.695686
   4 H :    0.336651
   5 H :    0.358125
   6 O :   -0.746336
   7 H :    0.343779
   8 H :    0.382261
   9 O :   -0.721766
  10 H :    0.337148
  11 H :    0.361640
  12 O :   -0.735816
  13 H :    0.342402
  14 H :    0.358771
  15 O :   -0.725573
  16 H :    0.391100
  17 H :    0.350360
  18 O :   -0.701137
  19 H :    0.388249
  20 H :    0.355888
Sum of atomic charges:   -0.0000000

LOEWDIN ATOMIC CHARGES
----------------------
   0 O :   -0.308382
   1 H :    0.165996
   2 H :    0.188002
   3 O :   -0.343767
   4 H :    0.157220
   5 H :    0.185056
   6 O :   -0.312630
   7 H :    0.156016
   8 H :    0.146371
   9 O :   -0.353904
  10 H :    0.162543
  11 H :    0.146208
  12 O :   -0.370640
  13 H :    0.134016
  14 H :    0.142898
  15 O :   -0.285870
  16 H :    0.159066
  17 H :    0.175453
  18 O :   -0.274826
  19 H :    0.158113
  20 H :    0.173060

  Mayer bond orders larger than 0.100000
B(  0-O ,  1-H ) :   0.8392 B(  0-O ,  2-H ) :   0.8275 B(  3-O ,  4-H ) :   0.8540
B(  3-O ,  5-H ) :   0.8321 B(  6-O ,  7-H ) :   0.8438 B(  6-O ,  8-H ) :   0.7455
B(  9-O , 10-H ) :   0.8519 B(  9-O , 11-H ) :   0.8113 B( 12-O , 13-H ) :   0.8180
B( 12-O , 14-H ) :   0.8238 B( 15-O , 16-H ) :   0.7891 B( 15-O , 17-H ) :   0.8348
B( 18-O , 19-H ) :   0.8000 B( 18-O , 20-H ) :   0.8349

MP2 TOTAL ENERGY:     -534.243301380 Eh
FINAL SINGLE POINT ENERGY      -534.243301379666

DIPOLE MOMENT
-------------
                                X             Y             Z
Electronic contribution:      0.28238       0.21516      -0.04742
Nuclear contribution   :      0.67870       1.21732       2.00481
                        -----------------------------------------
Total Dipole Moment    :      0.96107       1.43248       1.95739
                        -----------------------------------------
Magnitude (a.u.)       :      2.60903
Magnitude (Debye)      :      6.63162

Rotational constants in cm-1:     0.038884     0.020844     0.016069
Rotational constants in MHz :  1165.719827   624.872973   481.741826

                             ****ORCA TERMINATED NORMALLY****
TOTAL RUN TIME: 0 days 0 hours 1 minutes 48 seconds 189 msec
