                         Program Version 4.2.0 -  RELEASE  -
|  1> # 12h2o.su.etal.mol3,5,6,8,10,11
|  2> ! MP2 def2-TZVP EnGrad TightSCF
|  3>
|  4> %pal
|  5>     nprocs 6
|  6> end
|  7>
|  8> %maxcore 8000
|  9>
| 10> %scf
| 11>     ConvForced true
| 12> end
| 13>
| 14> *xyz 0 1
| 15> O  -1.752130000  -0.741530000  -2.896280000
| 16> H  -2.036450000  -0.920500000  -1.984040000
| 17> H  -0.921210000  -1.242140000  -2.984230000
| 18> O   0.885520000  -1.737840000   0.052730000
| 19> H   1.284090000  -0.839590000   0.017130000
| 20> H   1.032320000  -2.090180000  -0.841890000
| 21> O   1.737840000   0.885520000  -0.052730000
| 22> H   2.090180000   1.032320000   0.841890000
| 23> H   0.839590000   1.284090000  -0.017130000
| 24> O   1.752130000   0.741530000  -2.896280000
| 25> H   2.036450000   0.920500000  -1.984040000
| 26> H   0.921210000   1.242140000  -2.984230000
| 27> O  -0.923410000   1.794470000  -2.768350000
| 28> H  -1.359750000   2.338250000  -3.430940000
| 29> H  -1.303000000   0.879480000  -2.865760000
| 30> O  -0.741530000   1.752130000   2.896280000
| 31> H  -0.920500000   2.036450000   1.984040000
| 32> H  -1.242140000   0.921210000   2.984230000
| 33> *
| 34>
| 35>                          ****END OF INPUT****

CARTESIAN COORDINATES (ANGSTROEM)
---------------------------------
  O     -1.752130   -0.741530   -2.896280
  H     -2.036450   -0.920500   -1.984040
  H     -0.921210   -1.242140   -2.984230
  O      0.885520   -1.737840    0.052730
  H      1.284090   -0.839590    0.017130
  H      1.032320   -2.090180   -0.841890
  O      1.737840    0.885520   -0.052730
  H      2.090180    1.032320    0.841890
  H      0.839590    1.284090   -0.017130
  O      1.752130    0.741530   -2.896280
  H      2.036450    0.920500   -1.984040
  H      0.921210    1.242140   -2.984230
  O     -0.923410    1.794470   -2.768350
  H     -1.359750    2.338250   -3.430940
  H     -1.303000    0.879480   -2.865760
  O     -0.741530    1.752130    2.896280
  H     -0.920500    2.036450    1.984040
  H     -1.242140    0.921210    2.984230

 Total Charge           Charge          ....    0
 Multiplicity           Mult            ....    1
 Number of Electrons    NEL             ....   60
 Basis Dimension        Dim             ....  258

ORBITAL ENERGIES
----------------

  NO   OCC          E(Eh)            E(eV)
   0   2.0000     -20.612694      -560.8999
   1   2.0000     -20.606260      -560.7249
   2   2.0000     -20.580880      -560.0342
   3   2.0000     -20.556049      -559.3585
   4   2.0000     -20.543160      -559.0078
   5   2.0000     -20.517949      -558.3218
   6   2.0000      -1.395525       -37.9742
   7   2.0000      -1.392089       -37.8807
   8   2.0000      -1.359845       -37.0033
   9   2.0000      -1.340126       -36.4667
  10   2.0000      -1.324022       -36.0285
  11   2.0000      -1.302844       -35.4522
  12   2.0000      -0.753460       -20.5027
  13   2.0000      -0.748637       -20.3714
  14   2.0000      -0.724977       -19.7276
  15   2.0000      -0.722602       -19.6630
  16   2.0000      -0.701265       -19.0824
  17   2.0000      -0.682650       -18.5758
  18   2.0000      -0.636595       -17.3226
  19   2.0000      -0.626655       -17.0521
  20   2.0000      -0.596999       -16.2452
  21   2.0000      -0.589480       -16.0406
  22   2.0000      -0.580113       -15.7857
  23   2.0000      -0.546615       -14.8741
  24   2.0000      -0.537110       -14.6155
  25   2.0000      -0.532262       -14.4836
  26   2.0000      -0.524395       -14.2695
  27   2.0000      -0.502154       -13.6643
  28   2.0000      -0.491134       -13.3644
  29   2.0000      -0.467769       -12.7286
  30   0.0000       0.076440         2.0800
  31   0.0000       0.108377         2.9491
  32   0.0000       0.142876         3.8879
  33   0.0000       0.147397         4.0109
  34   0.0000       0.166921         4.5422

MULLIKEN ATOMIC CHARGES
-----------------------
   0 O :   -0.684484
   1 H :    0.360960
   2 H :    0.366542
   3 O :   -0.717054
   4 H :    0.357385
   5 H :    0.328230
   6 O :   -0.705787
   7 H :    0.372767
   8 H :    0.358317
   9 O :   -0.731999
  10 H :    0.362214
  11 H :    0.350412
  12 O :   -0.744577
  13 H :    0.344144
  14 H :    0.378610
  15 O :   -0.671543
  16 H :    0.329143
  17 H :    0.346722
Sum of atomic charges:   -0.0000000

LOEWDIN ATOMIC CHARGES
----------------------
   0 O :   -0.268559
   1 H :    0.175264
   2 H :    0.177649
   3 O :   -0.360755
   4 H :    0.141389
   5 H :    0.156690
   6 O :   -0.273343
   7 H :    0.178565
   8 H :    0.177969
   9 O :   -0.355064
  10 H :    0.146526
  11 H :    0.142146
  12 O :   -0.343430
  13 H :    0.157089
  14 H :    0.144703
  15 O :   -0.328096
  16 H :    0.159983
  17 H :    0.171275

  Mayer bond orders larger than 0.100000
B(  0-O ,  1-H ) :   0.8340 B(  0-O ,  2-H ) :   0.8268 B(  3-O ,  4-H ) :   0.8019
B(  3-O ,  5-H ) :   0.8569 B(  6-O ,  7-H ) :   0.8250 B(  6-O ,  8-H ) :   0.8257
B(  9-O , 10-H ) :   0.8325 B(  9-O , 11-H ) :   0.8159 B( 12-O , 13-H ) :   0.8470
B( 12-O , 14-H ) :   0.7637 B( 15-O , 16-H ) :   0.8563 B( 15-O , 17-H ) :   0.8468

MP2 TOTAL ENERGY:     -457.914942765 Eh
FINAL SINGLE POINT ENERGY      -457.914942764867

DIPOLE MOMENT
-------------
                                X             Y             Z
Electronic contribution:      0.02603      -0.01885       0.14811
Nuclear contribution   :     -1.24525       0.14439       0.05351
                        -----------------------------------------
Total Dipole Moment    :     -1.21922       0.12554       0.20162
                        -----------------------------------------
Magnitude (a.u.)       :      1.24214
Magnitude (Debye)      :      3.15726

Rotational constants in cm-1:     0.044792     0.025398     0.023828
Rotational constants in MHz :  1342.821234   761.404051   714.343232

                             ****ORCA TERMINATED NORMALLY****
TOTAL RUN TIME: 0 days 0 hours 0 minutes 59 seconds 783 msec
