                         Program Version 4.2.0 -  RELEASE  -
|  1> # 12h2o.su.etal.mol3,8,9,10,11
|  2> ! MP2 def2-TZVP EnGrad TightSCF
|  3>
|  4> %pal
|  5>     nprocs 6
|  6> end
|  7>
|  8> %maxcore 8000
|  9>
| 10> %scf
| 11>     ConvForced true
| 12> end
| 13>
| 14> *xyz 0 1
| 15> O  -1.752130000  -0.741530000  -2.896280000
| 16> H  -2.036450000  -0.920500000  -1.984040000
| 17> H  -0.921210000  -1.242140000  -2.984230000
| 18> O   1.752130000   0.741530000  -2.896280000
| 19> H   2.036450000   0.920500000  -1.984040000
| 20> H   0.921210000   1.242140000  -2.984230000
| 21> O   0.741530000  -1.752130000   2.896280000
| 22> H   0.920500000  -2.036450000   1.984040000
| 23> H   1.242140000  -0.921210000   2.984230000
| 24> O  -0.923410000   1.794470000  -2.768350000
| 25> H  -1.359750000   2.338250000  -3.430940000
| 26> H  -1.303000000   0.879480000  -2.865760000
| 27> O  -0.741530000   1.752130000   2.896280000
| 28> H  -0.920500000   2.036450000   1.984040000
| 29> H  -1.242140000   0.921210000   2.984230000
| 30> *
| 31>
| 32>                          ****END OF INPUT****

CARTESIAN COORDINATES (ANGSTROEM)
---------------------------------
  O     -1.752130   -0.741530   -2.896280
  H     -2.036450   -0.920500   -1.984040
  H     -0.921210   -1.242140   -2.984230
  O      1.752130    0.741530   -2.896280
  H      2.036450    0.920500   -1.984040
  H      0.921210    1.242140   -2.984230
  O      0.741530   -1.752130    2.896280
  H      0.920500   -2.036450    1.984040
  H      1.242140   -0.921210    2.984230
  O     -0.923410    1.794470   -2.768350
  H     -1.359750    2.338250   -3.430940
  H     -1.303000    0.879480   -2.865760
  O     -0.741530    1.752130    2.896280
  H     -0.920500    2.036450    1.984040
  H     -1.242140    0.921210    2.984230

 Total Charge           Charge          ....    0
 Multiplicity           Mult            ....    1
 Number of Electrons    NEL             ....   50
 Basis Dimension        Dim             ....  215

ORBITAL ENERGIES
----------------

  NO   OCC          E(Eh)            E(eV)
   0   2.0000     -20.611173      -560.8585
   1   2.0000     -20.569686      -559.7296
   2   2.0000     -20.566357      -559.6390
   3   2.0000     -20.555187      -559.3351
   4   2.0000     -20.537518      -558.8543
   5   2.0000      -1.396890       -38.0113
   6   2.0000      -1.348895       -36.7053
   7   2.0000      -1.345510       -36.6132
   8   2.0000      -1.340082       -36.4655
   9   2.0000      -1.318951       -35.8905
  10   2.0000      -0.753496       -20.5037
  11   2.0000      -0.725026       -19.7290
  12   2.0000      -0.711828       -19.3698
  13   2.0000      -0.707630       -19.2556
  14   2.0000      -0.688221       -18.7274
  15   2.0000      -0.635506       -17.2930
  16   2.0000      -0.591081       -16.0841
  17   2.0000      -0.586577       -15.9616
  18   2.0000      -0.583222       -15.8703
  19   2.0000      -0.560211       -15.2441
  20   2.0000      -0.537827       -14.6350
  21   2.0000      -0.515691       -14.0327
  22   2.0000      -0.508753       -13.8439
  23   2.0000      -0.503500       -13.7009
  24   2.0000      -0.485226       -13.2037
  25   0.0000       0.089063         2.4235
  26   0.0000       0.114717         3.1216
  27   0.0000       0.142439         3.8760
  28   0.0000       0.149322         4.0633
  29   0.0000       0.165376         4.5001

MULLIKEN ATOMIC CHARGES
-----------------------
   0 O :   -0.682730
   1 H :    0.358092
   2 H :    0.369629
   3 O :   -0.713632
   4 H :    0.326429
   5 H :    0.362129
   6 O :   -0.680462
   7 H :    0.332983
   8 H :    0.347402
   9 O :   -0.739802
  10 H :    0.343148
  11 H :    0.376913
  12 O :   -0.681331
  13 H :    0.338277
  14 H :    0.342953
Sum of atomic charges:    0.0000000

LOEWDIN ATOMIC CHARGES
----------------------
   0 O :   -0.268815
   1 H :    0.174859
   2 H :    0.179865
   3 O :   -0.351938
   4 H :    0.158646
   5 H :    0.146967
   6 O :   -0.332400
   7 H :    0.163434
   8 H :    0.168908
   9 O :   -0.340512
  10 H :    0.156553
  11 H :    0.144481
  12 O :   -0.332536
  13 H :    0.165624
  14 H :    0.166865

  Mayer bond orders larger than 0.100000
B(  0-O ,  1-H ) :   0.8373 B(  0-O ,  2-H ) :   0.8260 B(  3-O ,  4-H ) :   0.8594
B(  3-O ,  5-H ) :   0.8058 B(  6-O ,  7-H ) :   0.8553 B(  6-O ,  8-H ) :   0.8436
B(  9-O , 10-H ) :   0.8475 B(  9-O , 11-H ) :   0.7671 B( 12-O , 13-H ) :   0.8520
B( 12-O , 14-H ) :   0.8462

MP2 TOTAL ENERGY:     -381.588088165 Eh
FINAL SINGLE POINT ENERGY      -381.588088165256

DIPOLE MOMENT
-------------
                                X             Y             Z
Electronic contribution:     -0.17679      -0.17481       0.08027
Nuclear contribution   :     -0.67915      -0.30898      -0.63259
                        -----------------------------------------
Total Dipole Moment    :     -0.85594      -0.48379      -0.55232
                        -----------------------------------------
Magnitude (a.u.)       :      1.12772
Magnitude (Debye)      :      2.86644

Rotational constants in cm-1:     0.054581     0.019901     0.018870
Rotational constants in MHz :  1636.284528   596.625213   565.710591

                             ****ORCA TERMINATED NORMALLY****
TOTAL RUN TIME: 0 days 0 hours 0 minutes 25 seconds 276 msec
