                         Program Version 4.2.0 -  RELEASE  -
|  1> # 12h2o.su.etal.mol1,4,5,8,10
|  2> ! MP2 def2-TZVP EnGrad TightSCF
|  3>
|  4> %pal
|  5>     nprocs 6
|  6> end
|  7>
|  8> %maxcore 8000
|  9>
| 10> %scf
| 11>     ConvForced true
| 12> end
| 13>
| 14> *xyz 0 1
| 15> O  -1.794470000  -0.923410000   2.768350000
| 16> H  -2.338250000  -1.359750000   3.430940000
| 17> H  -0.879480000  -1.303000000   2.865760000
| 18> O  -0.885520000   1.737840000   0.052730000
| 19> H  -1.032320000   2.090180000  -0.841890000
| 20> H  -1.284090000   0.839590000   0.017130000
| 21> O   0.885520000  -1.737840000   0.052730000
| 22> H   1.284090000  -0.839590000   0.017130000
| 23> H   1.032320000  -2.090180000  -0.841890000
| 24> O   1.752130000   0.741530000  -2.896280000
| 25> H   2.036450000   0.920500000  -1.984040000
| 26> H   0.921210000   1.242140000  -2.984230000
| 27> O  -0.923410000   1.794470000  -2.768350000
| 28> H  -1.359750000   2.338250000  -3.430940000
| 29> H  -1.303000000   0.879480000  -2.865760000
| 30> *
| 31>
| 32>                          ****END OF INPUT****

CARTESIAN COORDINATES (ANGSTROEM)
---------------------------------
  O     -1.794470   -0.923410    2.768350
  H     -2.338250   -1.359750    3.430940
  H     -0.879480   -1.303000    2.865760
  O     -0.885520    1.737840    0.052730
  H     -1.032320    2.090180   -0.841890
  H     -1.284090    0.839590    0.017130
  O      0.885520   -1.737840    0.052730
  H      1.284090   -0.839590    0.017130
  H      1.032320   -2.090180   -0.841890
  O      1.752130    0.741530   -2.896280
  H      2.036450    0.920500   -1.984040
  H      0.921210    1.242140   -2.984230
  O     -0.923410    1.794470   -2.768350
  H     -1.359750    2.338250   -3.430940
  H     -1.303000    0.879480   -2.865760

 Total Charge           Charge          ....    0
 Multiplicity           Mult            ....    1
 Number of Electrons    NEL             ....   50
 Basis Dimension        Dim             ....  215

ORBITAL ENERGIES
----------------

  NO   OCC          E(Eh)            E(eV)
   0   2.0000     -20.618061      -561.0460
   1   2.0000     -20.562442      -559.5325
   2   2.0000     -20.551215      -559.2270
   3   2.0000     -20.547216      -559.1182
   4   2.0000     -20.535409      -558.7969
   5   2.0000      -1.398208       -38.0472
   6   2.0000      -1.338333       -36.4179
   7   2.0000      -1.329388       -36.1745
   8   2.0000      -1.326547       -36.0972
   9   2.0000      -1.314481       -35.7689
  10   2.0000      -0.763920       -20.7873
  11   2.0000      -0.701378       -19.0855
  12   2.0000      -0.699374       -19.0309
  13   2.0000      -0.694682       -18.9033
  14   2.0000      -0.686432       -18.6788
  15   2.0000      -0.632538       -17.2122
  16   2.0000      -0.585065       -15.9204
  17   2.0000      -0.578419       -15.7396
  18   2.0000      -0.562964       -15.3190
  19   2.0000      -0.557964       -15.1830
  20   2.0000      -0.538034       -14.6406
  21   2.0000      -0.505820       -13.7640
  22   2.0000      -0.494330       -13.4514
  23   2.0000      -0.494231       -13.4487
  24   2.0000      -0.480602       -13.0779
  25   0.0000       0.086810         2.3622
  26   0.0000       0.121441         3.3046
  27   0.0000       0.141601         3.8532
  28   0.0000       0.161252         4.3879
  29   0.0000       0.182317         4.9611

MULLIKEN ATOMIC CHARGES
-----------------------
   0 O :   -0.684879
   1 H :    0.333969
   2 H :    0.351586
   3 O :   -0.697706
   4 H :    0.356594
   5 H :    0.335872
   6 O :   -0.683518
   7 H :    0.339429
   8 H :    0.341691
   9 O :   -0.701945
  10 H :    0.329303
  11 H :    0.358653
  12 O :   -0.712464
  13 H :    0.365671
  14 H :    0.367745
Sum of atomic charges:   -0.0000000

LOEWDIN ATOMIC CHARGES
----------------------
   0 O :   -0.339309
   1 H :    0.155862
   2 H :    0.183777
   3 O :   -0.344404
   4 H :    0.144302
   5 H :    0.167037
   6 O :   -0.337183
   7 H :    0.169325
   8 H :    0.166349
   9 O :   -0.343766
  10 H :    0.158414
  11 H :    0.146987
  12 O :   -0.286653
  13 H :    0.168463
  14 H :    0.190799

  Mayer bond orders larger than 0.100000
B(  0-O ,  1-H ) :   0.8554 B(  0-O ,  2-H ) :   0.8387 B(  3-O ,  4-H ) :   0.8296
B(  3-O ,  5-H ) :   0.8463 B(  6-O ,  7-H ) :   0.8448 B(  6-O ,  8-H ) :   0.8492
B(  9-O , 10-H ) :   0.8556 B(  9-O , 11-H ) :   0.8220 B( 12-O , 13-H ) :   0.8308
B( 12-O , 14-H ) :   0.8224

MP2 TOTAL ENERGY:     -381.581512531 Eh
FINAL SINGLE POINT ENERGY      -381.581512531462

DIPOLE MOMENT
-------------
                                X             Y             Z
Electronic contribution:     -0.04554       0.16383      -0.02475
Nuclear contribution   :     -0.82514      -0.42247      -0.86245
                        -----------------------------------------
Total Dipole Moment    :     -0.87067      -0.25864      -0.88720
                        -----------------------------------------
Magnitude (a.u.)       :      1.26968
Magnitude (Debye)      :      3.22727

Rotational constants in cm-1:     0.077107     0.030640     0.023376
Rotational constants in MHz :  2311.611043   918.575069   700.784250

                             ****ORCA TERMINATED NORMALLY****
TOTAL RUN TIME: 0 days 0 hours 0 minutes 27 seconds 183 msec
