                         Program Version 4.2.0 -  RELEASE  -
|  1> # 12h2o.su.etal.mol3,4,6,10,11
|  2> ! MP2 def2-TZVP EnGrad TightSCF
|  3>
|  4> %pal
|  5>     nprocs 6
|  6> end
|  7>
|  8> %maxcore 8000
|  9>
| 10> %scf
| 11>     ConvForced true
| 12> end
| 13>
| 14> *xyz 0 1
| 15> O  -1.752130000  -0.741530000  -2.896280000
| 16> H  -2.036450000  -0.920500000  -1.984040000
| 17> H  -0.921210000  -1.242140000  -2.984230000
| 18> O  -0.885520000   1.737840000   0.052730000
| 19> H  -1.032320000   2.090180000  -0.841890000
| 20> H  -1.284090000   0.839590000   0.017130000
| 21> O   1.737840000   0.885520000  -0.052730000
| 22> H   2.090180000   1.032320000   0.841890000
| 23> H   0.839590000   1.284090000  -0.017130000
| 24> O  -0.923410000   1.794470000  -2.768350000
| 25> H  -1.359750000   2.338250000  -3.430940000
| 26> H  -1.303000000   0.879480000  -2.865760000
| 27> O  -0.741530000   1.752130000   2.896280000
| 28> H  -0.920500000   2.036450000   1.984040000
| 29> H  -1.242140000   0.921210000   2.984230000
| 30> *
| 31>
| 32>                          ****END OF INPUT****

CARTESIAN COORDINATES (ANGSTROEM)
---------------------------------
  O     -1.752130   -0.741530   -2.896280
  H     -2.036450   -0.920500   -1.984040
  H     -0.921210   -1.242140   -2.984230
  O     -0.885520    1.737840    0.052730
  H     -1.032320    2.090180   -0.841890
  H     -1.284090    0.839590    0.017130
  O      1.737840    0.885520   -0.052730
  H      2.090180    1.032320    0.841890
  H      0.839590    1.284090   -0.017130
  O     -0.923410    1.794470   -2.768350
  H     -1.359750    2.338250   -3.430940
  H     -1.303000    0.879480   -2.865760
  O     -0.741530    1.752130    2.896280
  H     -0.920500    2.036450    1.984040
  H     -1.242140    0.921210    2.984230

 Total Charge           Charge          ....    0
 Multiplicity           Mult            ....    1
 Number of Electrons    NEL             ....   50
 Basis Dimension        Dim             ....  215

ORBITAL ENERGIES
----------------

  NO   OCC          E(Eh)            E(eV)
   0   2.0000     -20.622354      -561.1628
   1   2.0000     -20.588921      -560.2530
   2   2.0000     -20.560822      -559.4884
   3   2.0000     -20.539809      -558.9166
   4   2.0000     -20.518062      -558.3248
   5   2.0000      -1.407812       -38.3085
   6   2.0000      -1.376370       -37.4529
   7   2.0000      -1.343297       -36.5530
   8   2.0000      -1.321632       -35.9634
   9   2.0000      -1.299254       -35.3545
  10   2.0000      -0.764866       -20.8131
  11   2.0000      -0.738649       -20.0997
  12   2.0000      -0.730431       -19.8760
  13   2.0000      -0.691595       -18.8193
  14   2.0000      -0.675909       -18.3924
  15   2.0000      -0.647193       -17.6110
  16   2.0000      -0.620172       -16.8757
  17   2.0000      -0.590873       -16.0785
  18   2.0000      -0.565305       -15.3827
  19   2.0000      -0.552862       -15.0441
  20   2.0000      -0.544523       -14.8172
  21   2.0000      -0.514863       -14.0101
  22   2.0000      -0.509975       -13.8771
  23   2.0000      -0.486029       -13.2255
  24   2.0000      -0.466505       -12.6942
  25   0.0000       0.072693         1.9781
  26   0.0000       0.130095         3.5401
  27   0.0000       0.147074         4.0021
  28   0.0000       0.160248         4.3606
  29   0.0000       0.186923         5.0864

MULLIKEN ATOMIC CHARGES
-----------------------
   0 O :   -0.674724
   1 H :    0.350259
   2 H :    0.374850
   3 O :   -0.713563
   4 H :    0.393558
   5 H :    0.323645
   6 O :   -0.722875
   7 H :    0.331107
   8 H :    0.360514
   9 O :   -0.731439
  10 H :    0.342642
  11 H :    0.369533
  12 O :   -0.691780
  13 H :    0.371014
  14 H :    0.317260
Sum of atomic charges:   -0.0000000

LOEWDIN ATOMIC CHARGES
----------------------
   0 O :   -0.265610
   1 H :    0.170018
   2 H :    0.184230
   3 O :   -0.282066
   4 H :    0.158798
   5 H :    0.163181
   6 O :   -0.364252
   7 H :    0.159143
   8 H :    0.141133
   9 O :   -0.335194
  10 H :    0.157182
  11 H :    0.143485
  12 O :   -0.337821
  13 H :    0.150685
  14 H :    0.157088

  Mayer bond orders larger than 0.100000
B(  0-O ,  1-H ) :   0.8417 B(  0-O ,  2-H ) :   0.8261 B(  3-O ,  4-H ) :   0.7783
B(  3-O ,  5-H ) :   0.8486 B(  6-O ,  7-H ) :   0.8556 B(  6-O ,  8-H ) :   0.8045
B(  9-O , 10-H ) :   0.8477 B(  9-O , 11-H ) :   0.7705 B( 12-O , 13-H ) :   0.8195
B( 12-O , 14-H ) :   0.8638

MP2 TOTAL ENERGY:     -381.594795977 Eh
FINAL SINGLE POINT ENERGY      -381.594795976703

DIPOLE MOMENT
-------------
                                X             Y             Z
Electronic contribution:      0.00482       0.04794      -0.37873
Nuclear contribution   :     -1.69817      -1.33005      -0.63259
                        -----------------------------------------
Total Dipole Moment    :     -1.69335      -1.28212      -1.01133
                        -----------------------------------------
Magnitude (a.u.)       :      2.35245
Magnitude (Debye)      :      5.97946

Rotational constants in cm-1:     0.097121     0.032678     0.030103
Rotational constants in MHz :  2911.616830   979.648756   902.474386

                             ****ORCA TERMINATED NORMALLY****
TOTAL RUN TIME: 0 days 0 hours 0 minutes 32 seconds 697 msec
