                         Program Version 4.2.0 -  RELEASE  -
|  1> # 12h2o.su.etal.mol5,6,7,9
|  2> ! MP2 def2-TZVP EnGrad TightSCF
|  3>
|  4> %pal
|  5>     nprocs 6
|  6> end
|  7>
|  8> %maxcore 8000
|  9>
| 10> %scf
| 11>     ConvForced true
| 12> end
| 13>
| 14> *xyz 0 1
| 15> O   0.885520000  -1.737840000   0.052730000
| 16> H   1.284090000  -0.839590000   0.017130000
| 17> H   1.032320000  -2.090180000  -0.841890000
| 18> O   1.737840000   0.885520000  -0.052730000
| 19> H   2.090180000   1.032320000   0.841890000
| 20> H   0.839590000   1.284090000  -0.017130000
| 21> O  -1.737840000  -0.885520000  -0.052730000
| 22> H  -2.090180000  -1.032320000   0.841890000
| 23> H  -0.839590000  -1.284090000  -0.017130000
| 24> O   0.741530000  -1.752130000   2.896280000
| 25> H   0.920500000  -2.036450000   1.984040000
| 26> H   1.242140000  -0.921210000   2.984230000
| 27> *
| 28>
| 29>                          ****END OF INPUT****

CARTESIAN COORDINATES (ANGSTROEM)
---------------------------------
  O      0.885520   -1.737840    0.052730
  H      1.284090   -0.839590    0.017130
  H      1.032320   -2.090180   -0.841890
  O      1.737840    0.885520   -0.052730
  H      2.090180    1.032320    0.841890
  H      0.839590    1.284090   -0.017130
  O     -1.737840   -0.885520   -0.052730
  H     -2.090180   -1.032320    0.841890
  H     -0.839590   -1.284090   -0.017130
  O      0.741530   -1.752130    2.896280
  H      0.920500   -2.036450    1.984040
  H      1.242140   -0.921210    2.984230

 Total Charge           Charge          ....    0
 Multiplicity           Mult            ....    1
 Number of Electrons    NEL             ....   40
 Basis Dimension        Dim             ....  172

ORBITAL ENERGIES
----------------

  NO   OCC          E(Eh)            E(eV)
   0   2.0000     -20.616353      -560.9995
   1   2.0000     -20.586194      -560.1788
   2   2.0000     -20.548199      -559.1449
   3   2.0000     -20.529297      -558.6306
   4   2.0000      -1.398452       -38.0538
   5   2.0000      -1.372825       -37.3565
   6   2.0000      -1.329756       -36.1845
   7   2.0000      -1.310312       -35.6554
   8   2.0000      -0.754051       -20.5188
   9   2.0000      -0.742756       -20.2114
  10   2.0000      -0.700525       -19.0623
  11   2.0000      -0.686105       -18.6699
  12   2.0000      -0.641925       -17.4677
  13   2.0000      -0.615379       -16.7453
  14   2.0000      -0.572331       -15.5739
  15   2.0000      -0.562554       -15.3079
  16   2.0000      -0.547373       -14.8948
  17   2.0000      -0.519108       -14.1256
  18   2.0000      -0.494244       -13.4491
  19   2.0000      -0.477648       -12.9975
  20   0.0000       0.081354         2.2137
  21   0.0000       0.140562         3.8249
  22   0.0000       0.157737         4.2922
  23   0.0000       0.172613         4.6970
  24   0.0000       0.212616         5.7856

MULLIKEN ATOMIC CHARGES
-----------------------
   0 O :   -0.732491
   1 H :    0.364206
   2 H :    0.362318
   3 O :   -0.683972
   4 H :    0.354012
   5 H :    0.373569
   6 O :   -0.722867
   7 H :    0.334778
   8 H :    0.354257
   9 O :   -0.686202
  10 H :    0.373110
  11 H :    0.309281
Sum of atomic charges:    0.0000000

LOEWDIN ATOMIC CHARGES
----------------------
   0 O :   -0.295777
   1 H :    0.144914
   2 H :    0.173207
   3 O :   -0.285524
   4 H :    0.170985
   5 H :    0.186460
   6 O :   -0.363996
   7 H :    0.160545
   8 H :    0.138675
   9 O :   -0.334956
  10 H :    0.152247
  11 H :    0.153221

  Mayer bond orders larger than 0.100000
B(  0-O ,  1-H ) :   0.7691 B(  0-O ,  2-H ) :   0.8332 B(  3-O ,  4-H ) :   0.8389
B(  3-O ,  5-H ) :   0.8214 B(  6-O ,  7-H ) :   0.8537 B(  6-O ,  8-H ) :   0.8017
B(  9-O , 10-H ) :   0.8178 B(  9-O , 11-H ) :   0.8676

MP2 TOTAL ENERGY:     -305.277239206 Eh
FINAL SINGLE POINT ENERGY      -305.277239205646

DIPOLE MOMENT
-------------
                                X             Y             Z
Electronic contribution:      0.12691       0.01407      -0.19357
Nuclear contribution   :      1.01960       0.90936       0.08817
                        -----------------------------------------
Total Dipole Moment    :      1.14651       0.92343      -0.10540
                        -----------------------------------------
Magnitude (a.u.)       :      1.47591
Magnitude (Debye)      :      3.75147

Rotational constants in cm-1:     0.097630     0.091630     0.060145
Rotational constants in MHz :  2926.864695  2746.993626  1803.096634

                             ****ORCA TERMINATED NORMALLY****
TOTAL RUN TIME: 0 days 0 hours 0 minutes 27 seconds 2 msec
