                         Program Version 4.2.0 -  RELEASE  -
|  1> # 12h2o.su.etal.mol5,6,7,8,10
|  2> ! MP2 def2-TZVP EnGrad TightSCF
|  3>
|  4> %pal
|  5>     nprocs 6
|  6> end
|  7>
|  8> %maxcore 8000
|  9>
| 10> %scf
| 11>     ConvForced true
| 12> end
| 13>
| 14> *xyz 0 1
| 15> O   0.885520000  -1.737840000   0.052730000
| 16> H   1.284090000  -0.839590000   0.017130000
| 17> H   1.032320000  -2.090180000  -0.841890000
| 18> O   1.737840000   0.885520000  -0.052730000
| 19> H   2.090180000   1.032320000   0.841890000
| 20> H   0.839590000   1.284090000  -0.017130000
| 21> O  -1.737840000  -0.885520000  -0.052730000
| 22> H  -2.090180000  -1.032320000   0.841890000
| 23> H  -0.839590000  -1.284090000  -0.017130000
| 24> O   1.752130000   0.741530000  -2.896280000
| 25> H   2.036450000   0.920500000  -1.984040000
| 26> H   0.921210000   1.242140000  -2.984230000
| 27> O  -0.923410000   1.794470000  -2.768350000
| 28> H  -1.359750000   2.338250000  -3.430940000
| 29> H  -1.303000000   0.879480000  -2.865760000
| 30> *
| 31>
| 32>                          ****END OF INPUT****

CARTESIAN COORDINATES (ANGSTROEM)
---------------------------------
  O      0.885520   -1.737840    0.052730
  H      1.284090   -0.839590    0.017130
  H      1.032320   -2.090180   -0.841890
  O      1.737840    0.885520   -0.052730
  H      2.090180    1.032320    0.841890
  H      0.839590    1.284090   -0.017130
  O     -1.737840   -0.885520   -0.052730
  H     -2.090180   -1.032320    0.841890
  H     -0.839590   -1.284090   -0.017130
  O      1.752130    0.741530   -2.896280
  H      2.036450    0.920500   -1.984040
  H      0.921210    1.242140   -2.984230
  O     -0.923410    1.794470   -2.768350
  H     -1.359750    2.338250   -3.430940
  H     -1.303000    0.879480   -2.865760

 Total Charge           Charge          ....    0
 Multiplicity           Mult            ....    1
 Number of Electrons    NEL             ....   50
 Basis Dimension        Dim             ....  215

ORBITAL ENERGIES
----------------

  NO   OCC          E(Eh)            E(eV)
   0   2.0000     -20.614030      -560.9363
   1   2.0000     -20.583380      -560.1023
   2   2.0000     -20.560192      -559.4713
   3   2.0000     -20.530788      -558.6712
   4   2.0000     -20.516396      -558.2795
   5   2.0000      -1.397276       -38.0218
   6   2.0000      -1.361095       -37.0373
   7   2.0000      -1.346315       -36.6351
   8   2.0000      -1.311015       -35.6745
   9   2.0000      -1.301589       -35.4180
  10   2.0000      -0.754442       -20.5294
  11   2.0000      -0.728165       -19.8144
  12   2.0000      -0.716481       -19.4964
  13   2.0000      -0.685805       -18.6617
  14   2.0000      -0.681893       -18.5552
  15   2.0000      -0.634535       -17.2666
  16   2.0000      -0.602494       -16.3947
  17   2.0000      -0.594600       -16.1799
  18   2.0000      -0.563344       -15.3294
  19   2.0000      -0.547828       -14.9072
  20   2.0000      -0.538873       -14.6635
  21   2.0000      -0.517063       -14.0700
  22   2.0000      -0.500256       -13.6127
  23   2.0000      -0.479242       -13.0408
  24   2.0000      -0.466065       -12.6823
  25   0.0000       0.097983         2.6663
  26   0.0000       0.127006         3.4560
  27   0.0000       0.154001         4.1906
  28   0.0000       0.174041         4.7359
  29   0.0000       0.197858         5.3840

MULLIKEN ATOMIC CHARGES
-----------------------
   0 O :   -0.714291
   1 H :    0.366923
   2 H :    0.356263
   3 O :   -0.714967
   4 H :    0.365856
   5 H :    0.379390
   6 O :   -0.725213
   7 H :    0.327769
   8 H :    0.355030
   9 O :   -0.723884
  10 H :    0.360043
  11 H :    0.346965
  12 O :   -0.703181
  13 H :    0.351871
  14 H :    0.371426
Sum of atomic charges:   -0.0000000

LOEWDIN ATOMIC CHARGES
----------------------
   0 O :   -0.310021
   1 H :    0.144001
   2 H :    0.169974
   3 O :   -0.275397
   4 H :    0.176407
   5 H :    0.186890
   6 O :   -0.367958
   7 H :    0.158243
   8 H :    0.140347
   9 O :   -0.352900
  10 H :    0.145999
  11 H :    0.142748
  12 O :   -0.313694
  13 H :    0.163301
  14 H :    0.192060

  Mayer bond orders larger than 0.100000
B(  0-O ,  1-H ) :   0.7882 B(  0-O ,  2-H ) :   0.8376 B(  3-O ,  4-H ) :   0.8299
B(  3-O ,  5-H ) :   0.8133 B(  6-O ,  7-H ) :   0.8584 B(  6-O ,  8-H ) :   0.7864
B(  9-O , 10-H ) :   0.8347 B(  9-O , 11-H ) :   0.8238 B( 12-O , 13-H ) :   0.8421
B( 12-O , 14-H ) :   0.8213

MP2 TOTAL ENERGY:     -381.600421582 Eh
FINAL SINGLE POINT ENERGY      -381.600421581584

DIPOLE MOMENT
-------------
                                X             Y             Z
Electronic contribution:      0.25365       0.11141      -0.04809
Nuclear contribution   :     -0.68017       0.71107       0.82779
                        -----------------------------------------
Total Dipole Moment    :     -0.42652       0.82248       0.77970
                        -----------------------------------------
Magnitude (a.u.)       :      1.21092
Magnitude (Debye)      :      3.07792

Rotational constants in cm-1:     0.072748     0.051296     0.036578
Rotational constants in MHz :  2180.940458  1537.826295  1096.589184

                             ****ORCA TERMINATED NORMALLY****
TOTAL RUN TIME: 0 days 0 hours 0 minutes 39 seconds 471 msec
