                         Program Version 4.2.0 -  RELEASE  -
|  1> # 12h2o.su.etal.mol0,2,3,5,6,7,10,11
|  2> ! MP2 def2-TZVP EnGrad TightSCF
|  3>
|  4> %pal
|  5>     nprocs 6
|  6> end
|  7>
|  8> %maxcore 8000
|  9>
| 10> %scf
| 11>     ConvForced true
| 12> end
| 13>
| 14> *xyz 0 1
| 15> O   1.794470000   0.923410000   2.768350000
| 16> H   2.338250000   1.359750000   3.430940000
| 17> H   0.879480000   1.303000000   2.865760000
| 18> O   0.923410000  -1.794470000  -2.768350000
| 19> H   1.359750000  -2.338250000  -3.430940000
| 20> H   1.303000000  -0.879480000  -2.865760000
| 21> O  -1.752130000  -0.741530000  -2.896280000
| 22> H  -2.036450000  -0.920500000  -1.984040000
| 23> H  -0.921210000  -1.242140000  -2.984230000
| 24> O   0.885520000  -1.737840000   0.052730000
| 25> H   1.284090000  -0.839590000   0.017130000
| 26> H   1.032320000  -2.090180000  -0.841890000
| 27> O   1.737840000   0.885520000  -0.052730000
| 28> H   2.090180000   1.032320000   0.841890000
| 29> H   0.839590000   1.284090000  -0.017130000
| 30> O  -1.737840000  -0.885520000  -0.052730000
| 31> H  -2.090180000  -1.032320000   0.841890000
| 32> H  -0.839590000  -1.284090000  -0.017130000
| 33> O  -0.923410000   1.794470000  -2.768350000
| 34> H  -1.359750000   2.338250000  -3.430940000
| 35> H  -1.303000000   0.879480000  -2.865760000
| 36> O  -0.741530000   1.752130000   2.896280000
| 37> H  -0.920500000   2.036450000   1.984040000
| 38> H  -1.242140000   0.921210000   2.984230000
| 39> *
| 40>
| 41>                          ****END OF INPUT****

CARTESIAN COORDINATES (ANGSTROEM)
---------------------------------
  O      1.794470    0.923410    2.768350
  H      2.338250    1.359750    3.430940
  H      0.879480    1.303000    2.865760
  O      0.923410   -1.794470   -2.768350
  H      1.359750   -2.338250   -3.430940
  H      1.303000   -0.879480   -2.865760
  O     -1.752130   -0.741530   -2.896280
  H     -2.036450   -0.920500   -1.984040
  H     -0.921210   -1.242140   -2.984230
  O      0.885520   -1.737840    0.052730
  H      1.284090   -0.839590    0.017130
  H      1.032320   -2.090180   -0.841890
  O      1.737840    0.885520   -0.052730
  H      2.090180    1.032320    0.841890
  H      0.839590    1.284090   -0.017130
  O     -1.737840   -0.885520   -0.052730
  H     -2.090180   -1.032320    0.841890
  H     -0.839590   -1.284090   -0.017130
  O     -0.923410    1.794470   -2.768350
  H     -1.359750    2.338250   -3.430940
  H     -1.303000    0.879480   -2.865760
  O     -0.741530    1.752130    2.896280
  H     -0.920500    2.036450    1.984040
  H     -1.242140    0.921210    2.984230

 Total Charge           Charge          ....    0
 Multiplicity           Mult            ....    1
 Number of Electrons    NEL             ....   80
 Basis Dimension        Dim             ....  344

ORBITAL ENERGIES
----------------

  NO   OCC          E(Eh)            E(eV)
   0   2.0000     -20.611495      -560.8673
   1   2.0000     -20.606560      -560.7330
   2   2.0000     -20.559467      -559.4515
   3   2.0000     -20.552283      -559.2561
   4   2.0000     -20.551793      -559.2427
   5   2.0000     -20.539044      -558.8958
   6   2.0000     -20.533696      -558.7503
   7   2.0000     -20.509373      -558.0884
   8   2.0000      -1.397036       -38.0153
   9   2.0000      -1.387129       -37.7457
  10   2.0000      -1.348465       -36.6936
  11   2.0000      -1.340915       -36.4882
  12   2.0000      -1.333410       -36.2839
  13   2.0000      -1.329436       -36.1758
  14   2.0000      -1.315795       -35.8046
  15   2.0000      -1.290404       -35.1137
  16   2.0000      -0.754057       -20.5189
  17   2.0000      -0.752405       -20.4740
  18   2.0000      -0.722550       -19.6616
  19   2.0000      -0.708775       -19.2868
  20   2.0000      -0.704866       -19.1804
  21   2.0000      -0.696878       -18.9630
  22   2.0000      -0.695942       -18.9375
  23   2.0000      -0.676218       -18.4008
  24   2.0000      -0.636563       -17.3218
  25   2.0000      -0.630966       -17.1695
  26   2.0000      -0.599392       -16.3103
  27   2.0000      -0.595382       -16.2012
  28   2.0000      -0.585184       -15.9237
  29   2.0000      -0.571297       -15.5458
  30   2.0000      -0.558320       -15.1927
  31   2.0000      -0.539730       -14.6868
  32   2.0000      -0.536632       -14.6025
  33   2.0000      -0.527839       -14.3632
  34   2.0000      -0.502589       -13.6761
  35   2.0000      -0.501088       -13.6353
  36   2.0000      -0.498704       -13.5704
  37   2.0000      -0.481360       -13.0985
  38   2.0000      -0.478756       -13.0276
  39   2.0000      -0.460358       -12.5270
  40   0.0000       0.084321         2.2945
  41   0.0000       0.110705         3.0124
  42   0.0000       0.140313         3.8181
  43   0.0000       0.155630         4.2349
  44   0.0000       0.168758         4.5921

MULLIKEN ATOMIC CHARGES
-----------------------
   0 O :   -0.734257
   1 H :    0.340226
   2 H :    0.369106
   3 O :   -0.724900
   4 H :    0.363288
   5 H :    0.385897
   6 O :   -0.717255
   7 H :    0.384897
   8 H :    0.358652
   9 O :   -0.727328
  10 H :    0.368217
  11 H :    0.367412
  12 O :   -0.707673
  13 H :    0.381457
  14 H :    0.343821
  15 O :   -0.732257
  16 H :    0.325858
  17 H :    0.360412
  18 O :   -0.744436
  19 H :    0.321421
  20 H :    0.370109
  21 O :   -0.677323
  22 H :    0.363559
  23 H :    0.361094
Sum of atomic charges:    0.0000000

LOEWDIN ATOMIC CHARGES
----------------------
   0 O :   -0.337978
   1 H :    0.155654
   2 H :    0.143417
   3 O :   -0.288872
   4 H :    0.167584
   5 H :    0.197374
   6 O :   -0.288555
   7 H :    0.157671
   8 H :    0.146401
   9 O :   -0.315639
  10 H :    0.142483
  11 H :    0.145760
  12 O :   -0.299416
  13 H :    0.153925
  14 H :    0.169182
  15 O :   -0.344125
  16 H :    0.156161
  17 H :    0.143672
  18 O :   -0.379626
  19 H :    0.146811
  20 H :    0.141890
  21 O :   -0.265925
  22 H :    0.175072
  23 H :    0.177079

  Mayer bond orders larger than 0.100000
B(  0-O ,  1-H ) :   0.8489 B(  0-O ,  2-H ) :   0.7693 B(  3-O ,  4-H ) :   0.8326
B(  3-O ,  5-H ) :   0.8082 B(  6-O ,  7-H ) :   0.8018 B(  6-O ,  8-H ) :   0.8169
B(  6-O , 20-H ) :   0.1064 B(  9-O , 10-H ) :   0.7738 B(  9-O , 11-H ) :   0.8186
B(  9-O , 17-H ) :   0.1248 B( 12-O , 13-H ) :   0.7926 B( 12-O , 14-H ) :   0.8372
B( 15-O , 16-H ) :   0.8558 B( 15-O , 17-H ) :   0.7535 B( 18-O , 19-H ) :   0.8621
B( 18-O , 20-H ) :   0.7649 B( 21-O , 22-H ) :   0.8322 B( 21-O , 23-H ) :   0.8336

MP2 TOTAL ENERGY:     -610.580276402 Eh
FINAL SINGLE POINT ENERGY      -610.580276401534

DIPOLE MOMENT
-------------
                                X             Y             Z
Electronic contribution:      0.18050      -0.16302       0.22509
Nuclear contribution   :      0.03428       0.11292       0.14168
                        -----------------------------------------
Total Dipole Moment    :      0.21478      -0.05011       0.36678
                        -----------------------------------------
Magnitude (a.u.)       :      0.42798
Magnitude (Debye)      :      1.08784

Rotational constants in cm-1:     0.036322     0.017111     0.015490
Rotational constants in MHz :  1088.909702   512.961030   464.376021

                             ****ORCA TERMINATED NORMALLY****
TOTAL RUN TIME: 0 days 0 hours 3 minutes 3 seconds 53 msec
