                         Program Version 4.2.0 -  RELEASE  -
|  1> # 12h2o.su.etal.mol2,4,9,10,11
|  2> ! MP2 def2-TZVP EnGrad TightSCF
|  3>
|  4> %pal
|  5>     nprocs 6
|  6> end
|  7>
|  8> %maxcore 8000
|  9>
| 10> %scf
| 11>     ConvForced true
| 12> end
| 13>
| 14> *xyz 0 1
| 15> O   0.923410000  -1.794470000  -2.768350000
| 16> H   1.359750000  -2.338250000  -3.430940000
| 17> H   1.303000000  -0.879480000  -2.865760000
| 18> O  -0.885520000   1.737840000   0.052730000
| 19> H  -1.032320000   2.090180000  -0.841890000
| 20> H  -1.284090000   0.839590000   0.017130000
| 21> O   0.741530000  -1.752130000   2.896280000
| 22> H   0.920500000  -2.036450000   1.984040000
| 23> H   1.242140000  -0.921210000   2.984230000
| 24> O  -0.923410000   1.794470000  -2.768350000
| 25> H  -1.359750000   2.338250000  -3.430940000
| 26> H  -1.303000000   0.879480000  -2.865760000
| 27> O  -0.741530000   1.752130000   2.896280000
| 28> H  -0.920500000   2.036450000   1.984040000
| 29> H  -1.242140000   0.921210000   2.984230000
| 30> *
| 31>
| 32>                          ****END OF INPUT****

CARTESIAN COORDINATES (ANGSTROEM)
---------------------------------
  O      0.923410   -1.794470   -2.768350
  H      1.359750   -2.338250   -3.430940
  H      1.303000   -0.879480   -2.865760
  O     -0.885520    1.737840    0.052730
  H     -1.032320    2.090180   -0.841890
  H     -1.284090    0.839590    0.017130
  O      0.741530   -1.752130    2.896280
  H      0.920500   -2.036450    1.984040
  H      1.242140   -0.921210    2.984230
  O     -0.923410    1.794470   -2.768350
  H     -1.359750    2.338250   -3.430940
  H     -1.303000    0.879480   -2.865760
  O     -0.741530    1.752130    2.896280
  H     -0.920500    2.036450    1.984040
  H     -1.242140    0.921210    2.984230

 Total Charge           Charge          ....    0
 Multiplicity           Mult            ....    1
 Number of Electrons    NEL             ....   50
 Basis Dimension        Dim             ....  215

ORBITAL ENERGIES
----------------

  NO   OCC          E(Eh)            E(eV)
   0   2.0000     -20.603954      -560.6621
   1   2.0000     -20.577444      -559.9407
   2   2.0000     -20.559794      -559.4604
   3   2.0000     -20.551120      -559.2244
   4   2.0000     -20.520834      -558.4003
   5   2.0000      -1.381931       -37.6042
   6   2.0000      -1.352745       -36.8101
   7   2.0000      -1.341080       -36.4926
   8   2.0000      -1.330329       -36.2001
   9   2.0000      -1.302450       -35.4415
  10   2.0000      -0.748721       -20.3737
  11   2.0000      -0.720963       -19.6184
  12   2.0000      -0.710481       -19.3332
  13   2.0000      -0.692966       -18.8566
  14   2.0000      -0.670404       -18.2426
  15   2.0000      -0.621333       -16.9073
  16   2.0000      -0.589452       -16.0398
  17   2.0000      -0.586528       -15.9602
  18   2.0000      -0.568465       -15.4687
  19   2.0000      -0.548632       -14.9290
  20   2.0000      -0.533126       -14.5071
  21   2.0000      -0.520843       -14.1729
  22   2.0000      -0.504924       -13.7397
  23   2.0000      -0.495809       -13.4917
  24   2.0000      -0.467056       -12.7093
  25   0.0000       0.084894         2.3101
  26   0.0000       0.124243         3.3808
  27   0.0000       0.127340         3.4651
  28   0.0000       0.162073         4.4102
  29   0.0000       0.182623         4.9694

MULLIKEN ATOMIC CHARGES
-----------------------
   0 O :   -0.693036
   1 H :    0.343776
   2 H :    0.350046
   3 O :   -0.706483
   4 H :    0.374756
   5 H :    0.326829
   6 O :   -0.686277
   7 H :    0.336112
   8 H :    0.349021
   9 O :   -0.699337
  10 H :    0.355064
  11 H :    0.357810
  12 O :   -0.703482
  13 H :    0.371134
  14 H :    0.324068
Sum of atomic charges:   -0.0000000

LOEWDIN ATOMIC CHARGES
----------------------
   0 O :   -0.342560
   1 H :    0.160349
   2 H :    0.182625
   3 O :   -0.325694
   4 H :    0.153373
   5 H :    0.166002
   6 O :   -0.334783
   7 H :    0.164522
   8 H :    0.169629
   9 O :   -0.311430
  10 H :    0.165034
  11 H :    0.185920
  12 O :   -0.342717
  13 H :    0.152247
  14 H :    0.157484

  Mayer bond orders larger than 0.100000
B(  0-O ,  1-H ) :   0.8502 B(  0-O ,  2-H ) :   0.8389 B(  3-O ,  4-H ) :   0.8085
B(  3-O ,  5-H ) :   0.8516 B(  6-O ,  7-H ) :   0.8535 B(  6-O ,  8-H ) :   0.8420
B(  9-O , 10-H ) :   0.8400 B(  9-O , 11-H ) :   0.8300 B( 12-O , 13-H ) :   0.8171
B( 12-O , 14-H ) :   0.8575

MP2 TOTAL ENERGY:     -381.582205305 Eh
FINAL SINGLE POINT ENERGY      -381.582205304608

DIPOLE MOMENT
-------------
                                X             Y             Z
Electronic contribution:      0.12324       0.14327       0.13474
Nuclear contribution   :     -0.45394      -0.45439      -3.41168
                        -----------------------------------------
Total Dipole Moment    :     -0.33071      -0.31112      -3.27694
                        -----------------------------------------
Magnitude (a.u.)       :      3.30825
Magnitude (Debye)      :      8.40890

Rotational constants in cm-1:     0.050178     0.028871     0.018460
Rotational constants in MHz :  1504.298387   865.536351   553.430926

                             ****ORCA TERMINATED NORMALLY****
TOTAL RUN TIME: 0 days 0 hours 0 minutes 23 seconds 523 msec
