                         Program Version 4.2.0 -  RELEASE  -
|  1> # 12meoh.boyd.etal.mol3,4,10
|  2> ! MP2 def2-TZVP EnGrad TightSCF
|  3>
|  4> %pal
|  5>     nprocs 6
|  6> end
|  7>
|  8> %maxcore 8000
|  9>
| 10> %scf
| 11>     ConvForced true
| 12> end
| 13>
| 14> *xyz 0 1
| 15> O  -3.821405976  -2.118091637   0.596795346
| 16> H  -4.342989117  -1.344303030   0.251966383
| 17> C  -3.443883586  -1.809641231   1.934889393
| 18> H  -2.831494349  -2.637429600   2.305201764
| 19> H  -4.325601146  -1.719364371   2.585074667
| 20> H  -2.858527126  -0.882644791   1.996110694
| 21> O  -1.358578914   1.232360421   1.189721000
| 22> H  -1.058250183   1.216459361   0.238591307
| 23> C  -0.389763452   1.957872567   1.943072362
| 24> H  -0.747220771   2.012806578   2.975200343
| 25> H  -0.260410585   2.982763209   1.565366540
| 26> H   0.585220638   1.453754179   1.934070793
| 27> O  -5.201143618   0.064582726  -0.172223772
| 28> H  -4.686891530   0.869258890   0.107806143
| 29> C  -6.513192168   0.171391798   0.359883449
| 30> H  -7.049381312  -0.749234190   0.111361174
| 31> H  -7.057741163   1.017801101  -0.081819420
| 32> H  -6.514770575   0.292264928   1.453058834
| 33> *
| 34>
| 35>                          ****END OF INPUT****

CARTESIAN COORDINATES (ANGSTROEM)
---------------------------------
  O     -3.821406   -2.118092    0.596795
  H     -4.342989   -1.344303    0.251966
  C     -3.443884   -1.809641    1.934889
  H     -2.831494   -2.637430    2.305202
  H     -4.325601   -1.719364    2.585075
  H     -2.858527   -0.882645    1.996111
  O     -1.358579    1.232360    1.189721
  H     -1.058250    1.216459    0.238591
  C     -0.389763    1.957873    1.943072
  H     -0.747221    2.012807    2.975200
  H     -0.260411    2.982763    1.565367
  H      0.585221    1.453754    1.934071
  O     -5.201144    0.064583   -0.172224
  H     -4.686892    0.869259    0.107806
  C     -6.513192    0.171392    0.359883
  H     -7.049381   -0.749234    0.111361
  H     -7.057741    1.017801   -0.081819
  H     -6.514771    0.292265    1.453059

 Total Charge           Charge          ....    0
 Multiplicity           Mult            ....    1
 Number of Electrons    NEL             ....   54
 Basis Dimension        Dim             ....  258

ORBITAL ENERGIES
----------------

  NO   OCC          E(Eh)            E(eV)
   0   2.0000     -20.583235      -560.0983
   1   2.0000     -20.566699      -559.6483
   2   2.0000     -20.504616      -557.9590
   3   2.0000     -11.285119      -307.0837
   4   2.0000     -11.278600      -306.9063
   5   2.0000     -11.238444      -305.8136
   6   2.0000      -1.377446       -37.4822
   7   2.0000      -1.354148       -36.8483
   8   2.0000      -1.301254       -35.4089
   9   2.0000      -0.936521       -25.4840
  10   2.0000      -0.926514       -25.2117
  11   2.0000      -0.885497       -24.0956
  12   2.0000      -0.708845       -19.2887
  13   2.0000      -0.688821       -18.7438
  14   2.0000      -0.667232       -18.1563
  15   2.0000      -0.626945       -17.0600
  16   2.0000      -0.624272       -16.9873
  17   2.0000      -0.604301       -16.4439
  18   2.0000      -0.599250       -16.3064
  19   2.0000      -0.580308       -15.7910
  20   2.0000      -0.551513       -15.0074
  21   2.0000      -0.521154       -14.1813
  22   2.0000      -0.508600       -13.8397
  23   2.0000      -0.481389       -13.0993
  24   2.0000      -0.457760       -12.4563
  25   2.0000      -0.447569       -12.1790
  26   2.0000      -0.406970       -11.0742
  27   0.0000       0.115381         3.1397
  28   0.0000       0.138566         3.7706
  29   0.0000       0.159543         4.3414
  30   0.0000       0.180941         4.9236
  31   0.0000       0.188496         5.1292

MULLIKEN ATOMIC CHARGES
-----------------------
   0 O :   -0.534224
   1 H :    0.358002
   2 C :   -0.195632
   3 H :    0.117651
   4 H :    0.089279
   5 H :    0.122194
   6 O :   -0.498958
   7 H :    0.326863
   8 C :   -0.173979
   9 H :    0.130457
  10 H :    0.110490
  11 H :    0.116213
  12 O :   -0.516999
  13 H :    0.344553
  14 C :   -0.191033
  15 H :    0.146185
  16 H :    0.123700
  17 H :    0.125239
Sum of atomic charges:    0.0000000

LOEWDIN ATOMIC CHARGES
----------------------
   0 O :   -0.125134
   1 H :    0.158673
   2 C :   -0.402401
   3 H :    0.104677
   4 H :    0.087047
   5 H :    0.093998
   6 O :   -0.110638
   7 H :    0.194374
   8 C :   -0.378915
   9 H :    0.110588
  10 H :    0.096699
  11 H :    0.097738
  12 O :   -0.070586
  13 H :    0.200688
  14 C :   -0.377605
  15 H :    0.116649
  16 H :    0.102995
  17 H :    0.101152

  Mayer bond orders larger than 0.100000
B(  0-O ,  1-H ) :   0.7947 B(  0-O ,  2-C ) :   0.9367 B(  2-C ,  3-H ) :   0.9433
B(  2-C ,  4-H ) :   0.9385 B(  2-C ,  5-H ) :   0.9329 B(  6-O ,  7-H ) :   0.8364
B(  6-O ,  8-C ) :   0.9156 B(  8-C ,  9-H ) :   0.9394 B(  8-C , 10-H ) :   0.9349
B(  8-C , 11-H ) :   0.9380 B( 12-O , 13-H ) :   0.8241 B( 12-O , 14-C ) :   0.8764
B( 14-C , 15-H ) :   0.9393 B( 14-C , 16-H ) :   0.9355 B( 14-C , 17-H ) :   0.9368

MP2 TOTAL ENERGY:     -346.531880085 Eh
FINAL SINGLE POINT ENERGY      -346.531880085164

DIPOLE MOMENT
-------------
                                X             Y             Z
Electronic contribution:     -0.20901      -1.40388      -3.37520
Nuclear contribution   :      0.26014       3.14026       3.65934
                        -----------------------------------------
Total Dipole Moment    :      0.05113       1.73638       0.28414
                        -----------------------------------------
Magnitude (a.u.)       :      1.76022
Magnitude (Debye)      :      4.47413

Rotational constants in cm-1:     0.092301     0.030718     0.024880
Rotational constants in MHz :  2767.110662   920.912216   745.891469

                             ****ORCA TERMINATED NORMALLY****
TOTAL RUN TIME: 0 days 0 hours 1 minutes 18 seconds 910 msec
