                         Program Version 4.2.0 -  RELEASE  -
|  1> # 12h2o.su.etal.mol0,4,6,7,8,9,10,11
|  2> ! MP2 def2-TZVP EnGrad TightSCF
|  3>
|  4> %pal
|  5>     nprocs 6
|  6> end
|  7>
|  8> %maxcore 8000
|  9>
| 10> %scf
| 11>     ConvForced true
| 12> end
| 13>
| 14> *xyz 0 1
| 15> O   1.794470000   0.923410000   2.768350000
| 16> H   2.338250000   1.359750000   3.430940000
| 17> H   0.879480000   1.303000000   2.865760000
| 18> O  -0.885520000   1.737840000   0.052730000
| 19> H  -1.032320000   2.090180000  -0.841890000
| 20> H  -1.284090000   0.839590000   0.017130000
| 21> O   1.737840000   0.885520000  -0.052730000
| 22> H   2.090180000   1.032320000   0.841890000
| 23> H   0.839590000   1.284090000  -0.017130000
| 24> O  -1.737840000  -0.885520000  -0.052730000
| 25> H  -2.090180000  -1.032320000   0.841890000
| 26> H  -0.839590000  -1.284090000  -0.017130000
| 27> O   1.752130000   0.741530000  -2.896280000
| 28> H   2.036450000   0.920500000  -1.984040000
| 29> H   0.921210000   1.242140000  -2.984230000
| 30> O   0.741530000  -1.752130000   2.896280000
| 31> H   0.920500000  -2.036450000   1.984040000
| 32> H   1.242140000  -0.921210000   2.984230000
| 33> O  -0.923410000   1.794470000  -2.768350000
| 34> H  -1.359750000   2.338250000  -3.430940000
| 35> H  -1.303000000   0.879480000  -2.865760000
| 36> O  -0.741530000   1.752130000   2.896280000
| 37> H  -0.920500000   2.036450000   1.984040000
| 38> H  -1.242140000   0.921210000   2.984230000
| 39> *
| 40>
| 41>                          ****END OF INPUT****

CARTESIAN COORDINATES (ANGSTROEM)
---------------------------------
  O      1.794470    0.923410    2.768350
  H      2.338250    1.359750    3.430940
  H      0.879480    1.303000    2.865760
  O     -0.885520    1.737840    0.052730
  H     -1.032320    2.090180   -0.841890
  H     -1.284090    0.839590    0.017130
  O      1.737840    0.885520   -0.052730
  H      2.090180    1.032320    0.841890
  H      0.839590    1.284090   -0.017130
  O     -1.737840   -0.885520   -0.052730
  H     -2.090180   -1.032320    0.841890
  H     -0.839590   -1.284090   -0.017130
  O      1.752130    0.741530   -2.896280
  H      2.036450    0.920500   -1.984040
  H      0.921210    1.242140   -2.984230
  O      0.741530   -1.752130    2.896280
  H      0.920500   -2.036450    1.984040
  H      1.242140   -0.921210    2.984230
  O     -0.923410    1.794470   -2.768350
  H     -1.359750    2.338250   -3.430940
  H     -1.303000    0.879480   -2.865760
  O     -0.741530    1.752130    2.896280
  H     -0.920500    2.036450    1.984040
  H     -1.242140    0.921210    2.984230

 Total Charge           Charge          ....    0
 Multiplicity           Mult            ....    1
 Number of Electrons    NEL             ....   80
 Basis Dimension        Dim             ....  344

ORBITAL ENERGIES
----------------

  NO   OCC          E(Eh)            E(eV)
   0   2.0000     -20.616802      -561.0117
   1   2.0000     -20.615508      -560.9765
   2   2.0000     -20.587539      -560.2154
   3   2.0000     -20.574736      -559.8670
   4   2.0000     -20.564758      -559.5955
   5   2.0000     -20.546188      -559.0902
   6   2.0000     -20.521928      -558.4300
   7   2.0000     -20.499725      -557.8259
   8   2.0000      -1.399230       -38.0750
   9   2.0000      -1.395318       -37.9685
  10   2.0000      -1.379961       -37.5506
  11   2.0000      -1.362560       -37.0772
  12   2.0000      -1.350156       -36.7396
  13   2.0000      -1.327503       -36.1232
  14   2.0000      -1.308864       -35.6160
  15   2.0000      -1.284450       -34.9517
  16   2.0000      -0.761782       -20.7291
  17   2.0000      -0.754774       -20.5385
  18   2.0000      -0.744351       -20.2548
  19   2.0000      -0.732249       -19.9255
  20   2.0000      -0.731477       -19.9045
  21   2.0000      -0.696330       -18.9481
  22   2.0000      -0.689929       -18.7739
  23   2.0000      -0.666066       -18.1246
  24   2.0000      -0.654109       -17.7992
  25   2.0000      -0.630361       -17.1530
  26   2.0000      -0.626799       -17.0561
  27   2.0000      -0.603850       -16.4316
  28   2.0000      -0.591457       -16.0944
  29   2.0000      -0.580041       -15.7837
  30   2.0000      -0.565234       -15.3808
  31   2.0000      -0.555001       -15.1023
  32   2.0000      -0.543837       -14.7985
  33   2.0000      -0.526904       -14.3378
  34   2.0000      -0.519721       -14.1423
  35   2.0000      -0.515342       -14.0232
  36   2.0000      -0.503536       -13.7019
  37   2.0000      -0.493402       -13.4261
  38   2.0000      -0.473330       -12.8800
  39   2.0000      -0.449538       -12.2325
  40   0.0000       0.077843         2.1182
  41   0.0000       0.104849         2.8531
  42   0.0000       0.138114         3.7583
  43   0.0000       0.141127         3.8403
  44   0.0000       0.172782         4.7016

MULLIKEN ATOMIC CHARGES
-----------------------
   0 O :   -0.751858
   1 H :    0.349256
   2 H :    0.385939
   3 O :   -0.750137
   4 H :    0.386171
   5 H :    0.354255
   6 O :   -0.749372
   7 H :    0.366411
   8 H :    0.343516
   9 O :   -0.690441
  10 H :    0.360160
  11 H :    0.370354
  12 O :   -0.728018
  13 H :    0.372826
  14 H :    0.334494
  15 O :   -0.713187
  16 H :    0.325352
  17 H :    0.367862
  18 O :   -0.715619
  19 H :    0.365268
  20 H :    0.375598
  21 O :   -0.697387
  22 H :    0.393458
  23 H :    0.345099
Sum of atomic charges:   -0.0000000

LOEWDIN ATOMIC CHARGES
----------------------
   0 O :   -0.313393
   1 H :    0.158769
   2 H :    0.146761
   3 O :   -0.302477
   4 H :    0.154289
   5 H :    0.140012
   6 O :   -0.349932
   7 H :    0.146343
   8 H :    0.135378
   9 O :   -0.287863
  10 H :    0.173156
  11 H :    0.183275
  12 O :   -0.357938
  13 H :    0.151172
  14 H :    0.136517
  15 O :   -0.347930
  16 H :    0.155833
  17 H :    0.148937
  18 O :   -0.286835
  19 H :    0.168470
  20 H :    0.193649
  21 O :   -0.273301
  22 H :    0.159401
  23 H :    0.167707

  Mayer bond orders larger than 0.100000
B(  0-O ,  1-H ) :   0.8409 B(  0-O ,  2-H ) :   0.7425 B(  3-O ,  4-H ) :   0.7996
B(  3-O ,  5-H ) :   0.7738 B(  6-O ,  7-H ) :   0.8136 B(  6-O ,  8-H ) :   0.7901
B(  9-O , 10-H ) :   0.8348 B(  9-O , 11-H ) :   0.8209 B( 12-O , 13-H ) :   0.8144
B( 12-O , 14-H ) :   0.8440 B( 15-O , 16-H ) :   0.8577 B( 15-O , 17-H ) :   0.8041
B( 18-O , 19-H ) :   0.8316 B( 18-O , 20-H ) :   0.8170 B( 21-O , 22-H ) :   0.7926
B( 21-O , 23-H ) :   0.8412

MP2 TOTAL ENERGY:     -610.582477003 Eh
FINAL SINGLE POINT ENERGY      -610.582477002608

DIPOLE MOMENT
-------------
                                X             Y             Z
Electronic contribution:     -0.31766       0.10111      -0.01998
Nuclear contribution   :     -1.89704       0.48143       0.08817
                        -----------------------------------------
Total Dipole Moment    :     -2.21470       0.58254       0.06819
                        -----------------------------------------
Magnitude (a.u.)       :      2.29105
Magnitude (Debye)      :      5.82338

Rotational constants in cm-1:     0.037002     0.018098     0.016781
Rotational constants in MHz :  1109.285032   542.563756   503.083967

                             ****ORCA TERMINATED NORMALLY****
TOTAL RUN TIME: 0 days 0 hours 3 minutes 14 seconds 910 msec
