                         Program Version 4.2.0 -  RELEASE  -
|  1> # 12h2o.su.etal.mol2,4,8,10,11
|  2> ! MP2 def2-TZVP EnGrad TightSCF
|  3>
|  4> %pal
|  5>     nprocs 6
|  6> end
|  7>
|  8> %maxcore 8000
|  9>
| 10> %scf
| 11>     ConvForced true
| 12> end
| 13>
| 14> *xyz 0 1
| 15> O   0.923410000  -1.794470000  -2.768350000
| 16> H   1.359750000  -2.338250000  -3.430940000
| 17> H   1.303000000  -0.879480000  -2.865760000
| 18> O  -0.885520000   1.737840000   0.052730000
| 19> H  -1.032320000   2.090180000  -0.841890000
| 20> H  -1.284090000   0.839590000   0.017130000
| 21> O   1.752130000   0.741530000  -2.896280000
| 22> H   2.036450000   0.920500000  -1.984040000
| 23> H   0.921210000   1.242140000  -2.984230000
| 24> O  -0.923410000   1.794470000  -2.768350000
| 25> H  -1.359750000   2.338250000  -3.430940000
| 26> H  -1.303000000   0.879480000  -2.865760000
| 27> O  -0.741530000   1.752130000   2.896280000
| 28> H  -0.920500000   2.036450000   1.984040000
| 29> H  -1.242140000   0.921210000   2.984230000
| 30> *
| 31>
| 32>                          ****END OF INPUT****

CARTESIAN COORDINATES (ANGSTROEM)
---------------------------------
  O      0.923410   -1.794470   -2.768350
  H      1.359750   -2.338250   -3.430940
  H      1.303000   -0.879480   -2.865760
  O     -0.885520    1.737840    0.052730
  H     -1.032320    2.090180   -0.841890
  H     -1.284090    0.839590    0.017130
  O      1.752130    0.741530   -2.896280
  H      2.036450    0.920500   -1.984040
  H      0.921210    1.242140   -2.984230
  O     -0.923410    1.794470   -2.768350
  H     -1.359750    2.338250   -3.430940
  H     -1.303000    0.879480   -2.865760
  O     -0.741530    1.752130    2.896280
  H     -0.920500    2.036450    1.984040
  H     -1.242140    0.921210    2.984230

 Total Charge           Charge          ....    0
 Multiplicity           Mult            ....    1
 Number of Electrons    NEL             ....   50
 Basis Dimension        Dim             ....  215

ORBITAL ENERGIES
----------------

  NO   OCC          E(Eh)            E(eV)
   0   2.0000     -20.631299      -561.4062
   1   2.0000     -20.576864      -559.9249
   2   2.0000     -20.572038      -559.7936
   3   2.0000     -20.526434      -558.5527
   4   2.0000     -20.523158      -558.4635
   5   2.0000      -1.411694       -38.4141
   6   2.0000      -1.365578       -37.1593
   7   2.0000      -1.353431       -36.8287
   8   2.0000      -1.308274       -35.5999
   9   2.0000      -1.305144       -35.5148
  10   2.0000      -0.777194       -21.1485
  11   2.0000      -0.728847       -19.8329
  12   2.0000      -0.723884       -19.6979
  13   2.0000      -0.693166       -18.8620
  14   2.0000      -0.677055       -18.4236
  15   2.0000      -0.650814       -17.7095
  16   2.0000      -0.612865       -16.6769
  17   2.0000      -0.594944       -16.1892
  18   2.0000      -0.568900       -15.4805
  19   2.0000      -0.551790       -15.0150
  20   2.0000      -0.542531       -14.7630
  21   2.0000      -0.516475       -14.0540
  22   2.0000      -0.507905       -13.8208
  23   2.0000      -0.473917       -12.8959
  24   2.0000      -0.472898       -12.8682
  25   0.0000       0.080105         2.1798
  26   0.0000       0.130556         3.5526
  27   0.0000       0.149190         4.0597
  28   0.0000       0.161830         4.4036
  29   0.0000       0.178690         4.8624

MULLIKEN ATOMIC CHARGES
-----------------------
   0 O :   -0.740752
   1 H :    0.327575
   2 H :    0.364370
   3 O :   -0.705380
   4 H :    0.371741
   5 H :    0.332617
   6 O :   -0.699501
   7 H :    0.361275
   8 H :    0.370550
   9 O :   -0.722862
  10 H :    0.370505
  11 H :    0.377866
  12 O :   -0.694086
  13 H :    0.370010
  14 H :    0.316071
Sum of atomic charges:   -0.0000000

LOEWDIN ATOMIC CHARGES
----------------------
   0 O :   -0.377217
   1 H :    0.149443
   2 H :    0.140455
   3 O :   -0.323576
   4 H :    0.151194
   5 H :    0.168831
   6 O :   -0.280932
   7 H :    0.174597
   8 H :    0.151418
   9 O :   -0.287697
  10 H :    0.171072
  11 H :    0.194767
  12 O :   -0.340857
  13 H :    0.152024
  14 H :    0.156479

  Mayer bond orders larger than 0.100000
B(  0-O ,  1-H ) :   0.8594 B(  0-O ,  2-H ) :   0.7779 B(  3-O ,  4-H ) :   0.8134
B(  3-O ,  5-H ) :   0.8484 B(  6-O ,  7-H ) :   0.8348 B(  6-O ,  8-H ) :   0.8091
B(  9-O , 10-H ) :   0.8285 B(  9-O , 11-H ) :   0.8139 B( 12-O , 13-H ) :   0.8199
B( 12-O , 14-H ) :   0.8649

MP2 TOTAL ENERGY:     -381.594784093 Eh
FINAL SINGLE POINT ENERGY      -381.594784092675

DIPOLE MOMENT
-------------
                                X             Y             Z
Electronic contribution:      0.19488       0.49068      -0.02657
Nuclear contribution   :     -1.47457      -0.34371      -2.03947
                        -----------------------------------------
Total Dipole Moment    :     -1.27969       0.14697      -2.06604
                        -----------------------------------------
Magnitude (a.u.)       :      2.43469
Magnitude (Debye)      :      6.18850

Rotational constants in cm-1:     0.091644     0.027418     0.023877
Rotational constants in MHz :  2747.420598   821.956584   715.821722

                             ****ORCA TERMINATED NORMALLY****
TOTAL RUN TIME: 0 days 0 hours 1 minutes 2 seconds 391 msec
