                         Program Version 4.2.0 -  RELEASE  -
|  1> # 12h2o.su.etal.mol3,4,5,9,11
|  2> ! MP2 def2-TZVP EnGrad TightSCF
|  3>
|  4> %pal
|  5>     nprocs 6
|  6> end
|  7>
|  8> %maxcore 8000
|  9>
| 10> %scf
| 11>     ConvForced true
| 12> end
| 13>
| 14> *xyz 0 1
| 15> O  -1.752130000  -0.741530000  -2.896280000
| 16> H  -2.036450000  -0.920500000  -1.984040000
| 17> H  -0.921210000  -1.242140000  -2.984230000
| 18> O  -0.885520000   1.737840000   0.052730000
| 19> H  -1.032320000   2.090180000  -0.841890000
| 20> H  -1.284090000   0.839590000   0.017130000
| 21> O   0.885520000  -1.737840000   0.052730000
| 22> H   1.284090000  -0.839590000   0.017130000
| 23> H   1.032320000  -2.090180000  -0.841890000
| 24> O   0.741530000  -1.752130000   2.896280000
| 25> H   0.920500000  -2.036450000   1.984040000
| 26> H   1.242140000  -0.921210000   2.984230000
| 27> O  -0.741530000   1.752130000   2.896280000
| 28> H  -0.920500000   2.036450000   1.984040000
| 29> H  -1.242140000   0.921210000   2.984230000
| 30> *
| 31>
| 32>                          ****END OF INPUT****

CARTESIAN COORDINATES (ANGSTROEM)
---------------------------------
  O     -1.752130   -0.741530   -2.896280
  H     -2.036450   -0.920500   -1.984040
  H     -0.921210   -1.242140   -2.984230
  O     -0.885520    1.737840    0.052730
  H     -1.032320    2.090180   -0.841890
  H     -1.284090    0.839590    0.017130
  O      0.885520   -1.737840    0.052730
  H      1.284090   -0.839590    0.017130
  H      1.032320   -2.090180   -0.841890
  O      0.741530   -1.752130    2.896280
  H      0.920500   -2.036450    1.984040
  H      1.242140   -0.921210    2.984230
  O     -0.741530    1.752130    2.896280
  H     -0.920500    2.036450    1.984040
  H     -1.242140    0.921210    2.984230

 Total Charge           Charge          ....    0
 Multiplicity           Mult            ....    1
 Number of Electrons    NEL             ....   50
 Basis Dimension        Dim             ....  215

ORBITAL ENERGIES
----------------

  NO   OCC          E(Eh)            E(eV)
   0   2.0000     -20.608858      -560.7955
   1   2.0000     -20.597908      -560.4976
   2   2.0000     -20.590887      -560.3065
   3   2.0000     -20.535557      -558.8009
   4   2.0000     -20.532551      -558.7191
   5   2.0000      -1.387028       -37.7430
   6   2.0000      -1.376091       -37.4453
   7   2.0000      -1.369742       -37.2726
   8   2.0000      -1.317455       -35.8498
   9   2.0000      -1.314305       -35.7640
  10   2.0000      -0.749185       -20.3864
  11   2.0000      -0.738370       -20.0921
  12   2.0000      -0.732480       -19.9318
  13   2.0000      -0.689050       -18.7500
  14   2.0000      -0.684366       -18.6226
  15   2.0000      -0.625002       -17.0072
  16   2.0000      -0.615923       -16.7601
  17   2.0000      -0.606641       -16.5075
  18   2.0000      -0.561037       -15.2666
  19   2.0000      -0.554523       -15.0893
  20   2.0000      -0.545066       -14.8320
  21   2.0000      -0.537196       -14.6178
  22   2.0000      -0.533719       -14.5232
  23   2.0000      -0.483843       -13.1660
  24   2.0000      -0.477026       -12.9805
  25   0.0000       0.062165         1.6916
  26   0.0000       0.112510         3.0616
  27   0.0000       0.128634         3.5003
  28   0.0000       0.157612         4.2888
  29   0.0000       0.175893         4.7863

MULLIKEN ATOMIC CHARGES
-----------------------
   0 O :   -0.665008
   1 H :    0.334260
   2 H :    0.332977
   3 O :   -0.694289
   4 H :    0.357411
   5 H :    0.338223
   6 O :   -0.695931
   7 H :    0.355970
   8 H :    0.343162
   9 O :   -0.699475
  10 H :    0.365307
  11 H :    0.331027
  12 O :   -0.699631
  13 H :    0.367666
  14 H :    0.328332
Sum of atomic charges:   -0.0000000

LOEWDIN ATOMIC CHARGES
----------------------
   0 O :   -0.324682
   1 H :    0.161702
   2 H :    0.164284
   3 O :   -0.316126
   4 H :    0.173010
   5 H :    0.169157
   6 O :   -0.316806
   7 H :    0.178007
   8 H :    0.166418
   9 O :   -0.338963
  10 H :    0.150894
  11 H :    0.161110
  12 O :   -0.339471
  13 H :    0.151697
  14 H :    0.159767

  Mayer bond orders larger than 0.100000
B(  0-O ,  1-H ) :   0.8530 B(  0-O ,  2-H ) :   0.8543 B(  3-O ,  4-H ) :   0.8369
B(  3-O ,  5-H ) :   0.8406 B(  6-O ,  7-H ) :   0.8317 B(  6-O ,  8-H ) :   0.8445
B(  9-O , 10-H ) :   0.8266 B(  9-O , 11-H ) :   0.8528 B( 12-O , 13-H ) :   0.8240
B( 12-O , 14-H ) :   0.8545

MP2 TOTAL ENERGY:     -381.581069798 Eh
FINAL SINGLE POINT ENERGY      -381.581069798173

DIPOLE MOMENT
-------------
                                X             Y             Z
Electronic contribution:     -0.07057       0.10570       0.03655
Nuclear contribution   :      0.45497      -0.56566      -2.23466
                        -----------------------------------------
Total Dipole Moment    :      0.38440      -0.45995      -2.19811
                        -----------------------------------------
Magnitude (a.u.)       :      2.27838
Magnitude (Debye)      :      5.79118

Rotational constants in cm-1:     0.058872     0.036004     0.023608
Rotational constants in MHz :  1764.951011  1079.384595   707.740970

                             ****ORCA TERMINATED NORMALLY****
TOTAL RUN TIME: 0 days 0 hours 0 minutes 30 seconds 198 msec
