                         Program Version 4.2.0 -  RELEASE  -
|  1> # 12h2o.su.etal.mol0,1,9,11
|  2> ! MP2 def2-TZVP EnGrad TightSCF
|  3>
|  4> %pal
|  5>     nprocs 6
|  6> end
|  7>
|  8> %maxcore 8000
|  9>
| 10> %scf
| 11>     ConvForced true
| 12> end
| 13>
| 14> *xyz 0 1
| 15> O   1.794470000   0.923410000   2.768350000
| 16> H   2.338250000   1.359750000   3.430940000
| 17> H   0.879480000   1.303000000   2.865760000
| 18> O  -1.794470000  -0.923410000   2.768350000
| 19> H  -2.338250000  -1.359750000   3.430940000
| 20> H  -0.879480000  -1.303000000   2.865760000
| 21> O   0.741530000  -1.752130000   2.896280000
| 22> H   0.920500000  -2.036450000   1.984040000
| 23> H   1.242140000  -0.921210000   2.984230000
| 24> O  -0.741530000   1.752130000   2.896280000
| 25> H  -0.920500000   2.036450000   1.984040000
| 26> H  -1.242140000   0.921210000   2.984230000
| 27> *
| 28>
| 29>                          ****END OF INPUT****

CARTESIAN COORDINATES (ANGSTROEM)
---------------------------------
  O      1.794470    0.923410    2.768350
  H      2.338250    1.359750    3.430940
  H      0.879480    1.303000    2.865760
  O     -1.794470   -0.923410    2.768350
  H     -2.338250   -1.359750    3.430940
  H     -0.879480   -1.303000    2.865760
  O      0.741530   -1.752130    2.896280
  H      0.920500   -2.036450    1.984040
  H      1.242140   -0.921210    2.984230
  O     -0.741530    1.752130    2.896280
  H     -0.920500    2.036450    1.984040
  H     -1.242140    0.921210    2.984230

 Total Charge           Charge          ....    0
 Multiplicity           Mult            ....    1
 Number of Electrons    NEL             ....   40
 Basis Dimension        Dim             ....  172

ORBITAL ENERGIES
----------------

  NO   OCC          E(Eh)            E(eV)
   0   2.0000     -20.569439      -559.7229
   1   2.0000     -20.569439      -559.7229
   2   2.0000     -20.547914      -559.1372
   3   2.0000     -20.547914      -559.1372
   4   2.0000      -1.364763       -37.1371
   5   2.0000      -1.357664       -36.9439
   6   2.0000      -1.332197       -36.2509
   7   2.0000      -1.325451       -36.0674
   8   2.0000      -0.724210       -19.7067
   9   2.0000      -0.721808       -19.6414
  10   2.0000      -0.711727       -19.3671
  11   2.0000      -0.708055       -19.2671
  12   2.0000      -0.621910       -16.9230
  13   2.0000      -0.595488       -16.2041
  14   2.0000      -0.580879       -15.8065
  15   2.0000      -0.556793       -15.1511
  16   2.0000      -0.509820       -13.8729
  17   2.0000      -0.509757       -13.8712
  18   2.0000      -0.498946       -13.5770
  19   2.0000      -0.497400       -13.5349
  20   0.0000       0.120370         3.2754
  21   0.0000       0.156834         4.2677
  22   0.0000       0.160727         4.3736
  23   0.0000       0.176409         4.8003
  24   0.0000       0.278232         7.5711

MULLIKEN ATOMIC CHARGES
-----------------------
   0 O :   -0.743522
   1 H :    0.341420
   2 H :    0.378804
   3 O :   -0.743522
   4 H :    0.341420
   5 H :    0.378804
   6 O :   -0.708430
   7 H :    0.353397
   8 H :    0.378332
   9 O :   -0.708430
  10 H :    0.353397
  11 H :    0.378332
Sum of atomic charges:    0.0000000

LOEWDIN ATOMIC CHARGES
----------------------
   0 O :   -0.341769
   1 H :    0.155701
   2 H :    0.144896
   3 O :   -0.341769
   4 H :    0.155701
   5 H :    0.144896
   6 O :   -0.284448
   7 H :    0.171202
   8 H :    0.154418
   9 O :   -0.284448
  10 H :    0.171202
  11 H :    0.154418

  Mayer bond orders larger than 0.100000
B(  0-O ,  1-H ) :   0.8483 B(  0-O ,  2-H ) :   0.7496 B(  2-H ,  9-O ) :   0.1091
B(  3-O ,  4-H ) :   0.8483 B(  3-O ,  5-H ) :   0.7496 B(  5-H ,  6-O ) :   0.1091
B(  6-O ,  7-H ) :   0.8405 B(  6-O ,  8-H ) :   0.7813 B(  9-O , 10-H ) :   0.8405
B(  9-O , 11-H ) :   0.7813

MP2 TOTAL ENERGY:     -305.297592957 Eh
FINAL SINGLE POINT ENERGY      -305.297592956835

DIPOLE MOMENT
-------------
                                X             Y             Z
Electronic contribution:     -0.00000       0.00000       0.02395
Nuclear contribution   :     -0.00000      -0.00000      -0.10702
                        -----------------------------------------
Total Dipole Moment    :     -0.00000       0.00000      -0.08308
                        -----------------------------------------
Magnitude (a.u.)       :      0.08308
Magnitude (Debye)      :      0.21116

Rotational constants in cm-1:     0.131094     0.107274     0.060041
Rotational constants in MHz :  3930.112768  3215.980720  1799.970749

                             ****ORCA TERMINATED NORMALLY****
TOTAL RUN TIME: 0 days 0 hours 0 minutes 21 seconds 911 msec
