                         Program Version 4.2.0 -  RELEASE  -
|  1> # 12mecn.remya.etal.2.mol0,9,10
|  2> ! MP2 def2-TZVP EnGrad TightSCF
|  3>
|  4> %pal
|  5>     nprocs 6
|  6> end
|  7>
|  8> %maxcore 8000
|  9>
| 10> %scf
| 11>     ConvForced true
| 12> end
| 13>
| 14> *xyz 0 1
| 15> C  -0.869520000  -3.929380000   1.700199000
| 16> H  -0.057420000  -3.268850000   2.015352000
| 17> H  -0.697530000  -4.930670000   2.101524000
| 18> H  -1.821490000  -3.546590000   2.077146000
| 19> C  -0.916080000  -3.969960000   0.256749000
| 20> N  -0.955390000  -3.995980000  -0.909290000
| 21> C   0.923766000   4.000693000  -1.575910000
| 22> H   0.011949000   4.478423000  -1.939550000
| 23> H   0.947903000   2.966558000  -1.929960000
| 24> H   1.805950000   4.519548000  -1.956520000
| 25> C   0.942834000   3.994846000  -0.131200000
| 26> N   0.960035000   3.982544000   1.035639000
| 27> C   4.602033000   0.321019000  -1.784800000
| 28> H   4.827650000  -0.662160000  -2.207910000
| 29> H   5.320558000   1.057980000  -2.148500000
| 30> H   3.601982000   0.643751000  -2.087520000
| 31> C   4.654967000   0.244048000  -0.343060000
| 32> N   4.691648000   0.166590000   0.820757000
| 33> *
| 34>
| 35>                          ****END OF INPUT****

CARTESIAN COORDINATES (ANGSTROEM)
---------------------------------
  C     -0.869520   -3.929380    1.700199
  H     -0.057420   -3.268850    2.015352
  H     -0.697530   -4.930670    2.101524
  H     -1.821490   -3.546590    2.077146
  C     -0.916080   -3.969960    0.256749
  N     -0.955390   -3.995980   -0.909290
  C      0.923766    4.000693   -1.575910
  H      0.011949    4.478423   -1.939550
  H      0.947903    2.966558   -1.929960
  H      1.805950    4.519548   -1.956520
  C      0.942834    3.994846   -0.131200
  N      0.960035    3.982544    1.035639
  C      4.602033    0.321019   -1.784800
  H      4.827650   -0.662160   -2.207910
  H      5.320558    1.057980   -2.148500
  H      3.601982    0.643751   -2.087520
  C      4.654967    0.244048   -0.343060
  N      4.691648    0.166590    0.820757

 Total Charge           Charge          ....    0
 Multiplicity           Mult            ....    1
 Number of Electrons    NEL             ....   66
 Basis Dimension        Dim             ....  333

ORBITAL ENERGIES
----------------

  NO   OCC          E(Eh)            E(eV)
   0   2.0000     -15.574171      -423.7947
   1   2.0000     -15.573851      -423.7860
   2   2.0000     -15.572453      -423.7480
   3   2.0000     -11.287891      -307.1591
   4   2.0000     -11.287402      -307.1458
   5   2.0000     -11.282180      -307.0037
   6   2.0000     -11.280483      -306.9575
   7   2.0000     -11.280347      -306.9539
   8   2.0000     -11.279991      -306.9442
   9   2.0000      -1.214922       -33.0597
  10   2.0000      -1.214787       -33.0560
  11   2.0000      -1.214043       -33.0358
  12   2.0000      -1.046912       -28.4879
  13   2.0000      -1.046172       -28.4678
  14   2.0000      -1.042096       -28.3569
  15   2.0000      -0.702876       -19.1262
  16   2.0000      -0.701837       -19.0980
  17   2.0000      -0.698111       -18.9966
  18   2.0000      -0.637272       -17.3411
  19   2.0000      -0.636377       -17.3167
  20   2.0000      -0.633509       -17.2387
  21   2.0000      -0.632033       -17.1985
  22   2.0000      -0.629996       -17.1431
  23   2.0000      -0.629275       -17.1235
  24   2.0000      -0.556161       -15.1339
  25   2.0000      -0.556016       -15.1300
  26   2.0000      -0.555825       -15.1248
  27   2.0000      -0.458768       -12.4837
  28   2.0000      -0.458147       -12.4668
  29   2.0000      -0.457952       -12.4615
  30   2.0000      -0.457252       -12.4425
  31   2.0000      -0.457124       -12.4390
  32   2.0000      -0.457000       -12.4356
  33   0.0000       0.093389         2.5412
  34   0.0000       0.122247         3.3265
  35   0.0000       0.133813         3.6412
  36   0.0000       0.155378         4.2281
  37   0.0000       0.166459         4.5296

MULLIKEN ATOMIC CHARGES
-----------------------
   0 C :   -0.278848
   1 H :    0.178819
   2 H :    0.171547
   3 H :    0.171832
   4 C :   -0.145599
   5 N :   -0.097758
   6 C :   -0.283907
   7 H :    0.175575
   8 H :    0.166912
   9 H :    0.171672
  10 C :   -0.143462
  11 N :   -0.086822
  12 C :   -0.277623
  13 H :    0.176033
  14 H :    0.171810
  15 H :    0.163116
  16 C :   -0.144556
  17 N :   -0.088740
Sum of atomic charges:    0.0000000

LOEWDIN ATOMIC CHARGES
----------------------
   0 C :   -0.282458
   1 H :    0.155023
   2 H :    0.151750
   3 H :    0.153187
   4 C :   -0.218911
   5 N :    0.041407
   6 C :   -0.284932
   7 H :    0.152228
   8 H :    0.151079
   9 H :    0.151176
  10 C :   -0.220314
  11 N :    0.050729
  12 C :   -0.284103
  13 H :    0.154036
  14 H :    0.151017
  15 H :    0.150130
  16 C :   -0.220343
  17 N :    0.049299

  Mayer bond orders larger than 0.100000
B(  0-C ,  1-H ) :   0.9146 B(  0-C ,  2-H ) :   0.9164 B(  0-C ,  3-H ) :   0.9160
B(  0-C ,  4-C ) :   0.9013 B(  4-C ,  5-N ) :   2.8407 B(  6-C ,  7-H ) :   0.9158
B(  6-C ,  8-H ) :   0.9190 B(  6-C ,  9-H ) :   0.9176 B(  6-C , 10-C ) :   0.9001
B( 10-C , 11-N ) :   2.8317 B( 12-C , 13-H ) :   0.9153 B( 12-C , 14-H ) :   0.9179
B( 12-C , 15-H ) :   0.9188 B( 12-C , 16-C ) :   0.9011 B( 16-C , 17-N ) :   2.8329

MP2 TOTAL ENERGY:     -397.449324875 Eh
FINAL SINGLE POINT ENERGY      -397.449324875378

DIPOLE MOMENT
-------------
                                X             Y             Z
Electronic contribution:      0.06941      -0.25846       3.19283
Nuclear contribution   :     -0.08472       0.40100      -4.63617
                        -----------------------------------------
Total Dipole Moment    :     -0.01531       0.14255      -1.44333
                        -----------------------------------------
Magnitude (a.u.)       :      1.45043
Magnitude (Debye)      :      3.68671

Rotational constants in cm-1:     0.024701     0.010409     0.008475
Rotational constants in MHz :   740.529070   312.050169   254.064978

                             ****ORCA TERMINATED NORMALLY****
TOTAL RUN TIME: 0 days 0 hours 1 minutes 58 seconds 960 msec
