                         Program Version 4.2.0 -  RELEASE  -
|  1> # 12h2o.su.etal.mol0,2,3,8,10,11
|  2> ! MP2 def2-TZVP EnGrad TightSCF
|  3>
|  4> %pal
|  5>     nprocs 6
|  6> end
|  7>
|  8> %maxcore 8000
|  9>
| 10> %scf
| 11>     ConvForced true
| 12> end
| 13>
| 14> *xyz 0 1
| 15> O   1.794470000   0.923410000   2.768350000
| 16> H   2.338250000   1.359750000   3.430940000
| 17> H   0.879480000   1.303000000   2.865760000
| 18> O   0.923410000  -1.794470000  -2.768350000
| 19> H   1.359750000  -2.338250000  -3.430940000
| 20> H   1.303000000  -0.879480000  -2.865760000
| 21> O  -1.752130000  -0.741530000  -2.896280000
| 22> H  -2.036450000  -0.920500000  -1.984040000
| 23> H  -0.921210000  -1.242140000  -2.984230000
| 24> O   1.752130000   0.741530000  -2.896280000
| 25> H   2.036450000   0.920500000  -1.984040000
| 26> H   0.921210000   1.242140000  -2.984230000
| 27> O  -0.923410000   1.794470000  -2.768350000
| 28> H  -1.359750000   2.338250000  -3.430940000
| 29> H  -1.303000000   0.879480000  -2.865760000
| 30> O  -0.741530000   1.752130000   2.896280000
| 31> H  -0.920500000   2.036450000   1.984040000
| 32> H  -1.242140000   0.921210000   2.984230000
| 33> *
| 34>
| 35>                          ****END OF INPUT****

CARTESIAN COORDINATES (ANGSTROEM)
---------------------------------
  O      1.794470    0.923410    2.768350
  H      2.338250    1.359750    3.430940
  H      0.879480    1.303000    2.865760
  O      0.923410   -1.794470   -2.768350
  H      1.359750   -2.338250   -3.430940
  H      1.303000   -0.879480   -2.865760
  O     -1.752130   -0.741530   -2.896280
  H     -2.036450   -0.920500   -1.984040
  H     -0.921210   -1.242140   -2.984230
  O      1.752130    0.741530   -2.896280
  H      2.036450    0.920500   -1.984040
  H      0.921210    1.242140   -2.984230
  O     -0.923410    1.794470   -2.768350
  H     -1.359750    2.338250   -3.430940
  H     -1.303000    0.879480   -2.865760
  O     -0.741530    1.752130    2.896280
  H     -0.920500    2.036450    1.984040
  H     -1.242140    0.921210    2.984230

 Total Charge           Charge          ....    0
 Multiplicity           Mult            ....    1
 Number of Electrons    NEL             ....   60
 Basis Dimension        Dim             ....  258

ORBITAL ENERGIES
----------------

  NO   OCC          E(Eh)            E(eV)
   0   2.0000     -20.599840      -560.5501
   1   2.0000     -20.572602      -559.8090
   2   2.0000     -20.566667      -559.6475
   3   2.0000     -20.551953      -559.2471
   4   2.0000     -20.545985      -559.0847
   5   2.0000     -20.519296      -558.3584
   6   2.0000      -1.385132       -37.6914
   7   2.0000      -1.366122       -37.1741
   8   2.0000      -1.356930       -36.9240
   9   2.0000      -1.334258       -36.3070
  10   2.0000      -1.325252       -36.0619
  11   2.0000      -1.301700       -35.4211
  12   2.0000      -0.742595       -20.2070
  13   2.0000      -0.725477       -19.7412
  14   2.0000      -0.722473       -19.6595
  15   2.0000      -0.712267       -19.3818
  16   2.0000      -0.707873       -19.2622
  17   2.0000      -0.692929       -18.8556
  18   2.0000      -0.622737       -16.9455
  19   2.0000      -0.619758       -16.8645
  20   2.0000      -0.595594       -16.2069
  21   2.0000      -0.582081       -15.8392
  22   2.0000      -0.559982       -15.2379
  23   2.0000      -0.557202       -15.1622
  24   2.0000      -0.516341       -14.0504
  25   2.0000      -0.513051       -13.9608
  26   2.0000      -0.507362       -13.8060
  27   2.0000      -0.502065       -13.6619
  28   2.0000      -0.496269       -13.5042
  29   2.0000      -0.469649       -12.7798
  30   0.0000       0.102793         2.7971
  31   0.0000       0.124523         3.3884
  32   0.0000       0.155965         4.2440
  33   0.0000       0.158237         4.3059
  34   0.0000       0.174256         4.7418

MULLIKEN ATOMIC CHARGES
-----------------------
   0 O :   -0.731884
   1 H :    0.325869
   2 H :    0.363375
   3 O :   -0.743214
   4 H :    0.341301
   5 H :    0.380085
   6 O :   -0.707220
   7 H :    0.350083
   8 H :    0.379642
   9 O :   -0.711033
  10 H :    0.359213
  11 H :    0.376735
  12 O :   -0.746145
  13 H :    0.342359
  14 H :    0.378171
  15 O :   -0.677843
  16 H :    0.361422
  17 H :    0.359084
Sum of atomic charges:    0.0000000

LOEWDIN ATOMIC CHARGES
----------------------
   0 O :   -0.372386
   1 H :    0.148782
   2 H :    0.141273
   3 O :   -0.341271
   4 H :    0.155744
   5 H :    0.145278
   6 O :   -0.284267
   7 H :    0.169738
   8 H :    0.154963
   9 O :   -0.284723
  10 H :    0.173636
  11 H :    0.153703
  12 O :   -0.343376
  13 H :    0.155962
  14 H :    0.144605
  15 O :   -0.270640
  16 H :    0.176227
  17 H :    0.176753

  Mayer bond orders larger than 0.100000
B(  0-O ,  1-H ) :   0.8604 B(  0-O ,  2-H ) :   0.7901 B(  3-O ,  4-H ) :   0.8484
B(  3-O ,  5-H ) :   0.7488 B(  5-H ,  9-O ) :   0.1089 B(  6-O ,  7-H ) :   0.8425
B(  6-O ,  8-H ) :   0.7787 B(  6-O , 14-H ) :   0.1104 B(  9-O , 10-H ) :   0.8367
B(  9-O , 11-H ) :   0.7845 B( 12-O , 13-H ) :   0.8478 B( 12-O , 14-H ) :   0.7493
B( 15-O , 16-H ) :   0.8350 B( 15-O , 17-H ) :   0.8363

MP2 TOTAL ENERGY:     -457.931170916 Eh
FINAL SINGLE POINT ENERGY      -457.931170915732

DIPOLE MOMENT
-------------
                                X             Y             Z
Electronic contribution:     -0.13879       0.04057      -0.01585
Nuclear contribution   :     -0.87464       0.22418       0.05351
                        -----------------------------------------
Total Dipole Moment    :     -1.01343       0.26475       0.03766
                        -----------------------------------------
Magnitude (a.u.)       :      1.04812
Magnitude (Debye)      :      2.66410

Rotational constants in cm-1:     0.049865     0.017676     0.016084
Rotational constants in MHz :  1494.916110   529.903807   482.175709

                             ****ORCA TERMINATED NORMALLY****
TOTAL RUN TIME: 0 days 0 hours 0 minutes 53 seconds 348 msec
