                         Program Version 4.2.0 -  RELEASE  -
|  1> # 12h2o.su.etal.mol4,5,6,7,9,11
|  2> ! MP2 def2-TZVP EnGrad TightSCF
|  3>
|  4> %pal
|  5>     nprocs 6
|  6> end
|  7>
|  8> %maxcore 8000
|  9>
| 10> %scf
| 11>     ConvForced true
| 12> end
| 13>
| 14> *xyz 0 1
| 15> O  -0.885520000   1.737840000   0.052730000
| 16> H  -1.032320000   2.090180000  -0.841890000
| 17> H  -1.284090000   0.839590000   0.017130000
| 18> O   0.885520000  -1.737840000   0.052730000
| 19> H   1.284090000  -0.839590000   0.017130000
| 20> H   1.032320000  -2.090180000  -0.841890000
| 21> O   1.737840000   0.885520000  -0.052730000
| 22> H   2.090180000   1.032320000   0.841890000
| 23> H   0.839590000   1.284090000  -0.017130000
| 24> O  -1.737840000  -0.885520000  -0.052730000
| 25> H  -2.090180000  -1.032320000   0.841890000
| 26> H  -0.839590000  -1.284090000  -0.017130000
| 27> O   0.741530000  -1.752130000   2.896280000
| 28> H   0.920500000  -2.036450000   1.984040000
| 29> H   1.242140000  -0.921210000   2.984230000
| 30> O  -0.741530000   1.752130000   2.896280000
| 31> H  -0.920500000   2.036450000   1.984040000
| 32> H  -1.242140000   0.921210000   2.984230000
| 33> *
| 34>
| 35>                          ****END OF INPUT****

CARTESIAN COORDINATES (ANGSTROEM)
---------------------------------
  O     -0.885520    1.737840    0.052730
  H     -1.032320    2.090180   -0.841890
  H     -1.284090    0.839590    0.017130
  O      0.885520   -1.737840    0.052730
  H      1.284090   -0.839590    0.017130
  H      1.032320   -2.090180   -0.841890
  O      1.737840    0.885520   -0.052730
  H      2.090180    1.032320    0.841890
  H      0.839590    1.284090   -0.017130
  O     -1.737840   -0.885520   -0.052730
  H     -2.090180   -1.032320    0.841890
  H     -0.839590   -1.284090   -0.017130
  O      0.741530   -1.752130    2.896280
  H      0.920500   -2.036450    1.984040
  H      1.242140   -0.921210    2.984230
  O     -0.741530    1.752130    2.896280
  H     -0.920500    2.036450    1.984040
  H     -1.242140    0.921210    2.984230

 Total Charge           Charge          ....    0
 Multiplicity           Mult            ....    1
 Number of Electrons    NEL             ....   60
 Basis Dimension        Dim             ....  258

ORBITAL ENERGIES
----------------

  NO   OCC          E(Eh)            E(eV)
   0   2.0000     -20.592486      -560.3500
   1   2.0000     -20.592486      -560.3500
   2   2.0000     -20.579982      -560.0098
   3   2.0000     -20.579982      -560.0098
   4   2.0000     -20.546635      -559.1024
   5   2.0000     -20.546634      -559.1023
   6   2.0000      -1.391014       -37.8514
   7   2.0000      -1.380654       -37.5695
   8   2.0000      -1.365071       -37.1455
   9   2.0000      -1.355033       -36.8723
  10   2.0000      -1.328598       -36.1530
  11   2.0000      -1.327870       -36.1332
  12   2.0000      -0.748583       -20.3700
  13   2.0000      -0.744867       -20.2689
  14   2.0000      -0.735045       -20.0016
  15   2.0000      -0.730670       -19.8825
  16   2.0000      -0.700716       -19.0674
  17   2.0000      -0.697055       -18.9678
  18   2.0000      -0.644933       -17.5495
  19   2.0000      -0.625623       -17.0241
  20   2.0000      -0.611952       -16.6521
  21   2.0000      -0.597195       -16.2505
  22   2.0000      -0.565679       -15.3929
  23   2.0000      -0.562476       -15.3058
  24   2.0000      -0.536237       -14.5917
  25   2.0000      -0.535834       -14.5808
  26   2.0000      -0.526019       -14.3137
  27   2.0000      -0.522807       -14.2263
  28   2.0000      -0.495991       -13.4966
  29   2.0000      -0.489844       -13.3293
  30   0.0000       0.091377         2.4865
  31   0.0000       0.133015         3.6195
  32   0.0000       0.139710         3.8017
  33   0.0000       0.142446         3.8762
  34   0.0000       0.205556         5.5935

MULLIKEN ATOMIC CHARGES
-----------------------
   0 O :   -0.740664
   1 H :    0.362318
   2 H :    0.367560
   3 O :   -0.740664
   4 H :    0.367560
   5 H :    0.362318
   6 O :   -0.715068
   7 H :    0.353259
   8 H :    0.373914
   9 O :   -0.715068
  10 H :    0.353259
  11 H :    0.373914
  12 O :   -0.698250
  13 H :    0.370814
  14 H :    0.326115
  15 O :   -0.698250
  16 H :    0.370814
  17 H :    0.326115
Sum of atomic charges:   -0.0000000

LOEWDIN ATOMIC CHARGES
----------------------
   0 O :   -0.296487
   1 H :    0.172717
   2 H :    0.145337
   3 O :   -0.296487
   4 H :    0.145337
   5 H :    0.172717
   6 O :   -0.306392
   7 H :    0.167626
   8 H :    0.145439
   9 O :   -0.306392
  10 H :    0.167626
  11 H :    0.145439
  12 O :   -0.337460
  13 H :    0.150788
  14 H :    0.158432
  15 O :   -0.337460
  16 H :    0.150788
  17 H :    0.158432

  Mayer bond orders larger than 0.100000
B(  0-O ,  1-H ) :   0.8327 B(  0-O ,  2-H ) :   0.7490 B(  2-H ,  9-O ) :   0.1173
B(  3-O ,  4-H ) :   0.7490 B(  3-O ,  5-H ) :   0.8327 B(  4-H ,  6-O ) :   0.1173
B(  6-O ,  7-H ) :   0.8389 B(  6-O ,  8-H ) :   0.7695 B(  9-O , 10-H ) :   0.8389
B(  9-O , 11-H ) :   0.7695 B( 12-O , 13-H ) :   0.8205 B( 12-O , 14-H ) :   0.8551
B( 15-O , 16-H ) :   0.8205 B( 15-O , 17-H ) :   0.8551

MP2 TOTAL ENERGY:     -457.939438837 Eh
FINAL SINGLE POINT ENERGY      -457.939438837380

DIPOLE MOMENT
-------------
                                X             Y             Z
Electronic contribution:     -0.00000       0.00000      -0.08376
Nuclear contribution   :     -0.00000      -0.00000      -1.37221
                        -----------------------------------------
Total Dipole Moment    :     -0.00000       0.00000      -1.45597
                        -----------------------------------------
Magnitude (a.u.)       :      1.45597
Magnitude (Debye)      :      3.70078

Rotational constants in cm-1:     0.049814     0.041565     0.036119
Rotational constants in MHz :  1493.387539  1246.079435  1082.833462

                             ****ORCA TERMINATED NORMALLY****
TOTAL RUN TIME: 0 days 0 hours 1 minutes 17 seconds 653 msec
