                         Program Version 4.2.0 -  RELEASE  -
|  1> # 12h2o.su.etal.mol1,3,7,8,10
|  2> ! MP2 def2-TZVP EnGrad TightSCF
|  3>
|  4> %pal
|  5>     nprocs 6
|  6> end
|  7>
|  8> %maxcore 8000
|  9>
| 10> %scf
| 11>     ConvForced true
| 12> end
| 13>
| 14> *xyz 0 1
| 15> O  -1.794470000  -0.923410000   2.768350000
| 16> H  -2.338250000  -1.359750000   3.430940000
| 17> H  -0.879480000  -1.303000000   2.865760000
| 18> O  -1.752130000  -0.741530000  -2.896280000
| 19> H  -2.036450000  -0.920500000  -1.984040000
| 20> H  -0.921210000  -1.242140000  -2.984230000
| 21> O  -1.737840000  -0.885520000  -0.052730000
| 22> H  -2.090180000  -1.032320000   0.841890000
| 23> H  -0.839590000  -1.284090000  -0.017130000
| 24> O   1.752130000   0.741530000  -2.896280000
| 25> H   2.036450000   0.920500000  -1.984040000
| 26> H   0.921210000   1.242140000  -2.984230000
| 27> O  -0.923410000   1.794470000  -2.768350000
| 28> H  -1.359750000   2.338250000  -3.430940000
| 29> H  -1.303000000   0.879480000  -2.865760000
| 30> *
| 31>
| 32>                          ****END OF INPUT****

CARTESIAN COORDINATES (ANGSTROEM)
---------------------------------
  O     -1.794470   -0.923410    2.768350
  H     -2.338250   -1.359750    3.430940
  H     -0.879480   -1.303000    2.865760
  O     -1.752130   -0.741530   -2.896280
  H     -2.036450   -0.920500   -1.984040
  H     -0.921210   -1.242140   -2.984230
  O     -1.737840   -0.885520   -0.052730
  H     -2.090180   -1.032320    0.841890
  H     -0.839590   -1.284090   -0.017130
  O      1.752130    0.741530   -2.896280
  H      2.036450    0.920500   -1.984040
  H      0.921210    1.242140   -2.984230
  O     -0.923410    1.794470   -2.768350
  H     -1.359750    2.338250   -3.430940
  H     -1.303000    0.879480   -2.865760

 Total Charge           Charge          ....    0
 Multiplicity           Mult            ....    1
 Number of Electrons    NEL             ....   50
 Basis Dimension        Dim             ....  215

ORBITAL ENERGIES
----------------

  NO   OCC          E(Eh)            E(eV)
   0   2.0000     -20.604351      -560.6729
   1   2.0000     -20.568198      -559.6891
   2   2.0000     -20.562959      -559.5466
   3   2.0000     -20.526927      -558.5661
   4   2.0000     -20.521730      -558.4247
   5   2.0000      -1.382418       -37.6175
   6   2.0000      -1.356038       -36.8997
   7   2.0000      -1.344862       -36.5956
   8   2.0000      -1.312948       -35.7271
   9   2.0000      -1.301223       -35.4081
  10   2.0000      -0.749278       -20.3889
  11   2.0000      -0.722687       -19.6653
  12   2.0000      -0.706722       -19.2309
  13   2.0000      -0.694947       -18.9105
  14   2.0000      -0.671183       -18.2638
  15   2.0000      -0.624218       -16.9858
  16   2.0000      -0.605249       -16.4697
  17   2.0000      -0.582834       -15.8597
  18   2.0000      -0.560583       -15.2542
  19   2.0000      -0.542944       -14.7743
  20   2.0000      -0.536343       -14.5946
  21   2.0000      -0.514801       -14.0085
  22   2.0000      -0.498515       -13.5653
  23   2.0000      -0.476788       -12.9741
  24   2.0000      -0.468897       -12.7593
  25   0.0000       0.088422         2.4061
  26   0.0000       0.125089         3.4038
  27   0.0000       0.159933         4.3520
  28   0.0000       0.175718         4.7815
  29   0.0000       0.182174         4.9572

MULLIKEN ATOMIC CHARGES
-----------------------
   0 O :   -0.691053
   1 H :    0.355179
   2 H :    0.351881
   3 O :   -0.702928
   4 H :    0.388434
   5 H :    0.348131
   6 O :   -0.705750
   7 H :    0.379249
   8 H :    0.326219
   9 O :   -0.716741
  10 H :    0.324254
  11 H :    0.363152
  12 O :   -0.737459
  13 H :    0.333339
  14 H :    0.384094
Sum of atomic charges:   -0.0000000

LOEWDIN ATOMIC CHARGES
----------------------
   0 O :   -0.308295
   1 H :    0.165075
   2 H :    0.184731
   3 O :   -0.277915
   4 H :    0.159485
   5 H :    0.169410
   6 O :   -0.323646
   7 H :    0.155721
   8 H :    0.165958
   9 O :   -0.354264
  10 H :    0.157395
  11 H :    0.147679
  12 O :   -0.339646
  13 H :    0.152068
  14 H :    0.146244

  Mayer bond orders larger than 0.100000
B(  0-O ,  1-H ) :   0.8401 B(  0-O ,  2-H ) :   0.8365 B(  3-O ,  4-H ) :   0.7960
B(  3-O ,  5-H ) :   0.8399 B(  6-O ,  7-H ) :   0.8046 B(  6-O ,  8-H ) :   0.8521
B(  9-O , 10-H ) :   0.8608 B(  9-O , 11-H ) :   0.8009 B( 12-O , 13-H ) :   0.8526
B( 12-O , 14-H ) :   0.7571

MP2 TOTAL ENERGY:     -381.599793962 Eh
FINAL SINGLE POINT ENERGY      -381.599793962248

DIPOLE MOMENT
-------------
                                X             Y             Z
Electronic contribution:     -0.40904       0.01205       0.10241
Nuclear contribution   :      0.08423      -1.44207       2.14649
                        -----------------------------------------
Total Dipole Moment    :     -0.32482      -1.43002       2.24890
                        -----------------------------------------
Magnitude (a.u.)       :      2.68478
Magnitude (Debye)      :      6.82416

Rotational constants in cm-1:     0.097782     0.027117     0.024465
Rotational constants in MHz :  2931.437391   812.934084   733.441442

                             ****ORCA TERMINATED NORMALLY****
TOTAL RUN TIME: 0 days 0 hours 1 minutes 0 seconds 313 msec
