                         Program Version 4.2.0 -  RELEASE  -
|  1> # 12h2o.su.etal.mol3,5,7,8,9,10,11
|  2> ! MP2 def2-TZVP EnGrad TightSCF
|  3>
|  4> %pal
|  5>     nprocs 6
|  6> end
|  7>
|  8> %maxcore 8000
|  9>
| 10> %scf
| 11>     ConvForced true
| 12> end
| 13>
| 14> *xyz 0 1
| 15> O  -1.752130000  -0.741530000  -2.896280000
| 16> H  -2.036450000  -0.920500000  -1.984040000
| 17> H  -0.921210000  -1.242140000  -2.984230000
| 18> O   0.885520000  -1.737840000   0.052730000
| 19> H   1.284090000  -0.839590000   0.017130000
| 20> H   1.032320000  -2.090180000  -0.841890000
| 21> O  -1.737840000  -0.885520000  -0.052730000
| 22> H  -2.090180000  -1.032320000   0.841890000
| 23> H  -0.839590000  -1.284090000  -0.017130000
| 24> O   1.752130000   0.741530000  -2.896280000
| 25> H   2.036450000   0.920500000  -1.984040000
| 26> H   0.921210000   1.242140000  -2.984230000
| 27> O   0.741530000  -1.752130000   2.896280000
| 28> H   0.920500000  -2.036450000   1.984040000
| 29> H   1.242140000  -0.921210000   2.984230000
| 30> O  -0.923410000   1.794470000  -2.768350000
| 31> H  -1.359750000   2.338250000  -3.430940000
| 32> H  -1.303000000   0.879480000  -2.865760000
| 33> O  -0.741530000   1.752130000   2.896280000
| 34> H  -0.920500000   2.036450000   1.984040000
| 35> H  -1.242140000   0.921210000   2.984230000
| 36> *
| 37>
| 38>                          ****END OF INPUT****

CARTESIAN COORDINATES (ANGSTROEM)
---------------------------------
  O     -1.752130   -0.741530   -2.896280
  H     -2.036450   -0.920500   -1.984040
  H     -0.921210   -1.242140   -2.984230
  O      0.885520   -1.737840    0.052730
  H      1.284090   -0.839590    0.017130
  H      1.032320   -2.090180   -0.841890
  O     -1.737840   -0.885520   -0.052730
  H     -2.090180   -1.032320    0.841890
  H     -0.839590   -1.284090   -0.017130
  O      1.752130    0.741530   -2.896280
  H      2.036450    0.920500   -1.984040
  H      0.921210    1.242140   -2.984230
  O      0.741530   -1.752130    2.896280
  H      0.920500   -2.036450    1.984040
  H      1.242140   -0.921210    2.984230
  O     -0.923410    1.794470   -2.768350
  H     -1.359750    2.338250   -3.430940
  H     -1.303000    0.879480   -2.865760
  O     -0.741530    1.752130    2.896280
  H     -0.920500    2.036450    1.984040
  H     -1.242140    0.921210    2.984230

 Total Charge           Charge          ....    0
 Multiplicity           Mult            ....    1
 Number of Electrons    NEL             ....   70
 Basis Dimension        Dim             ....  301

ORBITAL ENERGIES
----------------

  NO   OCC          E(Eh)            E(eV)
   0   2.0000     -20.638339      -561.5978
   1   2.0000     -20.581937      -560.0630
   2   2.0000     -20.577357      -559.9384
   3   2.0000     -20.566428      -559.6410
   4   2.0000     -20.556832      -559.3798
   5   2.0000     -20.551366      -559.2311
   6   2.0000     -20.546494      -559.0985
   7   2.0000      -1.421305       -38.6757
   8   2.0000      -1.373433       -37.3730
   9   2.0000      -1.357999       -36.9530
  10   2.0000      -1.345532       -36.6138
  11   2.0000      -1.338644       -36.4264
  12   2.0000      -1.337256       -36.3886
  13   2.0000      -1.325602       -36.0715
  14   2.0000      -0.779355       -21.2073
  15   2.0000      -0.739360       -20.1190
  16   2.0000      -0.728284       -19.8176
  17   2.0000      -0.715337       -19.4653
  18   2.0000      -0.711881       -19.3713
  19   2.0000      -0.707827       -19.2609
  20   2.0000      -0.699035       -19.0217
  21   2.0000      -0.657858       -17.9012
  22   2.0000      -0.627001       -17.0616
  23   2.0000      -0.606150       -16.4942
  24   2.0000      -0.585001       -15.9187
  25   2.0000      -0.583363       -15.8741
  26   2.0000      -0.574859       -15.6427
  27   2.0000      -0.565043       -15.3756
  28   2.0000      -0.559134       -15.2148
  29   2.0000      -0.527299       -14.3485
  30   2.0000      -0.517206       -14.0739
  31   2.0000      -0.511632       -13.9222
  32   2.0000      -0.501894       -13.6572
  33   2.0000      -0.500607       -13.6222
  34   2.0000      -0.494109       -13.4454
  35   0.0000       0.064088         1.7439
  36   0.0000       0.110013         2.9936
  37   0.0000       0.121600         3.3089
  38   0.0000       0.142993         3.8910
  39   0.0000       0.164527         4.4770

MULLIKEN ATOMIC CHARGES
-----------------------
   0 O :   -0.695412
   1 H :    0.392289
   2 H :    0.338975
   3 O :   -0.707390
   4 H :    0.363146
   5 H :    0.372961
   6 O :   -0.726939
   7 H :    0.348703
   8 H :    0.355320
   9 O :   -0.708705
  10 H :    0.314786
  11 H :    0.368755
  12 O :   -0.696776
  13 H :    0.366420
  14 H :    0.334072
  15 O :   -0.743845
  16 H :    0.340182
  17 H :    0.384704
  18 O :   -0.681787
  19 H :    0.342685
  20 H :    0.337857
Sum of atomic charges:   -0.0000000

LOEWDIN ATOMIC CHARGES
----------------------
   0 O :   -0.273792
   1 H :    0.161266
   2 H :    0.164939
   3 O :   -0.272971
   4 H :    0.181291
   5 H :    0.177857
   6 O :   -0.337038
   7 H :    0.167049
   8 H :    0.142216
   9 O :   -0.347910
  10 H :    0.151430
  11 H :    0.150078
  12 O :   -0.335366
  13 H :    0.149668
  14 H :    0.162626
  15 O :   -0.341415
  16 H :    0.155273
  17 H :    0.146010
  18 O :   -0.331631
  19 H :    0.166599
  20 H :    0.163821

  Mayer bond orders larger than 0.100000
B(  0-O ,  1-H ) :   0.7938 B(  0-O ,  2-H ) :   0.8454 B(  3-O ,  4-H ) :   0.8231
B(  3-O ,  5-H ) :   0.8244 B(  6-O ,  7-H ) :   0.8427 B(  6-O ,  8-H ) :   0.7889
B(  9-O , 10-H ) :   0.8645 B(  9-O , 11-H ) :   0.7944 B( 12-O , 13-H ) :   0.8278
B( 12-O , 14-H ) :   0.8512 B( 15-O , 16-H ) :   0.8489 B( 15-O , 17-H ) :   0.7557
B( 18-O , 19-H ) :   0.8487 B( 18-O , 20-H ) :   0.8487

MP2 TOTAL ENERGY:     -534.239287916 Eh
FINAL SINGLE POINT ENERGY      -534.239287916488

DIPOLE MOMENT
-------------
                                X             Y             Z
Electronic contribution:     -0.15427      -0.25122       0.12412
Nuclear contribution   :      0.22919      -0.30853      -0.63259
                        -----------------------------------------
Total Dipole Moment    :      0.07492      -0.55975      -0.50847
                        -----------------------------------------
Magnitude (a.u.)       :      0.75992
Magnitude (Debye)      :      1.93155

Rotational constants in cm-1:     0.038202     0.018223     0.017082
Rotational constants in MHz :  1145.277671   546.307304   512.111734

                             ****ORCA TERMINATED NORMALLY****
TOTAL RUN TIME: 0 days 0 hours 2 minutes 2 seconds 974 msec
