                         Program Version 4.2.0 -  RELEASE  -
|  1> # 12h2o.su.etal.mol0,2,8,9
|  2> ! MP2 def2-TZVP EnGrad TightSCF
|  3>
|  4> %pal
|  5>     nprocs 6
|  6> end
|  7>
|  8> %maxcore 8000
|  9>
| 10> %scf
| 11>     ConvForced true
| 12> end
| 13>
| 14> *xyz 0 1
| 15> O   1.794470000   0.923410000   2.768350000
| 16> H   2.338250000   1.359750000   3.430940000
| 17> H   0.879480000   1.303000000   2.865760000
| 18> O   0.923410000  -1.794470000  -2.768350000
| 19> H   1.359750000  -2.338250000  -3.430940000
| 20> H   1.303000000  -0.879480000  -2.865760000
| 21> O   1.752130000   0.741530000  -2.896280000
| 22> H   2.036450000   0.920500000  -1.984040000
| 23> H   0.921210000   1.242140000  -2.984230000
| 24> O   0.741530000  -1.752130000   2.896280000
| 25> H   0.920500000  -2.036450000   1.984040000
| 26> H   1.242140000  -0.921210000   2.984230000
| 27> *
| 28>
| 29>                          ****END OF INPUT****

CARTESIAN COORDINATES (ANGSTROEM)
---------------------------------
  O      1.794470    0.923410    2.768350
  H      2.338250    1.359750    3.430940
  H      0.879480    1.303000    2.865760
  O      0.923410   -1.794470   -2.768350
  H      1.359750   -2.338250   -3.430940
  H      1.303000   -0.879480   -2.865760
  O      1.752130    0.741530   -2.896280
  H      2.036450    0.920500   -1.984040
  H      0.921210    1.242140   -2.984230
  O      0.741530   -1.752130    2.896280
  H      0.920500   -2.036450    1.984040
  H      1.242140   -0.921210    2.984230

 Total Charge           Charge          ....    0
 Multiplicity           Mult            ....    1
 Number of Electrons    NEL             ....   40
 Basis Dimension        Dim             ....  172

ORBITAL ENERGIES
----------------

  NO   OCC          E(Eh)            E(eV)
   0   2.0000     -20.599603      -560.5437
   1   2.0000     -20.595733      -560.4384
   2   2.0000     -20.527878      -558.5920
   3   2.0000     -20.517845      -558.3190
   4   2.0000      -1.384879       -37.6845
   5   2.0000      -1.373338       -37.3704
   6   2.0000      -1.310434       -35.6587
   7   2.0000      -1.300268       -35.3821
   8   2.0000      -0.742387       -20.2014
   9   2.0000      -0.740436       -20.1483
  10   2.0000      -0.691733       -18.8230
  11   2.0000      -0.680515       -18.5178
  12   2.0000      -0.619309       -16.8523
  13   2.0000      -0.611436       -16.6380
  14   2.0000      -0.559156       -15.2154
  15   2.0000      -0.557191       -15.1619
  16   2.0000      -0.528519       -14.3817
  17   2.0000      -0.515340       -14.0231
  18   2.0000      -0.475633       -12.9426
  19   2.0000      -0.468155       -12.7392
  20   0.0000       0.100619         2.7380
  21   0.0000       0.114274         3.1095
  22   0.0000       0.169922         4.6238
  23   0.0000       0.176570         4.8047
  24   0.0000       0.183104         4.9825

MULLIKEN ATOMIC CHARGES
-----------------------
   0 O :   -0.696280
   1 H :    0.354478
   2 H :    0.360548
   3 O :   -0.730806
   4 H :    0.325662
   5 H :    0.362826
   6 O :   -0.677428
   7 H :    0.360390
   8 H :    0.359404
   9 O :   -0.707497
  10 H :    0.335736
  11 H :    0.352968
Sum of atomic charges:   -0.0000000

LOEWDIN ATOMIC CHARGES
----------------------
   0 O :   -0.311673
   1 H :    0.164289
   2 H :    0.188269
   3 O :   -0.371877
   4 H :    0.148735
   5 H :    0.141147
   6 O :   -0.270685
   7 H :    0.175818
   8 H :    0.176890
   9 O :   -0.349333
  10 H :    0.163149
  11 H :    0.145272

  Mayer bond orders larger than 0.100000
B(  0-O ,  1-H ) :   0.8405 B(  0-O ,  2-H ) :   0.8307 B(  3-O ,  4-H ) :   0.8605
B(  3-O ,  5-H ) :   0.7909 B(  6-O ,  7-H ) :   0.8358 B(  6-O ,  8-H ) :   0.8361
B(  9-O , 10-H ) :   0.8543 B(  9-O , 11-H ) :   0.8232

MP2 TOTAL ENERGY:     -305.266525079 Eh
FINAL SINGLE POINT ENERGY      -305.266525078902

DIPOLE MOMENT
-------------
                                X             Y             Z
Electronic contribution:      0.07418       0.16446       0.00970
Nuclear contribution   :      0.48085       2.00875       0.00000
                        -----------------------------------------
Total Dipole Moment    :      0.55503       2.17321       0.00970
                        -----------------------------------------
Magnitude (a.u.)       :      2.24299
Magnitude (Debye)      :      5.70123

Rotational constants in cm-1:     0.118031     0.028926     0.023401
Rotational constants in MHz :  3538.475983   867.181365   701.529924

                             ****ORCA TERMINATED NORMALLY****
TOTAL RUN TIME: 0 days 0 hours 0 minutes 19 seconds 274 msec
