                         Program Version 4.2.0 -  RELEASE  -
|  1> # 12meoh.boyd.etal.mol3,9
|  2> ! MP2 def2-TZVP EnGrad TightSCF
|  3>
|  4> %pal
|  5>     nprocs 6
|  6> end
|  7>
|  8> %maxcore 8000
|  9>
| 10> %scf
| 11>     ConvForced true
| 12> end
| 13>
| 14> *xyz 0 1
| 15> O  -3.821405976  -2.118091637   0.596795346
| 16> H  -4.342989117  -1.344303030   0.251966383
| 17> C  -3.443883586  -1.809641231   1.934889393
| 18> H  -2.831494349  -2.637429600   2.305201764
| 19> H  -4.325601146  -1.719364371   2.585074667
| 20> H  -2.858527126  -0.882644791   1.996110694
| 21> O   1.390610024   3.194080770  -1.536658882
| 22> H   2.162932299   2.881562730  -0.993525056
| 23> C   1.202977189   4.580367182  -1.302880219
| 24> H   0.374773115   4.915764831  -1.934164643
| 25> H   2.098649340   5.157710875  -1.570472348
| 26> H   0.950320401   4.800436015  -0.254328827
| 27> *
| 28>
| 29>                          ****END OF INPUT****

CARTESIAN COORDINATES (ANGSTROEM)
---------------------------------
  O     -3.821406   -2.118092    0.596795
  H     -4.342989   -1.344303    0.251966
  C     -3.443884   -1.809641    1.934889
  H     -2.831494   -2.637430    2.305202
  H     -4.325601   -1.719364    2.585075
  H     -2.858527   -0.882645    1.996111
  O      1.390610    3.194081   -1.536659
  H      2.162932    2.881563   -0.993525
  C      1.202977    4.580367   -1.302880
  H      0.374773    4.915765   -1.934165
  H      2.098649    5.157711   -1.570472
  H      0.950320    4.800436   -0.254329

 Total Charge           Charge          ....    0
 Multiplicity           Mult            ....    1
 Number of Electrons    NEL             ....   36
 Basis Dimension        Dim             ....  172

ORBITAL ENERGIES
----------------

  NO   OCC          E(Eh)            E(eV)
   0   2.0000     -20.558235      -559.4180
   1   2.0000     -20.555639      -559.3474
   2   2.0000     -11.272395      -306.7375
   3   2.0000     -11.269928      -306.6703
   4   2.0000      -1.348922       -36.7060
   5   2.0000      -1.344717       -36.5916
   6   2.0000      -0.920335       -25.0436
   7   2.0000      -0.917378       -24.9631
   8   2.0000      -0.683580       -18.6012
   9   2.0000      -0.679215       -18.4824
  10   2.0000      -0.617890       -16.8136
  11   2.0000      -0.615656       -16.7529
  12   2.0000      -0.593092       -16.1389
  13   2.0000      -0.588169       -16.0049
  14   2.0000      -0.500059       -13.6073
  15   2.0000      -0.498842       -13.5742
  16   2.0000      -0.449360       -12.2277
  17   2.0000      -0.447529       -12.1779
  18   0.0000       0.134273         3.6538
  19   0.0000       0.137118         3.7312
  20   0.0000       0.174776         4.7559
  21   0.0000       0.177785         4.8378
  22   0.0000       0.228826         6.2267

MULLIKEN ATOMIC CHARGES
-----------------------
   0 O :   -0.494496
   1 H :    0.321345
   2 C :   -0.174735
   3 H :    0.128587
   4 H :    0.108533
   5 H :    0.110767
   6 O :   -0.496645
   7 H :    0.322195
   8 C :   -0.171145
   9 H :    0.129083
  10 H :    0.109071
  11 H :    0.107441
Sum of atomic charges:    0.0000000

LOEWDIN ATOMIC CHARGES
----------------------
   0 O :   -0.109459
   1 H :    0.190870
   2 C :   -0.382224
   3 H :    0.110193
   4 H :    0.095133
   5 H :    0.095487
   6 O :   -0.105491
   7 H :    0.190772
   8 C :   -0.385933
   9 H :    0.110481
  10 H :    0.095272
  11 H :    0.094899

  Mayer bond orders larger than 0.100000
B(  0-O ,  1-H ) :   0.8427 B(  0-O ,  2-C ) :   0.9272 B(  2-C ,  3-H ) :   0.9377
B(  2-C ,  4-H ) :   0.9391 B(  2-C ,  5-H ) :   0.9385 B(  6-O ,  7-H ) :   0.8415
B(  6-O ,  8-C ) :   0.9280 B(  8-C ,  9-H ) :   0.9375 B(  8-C , 10-H ) :   0.9401
B(  8-C , 11-H ) :   0.9374

MP2 TOTAL ENERGY:     -231.013203521 Eh
FINAL SINGLE POINT ENERGY      -231.013203520961

DIPOLE MOMENT
-------------
                                X             Y             Z
Electronic contribution:     -0.27037      -2.26821      -2.06648
Nuclear contribution   :      0.51152       3.23582       2.81716
                        -----------------------------------------
Total Dipole Moment    :      0.24115       0.96761       0.75068
                        -----------------------------------------
Magnitude (a.u.)       :      1.24818
Magnitude (Debye)      :      3.17262

Rotational constants in cm-1:     0.454808     0.015713     0.015580
Rotational constants in MHz : 13634.812875   471.058492   467.078522

                             ****ORCA TERMINATED NORMALLY****
TOTAL RUN TIME: 0 days 0 hours 0 minutes 15 seconds 931 msec
