                         Program Version 4.2.0 -  RELEASE  -
|  1> # 12mecn.remya.etal.2.mol1,2,9
|  2> ! MP2 def2-TZVP EnGrad TightSCF
|  3>
|  4> %pal
|  5>     nprocs 6
|  6> end
|  7>
|  8> %maxcore 8000
|  9>
| 10> %scf
| 11>     ConvForced true
| 12> end
| 13>
| 14> *xyz 0 1
| 15> C  -4.697980000  -0.249690000   1.746215000
| 16> H  -4.927570000   0.755530000   2.111799000
| 17> H  -3.709180000  -0.561560000   2.093253000
| 18> H  -5.432280000  -0.961520000   2.128066000
| 19> C  -4.714100000  -0.247110000   0.301670000
| 20> N  -4.729750000  -0.234960000  -0.865260000
| 21> C  -4.219070000  -3.477410000  -1.501740000
| 22> H  -3.251530000  -3.803540000  -1.893830000
| 23> H  -4.452920000  -2.481700000  -1.890840000
| 24> H  -4.992170000  -4.178130000  -1.824640000
| 25> C  -4.154550000  -3.418790000  -0.058340000
| 26> N  -4.091140000  -3.354840000   1.104432000
| 27> C   0.923766000   4.000693000  -1.575910000
| 28> H   0.011949000   4.478423000  -1.939550000
| 29> H   0.947903000   2.966558000  -1.929960000
| 30> H   1.805950000   4.519548000  -1.956520000
| 31> C   0.942834000   3.994846000  -0.131200000
| 32> N   0.960035000   3.982544000   1.035639000
| 33> *
| 34>
| 35>                          ****END OF INPUT****

CARTESIAN COORDINATES (ANGSTROEM)
---------------------------------
  C     -4.697980   -0.249690    1.746215
  H     -4.927570    0.755530    2.111799
  H     -3.709180   -0.561560    2.093253
  H     -5.432280   -0.961520    2.128066
  C     -4.714100   -0.247110    0.301670
  N     -4.729750   -0.234960   -0.865260
  C     -4.219070   -3.477410   -1.501740
  H     -3.251530   -3.803540   -1.893830
  H     -4.452920   -2.481700   -1.890840
  H     -4.992170   -4.178130   -1.824640
  C     -4.154550   -3.418790   -0.058340
  N     -4.091140   -3.354840    1.104432
  C      0.923766    4.000693   -1.575910
  H      0.011949    4.478423   -1.939550
  H      0.947903    2.966558   -1.929960
  H      1.805950    4.519548   -1.956520
  C      0.942834    3.994846   -0.131200
  N      0.960035    3.982544    1.035639

 Total Charge           Charge          ....    0
 Multiplicity           Mult            ....    1
 Number of Electrons    NEL             ....   66
 Basis Dimension        Dim             ....  333

ORBITAL ENERGIES
----------------

  NO   OCC          E(Eh)            E(eV)
   0   2.0000     -15.572869      -423.7593
   1   2.0000     -15.570936      -423.7067
   2   2.0000     -15.570267      -423.6885
   3   2.0000     -11.283854      -307.0493
   4   2.0000     -11.282970      -307.0252
   5   2.0000     -11.282367      -307.0088
   6   2.0000     -11.280028      -306.9452
   7   2.0000     -11.272331      -306.7357
   8   2.0000     -11.271202      -306.7050
   9   2.0000      -1.218069       -33.1453
  10   2.0000      -1.214146       -33.0386
  11   2.0000      -1.213320       -33.0161
  12   2.0000      -1.043619       -28.3983
  13   2.0000      -1.036126       -28.1944
  14   2.0000      -1.033052       -28.1108
  15   2.0000      -0.699819       -19.0430
  16   2.0000      -0.694716       -18.9042
  17   2.0000      -0.690260       -18.7829
  18   2.0000      -0.633293       -17.2328
  19   2.0000      -0.630720       -17.1628
  20   2.0000      -0.629365       -17.1259
  21   2.0000      -0.622944       -16.9512
  22   2.0000      -0.617394       -16.8001
  23   2.0000      -0.615622       -16.7519
  24   2.0000      -0.558819       -15.2062
  25   2.0000      -0.555894       -15.1267
  26   2.0000      -0.555738       -15.1224
  27   2.0000      -0.462662       -12.5897
  28   2.0000      -0.458676       -12.4812
  29   2.0000      -0.457654       -12.4534
  30   2.0000      -0.456873       -12.4322
  31   2.0000      -0.456850       -12.4315
  32   2.0000      -0.452675       -12.3179
  33   0.0000       0.119975         3.2647
  34   0.0000       0.126814         3.4508
  35   0.0000       0.145836         3.9684
  36   0.0000       0.172037         4.6814
  37   0.0000       0.172407         4.6914

MULLIKEN ATOMIC CHARGES
-----------------------
   0 C :   -0.256974
   1 H :    0.172678
   2 H :    0.178736
   3 H :    0.177849
   4 C :   -0.117435
   5 N :   -0.153650
   6 C :   -0.288145
   7 H :    0.165619
   8 H :    0.205001
   9 H :    0.166392
  10 C :   -0.114045
  11 N :   -0.136024
  12 C :   -0.278046
  13 H :    0.173295
  14 H :    0.172525
  15 H :    0.171584
  16 C :   -0.145724
  17 N :   -0.093635
Sum of atomic charges:   -0.0000000

LOEWDIN ATOMIC CHARGES
----------------------
   0 C :   -0.283349
   1 H :    0.150890
   2 H :    0.157926
   3 H :    0.155664
   4 C :   -0.209034
   5 N :    0.025688
   6 C :   -0.282989
   7 H :    0.151942
   8 H :    0.157000
   9 H :    0.150067
  10 C :   -0.209765
  11 N :    0.035960
  12 C :   -0.283128
  13 H :    0.152040
  14 H :    0.153734
  15 H :    0.151766
  16 C :   -0.219132
  17 N :    0.044720

  Mayer bond orders larger than 0.100000
B(  0-C ,  1-H ) :   0.9089 B(  0-C ,  2-H ) :   0.9117 B(  0-C ,  3-H ) :   0.9127
B(  0-C ,  4-C ) :   0.9125 B(  4-C ,  5-N ) :   2.7746 B(  6-C ,  7-H ) :   0.9154
B(  6-C ,  8-H ) :   0.9020 B(  6-C ,  9-H ) :   0.9161 B(  6-C , 10-C ) :   0.9006
B( 10-C , 11-N ) :   2.7927 B( 12-C , 13-H ) :   0.9158 B( 12-C , 14-H ) :   0.9166
B( 12-C , 15-H ) :   0.9166 B( 12-C , 16-C ) :   0.9022 B( 16-C , 17-N ) :   2.8378

MP2 TOTAL ENERGY:     -397.459619472 Eh
FINAL SINGLE POINT ENERGY      -397.459619472268

DIPOLE MOMENT
-------------
                                X             Y             Z
Electronic contribution:      0.12499       0.16876       3.14847
Nuclear contribution   :     -0.19973      -0.23540      -4.64706
                        -----------------------------------------
Total Dipole Moment    :     -0.07474      -0.06664      -1.49859
                        -----------------------------------------
Magnitude (a.u.)       :      1.50194
Magnitude (Debye)      :      3.81762

Rotational constants in cm-1:     0.055410     0.008774     0.008407
Rotational constants in MHz :  1661.139895   263.028436   252.026710

                             ****ORCA TERMINATED NORMALLY****
TOTAL RUN TIME: 0 days 0 hours 2 minutes 43 seconds 646 msec
