                         Program Version 4.2.0 -  RELEASE  -
|  1> ! MP2 def2-TZVP EnGrad TightSCF FrozenCore
|  2>
|  3> %pal
|  4>     nprocs 12
|  5> end
|  6>
|  7> %maxcore 8000
|  8>
|  9> %scf
| 10>     ConvForced true
| 11> end
| 12>
| 13> *xyz 0 1
| 14> C    -0.148429     1.311373     2.010077
| 15> H    -0.255224     1.662072     3.039812
| 16> H    -1.132954     1.044156     1.615212
| 17> H     0.282896     2.111538     1.400030
| 18> C     0.732935     0.147876     1.966893
| 19> N     1.443762    -0.771131     1.938776
| 20> C    -4.441076    -0.597607     0.250401
| 21> H    -4.970049    -1.150483    -0.530027
| 22> H    -4.521848     0.475135     0.050919
| 23> H    -4.892839    -0.826676     1.218851
| 24> C    -3.029043    -0.970824     0.255559
| 25> N    -1.902249    -1.255174     0.258108
| 26> C     0.631958    -3.252001    -0.211661
| 27> H     0.588146    -2.904163     0.823574
| 28> H     1.310765    -4.105454    -0.287815
| 29> H    -0.371662    -3.547256    -0.525523
| 30> C     1.110008    -2.160034    -1.054744
| 31> N     1.503775    -1.299384    -1.729480
| 32> C     3.991203     0.180649    -0.208971
| 33> H     3.983915    -0.232453    -1.220277
| 34> H     3.627085    -0.584177     0.483413
| 35> H     5.005884     0.478355     0.067677
| 36> C     3.098857     1.334342    -0.146989
| 37> N     2.395661     2.257584    -0.085695
| 38> C    -0.509912     1.432388    -1.583956
| 39> H     0.213674     2.249471    -1.523726
| 40> H    -0.584174     1.083928    -2.617179
| 41> H    -0.142917     0.600525    -0.973472
| 42> C    -1.814895     1.866664    -1.095882
| 43> N    -2.850997     2.195036    -0.682541
| 44> *
| 45>
| 46>                          ****END OF INPUT****

CARTESIAN COORDINATES (ANGSTROEM)
---------------------------------
  C     -0.148429    1.311373    2.010077
  H     -0.255224    1.662072    3.039812
  H     -1.132954    1.044156    1.615212
  H      0.282896    2.111538    1.400030
  C      0.732935    0.147876    1.966893
  N      1.443762   -0.771131    1.938776
  C     -4.441076   -0.597607    0.250401
  H     -4.970049   -1.150483   -0.530027
  H     -4.521848    0.475135    0.050919
  H     -4.892839   -0.826676    1.218851
  C     -3.029043   -0.970824    0.255559
  N     -1.902249   -1.255174    0.258108
  C      0.631958   -3.252001   -0.211661
  H      0.588146   -2.904163    0.823574
  H      1.310765   -4.105454   -0.287815
  H     -0.371662   -3.547256   -0.525523
  C      1.110008   -2.160034   -1.054744
  N      1.503775   -1.299384   -1.729480
  C      3.991203    0.180649   -0.208971
  H      3.983915   -0.232453   -1.220277
  H      3.627085   -0.584177    0.483413
  H      5.005884    0.478355    0.067677
  C      3.098857    1.334342   -0.146989
  N      2.395661    2.257584   -0.085695
  C     -0.509912    1.432388   -1.583956
  H      0.213674    2.249471   -1.523726
  H     -0.584174    1.083928   -2.617179
  H     -0.142917    0.600525   -0.973472
  C     -1.814895    1.866664   -1.095882
  N     -2.850997    2.195036   -0.682541

 Total Charge           Charge          ....    0
 Multiplicity           Mult            ....    1
 Number of Electrons    NEL             ....  110
 Basis Dimension        Dim             ....  555

ORBITAL ENERGIES
----------------

  NO   OCC          E(Eh)            E(eV)
   0   2.0000     -15.578039      -423.9000
   1   2.0000     -15.563614      -423.5075
   2   2.0000     -15.563083      -423.4930
   3   2.0000     -15.560514      -423.4231
   4   2.0000     -15.560449      -423.4213
   5   2.0000     -11.291735      -307.2637
   6   2.0000     -11.279969      -306.9436
   7   2.0000     -11.277678      -306.8812
   8   2.0000     -11.277018      -306.8633
   9   2.0000     -11.275284      -306.8161
  10   2.0000     -11.274900      -306.8056
  11   2.0000     -11.264170      -306.5136
  12   2.0000     -11.261599      -306.4437
  13   2.0000     -11.260969      -306.4266
  14   2.0000     -11.254251      -306.2437
  15   2.0000      -1.227483       -33.4015
  16   2.0000      -1.213618       -33.0242
  17   2.0000      -1.212328       -32.9891
  18   2.0000      -1.209256       -32.9055
  19   2.0000      -1.208853       -32.8946
  20   2.0000      -1.038648       -28.2631
  21   2.0000      -1.024678       -27.8829
  22   2.0000      -1.020977       -27.7822
  23   2.0000      -1.019358       -27.7381
  24   2.0000      -1.015354       -27.6292
  25   2.0000      -0.698433       -19.0053
  26   2.0000      -0.684326       -18.6214
  27   2.0000      -0.682077       -18.5603
  28   2.0000      -0.679310       -18.4850
  29   2.0000      -0.676693       -18.4137
  30   2.0000      -0.630842       -17.1661
  31   2.0000      -0.628168       -17.0933
  32   2.0000      -0.623315       -16.9613
  33   2.0000      -0.618854       -16.8399
  34   2.0000      -0.613503       -16.6943
  35   2.0000      -0.611966       -16.6524
  36   2.0000      -0.608572       -16.5601
  37   2.0000      -0.603721       -16.4281
  38   2.0000      -0.600398       -16.3377
  39   2.0000      -0.594266       -16.1708
  40   2.0000      -0.564203       -15.3527
  41   2.0000      -0.553989       -15.0748
  42   2.0000      -0.551689       -15.0122
  43   2.0000      -0.549856       -14.9623
  44   2.0000      -0.547475       -14.8976
  45   2.0000      -0.470551       -12.8043
  46   2.0000      -0.470034       -12.7903
  47   2.0000      -0.463608       -12.6154
  48   2.0000      -0.457889       -12.4598
  49   2.0000      -0.456721       -12.4280
  50   2.0000      -0.453692       -12.3456
  51   2.0000      -0.451173       -12.2770
  52   2.0000      -0.448845       -12.2137
  53   2.0000      -0.446053       -12.1377
  54   2.0000      -0.443958       -12.0807
  55   0.0000       0.120423         3.2769
  56   0.0000       0.142116         3.8672
  57   0.0000       0.151020         4.1095
  58   0.0000       0.159667         4.3448
  59   0.0000       0.164533         4.4772

MULLIKEN ATOMIC CHARGES
-----------------------
   0 C :   -0.314674
   1 H :    0.173811
   2 H :    0.178378
   3 H :    0.202370
   4 C :   -0.053845
   5 N :   -0.188556
   6 C :   -0.291641
   7 H :    0.168263
   8 H :    0.210701
   9 H :    0.168358
  10 C :   -0.075530
  11 N :   -0.175195
  12 C :   -0.264693
  13 H :    0.195416
  14 H :    0.165654
  15 H :    0.163645
  16 C :   -0.084312
  17 N :   -0.173895
  18 C :   -0.288101
  19 H :    0.182988
  20 H :    0.190121
  21 H :    0.169033
  22 C :   -0.075465
  23 N :   -0.178393
  24 C :   -0.305615
  25 H :    0.197053
  26 H :    0.173911
  27 H :    0.179530
  28 C :   -0.098494
  29 N :   -0.150824
Sum of atomic charges:   -0.0000000

LOEWDIN ATOMIC CHARGES
----------------------
   0 C :   -0.280498
   1 H :    0.149563
   2 H :    0.151241
   3 H :    0.155816
   4 C :   -0.199589
   5 N :    0.029309
   6 C :   -0.278471
   7 H :    0.151105
   8 H :    0.157539
   9 H :    0.149854
  10 C :   -0.200402
  11 N :    0.044735
  12 C :   -0.287688
  13 H :    0.154677
  14 H :    0.145800
  15 H :    0.149318
  16 C :   -0.204331
  17 N :    0.028885
  18 C :   -0.284574
  19 H :    0.153452
  20 H :    0.154528
  21 H :    0.146547
  22 C :   -0.198056
  23 N :    0.022687
  24 C :   -0.283342
  25 H :    0.155340
  26 H :    0.152476
  27 H :    0.154473
  28 C :   -0.210377
  29 N :    0.019982

  Mayer bond orders larger than 0.100000
B(  0-C ,  1-H ) :   0.9104 B(  0-C ,  2-H ) :   0.9180 B(  0-C ,  3-H ) :   0.9056
B(  0-C ,  4-C ) :   0.8875 B(  4-C ,  5-N ) :   2.7173 B(  6-C ,  7-H ) :   0.9166
B(  6-C ,  8-H ) :   0.9014 B(  6-C ,  9-H ) :   0.9185 B(  6-C , 10-C ) :   0.8862
B( 10-C , 11-N ) :   2.7056 B( 12-C , 13-H ) :   0.9096 B( 12-C , 14-H ) :   0.9118
B( 12-C , 15-H ) :   0.9170 B( 12-C , 16-C ) :   0.8989 B( 16-C , 17-N ) :   2.7374
B( 18-C , 19-H ) :   0.9136 B( 18-C , 20-H ) :   0.9090 B( 18-C , 21-H ) :   0.9096
B( 18-C , 22-C ) :   0.9018 B( 22-C , 23-N ) :   2.7390 B( 24-C , 25-H ) :   0.9106
B( 24-C , 26-H ) :   0.9129 B( 24-C , 27-H ) :   0.9006 B( 24-C , 28-C ) :   0.8993
B( 28-C , 29-N ) :   2.7696

MP2 TOTAL ENERGY:     -662.457786609 Eh
FINAL SINGLE POINT ENERGY      -662.457786609183

DIPOLE MOMENT
-------------
                                X             Y             Z
Electronic contribution:      1.21356       2.41666      -0.69453
Nuclear contribution   :     -1.86780      -3.66232       1.02627
                        -----------------------------------------
Total Dipole Moment    :     -0.65424      -1.24566       0.33175
                        -----------------------------------------
Magnitude (a.u.)       :      1.44560
Magnitude (Debye)      :      3.67442

Rotational constants in cm-1:     0.019990     0.011680     0.009837
Rotational constants in MHz :   599.274150   350.152652   294.910384

                             ****ORCA TERMINATED NORMALLY****
TOTAL RUN TIME: 0 days 0 hours 29 minutes 39 seconds 301 msec
