                         Program Version 4.2.0 -  RELEASE  -
|  1> # 12h2o.su.etal.mol0,3,5,6,7,8,9
|  2> ! MP2 def2-TZVP EnGrad TightSCF
|  3>
|  4> %pal
|  5>     nprocs 6
|  6> end
|  7>
|  8> %maxcore 8000
|  9>
| 10> %scf
| 11>     ConvForced true
| 12> end
| 13>
| 14> *xyz 0 1
| 15> O   1.794470000   0.923410000   2.768350000
| 16> H   2.338250000   1.359750000   3.430940000
| 17> H   0.879480000   1.303000000   2.865760000
| 18> O  -1.752130000  -0.741530000  -2.896280000
| 19> H  -2.036450000  -0.920500000  -1.984040000
| 20> H  -0.921210000  -1.242140000  -2.984230000
| 21> O   0.885520000  -1.737840000   0.052730000
| 22> H   1.284090000  -0.839590000   0.017130000
| 23> H   1.032320000  -2.090180000  -0.841890000
| 24> O   1.737840000   0.885520000  -0.052730000
| 25> H   2.090180000   1.032320000   0.841890000
| 26> H   0.839590000   1.284090000  -0.017130000
| 27> O  -1.737840000  -0.885520000  -0.052730000
| 28> H  -2.090180000  -1.032320000   0.841890000
| 29> H  -0.839590000  -1.284090000  -0.017130000
| 30> O   1.752130000   0.741530000  -2.896280000
| 31> H   2.036450000   0.920500000  -1.984040000
| 32> H   0.921210000   1.242140000  -2.984230000
| 33> O   0.741530000  -1.752130000   2.896280000
| 34> H   0.920500000  -2.036450000   1.984040000
| 35> H   1.242140000  -0.921210000   2.984230000
| 36> *
| 37>
| 38>                          ****END OF INPUT****

CARTESIAN COORDINATES (ANGSTROEM)
---------------------------------
  O      1.794470    0.923410    2.768350
  H      2.338250    1.359750    3.430940
  H      0.879480    1.303000    2.865760
  O     -1.752130   -0.741530   -2.896280
  H     -2.036450   -0.920500   -1.984040
  H     -0.921210   -1.242140   -2.984230
  O      0.885520   -1.737840    0.052730
  H      1.284090   -0.839590    0.017130
  H      1.032320   -2.090180   -0.841890
  O      1.737840    0.885520   -0.052730
  H      2.090180    1.032320    0.841890
  H      0.839590    1.284090   -0.017130
  O     -1.737840   -0.885520   -0.052730
  H     -2.090180   -1.032320    0.841890
  H     -0.839590   -1.284090   -0.017130
  O      1.752130    0.741530   -2.896280
  H      2.036450    0.920500   -1.984040
  H      0.921210    1.242140   -2.984230
  O      0.741530   -1.752130    2.896280
  H      0.920500   -2.036450    1.984040
  H      1.242140   -0.921210    2.984230

 Total Charge           Charge          ....    0
 Multiplicity           Mult            ....    1
 Number of Electrons    NEL             ....   70
 Basis Dimension        Dim             ....  301

ORBITAL ENERGIES
----------------

  NO   OCC          E(Eh)            E(eV)
   0   2.0000     -20.638330      -561.5975
   1   2.0000     -20.613984      -560.9350
   2   2.0000     -20.587911      -560.2255
   3   2.0000     -20.554847      -559.3258
   4   2.0000     -20.544941      -559.0563
   5   2.0000     -20.530104      -558.6525
   6   2.0000     -20.528489      -558.6086
   7   2.0000      -1.419648       -38.6306
   8   2.0000      -1.400261       -38.1030
   9   2.0000      -1.375064       -37.4174
  10   2.0000      -1.338097       -36.4115
  11   2.0000      -1.326873       -36.1061
  12   2.0000      -1.315272       -35.7904
  13   2.0000      -1.309678       -35.6381
  14   2.0000      -0.784611       -21.3503
  15   2.0000      -0.762664       -20.7531
  16   2.0000      -0.743872       -20.2418
  17   2.0000      -0.712374       -19.3847
  18   2.0000      -0.699940       -19.0463
  19   2.0000      -0.696211       -18.9449
  20   2.0000      -0.678594       -18.4655
  21   2.0000      -0.663895       -18.0655
  22   2.0000      -0.632144       -17.2015
  23   2.0000      -0.626491       -17.0477
  24   2.0000      -0.593461       -16.1489
  25   2.0000      -0.582265       -15.8442
  26   2.0000      -0.563000       -15.3200
  27   2.0000      -0.551295       -15.0015
  28   2.0000      -0.548544       -14.9266
  29   2.0000      -0.541784       -14.7427
  30   2.0000      -0.526027       -14.3139
  31   2.0000      -0.503592       -13.7034
  32   2.0000      -0.491894       -13.3851
  33   2.0000      -0.479455       -13.0466
  34   2.0000      -0.474257       -12.9052
  35   0.0000       0.069191         1.8828
  36   0.0000       0.109493         2.9795
  37   0.0000       0.136109         3.7037
  38   0.0000       0.149735         4.0745
  39   0.0000       0.171119         4.6564

MULLIKEN ATOMIC CHARGES
-----------------------
   0 O :   -0.720056
   1 H :    0.373915
   2 H :    0.372128
   3 O :   -0.699298
   4 H :    0.373760
   5 H :    0.317742
   6 O :   -0.733569
   7 H :    0.374436
   8 H :    0.361242
   9 O :   -0.726658
  10 H :    0.391712
  11 H :    0.358257
  12 O :   -0.735469
  13 H :    0.345220
  14 H :    0.354697
  15 O :   -0.701458
  16 H :    0.365962
  17 H :    0.336135
  18 O :   -0.719231
  19 H :    0.370389
  20 H :    0.340142
Sum of atomic charges:    0.0000000

LOEWDIN ATOMIC CHARGES
----------------------
   0 O :   -0.287815
   1 H :    0.172472
   2 H :    0.192848
   3 O :   -0.340742
   4 H :    0.153445
   5 H :    0.154347
   6 O :   -0.291948
   7 H :    0.146703
   8 H :    0.170934
   9 O :   -0.280103
  10 H :    0.157568
  11 H :    0.177916
  12 O :   -0.343901
  13 H :    0.165258
  14 H :    0.140766
  15 O :   -0.338582
  16 H :    0.148395
  17 H :    0.163471
  18 O :   -0.349923
  19 H :    0.149743
  20 H :    0.139149

  Mayer bond orders larger than 0.100000
B(  0-O ,  1-H ) :   0.8265 B(  0-O ,  2-H ) :   0.8195 B(  3-O ,  4-H ) :   0.8147
B(  3-O ,  5-H ) :   0.8606 B(  6-O ,  7-H ) :   0.7663 B(  6-O ,  8-H ) :   0.8317
B(  9-O , 10-H ) :   0.7920 B(  9-O , 11-H ) :   0.8268 B( 12-O , 13-H ) :   0.8443
B( 12-O , 14-H ) :   0.7787 B( 15-O , 16-H ) :   0.8263 B( 15-O , 17-H ) :   0.8493
B( 18-O , 19-H ) :   0.8234 B( 18-O , 20-H ) :   0.8389

MP2 TOTAL ENERGY:     -534.246589117 Eh
FINAL SINGLE POINT ENERGY      -534.246589116965

DIPOLE MOMENT
-------------
                                X             Y             Z
Electronic contribution:      0.29834       0.06697       0.07849
Nuclear contribution   :      0.71062       1.58851       2.09298
                        -----------------------------------------
Total Dipole Moment    :      1.00896       1.65548       2.17147
                        -----------------------------------------
Magnitude (a.u.)       :      2.91100
Magnitude (Debye)      :      7.39916

Rotational constants in cm-1:     0.043885     0.023752     0.017924
Rotational constants in MHz :  1315.649120   712.061046   537.353937

                             ****ORCA TERMINATED NORMALLY****
TOTAL RUN TIME: 0 days 0 hours 1 minutes 53 seconds 392 msec
