                         Program Version 4.2.0 -  RELEASE  -
|  1> # 12mecn.remya.etal.2.mol2,6,8
|  2> ! MP2 def2-TZVP EnGrad TightSCF
|  3>
|  4> %pal
|  5>     nprocs 6
|  6> end
|  7>
|  8> %maxcore 8000
|  9>
| 10> %scf
| 11>     ConvForced true
| 12> end
| 13>
| 14> *xyz 0 1
| 15> C  -4.219070000  -3.477410000  -1.501740000
| 16> H  -3.251530000  -3.803540000  -1.893830000
| 17> H  -4.452920000  -2.481700000  -1.890840000
| 18> H  -4.992170000  -4.178130000  -1.824640000
| 19> C  -4.154550000  -3.418790000  -0.058340000
| 20> N  -4.091140000  -3.354840000   1.104432000
| 21> C   5.300864000  -2.920090000   1.401103000
| 22> H   5.986071000  -2.139770000   1.737487000
| 23> H   5.636642000  -3.888750000   1.778233000
| 24> H   4.307359000  -2.697240000   1.799307000
| 25> C   5.234791000  -2.933140000  -0.043290000
| 26> N   5.170868000  -2.941760000  -1.207750000
| 27> C   1.912641000  -2.468050000  -1.750510000
| 28> H   2.876947000  -2.793500000  -2.151200000
| 29> H   1.688016000  -1.463720000  -2.122170000
| 30> H   1.123460000  -3.154780000  -2.069590000
| 31> C   1.977850000  -2.444240000  -0.306900000
| 32> N   2.036566000  -2.426130000   0.858249000
| 33> *
| 34>
| 35>                          ****END OF INPUT****

CARTESIAN COORDINATES (ANGSTROEM)
---------------------------------
  C     -4.219070   -3.477410   -1.501740
  H     -3.251530   -3.803540   -1.893830
  H     -4.452920   -2.481700   -1.890840
  H     -4.992170   -4.178130   -1.824640
  C     -4.154550   -3.418790   -0.058340
  N     -4.091140   -3.354840    1.104432
  C      5.300864   -2.920090    1.401103
  H      5.986071   -2.139770    1.737487
  H      5.636642   -3.888750    1.778233
  H      4.307359   -2.697240    1.799307
  C      5.234791   -2.933140   -0.043290
  N      5.170868   -2.941760   -1.207750
  C      1.912641   -2.468050   -1.750510
  H      2.876947   -2.793500   -2.151200
  H      1.688016   -1.463720   -2.122170
  H      1.123460   -3.154780   -2.069590
  C      1.977850   -2.444240   -0.306900
  N      2.036566   -2.426130    0.858249

 Total Charge           Charge          ....    0
 Multiplicity           Mult            ....    1
 Number of Electrons    NEL             ....   66
 Basis Dimension        Dim             ....  333

ORBITAL ENERGIES
----------------

  NO   OCC          E(Eh)            E(eV)
   0   2.0000     -15.573281      -423.7705
   1   2.0000     -15.571430      -423.7201
   2   2.0000     -15.571257      -423.7155
   3   2.0000     -11.286777      -307.1288
   4   2.0000     -11.283529      -307.0404
   5   2.0000     -11.282704      -307.0180
   6   2.0000     -11.279833      -306.9399
   7   2.0000     -11.273848      -306.7770
   8   2.0000     -11.270802      -306.6941
   9   2.0000      -1.218459       -33.1559
  10   2.0000      -1.214679       -33.0531
  11   2.0000      -1.214147       -33.0386
  12   2.0000      -1.044879       -28.4326
  13   2.0000      -1.037222       -28.2243
  14   2.0000      -1.033818       -28.1316
  15   2.0000      -0.701605       -19.0916
  16   2.0000      -0.695886       -18.9360
  17   2.0000      -0.691438       -18.8150
  18   2.0000      -0.633438       -17.2367
  19   2.0000      -0.632537       -17.2122
  20   2.0000      -0.631653       -17.1881
  21   2.0000      -0.623988       -16.9796
  22   2.0000      -0.622017       -16.9259
  23   2.0000      -0.614145       -16.7117
  24   2.0000      -0.559430       -15.2229
  25   2.0000      -0.555871       -15.1260
  26   2.0000      -0.555646       -15.1199
  27   2.0000      -0.460739       -12.5374
  28   2.0000      -0.458917       -12.4878
  29   2.0000      -0.457839       -12.4584
  30   2.0000      -0.457726       -12.4554
  31   2.0000      -0.457093       -12.4381
  32   2.0000      -0.456047       -12.4097
  33   0.0000       0.105680         2.8757
  34   0.0000       0.130652         3.5552
  35   0.0000       0.141140         3.8406
  36   0.0000       0.163102         4.4382
  37   0.0000       0.169029         4.5995

MULLIKEN ATOMIC CHARGES
-----------------------
   0 C :   -0.280323
   1 H :    0.167607
   2 H :    0.172439
   3 H :    0.172931
   4 C :   -0.145544
   5 N :   -0.087111
   6 C :   -0.287140
   7 H :    0.166150
   8 H :    0.166643
   9 H :    0.207790
  10 C :   -0.100941
  11 N :   -0.152366
  12 C :   -0.285714
  13 H :    0.206750
  14 H :    0.166533
  15 H :    0.160602
  16 C :   -0.100668
  17 N :   -0.147637
Sum of atomic charges:   -0.0000000

LOEWDIN ATOMIC CHARGES
----------------------
   0 C :   -0.284712
   1 H :    0.151216
   2 H :    0.152878
   3 H :    0.151177
   4 C :   -0.219993
   5 N :    0.049432
   6 C :   -0.281888
   7 H :    0.150846
   8 H :    0.151142
   9 H :    0.157736
  10 C :   -0.206332
  11 N :    0.028872
  12 C :   -0.283449
  13 H :    0.157097
  14 H :    0.152437
  15 H :    0.149091
  16 C :   -0.208454
  17 N :    0.032905

  Mayer bond orders larger than 0.100000
B(  0-C ,  1-H ) :   0.9178 B(  0-C ,  2-H ) :   0.9169 B(  0-C ,  3-H ) :   0.9166
B(  0-C ,  4-C ) :   0.9020 B(  4-C ,  5-N ) :   2.8344 B(  6-C ,  7-H ) :   0.9159
B(  6-C ,  8-H ) :   0.9145 B(  6-C ,  9-H ) :   0.9009 B(  6-C , 10-C ) :   0.9024
B( 10-C , 11-N ) :   2.7709 B( 12-C , 13-H ) :   0.9008 B( 12-C , 14-H ) :   0.9155
B( 12-C , 15-H ) :   0.9179 B( 12-C , 16-C ) :   0.9007 B( 16-C , 17-N ) :   2.7659

MP2 TOTAL ENERGY:     -397.458594740 Eh
FINAL SINGLE POINT ENERGY      -397.458594740240

DIPOLE MOMENT
-------------
                                X             Y             Z
Electronic contribution:      0.15137       0.12516       3.15503
Nuclear contribution   :     -0.22248      -0.19777      -4.62516
                        -----------------------------------------
Total Dipole Moment    :     -0.07110      -0.07261      -1.47013
                        -----------------------------------------
Magnitude (a.u.)       :      1.47364
Magnitude (Debye)      :      3.74569

Rotational constants in cm-1:     0.093590     0.008876     0.008234
Rotational constants in MHz :  2805.755458   266.097245   246.854718

                             ****ORCA TERMINATED NORMALLY****
TOTAL RUN TIME: 0 days 0 hours 2 minutes 49 seconds 887 msec
