                         Program Version 4.2.0 -  RELEASE  -
|  1> # 12mecn.remya.etal.2.mol6
|  2> ! MP2 def2-TZVP EnGrad TightSCF
|  3>
|  4> %pal
|  5>     nprocs 6
|  6> end
|  7>
|  8> %maxcore 8000
|  9>
| 10> %scf
| 11>     ConvForced true
| 12> end
| 13>
| 14> *xyz 0 1
| 15> C   5.300864000  -2.920090000   1.401103000
| 16> H   5.986071000  -2.139770000   1.737487000
| 17> H   5.636642000  -3.888750000   1.778233000
| 18> H   4.307359000  -2.697240000   1.799307000
| 19> C   5.234791000  -2.933140000  -0.043290000
| 20> N   5.170868000  -2.941760000  -1.207750000
| 21> *
| 22>
| 23>                          ****END OF INPUT****

CARTESIAN COORDINATES (ANGSTROEM)
---------------------------------
  C      5.300864   -2.920090    1.401103
  H      5.986071   -2.139770    1.737487
  H      5.636642   -3.888750    1.778233
  H      4.307359   -2.697240    1.799307
  C      5.234791   -2.933140   -0.043290
  N      5.170868   -2.941760   -1.207750

 Total Charge           Charge          ....    0
 Multiplicity           Mult            ....    1
 Number of Electrons    NEL             ....   22
 Basis Dimension        Dim             ....  111

ORBITAL ENERGIES
----------------

  NO   OCC          E(Eh)            E(eV)
   0   2.0000     -15.573504      -423.7766
   1   2.0000     -11.285200      -307.0859
   2   2.0000     -11.280450      -306.9567
   3   2.0000      -1.215111       -33.0648
   4   2.0000      -1.044242       -28.4153
   5   2.0000      -0.701601       -19.0915
   6   2.0000      -0.633226       -17.2310
   7   2.0000      -0.630481       -17.1563
   8   2.0000      -0.556333       -15.1386
   9   2.0000      -0.458483       -12.4760
  10   2.0000      -0.457893       -12.4599
  11   0.0000       0.118734         3.2309
  12   0.0000       0.170891         4.6502
  13   0.0000       0.171189         4.6583
  14   0.0000       0.201910         5.4942
  15   0.0000       0.224015         6.0958

MULLIKEN ATOMIC CHARGES
-----------------------
   0 C :   -0.280700
   1 H :    0.172170
   2 H :    0.172469
   3 H :    0.172099
   4 C :   -0.145671
   5 N :   -0.090368
Sum of atomic charges:   -0.0000000

LOEWDIN ATOMIC CHARGES
----------------------
   0 C :   -0.283891
   1 H :    0.151556
   2 H :    0.151410
   3 H :    0.153058
   4 C :   -0.218907
   5 N :    0.046774

  Mayer bond orders larger than 0.100000
B(  0-C ,  1-H ) :   0.9169 B(  0-C ,  2-H ) :   0.9161 B(  0-C ,  3-H ) :   0.9168
B(  0-C ,  4-C ) :   0.9026 B(  4-C ,  5-N ) :   2.8369

MP2 TOTAL ENERGY:     -132.483147966 Eh
FINAL SINGLE POINT ENERGY      -132.483147966159

DIPOLE MOMENT
-------------
                                X             Y             Z
Electronic contribution:     -0.12903      -0.04478      -3.12268
Nuclear contribution   :      0.20276       0.06149       4.65354
                        -----------------------------------------
Total Dipole Moment    :      0.07373       0.01671       1.53086
                        -----------------------------------------
Magnitude (a.u.)       :      1.53272
Magnitude (Debye)      :      3.89587

Rotational constants in cm-1:     5.279587     0.308270     0.308071
Rotational constants in MHz : 158278.029860  9241.687855  9235.730524

                             ****ORCA TERMINATED NORMALLY****
TOTAL RUN TIME: 0 days 0 hours 0 minutes 11 seconds 256 msec
