                         Program Version 4.2.0 -  RELEASE  -
|  1> # 12h2o.su.etal.mol0,1,2,3,4,5,8,9,11
|  2> ! MP2 def2-TZVP EnGrad TightSCF
|  3>
|  4> %pal
|  5>     nprocs 6
|  6> end
|  7>
|  8> %maxcore 8000
|  9>
| 10> %scf
| 11>     ConvForced true
| 12> end
| 13>
| 14> *xyz 0 1
| 15> O   1.794470000   0.923410000   2.768350000
| 16> H   2.338250000   1.359750000   3.430940000
| 17> H   0.879480000   1.303000000   2.865760000
| 18> O  -1.794470000  -0.923410000   2.768350000
| 19> H  -2.338250000  -1.359750000   3.430940000
| 20> H  -0.879480000  -1.303000000   2.865760000
| 21> O   0.923410000  -1.794470000  -2.768350000
| 22> H   1.359750000  -2.338250000  -3.430940000
| 23> H   1.303000000  -0.879480000  -2.865760000
| 24> O  -1.752130000  -0.741530000  -2.896280000
| 25> H  -2.036450000  -0.920500000  -1.984040000
| 26> H  -0.921210000  -1.242140000  -2.984230000
| 27> O  -0.885520000   1.737840000   0.052730000
| 28> H  -1.032320000   2.090180000  -0.841890000
| 29> H  -1.284090000   0.839590000   0.017130000
| 30> O   0.885520000  -1.737840000   0.052730000
| 31> H   1.284090000  -0.839590000   0.017130000
| 32> H   1.032320000  -2.090180000  -0.841890000
| 33> O   1.752130000   0.741530000  -2.896280000
| 34> H   2.036450000   0.920500000  -1.984040000
| 35> H   0.921210000   1.242140000  -2.984230000
| 36> O   0.741530000  -1.752130000   2.896280000
| 37> H   0.920500000  -2.036450000   1.984040000
| 38> H   1.242140000  -0.921210000   2.984230000
| 39> O  -0.741530000   1.752130000   2.896280000
| 40> H  -0.920500000   2.036450000   1.984040000
| 41> H  -1.242140000   0.921210000   2.984230000
| 42> *
| 43>
| 44>                          ****END OF INPUT****

CARTESIAN COORDINATES (ANGSTROEM)
---------------------------------
  O      1.794470    0.923410    2.768350
  H      2.338250    1.359750    3.430940
  H      0.879480    1.303000    2.865760
  O     -1.794470   -0.923410    2.768350
  H     -2.338250   -1.359750    3.430940
  H     -0.879480   -1.303000    2.865760
  O      0.923410   -1.794470   -2.768350
  H      1.359750   -2.338250   -3.430940
  H      1.303000   -0.879480   -2.865760
  O     -1.752130   -0.741530   -2.896280
  H     -2.036450   -0.920500   -1.984040
  H     -0.921210   -1.242140   -2.984230
  O     -0.885520    1.737840    0.052730
  H     -1.032320    2.090180   -0.841890
  H     -1.284090    0.839590    0.017130
  O      0.885520   -1.737840    0.052730
  H      1.284090   -0.839590    0.017130
  H      1.032320   -2.090180   -0.841890
  O      1.752130    0.741530   -2.896280
  H      2.036450    0.920500   -1.984040
  H      0.921210    1.242140   -2.984230
  O      0.741530   -1.752130    2.896280
  H      0.920500   -2.036450    1.984040
  H      1.242140   -0.921210    2.984230
  O     -0.741530    1.752130    2.896280
  H     -0.920500    2.036450    1.984040
  H     -1.242140    0.921210    2.984230

 Total Charge           Charge          ....    0
 Multiplicity           Mult            ....    1
 Number of Electrons    NEL             ....   90
 Basis Dimension        Dim             ....  387

ORBITAL ENERGIES
----------------

  NO   OCC          E(Eh)            E(eV)
   0   2.0000     -20.624400      -561.2185
   1   2.0000     -20.596475      -560.4586
   2   2.0000     -20.584992      -560.1461
   3   2.0000     -20.567024      -559.6572
   4   2.0000     -20.552134      -559.2520
   5   2.0000     -20.540753      -558.9423
   6   2.0000     -20.538177      -558.8722
   7   2.0000     -20.534991      -558.7855
   8   2.0000     -20.534979      -558.7852
   9   2.0000      -1.410765       -38.3889
  10   2.0000      -1.374927       -37.4137
  11   2.0000      -1.371746       -37.3271
  12   2.0000      -1.348684       -36.6996
  13   2.0000      -1.340614       -36.4800
  14   2.0000      -1.333926       -36.2980
  15   2.0000      -1.329123       -36.1673
  16   2.0000      -1.319820       -35.9141
  17   2.0000      -1.308787       -35.6139
  18   2.0000      -0.766515       -20.8579
  19   2.0000      -0.753256       -20.4971
  20   2.0000      -0.737245       -20.0615
  21   2.0000      -0.718131       -19.5413
  22   2.0000      -0.705333       -19.1931
  23   2.0000      -0.704073       -19.1588
  24   2.0000      -0.703287       -19.1374
  25   2.0000      -0.694065       -18.8865
  26   2.0000      -0.688179       -18.7263
  27   2.0000      -0.653381       -17.7794
  28   2.0000      -0.622311       -16.9339
  29   2.0000      -0.617090       -16.7919
  30   2.0000      -0.604559       -16.4509
  31   2.0000      -0.589090       -16.0299
  32   2.0000      -0.575268       -15.6538
  33   2.0000      -0.571334       -15.5468
  34   2.0000      -0.562097       -15.2954
  35   2.0000      -0.554405       -15.0861
  36   2.0000      -0.541782       -14.7426
  37   2.0000      -0.535366       -14.5681
  38   2.0000      -0.528258       -14.3746
  39   2.0000      -0.512920       -13.9573
  40   2.0000      -0.499353       -13.5881
  41   2.0000      -0.488367       -13.2891
  42   2.0000      -0.486845       -13.2477
  43   2.0000      -0.483922       -13.1682
  44   2.0000      -0.480395       -13.0722
  45   0.0000       0.068515         1.8644
  46   0.0000       0.122687         3.3385
  47   0.0000       0.130677         3.5559
  48   0.0000       0.136919         3.7258
  49   0.0000       0.158379         4.3097

MULLIKEN ATOMIC CHARGES
-----------------------
   0 O :   -0.750598
   1 H :    0.337602
   2 H :    0.383133
   3 O :   -0.750725
   4 H :    0.337789
   5 H :    0.384868
   6 O :   -0.752157
   7 H :    0.355916
   8 H :    0.382421
   9 O :   -0.712372
  10 H :    0.331932
  11 H :    0.364582
  12 O :   -0.704873
  13 H :    0.345593
  14 H :    0.361148
  15 O :   -0.715828
  16 H :    0.331315
  17 H :    0.376791
  18 O :   -0.680806
  19 H :    0.363724
  20 H :    0.366885
  21 O :   -0.727619
  22 H :    0.383647
  23 H :    0.364946
  24 O :   -0.724523
  25 H :    0.379819
  26 H :    0.367390
Sum of atomic charges:   -0.0000000

LOEWDIN ATOMIC CHARGES
----------------------
   0 O :   -0.346401
   1 H :    0.153775
   2 H :    0.145506
   3 O :   -0.345923
   4 H :    0.153979
   5 H :    0.145900
   6 O :   -0.312271
   7 H :    0.162075
   8 H :    0.145758
   9 O :   -0.346659
  10 H :    0.158835
  11 H :    0.147499
  12 O :   -0.316996
  13 H :    0.166579
  14 H :    0.178086
  15 O :   -0.324477
  16 H :    0.164051
  17 H :    0.152509
  18 O :   -0.263764
  19 H :    0.175080
  20 H :    0.178128
  21 O :   -0.291135
  22 H :    0.155673
  23 H :    0.148462
  24 O :   -0.289207
  25 H :    0.155287
  26 H :    0.149650

  Mayer bond orders larger than 0.100000
B(  0-O ,  1-H ) :   0.8503 B(  0-O ,  2-H ) :   0.7398 B(  2-H , 24-O ) :   0.1186
B(  3-O ,  4-H ) :   0.8502 B(  3-O ,  5-H ) :   0.7379 B(  5-H , 21-O ) :   0.1194
B(  6-O ,  7-H ) :   0.8373 B(  6-O ,  8-H ) :   0.7500 B(  9-O , 10-H ) :   0.8542
B(  9-O , 11-H ) :   0.8102 B( 12-O , 13-H ) :   0.8431 B( 12-O , 14-H ) :   0.8243
B( 15-O , 16-H ) :   0.8440 B( 15-O , 17-H ) :   0.8026 B( 18-O , 19-H ) :   0.8324
B( 18-O , 20-H ) :   0.8271 B( 21-O , 22-H ) :   0.8051 B( 21-O , 23-H ) :   0.7945
B( 24-O , 25-H ) :   0.8124 B( 24-O , 26-H ) :   0.7902

MP2 TOTAL ENERGY:     -686.912407347 Eh
FINAL SINGLE POINT ENERGY      -686.912407347132

DIPOLE MOMENT
-------------
                                X             Y             Z
Electronic contribution:      0.13457       0.11466      -0.39921
Nuclear contribution   :      0.67915       0.30898      -0.91596
                        -----------------------------------------
Total Dipole Moment    :      0.81372       0.42364      -1.31517
                        -----------------------------------------
Magnitude (a.u.)       :      1.60353
Magnitude (Debye)      :      4.07584

Rotational constants in cm-1:     0.028246     0.012939     0.012608
Rotational constants in MHz :   846.795653   387.911757   377.988128

                             ****ORCA TERMINATED NORMALLY****
TOTAL RUN TIME: 0 days 0 hours 4 minutes 21 seconds 955 msec
