                         Program Version 4.2.0 -  RELEASE  -
|  1> # 12mecn.remya.etal.2.mol0,11
|  2> ! MP2 def2-TZVP EnGrad TightSCF
|  3>
|  4> %pal
|  5>     nprocs 6
|  6> end
|  7>
|  8> %maxcore 8000
|  9>
| 10> %scf
| 11>     ConvForced true
| 12> end
| 13>
| 14> *xyz 0 1
| 15> C  -0.869520000  -3.929380000   1.700199000
| 16> H  -0.057420000  -3.268850000   2.015352000
| 17> H  -0.697530000  -4.930670000   2.101524000
| 18> H  -1.821490000  -3.546590000   2.077146000
| 19> C  -0.916080000  -3.969960000   0.256749000
| 20> N  -0.955390000  -3.995980000  -0.909290000
| 21> C   4.214163000   3.378139000   1.593627000
| 22> H   3.242643000   3.657109000   2.012358000
| 23> H   4.969258000   4.086643000   1.941290000
| 24> H   4.482966000   2.372549000   1.931698000
| 25> C   4.130759000   3.388436000   0.150192000
| 26> N   4.050180000   3.381449000  -1.013420000
| 27> *
| 28>
| 29>                          ****END OF INPUT****

CARTESIAN COORDINATES (ANGSTROEM)
---------------------------------
  C     -0.869520   -3.929380    1.700199
  H     -0.057420   -3.268850    2.015352
  H     -0.697530   -4.930670    2.101524
  H     -1.821490   -3.546590    2.077146
  C     -0.916080   -3.969960    0.256749
  N     -0.955390   -3.995980   -0.909290
  C      4.214163    3.378139    1.593627
  H      3.242643    3.657109    2.012358
  H      4.969258    4.086643    1.941290
  H      4.482966    2.372549    1.931698
  C      4.130759    3.388436    0.150192
  N      4.050180    3.381449   -1.013420

 Total Charge           Charge          ....    0
 Multiplicity           Mult            ....    1
 Number of Electrons    NEL             ....   44
 Basis Dimension        Dim             ....  222

ORBITAL ENERGIES
----------------

  NO   OCC          E(Eh)            E(eV)
   0   2.0000     -15.573708      -423.7821
   1   2.0000     -15.573383      -423.7733
   2   2.0000     -11.286519      -307.1218
   3   2.0000     -11.285931      -307.1058
   4   2.0000     -11.280460      -306.9569
   5   2.0000     -11.280115      -306.9475
   6   2.0000      -1.215107       -33.0648
   7   2.0000      -1.214464       -33.0472
   8   2.0000      -1.045055       -28.4374
   9   2.0000      -1.044770       -28.4296
  10   2.0000      -0.701625       -19.0922
  11   2.0000      -0.700884       -19.0720
  12   2.0000      -0.633542       -17.2396
  13   2.0000      -0.633180       -17.2297
  14   2.0000      -0.632728       -17.2174
  15   2.0000      -0.632214       -17.2034
  16   2.0000      -0.556226       -15.1357
  17   2.0000      -0.555770       -15.1233
  18   2.0000      -0.458251       -12.4697
  19   2.0000      -0.458149       -12.4669
  20   2.0000      -0.457634       -12.4529
  21   2.0000      -0.457562       -12.4509
  22   0.0000       0.117526         3.1980
  23   0.0000       0.117973         3.2102
  24   0.0000       0.170086         4.6283
  25   0.0000       0.170224         4.6320
  26   0.0000       0.170380         4.6363

MULLIKEN ATOMIC CHARGES
-----------------------
   0 C :   -0.278870
   1 H :    0.170341
   2 H :    0.172282
   3 H :    0.171962
   4 C :   -0.145807
   5 N :   -0.089908
   6 C :   -0.281054
   7 H :    0.171691
   8 H :    0.172525
   9 H :    0.171206
  10 C :   -0.145503
  11 N :   -0.088864
Sum of atomic charges:    0.0000000

LOEWDIN ATOMIC CHARGES
----------------------
   0 C :   -0.284064
   1 H :    0.152192
   2 H :    0.151563
   3 H :    0.152747
   4 C :   -0.220049
   5 N :    0.047611
   6 C :   -0.284599
   7 H :    0.152609
   8 H :    0.151084
   9 H :    0.152580
  10 C :   -0.219711
  11 N :    0.048036

  Mayer bond orders larger than 0.100000
B(  0-C ,  1-H ) :   0.9170 B(  0-C ,  2-H ) :   0.9167 B(  0-C ,  3-H ) :   0.9167
B(  0-C ,  4-C ) :   0.9017 B(  4-C ,  5-N ) :   2.8355 B(  6-C ,  7-H ) :   0.9167
B(  6-C ,  8-H ) :   0.9166 B(  6-C ,  9-H ) :   0.9168 B(  6-C , 10-C ) :   0.9023
B( 10-C , 11-N ) :   2.8355

MP2 TOTAL ENERGY:     -264.965799473 Eh
FINAL SINGLE POINT ENERGY      -264.965799472949

DIPOLE MOMENT
-------------
                                X             Y             Z
Electronic contribution:     -0.27461      -0.06831      -6.24454
Nuclear contribution   :      0.41968       0.10631       9.28220
                        -----------------------------------------
Total Dipole Moment    :      0.14507       0.03801       3.03766
                        -----------------------------------------
Magnitude (a.u.)       :      3.04136
Magnitude (Debye)      :      7.73051

Rotational constants in cm-1:     0.154294     0.010299     0.009690
Rotational constants in MHz :  4625.607510   308.746369   290.510978

                             ****ORCA TERMINATED NORMALLY****
TOTAL RUN TIME: 0 days 0 hours 0 minutes 34 seconds 89 msec
