                         Program Version 4.2.0 -  RELEASE  -
|  1> ! MP2 def2-TZVP EnGrad TightSCF FrozenCore
|  2>
|  3> %pal
|  4>     nprocs 8
|  5> end
|  6>
|  7> %maxcore 8000
|  8>
|  9> %scf
| 10>     ConvForced true
| 11> end
| 12>
| 13> *xyz 0 1
| 14> O   1.398737412  -1.347769405  -0.120652797
| 15> H   1.655837412  -2.014469405   0.527847203
| 16> H   0.437237412  -1.494969405  -0.271652797
| 17> O   1.319237412   1.310030595   0.576647203
| 18> H   1.995537412   1.800630595   0.094247203
| 19> H   1.476237412   0.365530595   0.344947203
| 20> O  -1.398662588   1.347930595   0.120047203
| 21> H  -0.437162588   1.495130595   0.271447203
| 22> H  -1.655262588   2.014130595  -0.529052797
| 23> O  -1.319362588  -1.310169405  -0.576052797
| 24> H  -1.476262588  -0.365669405  -0.344652797
| 25> H  -1.995362588  -1.800669405  -0.092952797
| 26> *
| 27>
| 28>
| 29>                          ****END OF INPUT****

CARTESIAN COORDINATES (ANGSTROEM)
---------------------------------
  O      1.398737   -1.347769   -0.120653
  H      1.655837   -2.014469    0.527847
  H      0.437237   -1.494969   -0.271653
  O      1.319237    1.310031    0.576647
  H      1.995537    1.800631    0.094247
  H      1.476237    0.365531    0.344947
  O     -1.398663    1.347931    0.120047
  H     -0.437163    1.495131    0.271447
  H     -1.655263    2.014131   -0.529053
  O     -1.319363   -1.310169   -0.576053
  H     -1.476263   -0.365669   -0.344653
  H     -1.995363   -1.800669   -0.092953

 Total Charge           Charge          ....    0
 Multiplicity           Mult            ....    1
 Number of Electrons    NEL             ....   40
 Basis Dimension        Dim             ....  172

ORBITAL ENERGIES
----------------

  NO   OCC          E(Eh)            E(eV)
   0   2.0000     -20.555449      -559.3422
   1   2.0000     -20.555432      -559.3417
   2   2.0000     -20.553770      -559.2965
   3   2.0000     -20.553767      -559.2964
   4   2.0000      -1.356177       -36.9034
   5   2.0000      -1.342014       -36.5181
   6   2.0000      -1.340215       -36.4691
   7   2.0000      -1.326317       -36.0909
   8   2.0000      -0.726565       -19.7708
   9   2.0000      -0.713811       -19.4238
  10   2.0000      -0.709569       -19.3084
  11   2.0000      -0.701816       -19.0974
  12   2.0000      -0.614857       -16.7311
  13   2.0000      -0.586856       -15.9692
  14   2.0000      -0.578987       -15.7550
  15   2.0000      -0.552703       -15.0398
  16   2.0000      -0.507991       -13.8231
  17   2.0000      -0.505136       -13.7455
  18   2.0000      -0.498075       -13.5533
  19   2.0000      -0.497990       -13.5510
  20   0.0000       0.121220         3.2986
  21   0.0000       0.152739         4.1562
  22   0.0000       0.158993         4.3264
  23   0.0000       0.180525         4.9123
  24   0.0000       0.289731         7.8840

MULLIKEN ATOMIC CHARGES
-----------------------
   0 O :   -0.726064
   1 H :    0.341372
   2 H :    0.387408
   3 O :   -0.729385
   4 H :    0.341251
   5 H :    0.385419
   6 O :   -0.726070
   7 H :    0.387415
   8 H :    0.341355
   9 O :   -0.729382
  10 H :    0.385417
  11 H :    0.341264
Sum of atomic charges:   -0.0000000

LOEWDIN ATOMIC CHARGES
----------------------
   0 O :   -0.310874
   1 H :    0.159874
   2 H :    0.154702
   3 O :   -0.315827
   4 H :    0.159567
   5 H :    0.152561
   6 O :   -0.310876
   7 H :    0.154748
   8 H :    0.159817
   9 O :   -0.315821
  10 H :    0.152499
  11 H :    0.159631

  Mayer bond orders larger than 0.100000
B(  0-O ,  1-H ) :   0.8470 B(  0-O ,  2-H ) :   0.7684 B(  3-O ,  4-H ) :   0.8481
B(  3-O ,  5-H ) :   0.7652 B(  6-O ,  7-H ) :   0.7684 B(  6-O ,  8-H ) :   0.8471
B(  9-O , 10-H ) :   0.7653 B(  9-O , 11-H ) :   0.8481

MP2 TOTAL ENERGY:     -305.299900501 Eh
FINAL SINGLE POINT ENERGY      -305.299900501395

DIPOLE MOMENT
-------------
                                X             Y             Z
Electronic contribution:     -0.00010       0.00001      -0.00007
Nuclear contribution   :      0.00075      -0.00033       0.00017
                        -----------------------------------------
Total Dipole Moment    :      0.00065      -0.00032       0.00010
                        -----------------------------------------
Magnitude (a.u.)       :      0.00073
Magnitude (Debye)      :      0.00186

Rotational constants in cm-1:     0.119676     0.118496     0.060349
Rotational constants in MHz :  3587.807504  3552.427759  1809.214473

                             ****ORCA TERMINATED NORMALLY****
TOTAL RUN TIME: 0 days 0 hours 0 minutes 19 seconds 261 msec
