                         Program Version 4.2.0 -  RELEASE  -
|  1> # 12h2o.su.etal.mol0,2,3,4,5,6,7,9,10
|  2> ! MP2 def2-TZVP EnGrad TightSCF
|  3>
|  4> %pal
|  5>     nprocs 6
|  6> end
|  7>
|  8> %maxcore 8000
|  9>
| 10> %scf
| 11>     ConvForced true
| 12> end
| 13>
| 14> *xyz 0 1
| 15> O   1.794470000   0.923410000   2.768350000
| 16> H   2.338250000   1.359750000   3.430940000
| 17> H   0.879480000   1.303000000   2.865760000
| 18> O   0.923410000  -1.794470000  -2.768350000
| 19> H   1.359750000  -2.338250000  -3.430940000
| 20> H   1.303000000  -0.879480000  -2.865760000
| 21> O  -1.752130000  -0.741530000  -2.896280000
| 22> H  -2.036450000  -0.920500000  -1.984040000
| 23> H  -0.921210000  -1.242140000  -2.984230000
| 24> O  -0.885520000   1.737840000   0.052730000
| 25> H  -1.032320000   2.090180000  -0.841890000
| 26> H  -1.284090000   0.839590000   0.017130000
| 27> O   0.885520000  -1.737840000   0.052730000
| 28> H   1.284090000  -0.839590000   0.017130000
| 29> H   1.032320000  -2.090180000  -0.841890000
| 30> O   1.737840000   0.885520000  -0.052730000
| 31> H   2.090180000   1.032320000   0.841890000
| 32> H   0.839590000   1.284090000  -0.017130000
| 33> O  -1.737840000  -0.885520000  -0.052730000
| 34> H  -2.090180000  -1.032320000   0.841890000
| 35> H  -0.839590000  -1.284090000  -0.017130000
| 36> O   0.741530000  -1.752130000   2.896280000
| 37> H   0.920500000  -2.036450000   1.984040000
| 38> H   1.242140000  -0.921210000   2.984230000
| 39> O  -0.923410000   1.794470000  -2.768350000
| 40> H  -1.359750000   2.338250000  -3.430940000
| 41> H  -1.303000000   0.879480000  -2.865760000
| 42> *
| 43>
| 44>                          ****END OF INPUT****

CARTESIAN COORDINATES (ANGSTROEM)
---------------------------------
  O      1.794470    0.923410    2.768350
  H      2.338250    1.359750    3.430940
  H      0.879480    1.303000    2.865760
  O      0.923410   -1.794470   -2.768350
  H      1.359750   -2.338250   -3.430940
  H      1.303000   -0.879480   -2.865760
  O     -1.752130   -0.741530   -2.896280
  H     -2.036450   -0.920500   -1.984040
  H     -0.921210   -1.242140   -2.984230
  O     -0.885520    1.737840    0.052730
  H     -1.032320    2.090180   -0.841890
  H     -1.284090    0.839590    0.017130
  O      0.885520   -1.737840    0.052730
  H      1.284090   -0.839590    0.017130
  H      1.032320   -2.090180   -0.841890
  O      1.737840    0.885520   -0.052730
  H      2.090180    1.032320    0.841890
  H      0.839590    1.284090   -0.017130
  O     -1.737840   -0.885520   -0.052730
  H     -2.090180   -1.032320    0.841890
  H     -0.839590   -1.284090   -0.017130
  O      0.741530   -1.752130    2.896280
  H      0.920500   -2.036450    1.984040
  H      1.242140   -0.921210    2.984230
  O     -0.923410    1.794470   -2.768350
  H     -1.359750    2.338250   -3.430940
  H     -1.303000    0.879480   -2.865760

 Total Charge           Charge          ....    0
 Multiplicity           Mult            ....    1
 Number of Electrons    NEL             ....   90
 Basis Dimension        Dim             ....  387

ORBITAL ENERGIES
----------------

  NO   OCC          E(Eh)            E(eV)
   0   2.0000     -20.617226      -561.0232
   1   2.0000     -20.604685      -560.6820
   2   2.0000     -20.572904      -559.8172
   3   2.0000     -20.556104      -559.3600
   4   2.0000     -20.555192      -559.3352
   5   2.0000     -20.538720      -558.8870
   6   2.0000     -20.535561      -558.8010
   7   2.0000     -20.530668      -558.6679
   8   2.0000     -20.511638      -558.1500
   9   2.0000      -1.397933       -38.0397
  10   2.0000      -1.385118       -37.6910
  11   2.0000      -1.367224       -37.2041
  12   2.0000      -1.350142       -36.7392
  13   2.0000      -1.343954       -36.5709
  14   2.0000      -1.329586       -36.1799
  15   2.0000      -1.320754       -35.9395
  16   2.0000      -1.309713       -35.6391
  17   2.0000      -1.296730       -35.2858
  18   2.0000      -0.763194       -20.7676
  19   2.0000      -0.750499       -20.4221
  20   2.0000      -0.729271       -19.8445
  21   2.0000      -0.718790       -19.5593
  22   2.0000      -0.714024       -19.4296
  23   2.0000      -0.704995       -19.1839
  24   2.0000      -0.697301       -18.9745
  25   2.0000      -0.693138       -18.8613
  26   2.0000      -0.675602       -18.3841
  27   2.0000      -0.645264       -17.5585
  28   2.0000      -0.627428       -17.0732
  29   2.0000      -0.619193       -16.8491
  30   2.0000      -0.601834       -16.3767
  31   2.0000      -0.589384       -16.0380
  32   2.0000      -0.583030       -15.8651
  33   2.0000      -0.572424       -15.5765
  34   2.0000      -0.558956       -15.2100
  35   2.0000      -0.543899       -14.8002
  36   2.0000      -0.537913       -14.6374
  37   2.0000      -0.524476       -14.2717
  38   2.0000      -0.512878       -13.9561
  39   2.0000      -0.503873       -13.7111
  40   2.0000      -0.498551       -13.5663
  41   2.0000      -0.487811       -13.2740
  42   2.0000      -0.485057       -13.1991
  43   2.0000      -0.477581       -12.9956
  44   2.0000      -0.461523       -12.5587
  45   0.0000       0.097296         2.6476
  46   0.0000       0.109904         2.9906
  47   0.0000       0.143902         3.9158
  48   0.0000       0.157049         4.2735
  49   0.0000       0.186099         5.0640

MULLIKEN ATOMIC CHARGES
-----------------------
   0 O :   -0.717949
   1 H :    0.362233
   2 H :    0.378388
   3 O :   -0.728419
   4 H :    0.367247
   5 H :    0.388419
   6 O :   -0.716156
   7 H :    0.387483
   8 H :    0.364232
   9 O :   -0.742692
  10 H :    0.379645
  11 H :    0.354116
  12 O :   -0.752589
  13 H :    0.361640
  14 H :    0.375971
  15 O :   -0.738179
  16 H :    0.369819
  17 H :    0.368911
  18 O :   -0.747593
  19 H :    0.365375
  20 H :    0.374001
  21 O :   -0.727907
  22 H :    0.368814
  23 H :    0.343462
  24 O :   -0.744149
  25 H :    0.335271
  26 H :    0.370607
Sum of atomic charges:   -0.0000000

LOEWDIN ATOMIC CHARGES
----------------------
   0 O :   -0.288254
   1 H :    0.166866
   2 H :    0.194713
   3 O :   -0.289200
   4 H :    0.169619
   5 H :    0.198541
   6 O :   -0.285185
   7 H :    0.157059
   8 H :    0.148287
   9 O :   -0.323475
  10 H :    0.150845
  11 H :    0.137402
  12 O :   -0.301194
  13 H :    0.141775
  14 H :    0.149103
  15 O :   -0.319847
  16 H :    0.146609
  17 H :    0.141640
  18 O :   -0.298696
  19 H :    0.173706
  20 H :    0.146099
  21 O :   -0.355882
  22 H :    0.148042
  23 H :    0.140394
  24 O :   -0.344824
  25 H :    0.152803
  26 H :    0.143055

  Mayer bond orders larger than 0.100000
B(  0-O ,  1-H ) :   0.8331 B(  0-O ,  2-H ) :   0.8144 B(  3-O ,  4-H ) :   0.8305
B(  3-O ,  5-H ) :   0.8065 B(  6-O ,  7-H ) :   0.8024 B(  6-O ,  8-H ) :   0.8124
B(  6-O , 26-H ) :   0.1114 B(  9-O , 10-H ) :   0.7973 B(  9-O , 11-H ) :   0.7878
B(  9-O , 17-H ) :   0.1136 B( 12-O , 13-H ) :   0.7452 B( 12-O , 14-H ) :   0.8093
B( 12-O , 20-H ) :   0.1106 B( 13-H , 15-O ) :   0.1292 B( 15-O , 16-H ) :   0.8163
B( 15-O , 17-H ) :   0.7613 B( 18-O , 19-H ) :   0.8300 B( 18-O , 20-H ) :   0.7483
B( 21-O , 22-H ) :   0.8220 B( 21-O , 23-H ) :   0.8338 B( 24-O , 25-H ) :   0.8514
B( 24-O , 26-H ) :   0.7503

MP2 TOTAL ENERGY:     -686.928495809 Eh
FINAL SINGLE POINT ENERGY      -686.928495808950

DIPOLE MOMENT
-------------
                                X             Y             Z
Electronic contribution:      0.05489      -0.25905      -0.10036
Nuclear contribution   :      0.71164       0.56846      -0.63259
                        -----------------------------------------
Total Dipole Moment    :      0.76653       0.30941      -0.73295
                        -----------------------------------------
Magnitude (a.u.)       :      1.10477
Magnitude (Debye)      :      2.80811

Rotational constants in cm-1:     0.031979     0.016853     0.014770
Rotational constants in MHz :   958.713204   505.249779   442.797512

                             ****ORCA TERMINATED NORMALLY****
TOTAL RUN TIME: 0 days 0 hours 5 minutes 14 seconds 2 msec
