                         Program Version 4.2.0 -  RELEASE  -
|  1> # 12mecn.remya.etal.2.mol3,10,11
|  2> ! MP2 def2-TZVP EnGrad TightSCF
|  3>
|  4> %pal
|  5>     nprocs 6
|  6> end
|  7>
|  8> %maxcore 8000
|  9>
| 10> %scf
| 11>     ConvForced true
| 12> end
| 13>
| 14> *xyz 0 1
| 15> C  -5.181310000   2.853865000  -1.626100000
| 16> H  -5.488260000   3.811434000  -2.053310000
| 17> H  -5.857590000   2.068112000  -1.968630000
| 18> H  -4.170750000   2.611402000  -1.966640000
| 19> C  -5.187260000   2.919160000  -0.181450000
| 20> N  -5.181700000   2.970641000   0.983640000
| 21> C   4.602033000   0.321019000  -1.784800000
| 22> H   4.827650000  -0.662160000  -2.207910000
| 23> H   5.320558000   1.057980000  -2.148500000
| 24> H   3.601982000   0.643751000  -2.087520000
| 25> C   4.654967000   0.244048000  -0.343060000
| 26> N   4.691648000   0.166590000   0.820757000
| 27> C   4.214163000   3.378139000   1.593627000
| 28> H   3.242643000   3.657109000   2.012358000
| 29> H   4.969258000   4.086643000   1.941290000
| 30> H   4.482966000   2.372549000   1.931698000
| 31> C   4.130759000   3.388436000   0.150192000
| 32> N   4.050180000   3.381449000  -1.013420000
| 33> *
| 34>
| 35>                          ****END OF INPUT****

CARTESIAN COORDINATES (ANGSTROEM)
---------------------------------
  C     -5.181310    2.853865   -1.626100
  H     -5.488260    3.811434   -2.053310
  H     -5.857590    2.068112   -1.968630
  H     -4.170750    2.611402   -1.966640
  C     -5.187260    2.919160   -0.181450
  N     -5.181700    2.970641    0.983640
  C      4.602033    0.321019   -1.784800
  H      4.827650   -0.662160   -2.207910
  H      5.320558    1.057980   -2.148500
  H      3.601982    0.643751   -2.087520
  C      4.654967    0.244048   -0.343060
  N      4.691648    0.166590    0.820757
  C      4.214163    3.378139    1.593627
  H      3.242643    3.657109    2.012358
  H      4.969258    4.086643    1.941290
  H      4.482966    2.372549    1.931698
  C      4.130759    3.388436    0.150192
  N      4.050180    3.381449   -1.013420

 Total Charge           Charge          ....    0
 Multiplicity           Mult            ....    1
 Number of Electrons    NEL             ....   66
 Basis Dimension        Dim             ....  333

ORBITAL ENERGIES
----------------

  NO   OCC          E(Eh)            E(eV)
   0   2.0000     -15.573317      -423.7715
   1   2.0000     -15.571388      -423.7190
   2   2.0000     -15.570783      -423.7026
   3   2.0000     -11.284983      -307.0800
   4   2.0000     -11.283160      -307.0304
   5   2.0000     -11.282966      -307.0251
   6   2.0000     -11.280322      -306.9532
   7   2.0000     -11.273116      -306.7571
   8   2.0000     -11.271398      -306.7103
   9   2.0000      -1.218618       -33.1603
  10   2.0000      -1.214944       -33.0603
  11   2.0000      -1.213761       -33.0281
  12   2.0000      -1.043852       -28.4047
  13   2.0000      -1.036654       -28.2088
  14   2.0000      -1.033464       -28.1220
  15   2.0000      -0.701275       -19.0827
  16   2.0000      -0.695140       -18.9157
  17   2.0000      -0.690720       -18.7954
  18   2.0000      -0.632601       -17.2139
  19   2.0000      -0.631909       -17.1951
  20   2.0000      -0.630319       -17.1519
  21   2.0000      -0.622366       -16.9354
  22   2.0000      -0.618656       -16.8345
  23   2.0000      -0.615896       -16.7594
  24   2.0000      -0.559352       -15.2207
  25   2.0000      -0.556198       -15.1349
  26   2.0000      -0.556126       -15.1330
  27   2.0000      -0.462787       -12.5931
  28   2.0000      -0.458973       -12.4893
  29   2.0000      -0.458285       -12.4706
  30   2.0000      -0.457766       -12.4565
  31   2.0000      -0.457359       -12.4454
  32   2.0000      -0.453469       -12.3395
  33   0.0000       0.119087         3.2405
  34   0.0000       0.126224         3.4347
  35   0.0000       0.145546         3.9605
  36   0.0000       0.171130         4.6567
  37   0.0000       0.171483         4.6663

MULLIKEN ATOMIC CHARGES
-----------------------
   0 C :   -0.280777
   1 H :    0.172536
   2 H :    0.172042
   3 H :    0.172510
   4 C :   -0.145538
   5 N :   -0.090773
   6 C :   -0.257921
   7 H :    0.171468
   8 H :    0.179515
   9 H :    0.174813
  10 C :   -0.118441
  11 N :   -0.148960
  12 C :   -0.287924
  13 H :    0.168048
  14 H :    0.166407
  15 H :    0.205845
  16 C :   -0.112999
  17 N :   -0.139852
Sum of atomic charges:    0.0000000

LOEWDIN ATOMIC CHARGES
----------------------
   0 C :   -0.283911
   1 H :    0.151536
   2 H :    0.151524
   3 H :    0.153205
   4 C :   -0.218801
   5 N :    0.046446
   6 C :   -0.284769
   7 H :    0.149987
   8 H :    0.155647
   9 H :    0.156830
  10 C :   -0.210094
  11 N :    0.029180
  12 C :   -0.282231
  13 H :    0.153229
  14 H :    0.150071
  15 H :    0.157459
  16 C :   -0.209058
  17 N :    0.033748

  Mayer bond orders larger than 0.100000
B(  0-C ,  1-H ) :   0.9161 B(  0-C ,  2-H ) :   0.9168 B(  0-C ,  3-H ) :   0.9166
B(  0-C ,  4-C ) :   0.9027 B(  4-C ,  5-N ) :   2.8371 B(  6-C ,  7-H ) :   0.9095
B(  6-C ,  8-H ) :   0.9122 B(  6-C ,  9-H ) :   0.9131 B(  6-C , 10-C ) :   0.9123
B( 10-C , 11-N ) :   2.7716 B( 12-C , 13-H ) :   0.9143 B( 12-C , 14-H ) :   0.9161
B( 12-C , 15-H ) :   0.9017 B( 12-C , 16-C ) :   0.9002 B( 16-C , 17-N ) :   2.7924

MP2 TOTAL ENERGY:     -397.459230408 Eh
FINAL SINGLE POINT ENERGY      -397.459230407645

DIPOLE MOMENT
-------------
                                X             Y             Z
Electronic contribution:     -0.07760      -0.00976       3.11075
Nuclear contribution   :      0.12225       0.02335      -4.63755
                        -----------------------------------------
Total Dipole Moment    :      0.04464       0.01359      -1.52680
                        -----------------------------------------
Magnitude (a.u.)       :      1.52751
Magnitude (Debye)      :      3.88263

Rotational constants in cm-1:     0.045804     0.006255     0.006018
Rotational constants in MHz :  1373.176528   187.516939   180.416126

                             ****ORCA TERMINATED NORMALLY****
TOTAL RUN TIME: 0 days 0 hours 2 minutes 51 seconds 381 msec
