                         Program Version 4.2.0 -  RELEASE  -
|  1> # 12mecn.remya.etal.2.mol0,3,9
|  2> ! MP2 def2-TZVP EnGrad TightSCF
|  3>
|  4> %pal
|  5>     nprocs 6
|  6> end
|  7>
|  8> %maxcore 8000
|  9>
| 10> %scf
| 11>     ConvForced true
| 12> end
| 13>
| 14> *xyz 0 1
| 15> C  -0.869520000  -3.929380000   1.700199000
| 16> H  -0.057420000  -3.268850000   2.015352000
| 17> H  -0.697530000  -4.930670000   2.101524000
| 18> H  -1.821490000  -3.546590000   2.077146000
| 19> C  -0.916080000  -3.969960000   0.256749000
| 20> N  -0.955390000  -3.995980000  -0.909290000
| 21> C  -5.181310000   2.853865000  -1.626100000
| 22> H  -5.488260000   3.811434000  -2.053310000
| 23> H  -5.857590000   2.068112000  -1.968630000
| 24> H  -4.170750000   2.611402000  -1.966640000
| 25> C  -5.187260000   2.919160000  -0.181450000
| 26> N  -5.181700000   2.970641000   0.983640000
| 27> C   0.923766000   4.000693000  -1.575910000
| 28> H   0.011949000   4.478423000  -1.939550000
| 29> H   0.947903000   2.966558000  -1.929960000
| 30> H   1.805950000   4.519548000  -1.956520000
| 31> C   0.942834000   3.994846000  -0.131200000
| 32> N   0.960035000   3.982544000   1.035639000
| 33> *
| 34>
| 35>                          ****END OF INPUT****

CARTESIAN COORDINATES (ANGSTROEM)
---------------------------------
  C     -0.869520   -3.929380    1.700199
  H     -0.057420   -3.268850    2.015352
  H     -0.697530   -4.930670    2.101524
  H     -1.821490   -3.546590    2.077146
  C     -0.916080   -3.969960    0.256749
  N     -0.955390   -3.995980   -0.909290
  C     -5.181310    2.853865   -1.626100
  H     -5.488260    3.811434   -2.053310
  H     -5.857590    2.068112   -1.968630
  H     -4.170750    2.611402   -1.966640
  C     -5.187260    2.919160   -0.181450
  N     -5.181700    2.970641    0.983640
  C      0.923766    4.000693   -1.575910
  H      0.011949    4.478423   -1.939550
  H      0.947903    2.966558   -1.929960
  H      1.805950    4.519548   -1.956520
  C      0.942834    3.994846   -0.131200
  N      0.960035    3.982544    1.035639

 Total Charge           Charge          ....    0
 Multiplicity           Mult            ....    1
 Number of Electrons    NEL             ....   66
 Basis Dimension        Dim             ....  333

ORBITAL ENERGIES
----------------

  NO   OCC          E(Eh)            E(eV)
   0   2.0000     -15.573599      -423.7792
   1   2.0000     -15.573523      -423.7771
   2   2.0000     -15.573207      -423.7685
   3   2.0000     -11.286336      -307.1168
   4   2.0000     -11.286156      -307.1119
   5   2.0000     -11.283357      -307.0358
   6   2.0000     -11.280638      -306.9618
   7   2.0000     -11.280246      -306.9511
   8   2.0000     -11.280160      -306.9488
   9   2.0000      -1.215012       -33.0622
  10   2.0000      -1.214726       -33.0544
  11   2.0000      -1.214475       -33.0476
  12   2.0000      -1.045470       -28.4487
  13   2.0000      -1.044893       -28.4330
  14   2.0000      -1.043152       -28.3856
  15   2.0000      -0.702217       -19.1083
  16   2.0000      -0.701540       -19.0899
  17   2.0000      -0.699131       -19.0243
  18   2.0000      -0.635579       -17.2950
  19   2.0000      -0.633795       -17.2464
  20   2.0000      -0.631630       -17.1875
  21   2.0000      -0.631427       -17.1820
  22   2.0000      -0.631120       -17.1736
  23   2.0000      -0.630435       -17.1550
  24   2.0000      -0.556431       -15.1413
  25   2.0000      -0.556090       -15.1320
  26   2.0000      -0.555823       -15.1247
  27   2.0000      -0.458410       -12.4740
  28   2.0000      -0.458065       -12.4646
  29   2.0000      -0.457826       -12.4581
  30   2.0000      -0.457798       -12.4573
  31   2.0000      -0.457697       -12.4546
  32   2.0000      -0.457270       -12.4430
  33   0.0000       0.103715         2.8222
  34   0.0000       0.121170         3.2972
  35   0.0000       0.126935         3.4541
  36   0.0000       0.165993         4.5169
  37   0.0000       0.170486         4.6392

MULLIKEN ATOMIC CHARGES
-----------------------
   0 C :   -0.277769
   1 H :    0.174232
   2 H :    0.171657
   3 H :    0.174343
   4 C :   -0.145916
   5 N :   -0.096547
   6 C :   -0.280679
   7 H :    0.172095
   8 H :    0.173886
   9 H :    0.168057
  10 C :   -0.145595
  11 N :   -0.087756
  12 C :   -0.281115
  13 H :    0.168467
  14 H :    0.173573
  15 H :    0.173016
  16 C :   -0.144720
  17 N :   -0.089228
Sum of atomic charges:    0.0000000

LOEWDIN ATOMIC CHARGES
----------------------
   0 C :   -0.282563
   1 H :    0.153764
   2 H :    0.151672
   3 H :    0.153906
   4 C :   -0.219141
   5 N :    0.042362
   6 C :   -0.284447
   7 H :    0.151063
   8 H :    0.152102
   9 H :    0.151789
  10 C :   -0.219390
  11 N :    0.048886
  12 C :   -0.284316
  13 H :    0.150202
  14 H :    0.153489
  15 H :    0.152135
  16 C :   -0.219865
  17 N :    0.048353

  Mayer bond orders larger than 0.100000
B(  0-C ,  1-H ) :   0.9156 B(  0-C ,  2-H ) :   0.9166 B(  0-C ,  3-H ) :   0.9156
B(  0-C ,  4-C ) :   0.9014 B(  4-C ,  5-N ) :   2.8399 B(  6-C ,  7-H ) :   0.9167
B(  6-C ,  8-H ) :   0.9164 B(  6-C ,  9-H ) :   0.9179 B(  6-C , 10-C ) :   0.9023
B( 10-C , 11-N ) :   2.8349 B( 12-C , 13-H ) :   0.9176 B( 12-C , 14-H ) :   0.9172
B( 12-C , 15-H ) :   0.9163 B( 12-C , 16-C ) :   0.9011 B( 16-C , 17-N ) :   2.8348

MP2 TOTAL ENERGY:     -397.449494210 Eh
FINAL SINGLE POINT ENERGY      -397.449494210366

DIPOLE MOMENT
-------------
                                X             Y             Z
Electronic contribution:     -0.09009       0.07657       3.18511
Nuclear contribution   :      0.12230      -0.10370      -4.66060
                        -----------------------------------------
Total Dipole Moment    :      0.03221      -0.02713      -1.47549
                        -----------------------------------------
Magnitude (a.u.)       :      1.47609
Magnitude (Debye)      :      3.75193

Rotational constants in cm-1:     0.017624     0.009783     0.007131
Rotational constants in MHz :   528.346622   293.292264   213.794995

                             ****ORCA TERMINATED NORMALLY****
TOTAL RUN TIME: 0 days 0 hours 1 minutes 56 seconds 48 msec
