                         Program Version 4.2.0 -  RELEASE  -
|  1> # 12h2o.su.etal.mol1,3,5,7,8,10
|  2> ! MP2 def2-TZVP EnGrad TightSCF
|  3>
|  4> %pal
|  5>     nprocs 6
|  6> end
|  7>
|  8> %maxcore 8000
|  9>
| 10> %scf
| 11>     ConvForced true
| 12> end
| 13>
| 14> *xyz 0 1
| 15> O  -1.794470000  -0.923410000   2.768350000
| 16> H  -2.338250000  -1.359750000   3.430940000
| 17> H  -0.879480000  -1.303000000   2.865760000
| 18> O  -1.752130000  -0.741530000  -2.896280000
| 19> H  -2.036450000  -0.920500000  -1.984040000
| 20> H  -0.921210000  -1.242140000  -2.984230000
| 21> O   0.885520000  -1.737840000   0.052730000
| 22> H   1.284090000  -0.839590000   0.017130000
| 23> H   1.032320000  -2.090180000  -0.841890000
| 24> O  -1.737840000  -0.885520000  -0.052730000
| 25> H  -2.090180000  -1.032320000   0.841890000
| 26> H  -0.839590000  -1.284090000  -0.017130000
| 27> O   1.752130000   0.741530000  -2.896280000
| 28> H   2.036450000   0.920500000  -1.984040000
| 29> H   0.921210000   1.242140000  -2.984230000
| 30> O  -0.923410000   1.794470000  -2.768350000
| 31> H  -1.359750000   2.338250000  -3.430940000
| 32> H  -1.303000000   0.879480000  -2.865760000
| 33> *
| 34>
| 35>                          ****END OF INPUT****

CARTESIAN COORDINATES (ANGSTROEM)
---------------------------------
  O     -1.794470   -0.923410    2.768350
  H     -2.338250   -1.359750    3.430940
  H     -0.879480   -1.303000    2.865760
  O     -1.752130   -0.741530   -2.896280
  H     -2.036450   -0.920500   -1.984040
  H     -0.921210   -1.242140   -2.984230
  O      0.885520   -1.737840    0.052730
  H      1.284090   -0.839590    0.017130
  H      1.032320   -2.090180   -0.841890
  O     -1.737840   -0.885520   -0.052730
  H     -2.090180   -1.032320    0.841890
  H     -0.839590   -1.284090   -0.017130
  O      1.752130    0.741530   -2.896280
  H      2.036450    0.920500   -1.984040
  H      0.921210    1.242140   -2.984230
  O     -0.923410    1.794470   -2.768350
  H     -1.359750    2.338250   -3.430940
  H     -1.303000    0.879480   -2.865760

 Total Charge           Charge          ....    0
 Multiplicity           Mult            ....    1
 Number of Electrons    NEL             ....   60
 Basis Dimension        Dim             ....  258

ORBITAL ENERGIES
----------------

  NO   OCC          E(Eh)            E(eV)
   0   2.0000     -20.607477      -560.7580
   1   2.0000     -20.590005      -560.2825
   2   2.0000     -20.563349      -559.5572
   3   2.0000     -20.538264      -558.8746
   4   2.0000     -20.531890      -558.7011
   5   2.0000     -20.531014      -558.6773
   6   2.0000      -1.388097       -37.7720
   7   2.0000      -1.367863       -37.2215
   8   2.0000      -1.353892       -36.8413
   9   2.0000      -1.323650       -36.0183
  10   2.0000      -1.316930       -35.8355
  11   2.0000      -1.310461       -35.6595
  12   2.0000      -0.746285       -20.3075
  13   2.0000      -0.734794       -19.9948
  14   2.0000      -0.714653       -19.4467
  15   2.0000      -0.699878       -19.0446
  16   2.0000      -0.697455       -18.9787
  17   2.0000      -0.685386       -18.6503
  18   2.0000      -0.631841       -17.1933
  19   2.0000      -0.608203       -16.5500
  20   2.0000      -0.600836       -16.3496
  21   2.0000      -0.577174       -15.7057
  22   2.0000      -0.565858       -15.3978
  23   2.0000      -0.546499       -14.8710
  24   2.0000      -0.536562       -14.6006
  25   2.0000      -0.522562       -14.2196
  26   2.0000      -0.501068       -13.6348
  27   2.0000      -0.487226       -13.2581
  28   2.0000      -0.483370       -13.1532
  29   2.0000      -0.478885       -13.0311
  30   0.0000       0.085659         2.3309
  31   0.0000       0.115793         3.1509
  32   0.0000       0.142133         3.8676
  33   0.0000       0.160186         4.3589
  34   0.0000       0.181919         4.9503

MULLIKEN ATOMIC CHARGES
-----------------------
   0 O :   -0.692990
   1 H :    0.349997
   2 H :    0.356736
   3 O :   -0.700314
   4 H :    0.392966
   5 H :    0.336631
   6 O :   -0.683005
   7 H :    0.358803
   8 H :    0.360078
   9 O :   -0.740548
  10 H :    0.371634
  11 H :    0.336334
  12 O :   -0.710912
  13 H :    0.315181
  14 H :    0.367954
  15 O :   -0.739507
  16 H :    0.335061
  17 H :    0.385901
Sum of atomic charges:    0.0000000

LOEWDIN ATOMIC CHARGES
----------------------
   0 O :   -0.309725
   1 H :    0.162609
   2 H :    0.185932
   3 O :   -0.277697
   4 H :    0.160661
   5 H :    0.163554
   6 O :   -0.289614
   7 H :    0.179286
   8 H :    0.173085
   9 O :   -0.346905
  10 H :    0.150971
  11 H :    0.135998
  12 O :   -0.349526
  13 H :    0.151741
  14 H :    0.149926
  15 O :   -0.339848
  16 H :    0.152965
  17 H :    0.146587

  Mayer bond orders larger than 0.100000
B(  0-O ,  1-H ) :   0.8431 B(  0-O ,  2-H ) :   0.8332 B(  3-O ,  4-H ) :   0.7862
B(  3-O ,  5-H ) :   0.8468 B(  6-O ,  7-H ) :   0.8317 B(  6-O ,  8-H ) :   0.8352
B(  9-O , 10-H ) :   0.8141 B(  9-O , 11-H ) :   0.7969 B( 12-O , 13-H ) :   0.8643
B( 12-O , 14-H ) :   0.7939 B( 15-O , 16-H ) :   0.8516 B( 15-O , 17-H ) :   0.7542

MP2 TOTAL ENERGY:     -457.924113622 Eh
FINAL SINGLE POINT ENERGY      -457.924113622230

DIPOLE MOMENT
-------------
                                X             Y             Z
Electronic contribution:     -0.24020      -0.11067       0.17947
Nuclear contribution   :      0.53817      -0.98768       1.37221
                        -----------------------------------------
Total Dipole Moment    :      0.29797      -1.09834       1.55168
                        -----------------------------------------
Magnitude (a.u.)       :      1.92428
Magnitude (Debye)      :      4.89114

Rotational constants in cm-1:     0.062740     0.025244     0.021819
Rotational constants in MHz :  1880.911724   756.806684   654.114953

                             ****ORCA TERMINATED NORMALLY****
TOTAL RUN TIME: 0 days 0 hours 1 minutes 2 seconds 373 msec
