                         Program Version 4.2.0 -  RELEASE  -
|  1> # 12h2o.su.etal.mol2,3,4,8,10,11
|  2> ! MP2 def2-TZVP EnGrad TightSCF
|  3>
|  4> %pal
|  5>     nprocs 6
|  6> end
|  7>
|  8> %maxcore 8000
|  9>
| 10> %scf
| 11>     ConvForced true
| 12> end
| 13>
| 14> *xyz 0 1
| 15> O   0.923410000  -1.794470000  -2.768350000
| 16> H   1.359750000  -2.338250000  -3.430940000
| 17> H   1.303000000  -0.879480000  -2.865760000
| 18> O  -1.752130000  -0.741530000  -2.896280000
| 19> H  -2.036450000  -0.920500000  -1.984040000
| 20> H  -0.921210000  -1.242140000  -2.984230000
| 21> O  -0.885520000   1.737840000   0.052730000
| 22> H  -1.032320000   2.090180000  -0.841890000
| 23> H  -1.284090000   0.839590000   0.017130000
| 24> O   1.752130000   0.741530000  -2.896280000
| 25> H   2.036450000   0.920500000  -1.984040000
| 26> H   0.921210000   1.242140000  -2.984230000
| 27> O  -0.923410000   1.794470000  -2.768350000
| 28> H  -1.359750000   2.338250000  -3.430940000
| 29> H  -1.303000000   0.879480000  -2.865760000
| 30> O  -0.741530000   1.752130000   2.896280000
| 31> H  -0.920500000   2.036450000   1.984040000
| 32> H  -1.242140000   0.921210000   2.984230000
| 33> *
| 34>
| 35>                          ****END OF INPUT****

CARTESIAN COORDINATES (ANGSTROEM)
---------------------------------
  O      0.923410   -1.794470   -2.768350
  H      1.359750   -2.338250   -3.430940
  H      1.303000   -0.879480   -2.865760
  O     -1.752130   -0.741530   -2.896280
  H     -2.036450   -0.920500   -1.984040
  H     -0.921210   -1.242140   -2.984230
  O     -0.885520    1.737840    0.052730
  H     -1.032320    2.090180   -0.841890
  H     -1.284090    0.839590    0.017130
  O      1.752130    0.741530   -2.896280
  H      2.036450    0.920500   -1.984040
  H      0.921210    1.242140   -2.984230
  O     -0.923410    1.794470   -2.768350
  H     -1.359750    2.338250   -3.430940
  H     -1.303000    0.879480   -2.865760
  O     -0.741530    1.752130    2.896280
  H     -0.920500    2.036450    1.984040
  H     -1.242140    0.921210    2.984230

 Total Charge           Charge          ....    0
 Multiplicity           Mult            ....    1
 Number of Electrons    NEL             ....   60
 Basis Dimension        Dim             ....  258

ORBITAL ENERGIES
----------------

  NO   OCC          E(Eh)            E(eV)
   0   2.0000     -20.591822      -560.3320
   1   2.0000     -20.583994      -560.1190
   2   2.0000     -20.578635      -559.9731
   3   2.0000     -20.568896      -559.7081
   4   2.0000     -20.557529      -559.3988
   5   2.0000     -20.527425      -558.5796
   6   2.0000      -1.387649       -37.7599
   7   2.0000      -1.370569       -37.2951
   8   2.0000      -1.364632       -37.1335
   9   2.0000      -1.349171       -36.7128
  10   2.0000      -1.337885       -36.4057
  11   2.0000      -1.309191       -35.6249
  12   2.0000      -0.750654       -20.4263
  13   2.0000      -0.743193       -20.2233
  14   2.0000      -0.728120       -19.8131
  15   2.0000      -0.721000       -19.6194
  16   2.0000      -0.718977       -19.5644
  17   2.0000      -0.677601       -18.4385
  18   2.0000      -0.644627       -17.5412
  19   2.0000      -0.612681       -16.6719
  20   2.0000      -0.608417       -16.5559
  21   2.0000      -0.593246       -16.1431
  22   2.0000      -0.572310       -15.5733
  23   2.0000      -0.547008       -14.8848
  24   2.0000      -0.534337       -14.5400
  25   2.0000      -0.529440       -14.4068
  26   2.0000      -0.518896       -14.1199
  27   2.0000      -0.513154       -13.9636
  28   2.0000      -0.508179       -13.8283
  29   2.0000      -0.473849       -12.8941
  30   0.0000       0.086761         2.3609
  31   0.0000       0.132194         3.5972
  32   0.0000       0.142575         3.8797
  33   0.0000       0.153598         4.1796
  34   0.0000       0.168359         4.5813

MULLIKEN ATOMIC CHARGES
-----------------------
   0 O :   -0.745273
   1 H :    0.344865
   2 H :    0.380037
   3 O :   -0.702805
   4 H :    0.346136
   5 H :    0.384484
   6 O :   -0.703503
   7 H :    0.377572
   8 H :    0.315916
   9 O :   -0.708688
  10 H :    0.361869
  11 H :    0.378007
  12 O :   -0.758395
  13 H :    0.356234
  14 H :    0.381672
  15 O :   -0.693765
  16 H :    0.371741
  17 H :    0.313897
Sum of atomic charges:   -0.0000000

LOEWDIN ATOMIC CHARGES
----------------------
   0 O :   -0.341440
   1 H :    0.157460
   2 H :    0.145056
   3 O :   -0.279057
   4 H :    0.166361
   5 H :    0.156930
   6 O :   -0.323897
   7 H :    0.152647
   8 H :    0.160579
   9 O :   -0.281839
  10 H :    0.174648
  11 H :    0.153438
  12 O :   -0.315027
  13 H :    0.161886
  14 H :    0.145352
  15 O :   -0.340957
  16 H :    0.152432
  17 H :    0.155429

  Mayer bond orders larger than 0.100000
B(  0-O ,  1-H ) :   0.8463 B(  0-O ,  2-H ) :   0.7488 B(  2-H ,  9-O ) :   0.1087
B(  3-O ,  4-H ) :   0.8443 B(  3-O ,  5-H ) :   0.7731 B(  3-O , 14-H ) :   0.1135
B(  6-O ,  7-H ) :   0.8021 B(  6-O ,  8-H ) :   0.8558 B(  9-O , 10-H ) :   0.8341
B(  9-O , 11-H ) :   0.7925 B( 12-O , 13-H ) :   0.8374 B( 12-O , 14-H ) :   0.7340
B( 15-O , 16-H ) :   0.8181 B( 15-O , 17-H ) :   0.8661

MP2 TOTAL ENERGY:     -457.936812306 Eh
FINAL SINGLE POINT ENERGY      -457.936812306029

DIPOLE MOMENT
-------------
                                X             Y             Z
Electronic contribution:      0.26201       0.18454      -0.20758
Nuclear contribution   :     -1.01960      -0.90936      -1.35336
                        -----------------------------------------
Total Dipole Moment    :     -0.75759      -0.72482      -1.56094
                        -----------------------------------------
Magnitude (a.u.)       :      1.88038
Magnitude (Debye)      :      4.77955

Rotational constants in cm-1:     0.062300     0.022862     0.022228
Rotational constants in MHz :  1867.697310   685.396106   666.373096

                             ****ORCA TERMINATED NORMALLY****
TOTAL RUN TIME: 0 days 0 hours 1 minutes 7 seconds 537 msec
