                         Program Version 4.2.0 -  RELEASE  -
|  1> # 12h2o.su.etal.mol0,1,2,9,10,11
|  2> ! MP2 def2-TZVP EnGrad TightSCF
|  3>
|  4> %pal
|  5>     nprocs 6
|  6> end
|  7>
|  8> %maxcore 8000
|  9>
| 10> %scf
| 11>     ConvForced true
| 12> end
| 13>
| 14> *xyz 0 1
| 15> O   1.794470000   0.923410000   2.768350000
| 16> H   2.338250000   1.359750000   3.430940000
| 17> H   0.879480000   1.303000000   2.865760000
| 18> O  -1.794470000  -0.923410000   2.768350000
| 19> H  -2.338250000  -1.359750000   3.430940000
| 20> H  -0.879480000  -1.303000000   2.865760000
| 21> O   0.923410000  -1.794470000  -2.768350000
| 22> H   1.359750000  -2.338250000  -3.430940000
| 23> H   1.303000000  -0.879480000  -2.865760000
| 24> O   0.741530000  -1.752130000   2.896280000
| 25> H   0.920500000  -2.036450000   1.984040000
| 26> H   1.242140000  -0.921210000   2.984230000
| 27> O  -0.923410000   1.794470000  -2.768350000
| 28> H  -1.359750000   2.338250000  -3.430940000
| 29> H  -1.303000000   0.879480000  -2.865760000
| 30> O  -0.741530000   1.752130000   2.896280000
| 31> H  -0.920500000   2.036450000   1.984040000
| 32> H  -1.242140000   0.921210000   2.984230000
| 33> *
| 34>
| 35>                          ****END OF INPUT****

CARTESIAN COORDINATES (ANGSTROEM)
---------------------------------
  O      1.794470    0.923410    2.768350
  H      2.338250    1.359750    3.430940
  H      0.879480    1.303000    2.865760
  O     -1.794470   -0.923410    2.768350
  H     -2.338250   -1.359750    3.430940
  H     -0.879480   -1.303000    2.865760
  O      0.923410   -1.794470   -2.768350
  H      1.359750   -2.338250   -3.430940
  H      1.303000   -0.879480   -2.865760
  O      0.741530   -1.752130    2.896280
  H      0.920500   -2.036450    1.984040
  H      1.242140   -0.921210    2.984230
  O     -0.923410    1.794470   -2.768350
  H     -1.359750    2.338250   -3.430940
  H     -1.303000    0.879480   -2.865760
  O     -0.741530    1.752130    2.896280
  H     -0.920500    2.036450    1.984040
  H     -1.242140    0.921210    2.984230

 Total Charge           Charge          ....    0
 Multiplicity           Mult            ....    1
 Number of Electrons    NEL             ....   60
 Basis Dimension        Dim             ....  258

ORBITAL ENERGIES
----------------

  NO   OCC          E(Eh)            E(eV)
   0   2.0000     -20.565237      -559.6085
   1   2.0000     -20.565236      -559.6085
   2   2.0000     -20.561580      -559.5090
   3   2.0000     -20.561580      -559.5090
   4   2.0000     -20.541122      -558.9524
   5   2.0000     -20.541122      -558.9523
   6   2.0000      -1.357118       -36.9290
   7   2.0000      -1.349854       -36.7314
   8   2.0000      -1.340758       -36.4839
   9   2.0000      -1.340360       -36.4731
  10   2.0000      -1.325369       -36.0651
  11   2.0000      -1.318459       -35.8771
  12   2.0000      -0.716578       -19.4991
  13   2.0000      -0.714293       -19.4369
  14   2.0000      -0.710267       -19.3274
  15   2.0000      -0.707240       -19.2450
  16   2.0000      -0.704610       -19.1734
  17   2.0000      -0.700802       -19.0698
  18   2.0000      -0.614505       -16.7215
  19   2.0000      -0.587956       -15.9991
  20   2.0000      -0.577255       -15.7079
  21   2.0000      -0.576542       -15.6885
  22   2.0000      -0.573812       -15.6142
  23   2.0000      -0.549557       -14.9542
  24   2.0000      -0.509646       -13.8682
  25   2.0000      -0.507611       -13.8128
  26   2.0000      -0.502285       -13.6679
  27   2.0000      -0.502203       -13.6656
  28   2.0000      -0.492072       -13.3900
  29   2.0000      -0.490516       -13.3476
  30   0.0000       0.110268         3.0006
  31   0.0000       0.130073         3.5395
  32   0.0000       0.140855         3.8329
  33   0.0000       0.163259         4.4425
  34   0.0000       0.171154         4.6573

MULLIKEN ATOMIC CHARGES
-----------------------
   0 O :   -0.741966
   1 H :    0.339132
   2 H :    0.379397
   3 O :   -0.741966
   4 H :    0.339132
   5 H :    0.379397
   6 O :   -0.690043
   7 H :    0.339250
   8 H :    0.350955
   9 O :   -0.711521
  10 H :    0.357412
  11 H :    0.377383
  12 O :   -0.690043
  13 H :    0.339250
  14 H :    0.350955
  15 O :   -0.711521
  16 H :    0.357412
  17 H :    0.377383
Sum of atomic charges:   -0.0000000

LOEWDIN ATOMIC CHARGES
----------------------
   0 O :   -0.341302
   1 H :    0.154649
   2 H :    0.145198
   3 O :   -0.341302
   4 H :    0.154649
   5 H :    0.145198
   6 O :   -0.341375
   7 H :    0.158231
   8 H :    0.183233
   9 O :   -0.285593
  10 H :    0.172851
  11 H :    0.154107
  12 O :   -0.341375
  13 H :    0.158231
  14 H :    0.183233
  15 O :   -0.285593
  16 H :    0.172851
  17 H :    0.154107

  Mayer bond orders larger than 0.100000
B(  0-O ,  1-H ) :   0.8495 B(  0-O ,  2-H ) :   0.7491 B(  2-H , 15-O ) :   0.1092
B(  3-O ,  4-H ) :   0.8495 B(  3-O ,  5-H ) :   0.7491 B(  5-H ,  9-O ) :   0.1092
B(  6-O ,  7-H ) :   0.8526 B(  6-O ,  8-H ) :   0.8383 B(  9-O , 10-H ) :   0.8380
B(  9-O , 11-H ) :   0.7820 B( 12-O , 13-H ) :   0.8526 B( 12-O , 14-H ) :   0.8383
B( 15-O , 16-H ) :   0.8380 B( 15-O , 17-H ) :   0.7820

MP2 TOTAL ENERGY:     -457.925415759 Eh
FINAL SINGLE POINT ENERGY      -457.925415759292

DIPOLE MOMENT
-------------
                                X             Y             Z
Electronic contribution:      0.00000       0.00000       0.18323
Nuclear contribution   :      0.00000      -0.00000      -1.37221
                        -----------------------------------------
Total Dipole Moment    :      0.00000       0.00000      -1.18898
                        -----------------------------------------
Magnitude (a.u.)       :      1.18898
Magnitude (Debye)      :      3.02214

Rotational constants in cm-1:     0.039129     0.018343     0.016096
Rotational constants in MHz :  1173.051784   549.908727   482.539759

                             ****ORCA TERMINATED NORMALLY****
TOTAL RUN TIME: 0 days 0 hours 0 minutes 57 seconds 874 msec
