                         Program Version 4.2.0 -  RELEASE  -
|  1> # 12h2o.su.etal.mol0,1,4,6,9,11
|  2> ! MP2 def2-TZVP EnGrad TightSCF
|  3>
|  4> %pal
|  5>     nprocs 6
|  6> end
|  7>
|  8> %maxcore 8000
|  9>
| 10> %scf
| 11>     ConvForced true
| 12> end
| 13>
| 14> *xyz 0 1
| 15> O   1.794470000   0.923410000   2.768350000
| 16> H   2.338250000   1.359750000   3.430940000
| 17> H   0.879480000   1.303000000   2.865760000
| 18> O  -1.794470000  -0.923410000   2.768350000
| 19> H  -2.338250000  -1.359750000   3.430940000
| 20> H  -0.879480000  -1.303000000   2.865760000
| 21> O  -0.885520000   1.737840000   0.052730000
| 22> H  -1.032320000   2.090180000  -0.841890000
| 23> H  -1.284090000   0.839590000   0.017130000
| 24> O   1.737840000   0.885520000  -0.052730000
| 25> H   2.090180000   1.032320000   0.841890000
| 26> H   0.839590000   1.284090000  -0.017130000
| 27> O   0.741530000  -1.752130000   2.896280000
| 28> H   0.920500000  -2.036450000   1.984040000
| 29> H   1.242140000  -0.921210000   2.984230000
| 30> O  -0.741530000   1.752130000   2.896280000
| 31> H  -0.920500000   2.036450000   1.984040000
| 32> H  -1.242140000   0.921210000   2.984230000
| 33> *
| 34>
| 35>                          ****END OF INPUT****

CARTESIAN COORDINATES (ANGSTROEM)
---------------------------------
  O      1.794470    0.923410    2.768350
  H      2.338250    1.359750    3.430940
  H      0.879480    1.303000    2.865760
  O     -1.794470   -0.923410    2.768350
  H     -2.338250   -1.359750    3.430940
  H     -0.879480   -1.303000    2.865760
  O     -0.885520    1.737840    0.052730
  H     -1.032320    2.090180   -0.841890
  H     -1.284090    0.839590    0.017130
  O      1.737840    0.885520   -0.052730
  H      2.090180    1.032320    0.841890
  H      0.839590    1.284090   -0.017130
  O      0.741530   -1.752130    2.896280
  H      0.920500   -2.036450    1.984040
  H      1.242140   -0.921210    2.984230
  O     -0.741530    1.752130    2.896280
  H     -0.920500    2.036450    1.984040
  H     -1.242140    0.921210    2.984230

 Total Charge           Charge          ....    0
 Multiplicity           Mult            ....    1
 Number of Electrons    NEL             ....   60
 Basis Dimension        Dim             ....  258

ORBITAL ENERGIES
----------------

  NO   OCC          E(Eh)            E(eV)
   0   2.0000     -20.613195      -560.9135
   1   2.0000     -20.569918      -559.7359
   2   2.0000     -20.560542      -559.4808
   3   2.0000     -20.556561      -559.3725
   4   2.0000     -20.552966      -559.2746
   5   2.0000     -20.507092      -558.0264
   6   2.0000      -1.396357       -37.9968
   7   2.0000      -1.365237       -37.1500
   8   2.0000      -1.353993       -36.8440
   9   2.0000      -1.341122       -36.4938
  10   2.0000      -1.330251       -36.1980
  11   2.0000      -1.291540       -35.1446
  12   2.0000      -0.755076       -20.5467
  13   2.0000      -0.728927       -19.8351
  14   2.0000      -0.722357       -19.6563
  15   2.0000      -0.717180       -19.5154
  16   2.0000      -0.710288       -19.3279
  17   2.0000      -0.678729       -18.4692
  18   2.0000      -0.642845       -17.4927
  19   2.0000      -0.616685       -16.7808
  20   2.0000      -0.596843       -16.2409
  21   2.0000      -0.586417       -15.9572
  22   2.0000      -0.572612       -15.5816
  23   2.0000      -0.551776       -15.0146
  24   2.0000      -0.525061       -14.2876
  25   2.0000      -0.511179       -13.9099
  26   2.0000      -0.504484       -13.7277
  27   2.0000      -0.502511       -13.6740
  28   2.0000      -0.499636       -13.5958
  29   2.0000      -0.457845       -12.4586
  30   0.0000       0.100991         2.7481
  31   0.0000       0.134071         3.6483
  32   0.0000       0.151280         4.1165
  33   0.0000       0.169824         4.6212
  34   0.0000       0.192168         5.2291

MULLIKEN ATOMIC CHARGES
-----------------------
   0 O :   -0.755346
   1 H :    0.348037
   2 H :    0.381389
   3 O :   -0.749438
   4 H :    0.344045
   5 H :    0.380253
   6 O :   -0.713348
   7 H :    0.369485
   8 H :    0.374411
   9 O :   -0.733472
  10 H :    0.361185
  11 H :    0.335576
  12 O :   -0.710898
  13 H :    0.358001
  14 H :    0.380459
  15 O :   -0.722496
  16 H :    0.381901
  17 H :    0.370255
Sum of atomic charges:    0.0000000

LOEWDIN ATOMIC CHARGES
----------------------
   0 O :   -0.315653
   1 H :    0.157781
   2 H :    0.145753
   3 O :   -0.344721
   4 H :    0.157020
   5 H :    0.145021
   6 O :   -0.278599
   7 H :    0.178552
   8 H :    0.185905
   9 O :   -0.370796
  10 H :    0.143237
  11 H :    0.132943
  12 O :   -0.283449
  13 H :    0.172697
  14 H :    0.154516
  15 O :   -0.285829
  16 H :    0.155144
  17 H :    0.150478

  Mayer bond orders larger than 0.100000
B(  0-O ,  1-H ) :   0.8414 B(  0-O ,  2-H ) :   0.7291 B(  2-H , 15-O ) :   0.1205
B(  3-O ,  4-H ) :   0.8470 B(  3-O ,  5-H ) :   0.7465 B(  5-H , 12-O ) :   0.1118
B(  6-O ,  7-H ) :   0.8287 B(  6-O ,  8-H ) :   0.8190 B(  9-O , 10-H ) :   0.8232
B(  9-O , 11-H ) :   0.8231 B( 12-O , 13-H ) :   0.8358 B( 12-O , 14-H ) :   0.7859
B( 15-O , 16-H ) :   0.8118 B( 15-O , 17-H ) :   0.7895

MP2 TOTAL ENERGY:     -457.944859238 Eh
FINAL SINGLE POINT ENERGY      -457.944859238031

DIPOLE MOMENT
-------------
                                X             Y             Z
Electronic contribution:     -0.07060       0.06138       0.03643
Nuclear contribution   :     -0.90834      -0.00045      -0.10702
                        -----------------------------------------
Total Dipole Moment    :     -0.97894       0.06093      -0.07060
                        -----------------------------------------
Magnitude (a.u.)       :      0.98338
Magnitude (Debye)      :      2.49954

Rotational constants in cm-1:     0.055826     0.042929     0.034435
Rotational constants in MHz :  1673.628454  1286.968297  1032.333668

                             ****ORCA TERMINATED NORMALLY****
TOTAL RUN TIME: 0 days 0 hours 1 minutes 18 seconds 718 msec
