                         Program Version 3.0.3 - RELEASE   -
|  1> ! BP86 Def2-SVP TightSCF Opt D3BJ COSMO
|  2>
|  3> %pal nprocs 12 end
|  4>
|  5> %scf
|  6>         maxiter 800
|  7> end
|  8>
|  9> %cosmo
| 10> 	SMD true
| 11>         solvent "WATER"
| 12> end
| 13>
| 14> * xyz  0  1
| 15> O  3.25485269	0.95705451	-3.22318125
| 16> H  3.71202159	1.41409700	-3.92911368
| 17> H  2.64815113	0.36818470	-3.67193220
| 18> O  -2.31356970	0.59810890	-0.33838569
| 19> H  -3.12657429	0.78366328	0.13153448
| 20> H  -1.68730221	1.23561964	0.00454421
| 21> O  -0.43612135	-0.07251370	-2.29476721
| 22> H  -1.26169656	0.15510007	-1.86715828
| 23> H  0.19168933	0.56833056	-1.96099448
| 24> O  1.47599056	-0.81433812	-4.19990567
| 25> H  1.73913943	-1.65532219	-3.82610049
| 26> H  0.65621586	-0.59982351	-3.75472619
| 27> O  2.40065339	-2.97253797	-2.70181656
| 28> H  3.07324562	-2.40714976	-2.32209599
| 29> H  2.87297181	-3.76083932	-2.96963765
| 30> O  -4.26101582	1.17570977	1.54177457
| 31> H  -5.12281008	1.59221405	1.54994049
| 32> H  -3.67911862	1.82029324	1.94444025
| 33> O  0.36065099	0.09786891	2.38437456
| 34> H  -0.05934199	0.35171960	3.20620032
| 35> H  -0.22982812	-0.55239509	2.00394979
| 36> O  -3.14071730	-0.79843832	3.14989654
| 37> H  -2.63160615	-1.29467445	2.50896956
| 38> H  -3.68593243	-0.21425502	2.62292198
| 39> O  -1.39873267	0.84126915	4.38764945
| 40> H  -2.04326236	0.21900536	4.05060184
| 41> H  -1.45288381	0.75118932	5.33906162
| 42> O  1.48136514	1.50787220	-1.17250806
| 43> H  2.12545031	1.54645043	-1.87954261
| 44> H  1.82192869	0.84335263	-0.57362404
| 45> O  -2.39398225	2.77085155	2.64852076
| 46> H  -1.68269803	2.83217934	2.01091155
| 47> H  -2.02976385	2.25117072	3.36511594
| 48> O  -1.39654802	-1.53098974	1.08940145
| 49> H  -0.84482961	-2.04108315	0.49640621
| 50> H  -1.78580779	-0.85573099	0.53376282
| 51> O  -0.39457875	2.16931076	0.78708677
| 52> H  -0.04828293	1.50936429	1.38773784
| 53> H  0.27169084	2.24534246	0.10405247
| 54> O  4.06774475	-1.16131270	-1.60799717
| 55> H  3.66246536	-0.93924608	-0.76974489
| 56> H  3.95854468	-0.37519403	-2.14309027
| 57> O  2.22867632	-0.56629803	0.41680009
| 58> H  1.83633448	-0.35987751	1.26514572
| 59> H  1.64559517	-1.22308270	0.03616626
| 60> O  0.47171135	-2.20388936	-0.87362929
| 61> H  1.06027397	-2.68175344	-1.45798518
| 62> H  0.08615776	-1.52333656	-1.42537937
| 63> **                         ****END OF INPUT****
 Total Charge           Charge          ....    0
 Multiplicity           Mult            ....    1
 Number of Electrons    NEL             ....  160
Dispersion correction           -0.054926639
FINAL SINGLE POINT ENERGY     -1222.246463322140
Dispersion correction            ...
Dispersion correction           -0.054236458
FINAL SINGLE POINT ENERGY     -1222.277273137370
Dispersion correction            ...
Dispersion correction           -0.054457532
FINAL SINGLE POINT ENERGY     -1222.286452984762
Dispersion correction            ...
FINAL SINGLE POINT ENERGY     -1222.290054640012
FINAL SINGLE POINT ENERGY     -1222.292813618944
FINAL SINGLE POINT ENERGY     -1222.295076974367
FINAL SINGLE POINT ENERGY     -1222.296787718083
FINAL SINGLE POINT ENERGY     -1222.297966259498
FINAL SINGLE POINT ENERGY     -1222.311759741538
FINAL SINGLE POINT ENERGY     -1222.298997320117
FINAL SINGLE POINT ENERGY     -1222.300948331268
FINAL SINGLE POINT ENERGY     -1222.300938663831
FINAL SINGLE POINT ENERGY     -1222.300953472369
FINAL SINGLE POINT ENERGY     -1222.300935262467
FINAL SINGLE POINT ENERGY     -1222.300923465092
FINAL SINGLE POINT ENERGY     -1222.300925405461
FINAL SINGLE POINT ENERGY     -1222.300915681812
Dispersion correction            ...
Dispersion correction           -0.058721170
FINAL SINGLE POINT ENERGY     -1222.300913804792
Dispersion correction            ...
Dispersion correction           -0.058721664
FINAL SINGLE POINT ENERGY     -1222.300916656397
Dispersion correction            ...
                    ***********************HURRAY********************

CARTESIAN COORDINATES (ANGSTROEM)
---------------------------------
  O      3.073672    0.824351   -3.041152
  H      3.585628    1.355768   -3.682145
  H      2.433587    0.243965   -3.598960
  O     -2.220201    0.551597   -0.357248
  H     -3.058096    0.767288    0.158502
  H     -1.550510    1.213771    0.021938
  O     -0.440292   -0.075332   -2.266484
  H     -1.296865    0.147143   -1.808654
  H      0.221474    0.584314   -1.864973
  O      1.371565   -0.782081   -4.197166
  H      1.691382   -1.609278   -3.727958
  H      0.546152   -0.546572   -3.697110
  O      2.300706   -2.730354   -2.572755
  H      3.071347   -2.199088   -2.148818
  H      2.684477   -3.582983   -2.857231
  O     -3.986922    1.095003    1.524357
  H     -4.898606    1.443063    1.466077
  H     -3.422901    1.851127    1.933957
  O      0.387259    0.097389    2.284776
  H     -0.079166    0.345441    3.142284
  H     -0.253013   -0.575768    1.873194
  O     -3.085693   -0.884361    3.123602
  H     -2.517843   -1.355558    2.457098
  H     -3.580580   -0.220601    2.555956
  O     -1.379574    0.824546    4.106598
  H     -2.066257    0.112194    3.820882
  H     -1.342943    0.785511    5.082877
  O      1.386586    1.473688   -1.123256
  H      2.061340    1.488357   -1.871341
  H      1.750651    0.749198   -0.511517
  O     -2.335599    2.829203    2.568013
  H     -1.616094    2.825477    1.882000
  H     -1.972887    2.208445    3.268473
  O     -1.361993   -1.502701    1.082608
  H     -0.788099   -2.033559    0.464574
  H     -1.741291   -0.771933    0.485246
  O     -0.393723    2.127239    0.766649
  H     -0.028016    1.400942    1.378316
  H      0.293509    2.198022    0.047268
  O      4.071590   -1.142576   -1.482752
  H      3.592692   -0.927906   -0.638322
  H      3.852072   -0.356592   -2.067905
  O      2.181743   -0.554013    0.401595
  H      1.774983   -0.332078    1.283944
  H      1.526810   -1.218676   -0.004438
  O      0.430668   -2.131811   -0.815149
  H      1.073732   -2.603892   -1.430585
  H      0.050056   -1.404089   -1.411215

 Multiplicity           Mult            ....    1
 Number of Electrons    NEL             ....  160
 Basis Dimension        Dim             ....  384

ORBITAL ENERGIES
----------------

  NO   OCC          E(Eh)            E(eV)
   0   2.0000     -18.783892      -511.1357
   1   2.0000     -18.783848      -511.1345
   2   2.0000     -18.783538      -511.1261
   3   2.0000     -18.783356      -511.1211
   4   2.0000     -18.777022      -510.9487
   5   2.0000     -18.776552      -510.9360
   6   2.0000     -18.776451      -510.9332
   7   2.0000     -18.776132      -510.9245
   8   2.0000     -18.773247      -510.8460
   9   2.0000     -18.773185      -510.8443
  10   2.0000     -18.773164      -510.8438
  11   2.0000     -18.773105      -510.8422
  12   2.0000     -18.768798      -510.7250
  13   2.0000     -18.768600      -510.7196
  14   2.0000     -18.767941      -510.7016
  15   2.0000     -18.767905      -510.7007
  16   2.0000      -0.930190       -25.3118
  17   2.0000      -0.922416       -25.1002
  18   2.0000      -0.912360       -24.8266
  19   2.0000      -0.911351       -24.7991
  20   2.0000      -0.910047       -24.7636
  21   2.0000      -0.904336       -24.6082
  22   2.0000      -0.903686       -24.5905
  23   2.0000      -0.901198       -24.5229
  24   2.0000      -0.892532       -24.2870
  25   2.0000      -0.888883       -24.1877
  26   2.0000      -0.888177       -24.1685
  27   2.0000      -0.884000       -24.0549
  28   2.0000      -0.882233       -24.0068
  29   2.0000      -0.882112       -24.0035
  30   2.0000      -0.873092       -23.7580
  31   2.0000      -0.863822       -23.5058
  32   2.0000      -0.484937       -13.1958
  33   2.0000      -0.483342       -13.1524
  34   2.0000      -0.481824       -13.1111
  35   2.0000      -0.480300       -13.0696
  36   2.0000      -0.478836       -13.0298
  37   2.0000      -0.473455       -12.8834
  38   2.0000      -0.473372       -12.8811
  39   2.0000      -0.469792       -12.7837
  40   2.0000      -0.463993       -12.6259
  41   2.0000      -0.460888       -12.5414
  42   2.0000      -0.457439       -12.4475
  43   2.0000      -0.456945       -12.4341
  44   2.0000      -0.456671       -12.4266
  45   2.0000      -0.451852       -12.2955
  46   2.0000      -0.451482       -12.2854
  47   2.0000      -0.450234       -12.2515
  48   2.0000      -0.408764       -11.1230
  49   2.0000      -0.394961       -10.7474
  50   2.0000      -0.376136       -10.2352
  51   2.0000      -0.371244       -10.1021
  52   2.0000      -0.365283        -9.9399
  53   2.0000      -0.361802        -9.8451
  54   2.0000      -0.355087        -9.6624
  55   2.0000      -0.352720        -9.5980
  56   2.0000      -0.339768        -9.2455
  57   2.0000      -0.338711        -9.2168
  58   2.0000      -0.334290        -9.0965
  59   2.0000      -0.332119        -9.0374
  60   2.0000      -0.318526        -8.6675
  61   2.0000      -0.316148        -8.6028
  62   2.0000      -0.305328        -8.3084
  63   2.0000      -0.289194        -7.8694
  64   2.0000      -0.272694        -7.4204
  65   2.0000      -0.271957        -7.4003
  66   2.0000      -0.270028        -7.3478
  67   2.0000      -0.266850        -7.2614
  68   2.0000      -0.266295        -7.2463
  69   2.0000      -0.266159        -7.2425
  70   2.0000      -0.265023        -7.2116
  71   2.0000      -0.262836        -7.1521
  72   2.0000      -0.261909        -7.1269
  73   2.0000      -0.261616        -7.1189
  74   2.0000      -0.260502        -7.0886
  75   2.0000      -0.256791        -6.9876
  76   2.0000      -0.256570        -6.9816
  77   2.0000      -0.255909        -6.9636
  78   2.0000      -0.255672        -6.9572
  79   2.0000      -0.254061        -6.9134
  80   0.0000       0.012115         0.3297
  81   0.0000       0.034699         0.9442
  82   0.0000       0.061093         1.6624
  83   0.0000       0.061616         1.6767
  84   0.0000       0.069457         1.8900

MULLIKEN ATOMIC CHARGES
-----------------------
   0 O :   -0.329776
   1 H :    0.228742
   2 H :    0.165147
   3 O :   -0.345148
   4 H :    0.176923
   5 H :    0.137473
   6 O :   -0.335902
   7 H :    0.184828
   8 H :    0.138538
   9 O :   -0.356689
  10 H :    0.163946
  11 H :    0.172785
  12 O :   -0.332372
  13 H :    0.164422
  14 H :    0.230282
  15 O :   -0.330196
  16 H :    0.229966
  17 H :    0.164903
  18 O :   -0.346122
  19 H :    0.178027
  20 H :    0.138287
  21 O :   -0.351864
  22 H :    0.174443
  23 H :    0.160854
  24 O :   -0.328508
  25 H :    0.162555
  26 H :    0.229094
  27 O :   -0.346406
  28 H :    0.179149
  29 H :    0.136969
  30 O :   -0.353150
  31 H :    0.173654
  32 H :    0.157372
  33 O :   -0.337416
  34 H :    0.187786
  35 H :    0.137911
  36 O :   -0.337734
  37 H :    0.135766
  38 H :    0.187859
  39 O :   -0.358536
  40 H :    0.172597
  41 H :    0.160475
  42 O :   -0.336798
  43 H :    0.186973
  44 H :    0.139313
  45 O :   -0.346354
  46 H :    0.179699
  47 H :    0.136234
Sum of atomic charges:   -0.0000000

LOEWDIN ATOMIC CHARGES
----------------------
   0 O :   -0.072618
   1 H :    0.116527
   2 H :    0.039178
   3 O :   -0.106953
   4 H :    0.044092
   5 H :    0.029047
   6 O :   -0.102019
   7 H :    0.056064
   8 H :    0.029662
   9 O :   -0.125849
  10 H :    0.041697
  11 H :    0.052157
  12 O :   -0.072997
  13 H :    0.039833
  14 H :    0.117209
  15 O :   -0.073991
  16 H :    0.117201
  17 H :    0.039083
  18 O :   -0.107622
  19 H :    0.044792
  20 H :    0.029131
  21 O :   -0.124036
  22 H :    0.053275
  23 H :    0.041675
  24 O :   -0.075572
  25 H :    0.037789
  26 H :    0.116408
  27 O :   -0.107524
  28 H :    0.044994
  29 H :    0.028956
  30 O :   -0.126506
  31 H :    0.052225
  32 H :    0.040812
  33 O :   -0.100641
  34 H :    0.057532
  35 H :    0.029653
  36 O :   -0.102148
  37 H :    0.029136
  38 H :    0.056475
  39 O :   -0.130515
  40 H :    0.051254
  41 H :    0.040096
  42 O :   -0.099228
  43 H :    0.056494
  44 H :    0.030158
  45 O :   -0.108064
  46 H :    0.044618
  47 H :    0.029060

  Mayer bond orders larger than 0.1
B(  0-O ,  1-H ) :   0.9543 B(  0-O ,  2-H ) :   0.8030 B(  0-O , 28-H ) :   0.2046
B(  0-O , 41-H ) :   0.2008 B(  2-H ,  9-O ) :   0.2744 B(  3-O ,  4-H ) :   0.8574
B(  3-O ,  5-H ) :   0.8305 B(  3-O ,  7-H ) :   0.1593 B(  3-O , 35-H ) :   0.2610
B(  4-H , 15-O ) :   0.2096 B(  5-H , 36-O ) :   0.2518 B(  6-O ,  7-H ) :   0.8903
B(  6-O ,  8-H ) :   0.8263 B(  6-O , 11-H ) :   0.1491 B(  6-O , 47-H ) :   0.2519
B(  8-H , 27-O ) :   0.2577 B(  9-O , 10-H ) :   0.8830 B(  9-O , 11-H ) :   0.9144
B( 10-H , 12-O ) :   0.1978 B( 12-O , 13-H ) :   0.8033 B( 12-O , 14-H ) :   0.9533
B( 12-O , 46-H ) :   0.2047 B( 13-H , 39-O ) :   0.2759 B( 15-O , 16-H ) :   0.9535
B( 15-O , 17-H ) :   0.8007 B( 15-O , 23-H ) :   0.1987 B( 17-H , 30-O ) :   0.2757
B( 18-O , 19-H ) :   0.8574 B( 18-O , 20-H ) :   0.8299 B( 18-O , 37-H ) :   0.2598
B( 18-O , 43-H ) :   0.1594 B( 19-H , 24-O ) :   0.2087 B( 20-H , 33-O ) :   0.2513
B( 21-O , 22-H ) :   0.9145 B( 21-O , 23-H ) :   0.8838 B( 21-O , 25-H ) :   0.2775
B( 22-H , 33-O ) :   0.1463 B( 24-O , 25-H ) :   0.7991 B( 24-O , 26-H ) :   0.9544
B( 24-O , 32-H ) :   0.2021 B( 27-O , 28-H ) :   0.8590 B( 27-O , 29-H ) :   0.8306
B( 27-O , 38-H ) :   0.1578 B( 29-H , 42-O ) :   0.2509 B( 30-O , 31-H ) :   0.9143
B( 30-O , 32-H ) :   0.8831 B( 31-H , 36-O ) :   0.1472 B( 33-O , 34-H ) :   0.8921
B( 33-O , 35-H ) :   0.8248 B( 34-H , 45-O ) :   0.1547 B( 36-O , 37-H ) :   0.8253
B( 36-O , 38-H ) :   0.8895 B( 39-O , 40-H ) :   0.9121 B( 39-O , 41-H ) :   0.8826
B( 40-H , 42-O ) :   0.1518 B( 42-O , 43-H ) :   0.8892 B( 42-O , 44-H ) :   0.8248
B( 44-H , 45-O ) :   0.2586 B( 45-O , 46-H ) :   0.8592 B( 45-O , 47-H ) :   0.8325

Dispersion correction           -0.058726987
FINAL SINGLE POINT ENERGY     -1222.300908919945

DIPOLE MOMENT
-------------
                                X             Y             Z
Electronic contribution:     -0.02331      -0.00423       0.00161
Nuclear contribution   :     -0.00238      -0.04838      -0.00255
                        -----------------------------------------
Total Dipole Moment    :     -0.02570      -0.05261      -0.00094
                        -----------------------------------------
Magnitude (a.u.)       :      0.05856
Magnitude (Debye)      :      0.14885

                             ****ORCA TERMINATED NORMALLY****
TOTAL RUN TIME: 0 days 0 hours 43 minutes 48 seconds 794 msec
