                         Program Version 4.2.0 -  RELEASE  -
|  1> # 12mecn.remya.etal.2.mol3,6,11
|  2> ! MP2 def2-TZVP EnGrad TightSCF
|  3>
|  4> %pal
|  5>     nprocs 6
|  6> end
|  7>
|  8> %maxcore 8000
|  9>
| 10> %scf
| 11>     ConvForced true
| 12> end
| 13>
| 14> *xyz 0 1
| 15> C  -5.181310000   2.853865000  -1.626100000
| 16> H  -5.488260000   3.811434000  -2.053310000
| 17> H  -5.857590000   2.068112000  -1.968630000
| 18> H  -4.170750000   2.611402000  -1.966640000
| 19> C  -5.187260000   2.919160000  -0.181450000
| 20> N  -5.181700000   2.970641000   0.983640000
| 21> C   5.300864000  -2.920090000   1.401103000
| 22> H   5.986071000  -2.139770000   1.737487000
| 23> H   5.636642000  -3.888750000   1.778233000
| 24> H   4.307359000  -2.697240000   1.799307000
| 25> C   5.234791000  -2.933140000  -0.043290000
| 26> N   5.170868000  -2.941760000  -1.207750000
| 27> C   4.214163000   3.378139000   1.593627000
| 28> H   3.242643000   3.657109000   2.012358000
| 29> H   4.969258000   4.086643000   1.941290000
| 30> H   4.482966000   2.372549000   1.931698000
| 31> C   4.130759000   3.388436000   0.150192000
| 32> N   4.050180000   3.381449000  -1.013420000
| 33> *
| 34>
| 35>                          ****END OF INPUT****

CARTESIAN COORDINATES (ANGSTROEM)
---------------------------------
  C     -5.181310    2.853865   -1.626100
  H     -5.488260    3.811434   -2.053310
  H     -5.857590    2.068112   -1.968630
  H     -4.170750    2.611402   -1.966640
  C     -5.187260    2.919160   -0.181450
  N     -5.181700    2.970641    0.983640
  C      5.300864   -2.920090    1.401103
  H      5.986071   -2.139770    1.737487
  H      5.636642   -3.888750    1.778233
  H      4.307359   -2.697240    1.799307
  C      5.234791   -2.933140   -0.043290
  N      5.170868   -2.941760   -1.207750
  C      4.214163    3.378139    1.593627
  H      3.242643    3.657109    2.012358
  H      4.969258    4.086643    1.941290
  H      4.482966    2.372549    1.931698
  C      4.130759    3.388436    0.150192
  N      4.050180    3.381449   -1.013420

 Total Charge           Charge          ....    0
 Multiplicity           Mult            ....    1
 Number of Electrons    NEL             ....   66
 Basis Dimension        Dim             ....  333

ORBITAL ENERGIES
----------------

  NO   OCC          E(Eh)            E(eV)
   0   2.0000     -15.573763      -423.7836
   1   2.0000     -15.573636      -423.7802
   2   2.0000     -15.572951      -423.7616
   3   2.0000     -11.287022      -307.1355
   4   2.0000     -11.286816      -307.1299
   5   2.0000     -11.283875      -307.0499
   6   2.0000     -11.280372      -306.9545
   7   2.0000     -11.280162      -306.9488
   8   2.0000     -11.280151      -306.9485
   9   2.0000      -1.215071       -33.0638
  10   2.0000      -1.214967       -33.0609
  11   2.0000      -1.214708       -33.0539
  12   2.0000      -1.045448       -28.4481
  13   2.0000      -1.045128       -28.4394
  14   2.0000      -1.042952       -28.3802
  15   2.0000      -0.702699       -19.1214
  16   2.0000      -0.701941       -19.1008
  17   2.0000      -0.700419       -19.0594
  18   2.0000      -0.634686       -17.2707
  19   2.0000      -0.633705       -17.2440
  20   2.0000      -0.632581       -17.2134
  21   2.0000      -0.631991       -17.1973
  22   2.0000      -0.631593       -17.1865
  23   2.0000      -0.629259       -17.1230
  24   2.0000      -0.556149       -15.1336
  25   2.0000      -0.556087       -15.1319
  26   2.0000      -0.555989       -15.1292
  27   2.0000      -0.458389       -12.4734
  28   2.0000      -0.458226       -12.4690
  29   2.0000      -0.458105       -12.4657
  30   2.0000      -0.458025       -12.4635
  31   2.0000      -0.457849       -12.4587
  32   2.0000      -0.457489       -12.4489
  33   0.0000       0.104087         2.8324
  34   0.0000       0.120412         3.2766
  35   0.0000       0.125410         3.4126
  36   0.0000       0.165324         4.4987
  37   0.0000       0.170058         4.6275

MULLIKEN ATOMIC CHARGES
-----------------------
   0 C :   -0.280687
   1 H :    0.172509
   2 H :    0.172067
   3 H :    0.174402
   4 C :   -0.145491
   5 N :   -0.092800
   6 C :   -0.282942
   7 H :    0.169299
   8 H :    0.173420
   9 H :    0.171551
  10 C :   -0.144757
  11 N :   -0.086578
  12 C :   -0.279661
  13 H :    0.174366
  14 H :    0.172746
  15 H :    0.165956
  16 C :   -0.145573
  17 N :   -0.087827
Sum of atomic charges:    0.0000000

LOEWDIN ATOMIC CHARGES
----------------------
   0 C :   -0.283469
   1 H :    0.151645
   2 H :    0.151656
   3 H :    0.153863
   4 C :   -0.218550
   5 N :    0.044855
   6 C :   -0.284891
   7 H :    0.150356
   8 H :    0.151591
   9 H :    0.152479
  10 C :   -0.219434
  11 N :    0.049897
  12 C :   -0.284627
  13 H :    0.153375
  14 H :    0.151069
  15 H :    0.151143
  16 C :   -0.219896
  17 N :    0.048939

  Mayer bond orders larger than 0.100000
B(  0-C ,  1-H ) :   0.9160 B(  0-C ,  2-H ) :   0.9167 B(  0-C ,  3-H ) :   0.9161
B(  0-C ,  4-C ) :   0.9024 B(  4-C ,  5-N ) :   2.8385 B(  6-C ,  7-H ) :   0.9180
B(  6-C ,  8-H ) :   0.9159 B(  6-C ,  9-H ) :   0.9175 B(  6-C , 10-C ) :   0.9020
B( 10-C , 11-N ) :   2.8344 B( 12-C , 13-H ) :   0.9163 B( 12-C , 14-H ) :   0.9167
B( 12-C , 15-H ) :   0.9179 B( 12-C , 16-C ) :   0.9023 B( 16-C , 17-N ) :   2.8347

MP2 TOTAL ENERGY:     -397.449000259 Eh
FINAL SINGLE POINT ENERGY      -397.449000258863

DIPOLE MOMENT
-------------
                                X             Y             Z
Electronic contribution:     -0.33352       0.13708      -3.16905
Nuclear contribution   :      0.50299      -0.19290       4.64491
                        -----------------------------------------
Total Dipole Moment    :      0.16947      -0.05582       1.47586
                        -----------------------------------------
Magnitude (a.u.)       :      1.48661
Magnitude (Debye)      :      3.77866

Rotational constants in cm-1:     0.020753     0.005222     0.004523
Rotational constants in MHz :   622.146551   156.562755   135.584362

                             ****ORCA TERMINATED NORMALLY****
TOTAL RUN TIME: 0 days 0 hours 1 minutes 37 seconds 923 msec
