                         Program Version 4.2.0 -  RELEASE  -
|  1> # 12h2o.su.etal.mol0,1,2,4,5,10
|  2> ! MP2 def2-TZVP EnGrad TightSCF
|  3>
|  4> %pal
|  5>     nprocs 6
|  6> end
|  7>
|  8> %maxcore 8000
|  9>
| 10> %scf
| 11>     ConvForced true
| 12> end
| 13>
| 14> *xyz 0 1
| 15> O   1.794470000   0.923410000   2.768350000
| 16> H   2.338250000   1.359750000   3.430940000
| 17> H   0.879480000   1.303000000   2.865760000
| 18> O  -1.794470000  -0.923410000   2.768350000
| 19> H  -2.338250000  -1.359750000   3.430940000
| 20> H  -0.879480000  -1.303000000   2.865760000
| 21> O   0.923410000  -1.794470000  -2.768350000
| 22> H   1.359750000  -2.338250000  -3.430940000
| 23> H   1.303000000  -0.879480000  -2.865760000
| 24> O  -0.885520000   1.737840000   0.052730000
| 25> H  -1.032320000   2.090180000  -0.841890000
| 26> H  -1.284090000   0.839590000   0.017130000
| 27> O   0.885520000  -1.737840000   0.052730000
| 28> H   1.284090000  -0.839590000   0.017130000
| 29> H   1.032320000  -2.090180000  -0.841890000
| 30> O  -0.923410000   1.794470000  -2.768350000
| 31> H  -1.359750000   2.338250000  -3.430940000
| 32> H  -1.303000000   0.879480000  -2.865760000
| 33> *
| 34>
| 35>                          ****END OF INPUT****

CARTESIAN COORDINATES (ANGSTROEM)
---------------------------------
  O      1.794470    0.923410    2.768350
  H      2.338250    1.359750    3.430940
  H      0.879480    1.303000    2.865760
  O     -1.794470   -0.923410    2.768350
  H     -2.338250   -1.359750    3.430940
  H     -0.879480   -1.303000    2.865760
  O      0.923410   -1.794470   -2.768350
  H      1.359750   -2.338250   -3.430940
  H      1.303000   -0.879480   -2.865760
  O     -0.885520    1.737840    0.052730
  H     -1.032320    2.090180   -0.841890
  H     -1.284090    0.839590    0.017130
  O      0.885520   -1.737840    0.052730
  H      1.284090   -0.839590    0.017130
  H      1.032320   -2.090180   -0.841890
  O     -0.923410    1.794470   -2.768350
  H     -1.359750    2.338250   -3.430940
  H     -1.303000    0.879480   -2.865760

 Total Charge           Charge          ....    0
 Multiplicity           Mult            ....    1
 Number of Electrons    NEL             ....   60
 Basis Dimension        Dim             ....  258

ORBITAL ENERGIES
----------------

  NO   OCC          E(Eh)            E(eV)
   0   2.0000     -20.589829      -560.2777
   1   2.0000     -20.589829      -560.2777
   2   2.0000     -20.542356      -558.9859
   3   2.0000     -20.542356      -558.9859
   4   2.0000     -20.518504      -558.3369
   5   2.0000     -20.518504      -558.3369
   6   2.0000      -1.367839       -37.2208
   7   2.0000      -1.367448       -37.2102
   8   2.0000      -1.317924       -35.8625
   9   2.0000      -1.317528       -35.8518
  10   2.0000      -1.297901       -35.3177
  11   2.0000      -1.297278       -35.3007
  12   2.0000      -0.735861       -20.0238
  13   2.0000      -0.732975       -19.9453
  14   2.0000      -0.687256       -18.7012
  15   2.0000      -0.684148       -18.6166
  16   2.0000      -0.669109       -18.2074
  17   2.0000      -0.667048       -18.1513
  18   2.0000      -0.602924       -16.4064
  19   2.0000      -0.602789       -16.4027
  20   2.0000      -0.554692       -15.0939
  21   2.0000      -0.554144       -15.0790
  22   2.0000      -0.552077       -15.0228
  23   2.0000      -0.551840       -15.0163
  24   2.0000      -0.519106       -14.1256
  25   2.0000      -0.517958       -14.0944
  26   2.0000      -0.486815       -13.2469
  27   2.0000      -0.484647       -13.1879
  28   2.0000      -0.466405       -12.6915
  29   2.0000      -0.461944       -12.5701
  30   0.0000       0.094568         2.5733
  31   0.0000       0.127368         3.4659
  32   0.0000       0.133001         3.6191
  33   0.0000       0.160487         4.3671
  34   0.0000       0.178496         4.8571

MULLIKEN ATOMIC CHARGES
-----------------------
   0 O :   -0.690674
   1 H :    0.330793
   2 H :    0.360071
   3 O :   -0.690674
   4 H :    0.330793
   5 H :    0.360071
   6 O :   -0.698218
   7 H :    0.350025
   8 H :    0.356981
   9 O :   -0.704167
  10 H :    0.358609
  11 H :    0.336581
  12 O :   -0.704167
  13 H :    0.336581
  14 H :    0.358609
  15 O :   -0.698218
  16 H :    0.350025
  17 H :    0.356981
Sum of atomic charges:   -0.0000000

LOEWDIN ATOMIC CHARGES
----------------------
   0 O :   -0.340782
   1 H :    0.154535
   2 H :    0.186164
   3 O :   -0.340782
   4 H :    0.154535
   5 H :    0.186164
   6 O :   -0.312387
   7 H :    0.162409
   8 H :    0.185302
   9 O :   -0.348289
  10 H :    0.145961
  11 H :    0.167088
  12 O :   -0.348289
  13 H :    0.167088
  14 H :    0.145961
  15 O :   -0.312387
  16 H :    0.162409
  17 H :    0.185302

  Mayer bond orders larger than 0.100000
B(  0-O ,  1-H ) :   0.8568 B(  0-O ,  2-H ) :   0.8310 B(  3-O ,  4-H ) :   0.8568
B(  3-O ,  5-H ) :   0.8310 B(  6-O ,  7-H ) :   0.8425 B(  6-O ,  8-H ) :   0.8305
B(  9-O , 10-H ) :   0.8264 B(  9-O , 11-H ) :   0.8455 B( 12-O , 13-H ) :   0.8455
B( 12-O , 14-H ) :   0.8264 B( 15-O , 16-H ) :   0.8425 B( 15-O , 17-H ) :   0.8305

MP2 TOTAL ENERGY:     -457.895725276 Eh
FINAL SINGLE POINT ENERGY      -457.895725276129

DIPOLE MOMENT
-------------
                                X             Y             Z
Electronic contribution:     -0.00000      -0.00000      -0.08859
Nuclear contribution   :      0.00000       0.00000      -1.54856
                        -----------------------------------------
Total Dipole Moment    :     -0.00000      -0.00000      -1.63714
                        -----------------------------------------
Magnitude (a.u.)       :      1.63714
Magnitude (Debye)      :      4.16129

Rotational constants in cm-1:     0.038529     0.023292     0.019628
Rotational constants in MHz :  1155.057202   698.283406   588.418021

                             ****ORCA TERMINATED NORMALLY****
TOTAL RUN TIME: 0 days 0 hours 0 minutes 48 seconds 533 msec
