                         Program Version 4.2.0 -  RELEASE  -
|  1> # 12meoh.boyd.etal.mol4,5,8
|  2> ! MP2 def2-TZVP EnGrad TightSCF
|  3>
|  4> %pal
|  5>     nprocs 6
|  6> end
|  7>
|  8> %maxcore 8000
|  9>
| 10> %scf
| 11>     ConvForced true
| 12> end
| 13>
| 14> *xyz 0 1
| 15> O  -1.358578914   1.232360421   1.189721000
| 16> H  -1.058250183   1.216459361   0.238591307
| 17> C  -0.389763452   1.957872567   1.943072362
| 18> H  -0.747220771   2.012806578   2.975200343
| 19> H  -0.260410585   2.982763209   1.565366540
| 20> H   0.585220638   1.453754179   1.934070793
| 21> O  -0.662721750   1.449094618  -1.383082065
| 22> H   0.064188300   2.119867608  -1.465650660
| 23> C  -0.353319239   0.341218776  -2.229326771
| 24> H  -1.072358530  -0.454743281  -2.019906495
| 25> H   0.657636746  -0.044472139  -2.042736771
| 26> H  -0.434616607   0.624733901  -3.287793021
| 27> O   3.570084754   2.361662577  -0.202416728
| 28> H   3.393280933   1.755669977   0.560634073
| 29> C   4.368082883   1.644741793  -1.143112807
| 30> H   4.552851717   2.311801738  -1.989632421
| 31> H   3.862427494   0.740851663  -1.508095690
| 32> H   5.333949674   1.357289092  -0.706288100
| 33> *
| 34>
| 35>                          ****END OF INPUT****

CARTESIAN COORDINATES (ANGSTROEM)
---------------------------------
  O     -1.358579    1.232360    1.189721
  H     -1.058250    1.216459    0.238591
  C     -0.389763    1.957873    1.943072
  H     -0.747221    2.012807    2.975200
  H     -0.260411    2.982763    1.565367
  H      0.585221    1.453754    1.934071
  O     -0.662722    1.449095   -1.383082
  H      0.064188    2.119868   -1.465651
  C     -0.353319    0.341219   -2.229327
  H     -1.072359   -0.454743   -2.019906
  H      0.657637   -0.044472   -2.042737
  H     -0.434617    0.624734   -3.287793
  O      3.570085    2.361663   -0.202417
  H      3.393281    1.755670    0.560634
  C      4.368083    1.644742   -1.143113
  H      4.552852    2.311802   -1.989632
  H      3.862427    0.740852   -1.508096
  H      5.333950    1.357289   -0.706288

 Total Charge           Charge          ....    0
 Multiplicity           Mult            ....    1
 Number of Electrons    NEL             ....   54
 Basis Dimension        Dim             ....  258

ORBITAL ENERGIES
----------------

  NO   OCC          E(Eh)            E(eV)
   0   2.0000     -20.587071      -560.2027
   1   2.0000     -20.570002      -559.7382
   2   2.0000     -20.511791      -558.1542
   3   2.0000     -11.290567      -307.2320
   4   2.0000     -11.283502      -307.0397
   5   2.0000     -11.251194      -306.1606
   6   2.0000      -1.379688       -37.5432
   7   2.0000      -1.359310       -36.9887
   8   2.0000      -1.307533       -35.5798
   9   2.0000      -0.942277       -25.6407
  10   2.0000      -0.931772       -25.3548
  11   2.0000      -0.896523       -24.3956
  12   2.0000      -0.712428       -19.3862
  13   2.0000      -0.694155       -18.8889
  14   2.0000      -0.672424       -18.2976
  15   2.0000      -0.634267       -17.2593
  16   2.0000      -0.629213       -17.1217
  17   2.0000      -0.608338       -16.5537
  18   2.0000      -0.601808       -16.3760
  19   2.0000      -0.591175       -16.0867
  20   2.0000      -0.560615       -15.2551
  21   2.0000      -0.527201       -14.3459
  22   2.0000      -0.513776       -13.9806
  23   2.0000      -0.486390       -13.2353
  24   2.0000      -0.462252       -12.5785
  25   2.0000      -0.455977       -12.4078
  26   2.0000      -0.415962       -11.3189
  27   0.0000       0.098205         2.6723
  28   0.0000       0.143005         3.8914
  29   0.0000       0.147353         4.0097
  30   0.0000       0.168315         4.5801
  31   0.0000       0.192905         5.2492

MULLIKEN ATOMIC CHARGES
-----------------------
   0 O :   -0.525488
   1 H :    0.353925
   2 C :   -0.171052
   3 H :    0.123503
   4 H :    0.102318
   5 H :    0.076074
   6 O :   -0.519381
   7 H :    0.346942
   8 C :   -0.181132
   9 H :    0.149000
  10 H :    0.117255
  11 H :    0.125627
  12 O :   -0.501128
  13 H :    0.326175
  14 C :   -0.180397
  15 H :    0.132126
  16 H :    0.106192
  17 H :    0.119443
Sum of atomic charges:   -0.0000000

LOEWDIN ATOMIC CHARGES
----------------------
   0 O :   -0.125330
   1 H :    0.159385
   2 C :   -0.397271
   3 H :    0.106695
   4 H :    0.092049
   5 H :    0.084571
   6 O :   -0.074294
   7 H :    0.199280
   8 C :   -0.366722
   9 H :    0.116470
  10 H :    0.099153
  11 H :    0.104538
  12 O :   -0.110835
  13 H :    0.188713
  14 C :   -0.379247
  15 H :    0.110913
  16 H :    0.093452
  17 H :    0.098479

  Mayer bond orders larger than 0.100000
B(  0-O ,  1-H ) :   0.7887 B(  0-O ,  2-C ) :   0.9499 B(  2-C ,  3-H ) :   0.9416
B(  2-C ,  4-H ) :   0.9391 B(  2-C ,  5-H ) :   0.9376 B(  6-O ,  7-H ) :   0.8236
B(  6-O ,  8-C ) :   0.8753 B(  8-C ,  9-H ) :   0.9395 B(  8-C , 10-H ) :   0.9370
B(  8-C , 11-H ) :   0.9350 B( 12-O , 13-H ) :   0.8395 B( 12-O , 14-C ) :   0.9217
B( 14-C , 15-H ) :   0.9374 B( 14-C , 16-H ) :   0.9355 B( 14-C , 17-H ) :   0.9417

MP2 TOTAL ENERGY:     -346.530470639 Eh
FINAL SINGLE POINT ENERGY      -346.530470638960

DIPOLE MOMENT
-------------
                                X             Y             Z
Electronic contribution:     -2.76646       1.32766       0.94306
Nuclear contribution   :      4.18375      -1.80459      -1.95264
                        -----------------------------------------
Total Dipole Moment    :      1.41730      -0.47693      -1.00959
                        -----------------------------------------
Magnitude (a.u.)       :      1.80429
Magnitude (Debye)      :      4.58614

Rotational constants in cm-1:     0.074096     0.032294     0.023491
Rotational constants in MHz :  2221.350437   968.156736   704.248287

                             ****ORCA TERMINATED NORMALLY****
TOTAL RUN TIME: 0 days 0 hours 1 minutes 16 seconds 307 msec
