                         Program Version 4.2.0 -  RELEASE  -
|  1> # 12mecn.remya.etal.2.mol0,2
|  2> ! MP2 def2-TZVP EnGrad TightSCF
|  3>
|  4> %pal
|  5>     nprocs 6
|  6> end
|  7>
|  8> %maxcore 8000
|  9>
| 10> %scf
| 11>     ConvForced true
| 12> end
| 13>
| 14> *xyz 0 1
| 15> C  -0.869520000  -3.929380000   1.700199000
| 16> H  -0.057420000  -3.268850000   2.015352000
| 17> H  -0.697530000  -4.930670000   2.101524000
| 18> H  -1.821490000  -3.546590000   2.077146000
| 19> C  -0.916080000  -3.969960000   0.256749000
| 20> N  -0.955390000  -3.995980000  -0.909290000
| 21> C  -4.219070000  -3.477410000  -1.501740000
| 22> H  -3.251530000  -3.803540000  -1.893830000
| 23> H  -4.452920000  -2.481700000  -1.890840000
| 24> H  -4.992170000  -4.178130000  -1.824640000
| 25> C  -4.154550000  -3.418790000  -0.058340000
| 26> N  -4.091140000  -3.354840000   1.104432000
| 27> *
| 28>
| 29>                          ****END OF INPUT****

CARTESIAN COORDINATES (ANGSTROEM)
---------------------------------
  C     -0.869520   -3.929380    1.700199
  H     -0.057420   -3.268850    2.015352
  H     -0.697530   -4.930670    2.101524
  H     -1.821490   -3.546590    2.077146
  C     -0.916080   -3.969960    0.256749
  N     -0.955390   -3.995980   -0.909290
  C     -4.219070   -3.477410   -1.501740
  H     -3.251530   -3.803540   -1.893830
  H     -4.452920   -2.481700   -1.890840
  H     -4.992170   -4.178130   -1.824640
  C     -4.154550   -3.418790   -0.058340
  N     -4.091140   -3.354840    1.104432

 Total Charge           Charge          ....    0
 Multiplicity           Mult            ....    1
 Number of Electrons    NEL             ....   44
 Basis Dimension        Dim             ....  222

ORBITAL ENERGIES
----------------

  NO   OCC          E(Eh)            E(eV)
   0   2.0000     -15.571501      -423.7221
   1   2.0000     -15.570996      -423.7083
   2   2.0000     -11.283518      -307.0401
   3   2.0000     -11.282920      -307.0239
   4   2.0000     -11.272193      -306.7320
   5   2.0000     -11.271215      -306.7054
   6   2.0000      -1.218454       -33.1558
   7   2.0000      -1.214074       -33.0366
   8   2.0000      -1.036533       -28.2055
   9   2.0000      -1.033689       -28.1281
  10   2.0000      -0.695342       -18.9212
  11   2.0000      -0.690847       -18.7989
  12   2.0000      -0.631068       -17.1722
  13   2.0000      -0.623061       -16.9544
  14   2.0000      -0.621169       -16.9029
  15   2.0000      -0.614448       -16.7200
  16   2.0000      -0.559416       -15.2225
  17   2.0000      -0.556062       -15.1312
  18   2.0000      -0.460327       -12.5261
  19   2.0000      -0.459689       -12.5088
  20   2.0000      -0.456895       -12.4327
  21   2.0000      -0.455725       -12.4009
  22   0.0000       0.128238         3.4895
  23   0.0000       0.142456         3.8764
  24   0.0000       0.169907         4.6234
  25   0.0000       0.172677         4.6988
  26   0.0000       0.178742         4.8638

MULLIKEN ATOMIC CHARGES
-----------------------
   0 C :   -0.284495
   1 H :    0.166331
   2 H :    0.166546
   3 H :    0.205607
   4 C :   -0.103199
   5 N :   -0.151201
   6 C :   -0.286836
   7 H :    0.205825
   8 H :    0.166685
   9 H :    0.166764
  10 C :   -0.100587
  11 N :   -0.151440
Sum of atomic charges:    0.0000000

LOEWDIN ATOMIC CHARGES
----------------------
   0 C :   -0.282266
   1 H :    0.151318
   2 H :    0.151813
   3 H :    0.157101
   4 C :   -0.207995
   5 N :    0.029066
   6 C :   -0.282202
   7 H :    0.157118
   8 H :    0.153169
   9 H :    0.149883
  10 C :   -0.206886
  11 N :    0.029880

  Mayer bond orders larger than 0.100000
B(  0-C ,  1-H ) :   0.9162 B(  0-C ,  2-H ) :   0.9147 B(  0-C ,  3-H ) :   0.9012
B(  0-C ,  4-C ) :   0.9016 B(  4-C ,  5-N ) :   2.7726 B(  6-C ,  7-H ) :   0.9013
B(  6-C ,  8-H ) :   0.9145 B(  6-C ,  9-H ) :   0.9164 B(  6-C , 10-C ) :   0.9024
B( 10-C , 11-N ) :   2.7696

MP2 TOTAL ENERGY:     -264.976196958 Eh
FINAL SINGLE POINT ENERGY      -264.976196957717

DIPOLE MOMENT
-------------
                                X             Y             Z
Electronic contribution:      0.03218       0.02902       0.00697
Nuclear contribution   :     -0.06139      -0.05897      -0.00605
                        -----------------------------------------
Total Dipole Moment    :     -0.02921      -0.02995       0.00092
                        -----------------------------------------
Magnitude (a.u.)       :      0.04185
Magnitude (Debye)      :      0.10636

Rotational constants in cm-1:     0.167345     0.068660     0.049606
Rotational constants in MHz :  5016.888900  2058.364226  1487.158385

                             ****ORCA TERMINATED NORMALLY****
TOTAL RUN TIME: 0 days 0 hours 1 minutes 15 seconds 587 msec
