                         Program Version 4.2.0 -  RELEASE  -
|  1> # 12h2o.su.etal.mol0,2,3,4,7,8,10
|  2> ! MP2 def2-TZVP EnGrad TightSCF
|  3>
|  4> %pal
|  5>     nprocs 6
|  6> end
|  7>
|  8> %maxcore 8000
|  9>
| 10> %scf
| 11>     ConvForced true
| 12> end
| 13>
| 14> *xyz 0 1
| 15> O   1.794470000   0.923410000   2.768350000
| 16> H   2.338250000   1.359750000   3.430940000
| 17> H   0.879480000   1.303000000   2.865760000
| 18> O   0.923410000  -1.794470000  -2.768350000
| 19> H   1.359750000  -2.338250000  -3.430940000
| 20> H   1.303000000  -0.879480000  -2.865760000
| 21> O  -1.752130000  -0.741530000  -2.896280000
| 22> H  -2.036450000  -0.920500000  -1.984040000
| 23> H  -0.921210000  -1.242140000  -2.984230000
| 24> O  -0.885520000   1.737840000   0.052730000
| 25> H  -1.032320000   2.090180000  -0.841890000
| 26> H  -1.284090000   0.839590000   0.017130000
| 27> O  -1.737840000  -0.885520000  -0.052730000
| 28> H  -2.090180000  -1.032320000   0.841890000
| 29> H  -0.839590000  -1.284090000  -0.017130000
| 30> O   1.752130000   0.741530000  -2.896280000
| 31> H   2.036450000   0.920500000  -1.984040000
| 32> H   0.921210000   1.242140000  -2.984230000
| 33> O  -0.923410000   1.794470000  -2.768350000
| 34> H  -1.359750000   2.338250000  -3.430940000
| 35> H  -1.303000000   0.879480000  -2.865760000
| 36> *
| 37>
| 38>                          ****END OF INPUT****

CARTESIAN COORDINATES (ANGSTROEM)
---------------------------------
  O      1.794470    0.923410    2.768350
  H      2.338250    1.359750    3.430940
  H      0.879480    1.303000    2.865760
  O      0.923410   -1.794470   -2.768350
  H      1.359750   -2.338250   -3.430940
  H      1.303000   -0.879480   -2.865760
  O     -1.752130   -0.741530   -2.896280
  H     -2.036450   -0.920500   -1.984040
  H     -0.921210   -1.242140   -2.984230
  O     -0.885520    1.737840    0.052730
  H     -1.032320    2.090180   -0.841890
  H     -1.284090    0.839590    0.017130
  O     -1.737840   -0.885520   -0.052730
  H     -2.090180   -1.032320    0.841890
  H     -0.839590   -1.284090   -0.017130
  O      1.752130    0.741530   -2.896280
  H      2.036450    0.920500   -1.984040
  H      0.921210    1.242140   -2.984230
  O     -0.923410    1.794470   -2.768350
  H     -1.359750    2.338250   -3.430940
  H     -1.303000    0.879480   -2.865760

 Total Charge           Charge          ....    0
 Multiplicity           Mult            ....    1
 Number of Electrons    NEL             ....   70
 Basis Dimension        Dim             ....  301

ORBITAL ENERGIES
----------------

  NO   OCC          E(Eh)            E(eV)
   0   2.0000     -20.610672      -560.8449
   1   2.0000     -20.565037      -559.6031
   2   2.0000     -20.558935      -559.4371
   3   2.0000     -20.554893      -559.3271
   4   2.0000     -20.554328      -559.3117
   5   2.0000     -20.548653      -559.1573
   6   2.0000     -20.507840      -558.0467
   7   2.0000      -1.393866       -37.9290
   8   2.0000      -1.361555       -37.0498
   9   2.0000      -1.350976       -36.7619
  10   2.0000      -1.338558       -36.4240
  11   2.0000      -1.330291       -36.1991
  12   2.0000      -1.326506       -36.0961
  13   2.0000      -1.292151       -35.1612
  14   2.0000      -0.752560       -20.4782
  15   2.0000      -0.726394       -19.7662
  16   2.0000      -0.718930       -19.5631
  17   2.0000      -0.713296       -19.4098
  18   2.0000      -0.706981       -19.2379
  19   2.0000      -0.698514       -19.0075
  20   2.0000      -0.678705       -18.4685
  21   2.0000      -0.640515       -17.4293
  22   2.0000      -0.613384       -16.6910
  23   2.0000      -0.594360       -16.1733
  24   2.0000      -0.583587       -15.8802
  25   2.0000      -0.569956       -15.5093
  26   2.0000      -0.566954       -15.4276
  27   2.0000      -0.549357       -14.9488
  28   2.0000      -0.524221       -14.2648
  29   2.0000      -0.506619       -13.7858
  30   2.0000      -0.502141       -13.6640
  31   2.0000      -0.500281       -13.6133
  32   2.0000      -0.498100       -13.5540
  33   2.0000      -0.497092       -13.5266
  34   2.0000      -0.458460       -12.4753
  35   0.0000       0.099783         2.7152
  36   0.0000       0.135706         3.6927
  37   0.0000       0.139847         3.8054
  38   0.0000       0.153457         4.1758
  39   0.0000       0.176670         4.8074

MULLIKEN ATOMIC CHARGES
-----------------------
   0 O :   -0.689650
   1 H :    0.335734
   2 H :    0.351685
   3 O :   -0.748443
   4 H :    0.343019
   5 H :    0.381001
   6 O :   -0.722905
   7 H :    0.381622
   8 H :    0.370481
   9 O :   -0.734371
  10 H :    0.361703
  11 H :    0.336022
  12 O :   -0.715411
  13 H :    0.367881
  14 H :    0.379354
  15 O :   -0.713340
  16 H :    0.362401
  17 H :    0.379229
  18 O :   -0.754900
  19 H :    0.347342
  20 H :    0.381544
Sum of atomic charges:    0.0000000

LOEWDIN ATOMIC CHARGES
----------------------
   0 O :   -0.342270
   1 H :    0.156482
   2 H :    0.183445
   3 O :   -0.344187
   4 H :    0.156605
   5 H :    0.145307
   6 O :   -0.286169
   7 H :    0.155016
   8 H :    0.150615
   9 O :   -0.370790
  10 H :    0.143869
  11 H :    0.133138
  12 O :   -0.279110
  13 H :    0.177799
  14 H :    0.188042
  15 O :   -0.284099
  16 H :    0.174551
  17 H :    0.154038
  18 O :   -0.315565
  19 H :    0.157453
  20 H :    0.145828

  Mayer bond orders larger than 0.100000
B(  0-O ,  1-H ) :   0.8548 B(  0-O ,  2-H ) :   0.8380 B(  3-O ,  4-H ) :   0.8475
B(  3-O ,  5-H ) :   0.7461 B(  5-H , 15-O ) :   0.1115 B(  6-O ,  7-H ) :   0.8120
B(  6-O ,  8-H ) :   0.7886 B(  6-O , 20-H ) :   0.1210 B(  9-O , 10-H ) :   0.8223
B(  9-O , 11-H ) :   0.8205 B( 12-O , 13-H ) :   0.8297 B( 12-O , 14-H ) :   0.8157
B( 15-O , 16-H ) :   0.8331 B( 15-O , 17-H ) :   0.7876 B( 18-O , 19-H ) :   0.8419
B( 18-O , 20-H ) :   0.7288

MP2 TOTAL ENERGY:     -534.259714692 Eh
FINAL SINGLE POINT ENERGY      -534.259714692481

DIPOLE MOMENT
-------------
                                X             Y             Z
Electronic contribution:      0.00111      -0.17102      -0.15265
Nuclear contribution   :     -0.30853      -0.22919       0.73962
                        -----------------------------------------
Total Dipole Moment    :     -0.30742      -0.40021       0.58697
                        -----------------------------------------
Magnitude (a.u.)       :      0.77408
Magnitude (Debye)      :      1.96757

Rotational constants in cm-1:     0.038021     0.021856     0.020373
Rotational constants in MHz :  1139.837638   655.236227   610.777713

                             ****ORCA TERMINATED NORMALLY****
TOTAL RUN TIME: 0 days 0 hours 1 minutes 54 seconds 668 msec
