                         Program Version 4.2.0 -  RELEASE  -
|  1> # 12h2o.su.etal.mol0,4,5,6,7,8,10,11
|  2> ! MP2 def2-TZVP EnGrad TightSCF
|  3>
|  4> %pal
|  5>     nprocs 6
|  6> end
|  7>
|  8> %maxcore 8000
|  9>
| 10> %scf
| 11>     ConvForced true
| 12> end
| 13>
| 14> *xyz 0 1
| 15> O   1.794470000   0.923410000   2.768350000
| 16> H   2.338250000   1.359750000   3.430940000
| 17> H   0.879480000   1.303000000   2.865760000
| 18> O  -0.885520000   1.737840000   0.052730000
| 19> H  -1.032320000   2.090180000  -0.841890000
| 20> H  -1.284090000   0.839590000   0.017130000
| 21> O   0.885520000  -1.737840000   0.052730000
| 22> H   1.284090000  -0.839590000   0.017130000
| 23> H   1.032320000  -2.090180000  -0.841890000
| 24> O   1.737840000   0.885520000  -0.052730000
| 25> H   2.090180000   1.032320000   0.841890000
| 26> H   0.839590000   1.284090000  -0.017130000
| 27> O  -1.737840000  -0.885520000  -0.052730000
| 28> H  -2.090180000  -1.032320000   0.841890000
| 29> H  -0.839590000  -1.284090000  -0.017130000
| 30> O   1.752130000   0.741530000  -2.896280000
| 31> H   2.036450000   0.920500000  -1.984040000
| 32> H   0.921210000   1.242140000  -2.984230000
| 33> O  -0.923410000   1.794470000  -2.768350000
| 34> H  -1.359750000   2.338250000  -3.430940000
| 35> H  -1.303000000   0.879480000  -2.865760000
| 36> O  -0.741530000   1.752130000   2.896280000
| 37> H  -0.920500000   2.036450000   1.984040000
| 38> H  -1.242140000   0.921210000   2.984230000
| 39> *
| 40>
| 41>                          ****END OF INPUT****

CARTESIAN COORDINATES (ANGSTROEM)
---------------------------------
  O      1.794470    0.923410    2.768350
  H      2.338250    1.359750    3.430940
  H      0.879480    1.303000    2.865760
  O     -0.885520    1.737840    0.052730
  H     -1.032320    2.090180   -0.841890
  H     -1.284090    0.839590    0.017130
  O      0.885520   -1.737840    0.052730
  H      1.284090   -0.839590    0.017130
  H      1.032320   -2.090180   -0.841890
  O      1.737840    0.885520   -0.052730
  H      2.090180    1.032320    0.841890
  H      0.839590    1.284090   -0.017130
  O     -1.737840   -0.885520   -0.052730
  H     -2.090180   -1.032320    0.841890
  H     -0.839590   -1.284090   -0.017130
  O      1.752130    0.741530   -2.896280
  H      2.036450    0.920500   -1.984040
  H      0.921210    1.242140   -2.984230
  O     -0.923410    1.794470   -2.768350
  H     -1.359750    2.338250   -3.430940
  H     -1.303000    0.879480   -2.865760
  O     -0.741530    1.752130    2.896280
  H     -0.920500    2.036450    1.984040
  H     -1.242140    0.921210    2.984230

 Total Charge           Charge          ....    0
 Multiplicity           Mult            ....    1
 Number of Electrons    NEL             ....   80
 Basis Dimension        Dim             ....  344

ORBITAL ENERGIES
----------------

  NO   OCC          E(Eh)            E(eV)
   0   2.0000     -20.616725      -561.0096
   1   2.0000     -20.582768      -560.0856
   2   2.0000     -20.576656      -559.9193
   3   2.0000     -20.571885      -559.7894
   4   2.0000     -20.553214      -559.2814
   5   2.0000     -20.544382      -559.0411
   6   2.0000     -20.541780      -558.9702
   7   2.0000     -20.511711      -558.1520
   8   2.0000      -1.397482       -38.0274
   9   2.0000      -1.376658       -37.4608
  10   2.0000      -1.368964       -37.2514
  11   2.0000      -1.355536       -36.8860
  12   2.0000      -1.343870       -36.5686
  13   2.0000      -1.329761       -36.1846
  14   2.0000      -1.321210       -35.9520
  15   2.0000      -1.296698       -35.2850
  16   2.0000      -0.762790       -20.7566
  17   2.0000      -0.740580       -20.1522
  18   2.0000      -0.727912       -19.8075
  19   2.0000      -0.727144       -19.7866
  20   2.0000      -0.710976       -19.3466
  21   2.0000      -0.707383       -19.2489
  22   2.0000      -0.704259       -19.1639
  23   2.0000      -0.676665       -18.4130
  24   2.0000      -0.648971       -17.6594
  25   2.0000      -0.624722       -16.9996
  26   2.0000      -0.611788       -16.6476
  27   2.0000      -0.602981       -16.4079
  28   2.0000      -0.592015       -16.1096
  29   2.0000      -0.577706       -15.7202
  30   2.0000      -0.569668       -15.5015
  31   2.0000      -0.549919       -14.9641
  32   2.0000      -0.528623       -14.3846
  33   2.0000      -0.520798       -14.1716
  34   2.0000      -0.518420       -14.1069
  35   2.0000      -0.514770       -14.0076
  36   2.0000      -0.500446       -13.6178
  37   2.0000      -0.492042       -13.3892
  38   2.0000      -0.490065       -13.3353
  39   2.0000      -0.461455       -12.5568
  40   0.0000       0.088800         2.4164
  41   0.0000       0.107662         2.9296
  42   0.0000       0.152883         4.1602
  43   0.0000       0.154230         4.1968
  44   0.0000       0.183846         5.0027

MULLIKEN ATOMIC CHARGES
-----------------------
   0 O :   -0.738073
   1 H :    0.336914
   2 H :    0.373686
   3 O :   -0.756066
   4 H :    0.385011
   5 H :    0.354384
   6 O :   -0.722818
   7 H :    0.383661
   8 H :    0.350395
   9 O :   -0.758129
  10 H :    0.384880
  11 H :    0.357373
  12 O :   -0.718381
  13 H :    0.342822
  14 H :    0.374052
  15 O :   -0.727216
  16 H :    0.372002
  17 H :    0.339795
  18 O :   -0.718516
  19 H :    0.366018
  20 H :    0.377977
  21 O :   -0.692357
  22 H :    0.391740
  23 H :    0.340847
Sum of atomic charges:    0.0000000

LOEWDIN ATOMIC CHARGES
----------------------
   0 O :   -0.340546
   1 H :    0.154094
   2 H :    0.144490
   3 O :   -0.303708
   4 H :    0.153448
   5 H :    0.139604
   6 O :   -0.309150
   7 H :    0.147337
   8 H :    0.166895
   9 O :   -0.302136
  10 H :    0.153409
  11 H :    0.139364
  12 O :   -0.312651
  13 H :    0.163191
  14 H :    0.146540
  15 O :   -0.355444
  16 H :    0.149107
  17 H :    0.138728
  18 O :   -0.287607
  19 H :    0.168822
  20 H :    0.194729
  21 O :   -0.274623
  22 H :    0.158688
  23 H :    0.167416

  Mayer bond orders larger than 0.100000
B(  0-O ,  1-H ) :   0.8508 B(  0-O ,  2-H ) :   0.7611 B(  3-O ,  4-H ) :   0.8013
B(  3-O ,  5-H ) :   0.7579 B(  5-H , 12-O ) :   0.1162 B(  6-O ,  7-H ) :   0.7587
B(  6-O ,  8-H ) :   0.8400 B(  6-O , 14-H ) :   0.1273 B(  9-O , 10-H ) :   0.7885
B(  9-O , 11-H ) :   0.7714 B( 12-O , 13-H ) :   0.8464 B( 12-O , 14-H ) :   0.7493
B( 15-O , 16-H ) :   0.8173 B( 15-O , 17-H ) :   0.8385 B( 18-O , 19-H ) :   0.8312
B( 18-O , 20-H ) :   0.8150 B( 21-O , 22-H ) :   0.7945 B( 21-O , 23-H ) :   0.8462

MP2 TOTAL ENERGY:     -610.598041136 Eh
FINAL SINGLE POINT ENERGY      -610.598041135922

DIPOLE MOMENT
-------------
                                X             Y             Z
Electronic contribution:     -0.01674       0.07670      -0.00858
Nuclear contribution   :     -2.00875       0.48085       0.00000
                        -----------------------------------------
Total Dipole Moment    :     -2.02549       0.55755      -0.00858
                        -----------------------------------------
Magnitude (a.u.)       :      2.10084
Magnitude (Debye)      :      5.33992

Rotational constants in cm-1:     0.034665     0.021282     0.019580
Rotational constants in MHz :  1039.244463   638.012722   586.989292

                             ****ORCA TERMINATED NORMALLY****
TOTAL RUN TIME: 0 days 0 hours 5 minutes 30 seconds 8 msec
