                         Program Version 4.2.0 -  RELEASE  -
|  1> ! MP2 def2-TZVP EnGrad TightSCF FrozenCore
|  2>
|  3> %pal
|  4>     nprocs 8
|  5> end
|  6>
|  7> %maxcore 8000
|  8>
|  9> %scf
| 10>     ConvForced true
| 11> end
| 12>
| 13> *xyz 0 1
| 14> O          0.00000        0.00000        0.00000
| 15> H          0.97740        0.00000        0.00000
| 16> H         -0.25837        0.00000       -0.92915
| 17> O          1.34847       -1.00428        3.00497
| 18> H          0.74657       -1.71265        2.74139
| 19> H          0.80291       -0.18948        2.96020
| 20> O          2.64272        0.16865        0.89946
| 21> H          2.38934       -0.40060        1.66207
| 22> H          3.55740       -0.05620        0.69290
| 23> O          0.35510        1.57304        2.33838
| 24> H          1.26017        1.76696        2.04962
| 25> H         -0.06385        1.28707        1.50560
| 26> *
| 27>
| 28>
| 29>                          ****END OF INPUT****

CARTESIAN COORDINATES (ANGSTROEM)
---------------------------------
  O      0.000000    0.000000    0.000000
  H      0.977400    0.000000    0.000000
  H     -0.258370    0.000000   -0.929150
  O      1.348470   -1.004280    3.004970
  H      0.746570   -1.712650    2.741390
  H      0.802910   -0.189480    2.960200
  O      2.642720    0.168650    0.899460
  H      2.389340   -0.400600    1.662070
  H      3.557400   -0.056200    0.692900
  O      0.355100    1.573040    2.338380
  H      1.260170    1.766960    2.049620
  H     -0.063850    1.287070    1.505600

 Total Charge           Charge          ....    0
 Multiplicity           Mult            ....    1
 Number of Electrons    NEL             ....   40
 Basis Dimension        Dim             ....  172

ORBITAL ENERGIES
----------------

  NO   OCC          E(Eh)            E(eV)
   0   2.0000     -20.568087      -559.6861
   1   2.0000     -20.562922      -559.5456
   2   2.0000     -20.560849      -559.4891
   3   2.0000     -20.549689      -559.1855
   4   2.0000      -1.363922       -37.1142
   5   2.0000      -1.347650       -36.6714
   6   2.0000      -1.343079       -36.5470
   7   2.0000      -1.331634       -36.2356
   8   2.0000      -0.739786       -20.1306
   9   2.0000      -0.720331       -19.6012
  10   2.0000      -0.705617       -19.2008
  11   2.0000      -0.692835       -18.8530
  12   2.0000      -0.607615       -16.5340
  13   2.0000      -0.596920       -16.2430
  14   2.0000      -0.587788       -15.9945
  15   2.0000      -0.560485       -15.2516
  16   2.0000      -0.518988       -14.1224
  17   2.0000      -0.510950       -13.9037
  18   2.0000      -0.508597       -13.8396
  19   2.0000      -0.492874       -13.4118
  20   0.0000       0.117885         3.2078
  21   0.0000       0.153452         4.1756
  22   0.0000       0.164008         4.4629
  23   0.0000       0.197407         5.3717
  24   0.0000       0.267736         7.2855

MULLIKEN ATOMIC CHARGES
-----------------------
   0 O :   -0.718653
   1 H :    0.364624
   2 H :    0.338071
   3 O :   -0.715388
   4 H :    0.348248
   5 H :    0.378905
   6 O :   -0.737529
   7 H :    0.381928
   8 H :    0.343333
   9 O :   -0.710326
  10 H :    0.352077
  11 H :    0.374712
Sum of atomic charges:   -0.0000000

LOEWDIN ATOMIC CHARGES
----------------------
   0 O :   -0.327058
   1 H :    0.152806
   2 H :    0.160464
   3 O :   -0.304764
   4 H :    0.163515
   5 H :    0.157176
   6 O :   -0.327562
   7 H :    0.153338
   8 H :    0.161143
   9 O :   -0.303923
  10 H :    0.158491
  11 H :    0.156375

  Mayer bond orders larger than 0.100000
B(  0-O ,  1-H ) :   0.7939 B(  0-O ,  2-H ) :   0.8496 B(  3-O ,  4-H ) :   0.8424
B(  3-O ,  5-H ) :   0.7812 B(  6-O ,  7-H ) :   0.7639 B(  6-O ,  8-H ) :   0.8462
B(  9-O , 10-H ) :   0.8354 B(  9-O , 11-H ) :   0.8058

MP2 TOTAL ENERGY:     -305.295203351 Eh
FINAL SINGLE POINT ENERGY      -305.295203351298

DIPOLE MOMENT
-------------
                                X             Y             Z
Electronic contribution:     -0.10413       0.07888       0.29573
Nuclear contribution   :      0.59846      -0.64901      -1.50074
                        -----------------------------------------
Total Dipole Moment    :      0.49433      -0.57013      -1.20501
                        -----------------------------------------
Magnitude (a.u.)       :      1.42177
Magnitude (Debye)      :      3.61386

Rotational constants in cm-1:     0.125999     0.106937     0.087003
Rotational constants in MHz :  3777.351731  3205.878662  2608.270884

                             ****ORCA TERMINATED NORMALLY****
TOTAL RUN TIME: 0 days 0 hours 0 minutes 32 seconds 140 msec
