                         Program Version 3.0.3 - RELEASE   -
|  1> ! wB97X-D3 Def2-TZVP def2-TZVP/J RIJCOSX TightSCF Grid4
|  2>
|  3> %pal nprocs 12 end
|  4>
|  5> %scf
|  6>         maxiter 400
|  7> end
|  8>
|  9> * xyz  0  1
| 10> O  -0.173776	-1.232856	-0.653106
| 11> H  0.103189	-0.335831	-0.904492
| 12> H  0.646359	-1.742665	-0.711175
| 13> O  0.161576	1.194881	0.627069
| 14> H  -0.097528	0.280234	0.830516
| 15> H  -0.678710	1.673458	0.650544
| 16> **                         ****END OF INPUT****

CARTESIAN COORDINATES (ANGSTROEM)
---------------------------------
  O     -0.173776   -1.232856   -0.653106
  H      0.103189   -0.335831   -0.904492
  H      0.646359   -1.742665   -0.711175
  O      0.161576    1.194881    0.627069
  H     -0.097528    0.280234    0.830516
  H     -0.678710    1.673458    0.650544

 Total Charge           Charge          ....    0
 Multiplicity           Mult            ....    1
 Number of Electrons    NEL             ....   20
 Basis Dimension        Dim             ....   86

ORBITAL ENERGIES
----------------

  NO   OCC          E(Eh)            E(eV)
   0   2.0000     -19.239353      -523.5294
   1   2.0000     -19.235689      -523.4297
   2   2.0000      -1.137868       -30.9630
   3   2.0000      -1.122558       -30.5464
   4   2.0000      -0.646872       -17.6023
   5   2.0000      -0.618984       -16.8434
   6   2.0000      -0.505560       -13.7570
   7   2.0000      -0.493032       -13.4161
   8   2.0000      -0.429948       -11.6995
   9   2.0000      -0.411685       -11.2025
  10   0.0000       0.097753         2.6600
  11   0.0000       0.140121         3.8129
  12   0.0000       0.197235         5.3670
  13   0.0000       0.215183         5.8554
  14   0.0000       0.408674        11.1206

MULLIKEN ATOMIC CHARGES
-----------------------
   0 O :   -0.667284
   1 H :    0.333375
   2 H :    0.334960
   3 O :   -0.668164
   4 H :    0.333680
   5 H :    0.333433
Sum of atomic charges:   -0.0000000

LOEWDIN ATOMIC CHARGES
----------------------
   0 O :   -0.312395
   1 H :    0.153740
   2 H :    0.161125
   3 O :   -0.314857
   4 H :    0.152230
   5 H :    0.160158

  Mayer bond orders larger than 0.1
B(  0-O ,  1-H ) :   0.8763 B(  0-O ,  2-H ) :   0.8983 B(  3-O ,  4-H ) :   0.8746
B(  3-O ,  5-H ) :   0.8996

Dispersion correction           -0.000510415
FINAL SINGLE POINT ENERGY      -152.884993692361

DIPOLE MOMENT
-------------
                                X             Y             Z
Electronic contribution:      0.00051      -0.00529       0.00576
Nuclear contribution   :     -0.00191      -0.04066      -0.06870
                        -----------------------------------------
Total Dipole Moment    :     -0.00140      -0.04595      -0.06294
                        -----------------------------------------
Magnitude (a.u.)       :      0.07794
Magnitude (Debye)      :      0.19811

                             ****ORCA TERMINATED NORMALLY****
TOTAL RUN TIME: 0 days 0 hours 0 minutes 49 seconds 199 msec
