                         Program Version 3.0.3 - RELEASE   -
|  1> ! wB97X-D3 MA-Def2-TZVP def2-TZVP/J RIJCOSX TightSCF Grid4
|  2>
|  3> %pal nprocs 1 end
|  4>
|  5> %scf
|  6>         maxiter 400
|  7> end
|  8>
|  9> * xyz  0  1
| 10> O  -0.194107	-1.114378	-0.642827
| 11> H  0.151227	-0.694600	-1.454474
| 12> H  0.555326	-1.666912	-0.347884
| 13> O  0.167277	1.314379	0.814409
| 14> H  0.021976	0.425477	0.413558
| 15> H  -0.740588	1.573255	1.056575
| 16> **                         ****END OF INPUT****

CARTESIAN COORDINATES (ANGSTROEM)
---------------------------------
  O     -0.194107   -1.114378   -0.642827
  H      0.151227   -0.694600   -1.454474
  H      0.555326   -1.666912   -0.347884
  O      0.167277    1.314379    0.814409
  H      0.021976    0.425477    0.413558
  H     -0.740588    1.573255    1.056575

 Total Charge           Charge          ....    0
 Multiplicity           Mult            ....    1
 Number of Electrons    NEL             ....   20
 Basis Dimension        Dim             ....   94

ORBITAL ENERGIES
----------------

  NO   OCC          E(Eh)            E(eV)
   0   2.0000     -19.271695      -524.4095
   1   2.0000     -19.211817      -522.7801
   2   2.0000      -1.158428       -31.5224
   3   2.0000      -1.097654       -29.8687
   4   2.0000      -0.656828       -17.8732
   5   2.0000      -0.603593       -16.4246
   6   2.0000      -0.530037       -14.4230
   7   2.0000      -0.480156       -13.0657
   8   2.0000      -0.439831       -11.9684
   9   2.0000      -0.393087       -10.6964
  10   0.0000       0.058626         1.5953
  11   0.0000       0.110871         3.0170
  12   0.0000       0.125822         3.4238
  13   0.0000       0.140979         3.8362
  14   0.0000       0.166426         4.5287

MULLIKEN ATOMIC CHARGES
-----------------------
   0 O :   -0.692025
   1 H :    0.358214
   2 H :    0.357201
   3 O :   -0.686830
   4 H :    0.339971
   5 H :    0.323469
Sum of atomic charges:    0.0000000

LOEWDIN ATOMIC CHARGES
----------------------
   0 O :   -0.356930
   1 H :    0.200481
   2 H :    0.199110
   3 O :   -0.409845
   4 H :    0.181054
   5 H :    0.186131

  Mayer bond orders larger than 0.1
B(  0-O ,  1-H ) :   0.8887 B(  0-O ,  2-H ) :   0.8892 B(  3-O ,  4-H ) :   0.8637
B(  3-O ,  5-H ) :   0.9020

Dispersion correction           -0.000550958
FINAL SINGLE POINT ENERGY      -152.887650562318

DIPOLE MOMENT
-------------
                                X             Y             Z
Electronic contribution:     -0.02261      -0.09365      -0.02907
Nuclear contribution   :      0.03463      -0.63491      -0.56217
                        -----------------------------------------
Total Dipole Moment    :      0.01202      -0.72856      -0.59124
                        -----------------------------------------
Magnitude (a.u.)       :      0.93835
Magnitude (Debye)      :      2.38510

                             ****ORCA TERMINATED NORMALLY****
TOTAL RUN TIME: 0 days 0 hours 0 minutes 17 seconds 512 msec
