                         Program Version 3.0.3 - RELEASE   -
|  1> ! B3LYP Def2-TZVP def2-TZVP/J RIJCOSX TightSCF Grid4 D3BJ
|  2>
|  3> %pal nprocs 12 end
|  4>
|  5> %scf
|  6>         maxiter 400
|  7> end
|  8>
|  9> * xyz  0  1
| 10> O  -0.173776	-1.232856	-0.653106
| 11> H  0.103189	-0.335831	-0.904492
| 12> H  0.646359	-1.742665	-0.711175
| 13> O  0.161576	1.194881	0.627069
| 14> H  -0.097528	0.280234	0.830516
| 15> H  -0.678710	1.673458	0.650544
| 16> **                         ****END OF INPUT****

CARTESIAN COORDINATES (ANGSTROEM)
---------------------------------
  O     -0.173776   -1.232856   -0.653106
  H      0.103189   -0.335831   -0.904492
  H      0.646359   -1.742665   -0.711175
  O      0.161576    1.194881    0.627069
  H     -0.097528    0.280234    0.830516
  H     -0.678710    1.673458    0.650544

 Total Charge           Charge          ....    0
 Multiplicity           Mult            ....    1
 Number of Electrons    NEL             ....   20
 Basis Dimension        Dim             ....   86

ORBITAL ENERGIES
----------------

  NO   OCC          E(Eh)            E(eV)
   0   2.0000     -19.132833      -520.6309
   1   2.0000     -19.129242      -520.5331
   2   2.0000      -1.023055       -27.8387
   3   2.0000      -1.008314       -27.4376
   4   2.0000      -0.545045       -14.8314
   5   2.0000      -0.519016       -14.1232
   6   2.0000      -0.404288       -11.0012
   7   2.0000      -0.392412       -10.6781
   8   2.0000      -0.329485        -8.9657
   9   2.0000      -0.312650        -8.5076
  10   0.0000       0.008155         0.2219
  11   0.0000       0.048886         1.3303
  12   0.0000       0.109360         2.9758
  13   0.0000       0.126258         3.4356
  14   0.0000       0.314455         8.5567

MULLIKEN ATOMIC CHARGES
-----------------------
   0 O :   -0.645792
   1 H :    0.325716
   2 H :    0.321052
   3 O :   -0.647132
   4 H :    0.326512
   5 H :    0.319643
Sum of atomic charges:   -0.0000000

LOEWDIN ATOMIC CHARGES
----------------------
   0 O :   -0.310640
   1 H :    0.152890
   2 H :    0.160130
   3 O :   -0.313126
   4 H :    0.151530
   5 H :    0.159217

  Mayer bond orders larger than 0.1
B(  0-O ,  1-H ) :   0.8765 B(  0-O ,  2-H ) :   0.9047 B(  3-O ,  4-H ) :   0.8747
B(  3-O ,  5-H ) :   0.9060

Dispersion correction           -0.002401128
FINAL SINGLE POINT ENERGY      -152.861135780101

DIPOLE MOMENT
-------------
                                X             Y             Z
Electronic contribution:      0.00054      -0.00473       0.00688
Nuclear contribution   :     -0.00191      -0.04066      -0.06870
                        -----------------------------------------
Total Dipole Moment    :     -0.00137      -0.04539      -0.06182
                        -----------------------------------------
Magnitude (a.u.)       :      0.07671
Magnitude (Debye)      :      0.19498

                             ****ORCA TERMINATED NORMALLY****
TOTAL RUN TIME: 0 days 0 hours 0 minutes 48 seconds 429 msec
