                         Program Version 3.0.3 - RELEASE   -
|  1> ! wB97X-D3 Def2-TZVP def2-TZVP/J RIJCOSX TightSCF Grid4 COSMO
|  2>
|  3> %pal nprocs 12 end
|  4>
|  5> %scf
|  6>         maxiter 400
|  7> end
|  8>
|  9> %cosmo
| 10>         SMD true
| 11>         solvent "WATER"
| 12> end
| 13>
| 14> * xyz  0  1
| 15> O  -0.192751	-1.048039	-0.618304
| 16> H  0.134862	-0.731892	-1.484700
| 17> H  0.547202	-1.608250	-0.307015
| 18> O  0.175552	1.259186	0.870962
| 19> H  0.041252	0.421075	0.350277
| 20> H  -0.745006	1.545142	1.028135
| 21> **                         ****END OF INPUT****

CARTESIAN COORDINATES (ANGSTROEM)
---------------------------------
  O     -0.192751   -1.048039   -0.618304
  H      0.134862   -0.731892   -1.484700
  H      0.547202   -1.608250   -0.307015
  O      0.175552    1.259186    0.870962
  H      0.041252    0.421075    0.350277
  H     -0.745006    1.545142    1.028135

 Total Charge           Charge          ....    0
 Multiplicity           Mult            ....    1
 Number of Electrons    NEL             ....   20
 Basis Dimension        Dim             ....   86

ORBITAL ENERGIES
----------------

  NO   OCC          E(Eh)            E(eV)
   0   2.0000     -19.247215      -523.7433
   1   2.0000     -19.218520      -522.9625
   2   2.0000      -1.134501       -30.8713
   3   2.0000      -1.103049       -30.0155
   4   2.0000      -0.627328       -17.0705
   5   2.0000      -0.608860       -16.5679
   6   2.0000      -0.519063       -14.1244
   7   2.0000      -0.488849       -13.3023
   8   2.0000      -0.426182       -11.5970
   9   2.0000      -0.409982       -11.1562
  10   0.0000       0.117240         3.1903
  11   0.0000       0.165861         4.5133
  12   0.0000       0.204630         5.5683
  13   0.0000       0.287856         7.8330
  14   0.0000       0.420363        11.4386

MULLIKEN ATOMIC CHARGES
-----------------------
   0 O :   -0.754309
   1 H :    0.402419
   2 H :    0.403334
   3 O :   -0.796435
   4 H :    0.360928
   5 H :    0.384062
Sum of atomic charges:   -0.0000000

LOEWDIN ATOMIC CHARGES
----------------------
   0 O :   -0.311245
   1 H :    0.195664
   2 H :    0.196248
   3 O :   -0.408453
   4 H :    0.146956
   5 H :    0.180831

  Mayer bond orders larger than 0.1
B(  0-O ,  1-H ) :   0.8461 B(  0-O ,  2-H ) :   0.8458 B(  0-O ,  4-H ) :   0.1121
B(  3-O ,  4-H ) :   0.8146 B(  3-O ,  5-H ) :   0.8638

Dispersion correction           -0.000542533
FINAL SINGLE POINT ENERGY      -152.908310337323

DIPOLE MOMENT
-------------
                                X             Y             Z
Electronic contribution:     -0.02048      -0.21560      -0.14377
Nuclear contribution   :      0.01058      -0.66274      -0.76462
                        -----------------------------------------
Total Dipole Moment    :     -0.00990      -0.87834      -0.90839
                        -----------------------------------------
Magnitude (a.u.)       :      1.26363
Magnitude (Debye)      :      3.21189

                             ****ORCA TERMINATED NORMALLY****
TOTAL RUN TIME: 0 days 0 hours 0 minutes 50 seconds 263 msec
