                         Program Version 3.0.3 - RELEASE   -
|  1> ! B3LYP Def2-TZVP def2-TZVP/J RIJCOSX TightSCF Grid4 D3BJ
|  2>
|  3> %pal nprocs 12 end
|  4>
|  5> %scf
|  6>         maxiter 400
|  7> end
|  8>
|  9> * xyz  0  1
| 10> O  -0.194107	-1.114378	-0.642827
| 11> H  0.151227	-0.694600	-1.454474
| 12> H  0.555326	-1.666912	-0.347884
| 13> O  0.167277	1.314379	0.814409
| 14> H  0.021976	0.425477	0.413558
| 15> H  -0.740588	1.573255	1.056575
| 16> **                         ****END OF INPUT****

CARTESIAN COORDINATES (ANGSTROEM)
---------------------------------
  O     -0.194107   -1.114378   -0.642827
  H      0.151227   -0.694600   -1.454474
  H      0.555326   -1.666912   -0.347884
  O      0.167277    1.314379    0.814409
  H      0.021976    0.425477    0.413558
  H     -0.740588    1.573255    1.056575

 Total Charge           Charge          ....    0
 Multiplicity           Mult            ....    1
 Number of Electrons    NEL             ....   20
 Basis Dimension        Dim             ....   86

ORBITAL ENERGIES
----------------

  NO   OCC          E(Eh)            E(eV)
   0   2.0000     -19.161606      -521.4138
   1   2.0000     -19.096301      -519.6368
   2   2.0000      -1.041338       -28.3363
   3   2.0000      -0.976888       -26.5825
   4   2.0000      -0.554024       -15.0758
   5   2.0000      -0.496477       -13.5098
   6   2.0000      -0.426529       -11.6065
   7   2.0000      -0.373744       -10.1701
   8   2.0000      -0.337752        -9.1907
   9   2.0000      -0.286817        -7.8047
  10   0.0000      -0.005097        -0.1387
  11   0.0000       0.058492         1.5917
  12   0.0000       0.074124         2.0170
  13   0.0000       0.183639         4.9971
  14   0.0000       0.316864         8.6223

MULLIKEN ATOMIC CHARGES
-----------------------
   0 O :   -0.634454
   1 H :    0.336560
   2 H :    0.336552
   3 O :   -0.663810
   4 H :    0.318353
   5 H :    0.306799
Sum of atomic charges:   -0.0000000

LOEWDIN ATOMIC CHARGES
----------------------
   0 O :   -0.285190
   1 H :    0.170836
   2 H :    0.171110
   3 O :   -0.352652
   4 H :    0.140086
   5 H :    0.155810

  Mayer bond orders larger than 0.1
B(  0-O ,  1-H ) :   0.8923 B(  0-O ,  2-H ) :   0.8934 B(  3-O ,  4-H ) :   0.8610
B(  3-O ,  5-H ) :   0.9158

Dispersion correction           -0.002277916
FINAL SINGLE POINT ENERGY      -152.861526030742

DIPOLE MOMENT
-------------
                                X             Y             Z
Electronic contribution:     -0.01355      -0.09893      -0.03415
Nuclear contribution   :      0.03463      -0.63491      -0.56217
                        -----------------------------------------
Total Dipole Moment    :      0.02107      -0.73384      -0.59632
                        -----------------------------------------
Magnitude (a.u.)       :      0.94581
Magnitude (Debye)      :      2.40407

                             ****ORCA TERMINATED NORMALLY****
TOTAL RUN TIME: 0 days 0 hours 0 minutes 50 seconds 218 msec
