                         Program Version 3.0.3 - RELEASE   -
|  1> ! wB97X-D3 Def2-TZVP def2-TZVP/J RIJCOSX TightSCF Grid4
|  2>
|  3> %pal nprocs 12 end
|  4>
|  5> %scf
|  6>         maxiter 400
|  7> end
|  8>
|  9> * xyz  0  1
| 10> O  -0.194107	-1.114378	-0.642827
| 11> H  0.151227	-0.694600	-1.454474
| 12> H  0.555326	-1.666912	-0.347884
| 13> O  0.167277	1.314379	0.814409
| 14> H  0.021976	0.425477	0.413558
| 15> H  -0.740588	1.573255	1.056575
| 16> **                         ****END OF INPUT****

CARTESIAN COORDINATES (ANGSTROEM)
---------------------------------
  O     -0.194107   -1.114378   -0.642827
  H      0.151227   -0.694600   -1.454474
  H      0.555326   -1.666912   -0.347884
  O      0.167277    1.314379    0.814409
  H      0.021976    0.425477    0.413558
  H     -0.740588    1.573255    1.056575

 Total Charge           Charge          ....    0
 Multiplicity           Mult            ....    1
 Number of Electrons    NEL             ....   20
 Basis Dimension        Dim             ....   86

ORBITAL ENERGIES
----------------

  NO   OCC          E(Eh)            E(eV)
   0   2.0000     -19.267511      -524.2956
   1   2.0000     -19.203419      -522.5516
   2   2.0000      -1.155429       -31.4408
   3   2.0000      -1.091827       -29.7101
   4   2.0000      -0.654075       -17.7983
   5   2.0000      -0.598336       -16.2816
   6   2.0000      -0.526827       -14.3357
   7   2.0000      -0.475416       -12.9367
   8   2.0000      -0.435908       -11.8617
   9   2.0000      -0.387496       -10.5443
  10   0.0000       0.086206         2.3458
  11   0.0000       0.148916         4.0522
  12   0.0000       0.163923         4.4606
  13   0.0000       0.272759         7.4222
  14   0.0000       0.411666        11.2020

MULLIKEN ATOMIC CHARGES
-----------------------
   0 O :   -0.661564
   1 H :    0.348916
   2 H :    0.348693
   3 O :   -0.674946
   4 H :    0.319417
   5 H :    0.319484
Sum of atomic charges:   -0.0000000

LOEWDIN ATOMIC CHARGES
----------------------
   0 O :   -0.288448
   1 H :    0.171854
   2 H :    0.171906
   3 O :   -0.351868
   4 H :    0.139635
   5 H :    0.156921

  Mayer bond orders larger than 0.1
B(  0-O ,  1-H ) :   0.8863 B(  0-O ,  2-H ) :   0.8874 B(  3-O ,  4-H ) :   0.8654
B(  3-O ,  5-H ) :   0.9104

Dispersion correction           -0.000550958
FINAL SINGLE POINT ENERGY      -152.885271586460

DIPOLE MOMENT
-------------
                                X             Y             Z
Electronic contribution:     -0.01255      -0.09594      -0.03510
Nuclear contribution   :      0.03463      -0.63491      -0.56217
                        -----------------------------------------
Total Dipole Moment    :      0.02208      -0.73085      -0.59727
                        -----------------------------------------
Magnitude (a.u.)       :      0.94412
Magnitude (Debye)      :      2.39976

                             ****ORCA TERMINATED NORMALLY****
TOTAL RUN TIME: 0 days 0 hours 0 minutes 48 seconds 591 msec
