                         Program Version 3.0.3 - RELEASE   -
|  1> ! B3LYP Def2-TZVP def2-TZVP/J RIJCOSX TightSCF Grid4 D3BJ COSMO
|  2>
|  3> %pal nprocs 12 end
|  4>
|  5> %scf
|  6>         maxiter 400
|  7> end
|  8>
|  9> %cosmo
| 10>         SMD true
| 11>         solvent "WATER"
| 12> end
| 13>
| 14> * xyz  0  1
| 15> O  -0.165161	-0.992666	-0.645176
| 16> H  0.241978	-0.810154	-1.507569
| 17> H  0.427574	-1.655835	-0.257698
| 18> O  0.133623	1.357521	0.769269
| 19> H  0.044747	0.520417	0.260333
| 20> H  -0.721650	1.417937	1.220198
| 21> **                         ****END OF INPUT****

CARTESIAN COORDINATES (ANGSTROEM)
---------------------------------
  O     -0.165161   -0.992666   -0.645176
  H      0.241978   -0.810154   -1.507569
  H      0.427574   -1.655835   -0.257698
  O      0.133623    1.357521    0.769269
  H      0.044747    0.520417    0.260333
  H     -0.721650    1.417937    1.220198

 Total Charge           Charge          ....    0
 Multiplicity           Mult            ....    1
 Number of Electrons    NEL             ....   20
 Basis Dimension        Dim             ....   86

ORBITAL ENERGIES
----------------

  NO   OCC          E(Eh)            E(eV)
   0   2.0000     -19.137848      -520.7673
   1   2.0000     -19.108893      -519.9794
   2   2.0000      -1.020963       -27.7818
   3   2.0000      -0.990882       -26.9633
   4   2.0000      -0.529975       -14.4213
   5   2.0000      -0.510511       -13.8917
   6   2.0000      -0.417892       -11.3714
   7   2.0000      -0.383429       -10.4336
   8   2.0000      -0.327711        -8.9175
   9   2.0000      -0.308990        -8.4080
  10   0.0000       0.028701         0.7810
  11   0.0000       0.075659         2.0588
  12   0.0000       0.117121         3.1870
  13   0.0000       0.199576         5.4307
  14   0.0000       0.328694         8.9442

MULLIKEN ATOMIC CHARGES
-----------------------
   0 O :   -0.723073
   1 H :    0.387252
   2 H :    0.386958
   3 O :   -0.779606
   4 H :    0.360728
   5 H :    0.367740
Sum of atomic charges:   -0.0000000

LOEWDIN ATOMIC CHARGES
----------------------
   0 O :   -0.297412
   1 H :    0.190008
   2 H :    0.189256
   3 O :   -0.396135
   4 H :    0.139709
   5 H :    0.174573

  Mayer bond orders larger than 0.1
B(  0-O ,  1-H ) :   0.8568 B(  0-O ,  2-H ) :   0.8567 B(  0-O ,  4-H ) :   0.1153
B(  3-O ,  4-H ) :   0.8156 B(  3-O ,  5-H ) :   0.8746

Dispersion correction           -0.002299053
FINAL SINGLE POINT ENERGY      -152.884954004881

DIPOLE MOMENT
-------------
                                X             Y             Z
Electronic contribution:     -0.01375      -0.22258      -0.13588
Nuclear contribution   :      0.04638      -1.04656      -0.44358
                        -----------------------------------------
Total Dipole Moment    :      0.03263      -1.26914      -0.57946
                        -----------------------------------------
Magnitude (a.u.)       :      1.39555
Magnitude (Debye)      :      3.54721

                             ****ORCA TERMINATED NORMALLY****
TOTAL RUN TIME: 0 days 0 hours 0 minutes 50 seconds 355 msec
