                         Program Version 3.0.3 - RELEASE   -
|  1> ! wB97X-D3 MA-Def2-TZVP def2-TZVP/J RIJCOSX TightSCF Grid4
|  2>
|  3> %pal nprocs 1 end
|  4>
|  5> %scf
|  6>         maxiter 400
|  7> end
|  8>
|  9> %cosmo
| 10>         SMD true
| 11>         solvent "WATER"
| 12> end
| 13>
| 14> * xyz  0  1
| 15> O  -0.192751	-1.048039	-0.618304
| 16> H  0.134862	-0.731892	-1.484700
| 17> H  0.547202	-1.608250	-0.307015
| 18> O  0.175552	1.259186	0.870962
| 19> H  0.041252	0.421075	0.350277
| 20> H  -0.745006	1.545142	1.028135
| 21> **                         ****END OF INPUT****

CARTESIAN COORDINATES (ANGSTROEM)
---------------------------------
  O     -0.192751   -1.048039   -0.618304
  H      0.134862   -0.731892   -1.484700
  H      0.547202   -1.608250   -0.307015
  O      0.175552    1.259186    0.870962
  H      0.041252    0.421075    0.350277
  H     -0.745006    1.545142    1.028135

 Total Charge           Charge          ....    0
 Multiplicity           Mult            ....    1
 Number of Electrons    NEL             ....   20
 Basis Dimension        Dim             ....   94

ORBITAL ENERGIES
----------------

  NO   OCC          E(Eh)            E(eV)
   0   2.0000     -19.250288      -523.8270
   1   2.0000     -19.224508      -523.1255
   2   2.0000      -1.136476       -30.9251
   3   2.0000      -1.106535       -30.1104
   4   2.0000      -0.628983       -17.1155
   5   2.0000      -0.611962       -16.6523
   6   2.0000      -0.521329       -14.1861
   7   2.0000      -0.491575       -13.3764
   8   2.0000      -0.428375       -11.6567
   9   2.0000      -0.413280       -11.2459
  10   0.0000       0.079581         2.1655
  11   0.0000       0.119955         3.2641
  12   0.0000       0.139954         3.8083
  13   0.0000       0.141814         3.8590
  14   0.0000       0.171525         4.6674

MULLIKEN ATOMIC CHARGES
-----------------------
   0 O :   -0.781039
   1 H :    0.410807
   2 H :    0.411230
   3 O :   -0.815936
   4 H :    0.383475
   5 H :    0.391463
Sum of atomic charges:   -0.0000000

LOEWDIN ATOMIC CHARGES
----------------------
   0 O :   -0.377864
   1 H :    0.222285
   2 H :    0.222391
   3 O :   -0.465223
   4 H :    0.188993
   5 H :    0.209418

  Mayer bond orders larger than 0.1
B(  0-O ,  1-H ) :   0.8461 B(  0-O ,  2-H ) :   0.8455 B(  3-O ,  4-H ) :   0.8085
B(  3-O ,  5-H ) :   0.8535

Dispersion correction           -0.000542533
FINAL SINGLE POINT ENERGY      -152.910521681798

DIPOLE MOMENT
-------------
                                X             Y             Z
Electronic contribution:     -0.02728      -0.20955      -0.14131
Nuclear contribution   :      0.01058      -0.66274      -0.76462
                        -----------------------------------------
Total Dipole Moment    :     -0.01670      -0.87229      -0.90594
                        -----------------------------------------
Magnitude (a.u.)       :      1.25773
Magnitude (Debye)      :      3.19691

                             ****ORCA TERMINATED NORMALLY****
TOTAL RUN TIME: 0 days 0 hours 0 minutes 19 seconds 915 msec
