                         Program Version 3.0.3 - RELEASE   -
|  1> ! B3LYP Def2-TZVP def2-TZVP/J RIJCOSX TightSCF Grid4 D3BJ COSMO
|  2>
|  3> %pal nprocs 12 end
|  4>
|  5> %scf
|  6>         maxiter 400
|  7> end
|  8>
|  9> %cosmo
| 10>         SMD true
| 11>         solvent "WATER"
| 12> end
| 13>
| 14> * xyz  0  1
| 15> O  -0.192751	-1.048039	-0.618304
| 16> H  0.134862	-0.731892	-1.484700
| 17> H  0.547202	-1.608250	-0.307015
| 18> O  0.175552	1.259186	0.870962
| 19> H  0.041252	0.421075	0.350277
| 20> H  -0.745006	1.545142	1.028135
| 21> **                         ****END OF INPUT****

CARTESIAN COORDINATES (ANGSTROEM)
---------------------------------
  O     -0.192751   -1.048039   -0.618304
  H      0.134862   -0.731892   -1.484700
  H      0.547202   -1.608250   -0.307015
  O      0.175552    1.259186    0.870962
  H      0.041252    0.421075    0.350277
  H     -0.745006    1.545142    1.028135

 Total Charge           Charge          ....    0
 Multiplicity           Mult            ....    1
 Number of Electrons    NEL             ....   20
 Basis Dimension        Dim             ....   86

ORBITAL ENERGIES
----------------

  NO   OCC          E(Eh)            E(eV)
   0   2.0000     -19.140606      -520.8424
   1   2.0000     -19.110236      -520.0160
   2   2.0000      -1.019508       -27.7422
   3   2.0000      -0.987146       -26.8616
   4   2.0000      -0.526430       -14.3249
   5   2.0000      -0.505725       -13.7615
   6   2.0000      -0.417172       -11.3518
   7   2.0000      -0.386880       -10.5276
   8   2.0000      -0.327448        -8.9103
   9   2.0000      -0.308296        -8.3892
  10   0.0000       0.026871         0.7312
  11   0.0000       0.074589         2.0297
  12   0.0000       0.115000         3.1293
  13   0.0000       0.199152         5.4192
  14   0.0000       0.326183         8.8759

MULLIKEN ATOMIC CHARGES
-----------------------
   0 O :   -0.723647
   1 H :    0.388967
   2 H :    0.389961
   3 O :   -0.783169
   4 H :    0.358879
   5 H :    0.369008
Sum of atomic charges:    0.0000000

LOEWDIN ATOMIC CHARGES
----------------------
   0 O :   -0.307006
   1 H :    0.194717
   2 H :    0.195376
   3 O :   -0.409450
   4 H :    0.147138
   5 H :    0.179225

  Mayer bond orders larger than 0.1
B(  0-O ,  1-H ) :   0.8548 B(  0-O ,  2-H ) :   0.8545 B(  0-O ,  4-H ) :   0.1228
B(  3-O ,  4-H ) :   0.8096 B(  3-O ,  5-H ) :   0.8731

Dispersion correction           -0.002320535
FINAL SINGLE POINT ENERGY      -152.884199288489

DIPOLE MOMENT
-------------
                                X             Y             Z
Electronic contribution:     -0.02167      -0.22346      -0.14493
Nuclear contribution   :      0.01058      -0.66274      -0.76462
                        -----------------------------------------
Total Dipole Moment    :     -0.01109      -0.88620      -0.90956
                        -----------------------------------------
Magnitude (a.u.)       :      1.26995
Magnitude (Debye)      :      3.22795

                             ****ORCA TERMINATED NORMALLY****
TOTAL RUN TIME: 0 days 0 hours 0 minutes 50 seconds 558 msec
