                         Program Version 4.2.0 -  RELEASE  -
|  1> # 12meoh.boyd.etal.mol0,5
|  2> ! MP2 def2-TZVP EnGrad TightSCF
|  3>
|  4> %pal
|  5>     nprocs 6
|  6> end
|  7>
|  8> %maxcore 8000
|  9>
| 10> %scf
| 11>     ConvForced true
| 12> end
| 13>
| 14> *xyz 0 1
| 15> O  -1.776108874  -2.741384797  -1.019308298
| 16> H  -2.520094035  -2.452295987  -0.420778302
| 17> C  -2.174025166  -3.952700964  -1.647004581
| 18> H  -1.359803895  -4.272673416  -2.304149236
| 19> H  -3.075973971  -3.808692420  -2.256751112
| 20> H  -2.370225393  -4.752784761  -0.918966137
| 21> O  -0.662721750   1.449094618  -1.383082065
| 22> H   0.064188300   2.119867608  -1.465650660
| 23> C  -0.353319239   0.341218776  -2.229326771
| 24> H  -1.072358530  -0.454743281  -2.019906495
| 25> H   0.657636746  -0.044472139  -2.042736771
| 26> H  -0.434616607   0.624733901  -3.287793021
| 27> *
| 28>
| 29>                          ****END OF INPUT****

CARTESIAN COORDINATES (ANGSTROEM)
---------------------------------
  O     -1.776109   -2.741385   -1.019308
  H     -2.520094   -2.452296   -0.420778
  C     -2.174025   -3.952701   -1.647005
  H     -1.359804   -4.272673   -2.304149
  H     -3.075974   -3.808692   -2.256751
  H     -2.370225   -4.752785   -0.918966
  O     -0.662722    1.449095   -1.383082
  H      0.064188    2.119868   -1.465651
  C     -0.353319    0.341219   -2.229327
  H     -1.072359   -0.454743   -2.019906
  H      0.657637   -0.044472   -2.042737
  H     -0.434617    0.624734   -3.287793

 Total Charge           Charge          ....    0
 Multiplicity           Mult            ....    1
 Number of Electrons    NEL             ....   36
 Basis Dimension        Dim             ....  172

ORBITAL ENERGIES
----------------

  NO   OCC          E(Eh)            E(eV)
   0   2.0000     -20.561209      -559.4989
   1   2.0000     -20.545863      -559.0814
   2   2.0000     -11.273831      -306.7765
   3   2.0000     -11.255814      -306.2863
   4   2.0000      -1.350502       -36.7490
   5   2.0000      -1.333856       -36.2961
   6   2.0000      -0.921761       -25.0824
   7   2.0000      -0.905534       -24.6408
   8   2.0000      -0.684601       -18.6289
   9   2.0000      -0.668826       -18.1997
  10   2.0000      -0.620336       -16.8802
  11   2.0000      -0.603875       -16.4323
  12   2.0000      -0.595602       -16.2071
  13   2.0000      -0.575203       -15.6521
  14   2.0000      -0.504226       -13.7207
  15   2.0000      -0.486044       -13.2259
  16   2.0000      -0.451280       -12.2800
  17   2.0000      -0.437354       -11.9010
  18   0.0000       0.131114         3.5678
  19   0.0000       0.146039         3.9739
  20   0.0000       0.173549         4.7225
  21   0.0000       0.191799         5.2191
  22   0.0000       0.225062         6.1242

MULLIKEN ATOMIC CHARGES
-----------------------
   0 O :   -0.492286
   1 H :    0.327399
   2 C :   -0.173833
   3 H :    0.129183
   4 H :    0.111537
   5 H :    0.111018
   6 O :   -0.505114
   7 H :    0.318342
   8 C :   -0.173956
   9 H :    0.144472
  10 H :    0.104614
  11 H :    0.098625
Sum of atomic charges:   -0.0000000

LOEWDIN ATOMIC CHARGES
----------------------
   0 O :   -0.101902
   1 H :    0.194943
   2 C :   -0.384001
   3 H :    0.110408
   4 H :    0.095862
   5 H :    0.097013
   6 O :   -0.116373
   7 H :    0.186207
   8 C :   -0.380424
   9 H :    0.110393
  10 H :    0.095752
  11 H :    0.092120

  Mayer bond orders larger than 0.100000
B(  0-O ,  1-H ) :   0.8369 B(  0-O ,  2-C ) :   0.9178 B(  2-C ,  3-H ) :   0.9393
B(  2-C ,  4-H ) :   0.9399 B(  2-C ,  5-H ) :   0.9340 B(  6-O ,  7-H ) :   0.8449
B(  6-O ,  8-C ) :   0.9221 B(  8-C ,  9-H ) :   0.9303 B(  8-C , 10-H ) :   0.9431
B(  8-C , 11-H ) :   0.9379

MP2 TOTAL ENERGY:     -231.015082197 Eh
FINAL SINGLE POINT ENERGY      -231.015082196741

DIPOLE MOMENT
-------------
                                X             Y             Z
Electronic contribution:      0.08908       2.71216       1.85868
Nuclear contribution   :     -0.16673      -3.17697      -2.10455
                        -----------------------------------------
Total Dipole Moment    :     -0.07766      -0.46481      -0.24586
                        -----------------------------------------
Magnitude (a.u.)       :      0.53153
Magnitude (Debye)      :      1.35105

Rotational constants in cm-1:     0.740372     0.047137     0.045366
Rotational constants in MHz : 22195.784527  1413.137795  1360.033014

                             ****ORCA TERMINATED NORMALLY****
TOTAL RUN TIME: 0 days 0 hours 0 minutes 21 seconds 482 msec
