                         Program Version 4.2.0 -  RELEASE  -
|  1> # 12h2o.su.etal.mol1,2,5
|  2> ! MP2 def2-TZVP EnGrad TightSCF
|  3>
|  4> %pal
|  5>     nprocs 6
|  6> end
|  7>
|  8> %maxcore 8000
|  9>
| 10> %scf
| 11>     ConvForced true
| 12> end
| 13>
| 14> *xyz 0 1
| 15> O  -1.794470000  -0.923410000   2.768350000
| 16> H  -2.338250000  -1.359750000   3.430940000
| 17> H  -0.879480000  -1.303000000   2.865760000
| 18> O   0.923410000  -1.794470000  -2.768350000
| 19> H   1.359750000  -2.338250000  -3.430940000
| 20> H   1.303000000  -0.879480000  -2.865760000
| 21> O   0.885520000  -1.737840000   0.052730000
| 22> H   1.284090000  -0.839590000   0.017130000
| 23> H   1.032320000  -2.090180000  -0.841890000
| 24> *
| 25>
| 26>                          ****END OF INPUT****

CARTESIAN COORDINATES (ANGSTROEM)
---------------------------------
  O     -1.794470   -0.923410    2.768350
  H     -2.338250   -1.359750    3.430940
  H     -0.879480   -1.303000    2.865760
  O      0.923410   -1.794470   -2.768350
  H      1.359750   -2.338250   -3.430940
  H      1.303000   -0.879480   -2.865760
  O      0.885520   -1.737840    0.052730
  H      1.284090   -0.839590    0.017130
  H      1.032320   -2.090180   -0.841890

 Total Charge           Charge          ....    0
 Multiplicity           Mult            ....    1
 Number of Electrons    NEL             ....   30
 Basis Dimension        Dim             ....  129

ORBITAL ENERGIES
----------------

  NO   OCC          E(Eh)            E(eV)
   0   2.0000     -20.590800      -560.3042
   1   2.0000     -20.543791      -559.0250
   2   2.0000     -20.532362      -558.7140
   3   2.0000      -1.368590       -37.2412
   4   2.0000      -1.319190       -35.8970
   5   2.0000      -1.311257       -35.6811
   6   2.0000      -0.735493       -20.0138
   7   2.0000      -0.687485       -18.7074
   8   2.0000      -0.680930       -18.5290
   9   2.0000      -0.605376       -16.4731
  10   2.0000      -0.559565       -15.2266
  11   2.0000      -0.555294       -15.1103
  12   2.0000      -0.524301       -14.2670
  13   2.0000      -0.487009       -13.2522
  14   2.0000      -0.477604       -12.9963
  15   0.0000       0.102927         2.8008
  16   0.0000       0.141646         3.8544
  17   0.0000       0.164614         4.4794
  18   0.0000       0.192134         5.2282
  19   0.0000       0.227991         6.2039

MULLIKEN ATOMIC CHARGES
-----------------------
   0 O :   -0.683524
   1 H :    0.331631
   2 H :    0.350166
   3 O :   -0.688161
   4 H :    0.350175
   5 H :    0.349185
   6 O :   -0.691531
   7 H :    0.316363
   8 H :    0.365698
Sum of atomic charges:   -0.0000000

LOEWDIN ATOMIC CHARGES
----------------------
   0 O :   -0.339535
   1 H :    0.154590
   2 H :    0.183053
   3 O :   -0.308428
   4 H :    0.162457
   5 H :    0.183413
   6 O :   -0.346101
   7 H :    0.161436
   8 H :    0.149114

  Mayer bond orders larger than 0.100000
B(  0-O ,  1-H ) :   0.8570 B(  0-O ,  2-H ) :   0.8396 B(  3-O ,  4-H ) :   0.8428
B(  3-O ,  5-H ) :   0.8378 B(  6-O ,  7-H ) :   0.8623 B(  6-O ,  8-H ) :   0.8206

MP2 TOTAL ENERGY:     -228.942633005 Eh
FINAL SINGLE POINT ENERGY      -228.942633004635

DIPOLE MOMENT
-------------
                                X             Y             Z
Electronic contribution:     -0.24862      -0.07093      -0.09440
Nuclear contribution   :      1.44207       0.08423      -0.77428
                        -----------------------------------------
Total Dipole Moment    :      1.19345       0.01330      -0.86868
                        -----------------------------------------
Magnitude (a.u.)       :      1.47618
Magnitude (Debye)      :      3.75214

Rotational constants in cm-1:     0.811063     0.045845     0.043945
Rotational constants in MHz : 24315.068415  1374.409866  1317.445352

                             ****ORCA TERMINATED NORMALLY****
TOTAL RUN TIME: 0 days 0 hours 0 minutes 21 seconds 58 msec
