                         Program Version 4.2.0 -  RELEASE  -
|  1> ! MP2 def2-TZVP EnGrad TightSCF FrozenCore
|  2>
|  3> %pal
|  4>     nprocs 8
|  5> end
|  6>
|  7> %maxcore 8000
|  8>
|  9> %scf
| 10>     ConvForced true
| 11> end
| 12>
| 13> *xyz 0 1
| 14> O          0.00000        0.00000        0.00000
| 15> H          0.96560        0.00000        0.00000
| 16> H         -0.24213        0.00000       -0.95199
| 17> O         -0.80728        0.28073       -2.65739
| 18> H         -1.11864        1.20951       -2.65259
| 19> H         -1.58586       -0.23582       -2.90067
| 20> O         -1.62176        2.92888       -2.12903
| 21> H         -2.46309        3.33499       -2.37160
| 22> H         -1.66899        2.76274       -1.14823
| 23> O         -1.18086        2.50405        0.47346
| 24> H         -0.40791        3.09114        0.39136
| 25> H         -0.78791        1.60434        0.47941
| 26> O          0.76055        4.13804       -0.92726
| 27> H          0.74488        5.10197       -0.87275
| 28> H          0.11008        3.92395       -1.61974
| 29> *
| 30>
| 31>
| 32>                          ****END OF INPUT****

CARTESIAN COORDINATES (ANGSTROEM)
---------------------------------
  O      0.000000    0.000000    0.000000
  H      0.965600    0.000000    0.000000
  H     -0.242130    0.000000   -0.951990
  O     -0.807280    0.280730   -2.657390
  H     -1.118640    1.209510   -2.652590
  H     -1.585860   -0.235820   -2.900670
  O     -1.621760    2.928880   -2.129030
  H     -2.463090    3.334990   -2.371600
  H     -1.668990    2.762740   -1.148230
  O     -1.180860    2.504050    0.473460
  H     -0.407910    3.091140    0.391360
  H     -0.787910    1.604340    0.479410
  O      0.760550    4.138040   -0.927260
  H      0.744880    5.101970   -0.872750
  H      0.110080    3.923950   -1.619740

 Total Charge           Charge          ....    0
 Multiplicity           Mult            ....    1
 Number of Electrons    NEL             ....   50
 Basis Dimension        Dim             ....  215

ORBITAL ENERGIES
----------------

  NO   OCC          E(Eh)            E(eV)
   0   2.0000     -20.574063      -559.8487
   1   2.0000     -20.565367      -559.6121
   2   2.0000     -20.564132      -559.5785
   3   2.0000     -20.550415      -559.2052
   4   2.0000     -20.544149      -559.0347
   5   2.0000      -1.367827       -37.2205
   6   2.0000      -1.352454       -36.8021
   7   2.0000      -1.347611       -36.6704
   8   2.0000      -1.338279       -36.4164
   9   2.0000      -1.324183       -36.0328
  10   2.0000      -0.741264       -20.1708
  11   2.0000      -0.720866       -19.6158
  12   2.0000      -0.710577       -19.3358
  13   2.0000      -0.707941       -19.2640
  14   2.0000      -0.695367       -18.9219
  15   2.0000      -0.616673       -16.7805
  16   2.0000      -0.599947       -16.3254
  17   2.0000      -0.591607       -16.0984
  18   2.0000      -0.580180       -15.7875
  19   2.0000      -0.560003       -15.2384
  20   2.0000      -0.523286       -14.2393
  21   2.0000      -0.511124       -13.9084
  22   2.0000      -0.508509       -13.8372
  23   2.0000      -0.497997       -13.5512
  24   2.0000      -0.488686       -13.2978
  25   0.0000       0.111916         3.0454
  26   0.0000       0.145127         3.9491
  27   0.0000       0.153497         4.1769
  28   0.0000       0.171665         4.6712
  29   0.0000       0.236655         6.4397

MULLIKEN ATOMIC CHARGES
-----------------------
   0 O :   -0.729253
   1 H :    0.344781
   2 H :    0.378978
   3 O :   -0.718298
   4 H :    0.382711
   5 H :    0.344589
   6 O :   -0.757520
   7 H :    0.348657
   8 H :    0.386011
   9 O :   -0.737939
  10 H :    0.361837
  11 H :    0.395578
  12 O :   -0.706828
  13 H :    0.341278
  14 H :    0.365418
Sum of atomic charges:   -0.0000000

LOEWDIN ATOMIC CHARGES
----------------------
   0 O :   -0.316034
   1 H :    0.161660
   2 H :    0.150362
   3 O :   -0.305982
   4 H :    0.153627
   5 H :    0.162424
   6 O :   -0.321145
   7 H :    0.160644
   8 H :    0.150125
   9 O :   -0.304466
  10 H :    0.151708
  11 H :    0.154590
  12 O :   -0.316160
  13 H :    0.162252
  14 H :    0.156396

  Mayer bond orders larger than 0.100000
B(  0-O ,  1-H ) :   0.8462 B(  0-O ,  2-H ) :   0.7780 B(  3-O ,  4-H ) :   0.7864
B(  3-O ,  5-H ) :   0.8455 B(  6-O ,  7-H ) :   0.8412 B(  6-O ,  8-H ) :   0.7257
B(  8-H ,  9-O ) :   0.1237 B(  9-O , 10-H ) :   0.8114 B(  9-O , 11-H ) :   0.7762
B( 12-O , 13-H ) :   0.8483 B( 12-O , 14-H ) :   0.8116

MP2 TOTAL ENERGY:     -381.624754181 Eh
FINAL SINGLE POINT ENERGY      -381.624754181263

DIPOLE MOMENT
-------------
                                X             Y             Z
Electronic contribution:      0.10761      -0.17061       0.12702
Nuclear contribution   :     -0.62866       0.90679      -0.97083
                        -----------------------------------------
Total Dipole Moment    :     -0.52105       0.73618      -0.84381
                        -----------------------------------------
Magnitude (a.u.)       :      1.23510
Magnitude (Debye)      :      3.13937

Rotational constants in cm-1:     0.086788     0.057355     0.045116
Rotational constants in MHz :  2601.833157  1719.454832  1352.550954

                             ****ORCA TERMINATED NORMALLY****
TOTAL RUN TIME: 0 days 0 hours 0 minutes 39 seconds 591 msec
