                         Program Version 4.2.0 -  RELEASE  -
|  1> # 12meoh.boyd.etal.mol5,6,11
|  2> ! MP2 def2-TZVP EnGrad TightSCF
|  3>
|  4> %pal
|  5>     nprocs 6
|  6> end
|  7>
|  8> %maxcore 8000
|  9>
| 10> %scf
| 11>     ConvForced true
| 12> end
| 13>
| 14> *xyz 0 1
| 15> O  -0.662721750   1.449094618  -1.383082065
| 16> H   0.064188300   2.119867608  -1.465650660
| 17> C  -0.353319239   0.341218776  -2.229326771
| 18> H  -1.072358530  -0.454743281  -2.019906495
| 19> H   0.657636746  -0.044472139  -2.042736771
| 20> H  -0.434616607   0.624733901  -3.287793021
| 21> O   2.622209273  -1.703002590  -1.445859723
| 22> H   1.828551432  -1.986513781  -0.909754968
| 23> C   2.781117675  -2.615822239  -2.525472890
| 24> H   3.691063626  -2.339003544  -3.065143454
| 25> H   1.934727323  -2.559520367  -3.223226661
| 26> H   2.879948338  -3.653846211  -2.177750170
| 27> O   3.252955559   0.588596242   1.858934315
| 28> H   3.621209177  -0.251605199   1.476063364
| 29> C   4.040824528   0.944288422   2.989639460
| 30> H   3.670521436   1.902573549   3.363847391
| 31> H   5.103749934   1.055868619   2.734277559
| 32> H   3.948540682   0.200279590   3.792908518
| 33> *
| 34>
| 35>                          ****END OF INPUT****

CARTESIAN COORDINATES (ANGSTROEM)
---------------------------------
  O     -0.662722    1.449095   -1.383082
  H      0.064188    2.119868   -1.465651
  C     -0.353319    0.341219   -2.229327
  H     -1.072359   -0.454743   -2.019906
  H      0.657637   -0.044472   -2.042737
  H     -0.434617    0.624734   -3.287793
  O      2.622209   -1.703003   -1.445860
  H      1.828551   -1.986514   -0.909755
  C      2.781118   -2.615822   -2.525473
  H      3.691064   -2.339004   -3.065143
  H      1.934727   -2.559520   -3.223227
  H      2.879948   -3.653846   -2.177750
  O      3.252956    0.588596    1.858934
  H      3.621209   -0.251605    1.476063
  C      4.040825    0.944288    2.989639
  H      3.670521    1.902574    3.363847
  H      5.103750    1.055869    2.734278
  H      3.948541    0.200280    3.792909

 Total Charge           Charge          ....    0
 Multiplicity           Mult            ....    1
 Number of Electrons    NEL             ....   54
 Basis Dimension        Dim             ....  258

ORBITAL ENERGIES
----------------

  NO   OCC          E(Eh)            E(eV)
   0   2.0000     -20.567166      -559.6610
   1   2.0000     -20.550773      -559.2150
   2   2.0000     -20.546582      -559.1009
   3   2.0000     -11.278784      -306.9113
   4   2.0000     -11.266993      -306.5905
   5   2.0000     -11.262382      -306.4650
   6   2.0000      -1.355157       -36.8757
   7   2.0000      -1.340240       -36.4698
   8   2.0000      -1.334931       -36.3253
   9   2.0000      -0.926976       -25.2243
  10   2.0000      -0.914694       -24.8901
  11   2.0000      -0.911533       -24.8041
  12   2.0000      -0.689497       -18.7622
  13   2.0000      -0.675701       -18.3867
  14   2.0000      -0.670983       -18.2584
  15   2.0000      -0.626233       -17.0407
  16   2.0000      -0.611869       -16.6498
  17   2.0000      -0.607045       -16.5185
  18   2.0000      -0.598985       -16.2992
  19   2.0000      -0.585191       -15.9239
  20   2.0000      -0.581837       -15.8326
  21   2.0000      -0.507991       -13.8231
  22   2.0000      -0.494612       -13.4591
  23   2.0000      -0.491524       -13.3750
  24   2.0000      -0.458328       -12.4718
  25   2.0000      -0.443354       -12.0643
  26   2.0000      -0.438026       -11.9193
  27   0.0000       0.119330         3.2471
  28   0.0000       0.143894         3.9156
  29   0.0000       0.151646         4.1265
  30   0.0000       0.166301         4.5253
  31   0.0000       0.185090         5.0366

MULLIKEN ATOMIC CHARGES
-----------------------
   0 O :   -0.501228
   1 H :    0.325450
   2 C :   -0.190195
   3 H :    0.119917
   4 H :    0.126072
   5 H :    0.106482
   6 O :   -0.497883
   7 H :    0.331896
   8 C :   -0.177735
   9 H :    0.131665
  10 H :    0.112468
  11 H :    0.115776
  12 O :   -0.498616
  13 H :    0.325568
  14 C :   -0.173618
  15 H :    0.127946
  16 H :    0.109017
  17 H :    0.107019
Sum of atomic charges:    0.0000000

LOEWDIN ATOMIC CHARGES
----------------------
   0 O :   -0.111987
   1 H :    0.190651
   2 C :   -0.384389
   3 H :    0.106424
   4 H :    0.097761
   5 H :    0.094674
   6 O :   -0.106568
   7 H :    0.193966
   8 C :   -0.382633
   9 H :    0.111119
  10 H :    0.095695
  11 H :    0.097351
  12 O :   -0.108816
  13 H :    0.190687
  14 C :   -0.382980
  15 H :    0.109629
  16 H :    0.095010
  17 H :    0.094404

  Mayer bond orders larger than 0.100000
B(  0-O ,  1-H ) :   0.8406 B(  0-O ,  2-C ) :   0.9217 B(  2-C ,  3-H ) :   0.9349
B(  2-C ,  4-H ) :   0.9351 B(  2-C ,  5-H ) :   0.9362 B(  6-O ,  7-H ) :   0.8334
B(  6-O ,  8-C ) :   0.9149 B(  8-C ,  9-H ) :   0.9387 B(  8-C , 10-H ) :   0.9367
B(  8-C , 11-H ) :   0.9389 B( 12-O , 13-H ) :   0.8368 B( 12-O , 14-C ) :   0.9317
B( 14-C , 15-H ) :   0.9378 B( 14-C , 16-H ) :   0.9390 B( 14-C , 17-H ) :   0.9391

MP2 TOTAL ENERGY:     -346.523040040 Eh
FINAL SINGLE POINT ENERGY      -346.523040040386

DIPOLE MOMENT
-------------
                                X             Y             Z
Electronic contribution:     -1.58524       2.17102       0.99357
Nuclear contribution   :      2.35980      -3.16089      -1.29080
                        -----------------------------------------
Total Dipole Moment    :      0.77456      -0.98987      -0.29723
                        -----------------------------------------
Magnitude (a.u.)       :      1.29156
Magnitude (Debye)      :      3.28288

Rotational constants in cm-1:     0.050199     0.026950     0.017783
Rotational constants in MHz :  1504.933163   807.953164   533.124705

                             ****ORCA TERMINATED NORMALLY****
TOTAL RUN TIME: 0 days 0 hours 1 minutes 3 seconds 49 msec
