                         Program Version 4.2.0 -  RELEASE  -
|  1> # 12h2o.su.etal.mol0,4,5,6,8,11
|  2> ! MP2 def2-TZVP EnGrad TightSCF
|  3>
|  4> %pal
|  5>     nprocs 6
|  6> end
|  7>
|  8> %maxcore 8000
|  9>
| 10> %scf
| 11>     ConvForced true
| 12> end
| 13>
| 14> *xyz 0 1
| 15> O   1.794470000   0.923410000   2.768350000
| 16> H   2.338250000   1.359750000   3.430940000
| 17> H   0.879480000   1.303000000   2.865760000
| 18> O  -0.885520000   1.737840000   0.052730000
| 19> H  -1.032320000   2.090180000  -0.841890000
| 20> H  -1.284090000   0.839590000   0.017130000
| 21> O   0.885520000  -1.737840000   0.052730000
| 22> H   1.284090000  -0.839590000   0.017130000
| 23> H   1.032320000  -2.090180000  -0.841890000
| 24> O   1.737840000   0.885520000  -0.052730000
| 25> H   2.090180000   1.032320000   0.841890000
| 26> H   0.839590000   1.284090000  -0.017130000
| 27> O   1.752130000   0.741530000  -2.896280000
| 28> H   2.036450000   0.920500000  -1.984040000
| 29> H   0.921210000   1.242140000  -2.984230000
| 30> O  -0.741530000   1.752130000   2.896280000
| 31> H  -0.920500000   2.036450000   1.984040000
| 32> H  -1.242140000   0.921210000   2.984230000
| 33> *
| 34>
| 35>                          ****END OF INPUT****

CARTESIAN COORDINATES (ANGSTROEM)
---------------------------------
  O      1.794470    0.923410    2.768350
  H      2.338250    1.359750    3.430940
  H      0.879480    1.303000    2.865760
  O     -0.885520    1.737840    0.052730
  H     -1.032320    2.090180   -0.841890
  H     -1.284090    0.839590    0.017130
  O      0.885520   -1.737840    0.052730
  H      1.284090   -0.839590    0.017130
  H      1.032320   -2.090180   -0.841890
  O      1.737840    0.885520   -0.052730
  H      2.090180    1.032320    0.841890
  H      0.839590    1.284090   -0.017130
  O      1.752130    0.741530   -2.896280
  H      2.036450    0.920500   -1.984040
  H      0.921210    1.242140   -2.984230
  O     -0.741530    1.752130    2.896280
  H     -0.920500    2.036450    1.984040
  H     -1.242140    0.921210    2.984230

 Total Charge           Charge          ....    0
 Multiplicity           Mult            ....    1
 Number of Electrons    NEL             ....   60
 Basis Dimension        Dim             ....  258

ORBITAL ENERGIES
----------------

  NO   OCC          E(Eh)            E(eV)
   0   2.0000     -20.640610      -561.6595
   1   2.0000     -20.593466      -560.3767
   2   2.0000     -20.555876      -559.3538
   3   2.0000     -20.545772      -559.0789
   4   2.0000     -20.541800      -558.9708
   5   2.0000     -20.518970      -558.3496
   6   2.0000      -1.423959       -38.7479
   7   2.0000      -1.381749       -37.5993
   8   2.0000      -1.350261       -36.7425
   9   2.0000      -1.327986       -36.1363
  10   2.0000      -1.322648       -35.9911
  11   2.0000      -1.299497       -35.3611
  12   2.0000      -0.782565       -21.2947
  13   2.0000      -0.744395       -20.2560
  14   2.0000      -0.724401       -19.7119
  15   2.0000      -0.714604       -19.4454
  16   2.0000      -0.693018       -18.8580
  17   2.0000      -0.674455       -18.3528
  18   2.0000      -0.665833       -18.1182
  19   2.0000      -0.616581       -16.7780
  20   2.0000      -0.615651       -16.7527
  21   2.0000      -0.572374       -15.5751
  22   2.0000      -0.570537       -15.5251
  23   2.0000      -0.560816       -15.2606
  24   2.0000      -0.541387       -14.7319
  25   2.0000      -0.525511       -14.2999
  26   2.0000      -0.497155       -13.5283
  27   2.0000      -0.495386       -13.4802
  28   2.0000      -0.487445       -13.2641
  29   2.0000      -0.467411       -12.7189
  30   0.0000       0.070755         1.9253
  31   0.0000       0.121054         3.2940
  32   0.0000       0.152398         4.1470
  33   0.0000       0.166697         4.5361
  34   0.0000       0.175185         4.7670

MULLIKEN ATOMIC CHARGES
-----------------------
   0 O :   -0.733283
   1 H :    0.337413
   2 H :    0.371521
   3 O :   -0.717160
   4 H :    0.371238
   5 H :    0.378070
   6 O :   -0.729378
   7 H :    0.365877
   8 H :    0.329470
   9 O :   -0.747040
  10 H :    0.388828
  11 H :    0.343306
  12 O :   -0.687547
  13 H :    0.376842
  14 H :    0.303380
  15 O :   -0.690868
  16 H :    0.383964
  17 H :    0.355366
Sum of atomic charges:    0.0000000

LOEWDIN ATOMIC CHARGES
----------------------
   0 O :   -0.337576
   1 H :    0.154593
   2 H :    0.144162
   3 O :   -0.276623
   4 H :    0.178283
   5 H :    0.187522
   6 O :   -0.366287
   7 H :    0.141030
   8 H :    0.157952
   9 O :   -0.300785
  10 H :    0.155408
  11 H :    0.136454
  12 O :   -0.337252
  13 H :    0.152282
  14 H :    0.150325
  15 O :   -0.271841
  16 H :    0.157454
  17 H :    0.174899

  Mayer bond orders larger than 0.100000
B(  0-O ,  1-H ) :   0.8504 B(  0-O ,  2-H ) :   0.7649 B(  3-O ,  4-H ) :   0.8271
B(  3-O ,  5-H ) :   0.8141 B(  6-O ,  7-H ) :   0.7914 B(  6-O ,  8-H ) :   0.8560
B(  9-O , 10-H ) :   0.7852 B(  9-O , 11-H ) :   0.7961 B( 12-O , 13-H ) :   0.8110
B( 12-O , 14-H ) :   0.8709 B( 15-O , 16-H ) :   0.8095 B( 15-O , 17-H ) :   0.8384

MP2 TOTAL ENERGY:     -457.925954101 Eh
FINAL SINGLE POINT ENERGY      -457.925954101392

DIPOLE MOMENT
-------------
                                X             Y             Z
Electronic contribution:     -0.08824       0.16757       0.33446
Nuclear contribution   :     -1.78400       1.24378      -0.14168
                        -----------------------------------------
Total Dipole Moment    :     -1.87224       1.41135       0.19277
                        -----------------------------------------
Magnitude (a.u.)       :      2.35252
Magnitude (Debye)      :      5.97963

Rotational constants in cm-1:     0.065253     0.030949     0.027236
Rotational constants in MHz :  1956.222822   927.820744   816.527148

                             ****ORCA TERMINATED NORMALLY****
TOTAL RUN TIME: 0 days 0 hours 1 minutes 14 seconds 29 msec
