                         Program Version 3.0.3 - RELEASE   -
|  1> ! B3LYP Def2-TZVP def2-TZVP/J RIJCOSX TightSCF Grid4 D3BJ
|  2>
|  3> %pal nprocs 12 end
|  4>
|  5> %scf
|  6>         maxiter 400
|  7> end
|  8>
|  9> * xyz  0  1
| 10> O  1.742730	-2.298407	2.399808
| 11> H  1.339389	-2.670773	1.570912
| 12> H  2.066285	-3.061176	2.897690
| 13> O  2.708764	0.342188	-0.645374
| 14> H  2.680211	1.324514	-0.766887
| 15> H  3.123552	0.173168	0.254521
| 16> O  1.148682	-3.222175	-2.484835
| 17> H  1.486140	-2.282895	-2.691341
| 18> H  1.740104	-3.826676	-2.952249
| 19> O  1.000602	2.922993	1.370133
| 20> H  1.283580	2.404803	2.156903
| 21> H  0.041195	3.111874	1.465985
| 22> O  1.828626	1.399464	3.438306
| 23> H  2.111233	1.774006	4.282655
| 24> H  1.150188	0.667883	3.658763
| 25> O  -3.322478	0.724539	-1.487747
| 26> H  -3.976219	0.611151	-2.192334
| 27> H  -2.451323	0.452587	-1.901111
| 28> O  1.831636	-0.778927	-2.930353
| 29> H  2.285547	-0.396889	-2.140005
| 30> H  0.964457	-0.333494	-2.969592
| 31> O  -1.371951	0.496929	1.822194
| 32> H  -1.573717	1.463723	1.768792
| 33> H  -0.686076	0.319104	1.128295
| 34> O  -3.116826	-1.135217	0.554655
| 35> H  -2.555391	-0.567975	1.141215
| 36> H  -3.338710	-0.530810	-0.186993
| 37> O  -1.681921	3.151359	1.469007
| 38> H  -2.214046	3.734831	2.025027
| 39> H  -2.033945	3.264602	0.508574
| 40> O  2.116265	2.917559	-0.904684
| 41> H  1.692619	2.976351	0.019022
| 42> H  2.671995	3.700874	-1.007138
| 43> O  0.259069	-0.367926	-0.064202
| 44> H  0.365825	-1.346362	0.042052
| 45> H  1.188660	-0.023898	-0.221148
| 46> O  0.544090	-3.048089	0.144994
| 47> H  -0.419679	-3.290618	0.122597
| 48> H  0.884879	-3.239014	-0.764961
| 49> O  -1.508278	-2.636639	-2.804247
| 50> H  -1.829432	-2.972287	-1.938910
| 51> H  -0.603572	-3.009847	-2.871198
| 52> O  -0.950856	-0.086520	-2.395745
| 53> H  -1.189859	-1.032376	-2.641224
| 54> H  -0.520253	-0.170622	-1.498370
| 55> O  3.446316	-0.119367	1.833302
| 56> H  2.984904	-0.958782	2.038441
| 57> H  2.991877	0.523308	2.422806
| 58> O  -0.300028	2.724325	-2.350468
| 59> H  -0.429142	1.788263	-2.582887
| 60> H  0.578079	2.785117	-1.915707
| 61> O  0.138611	-0.479356	3.812675
| 62> H  -0.547601	-0.163383	3.173020
| 63> H  0.593984	-1.215019	3.351236
| 64> O  -2.497764	3.337063	-0.946565
| 65> H  -1.670351	3.247273	-1.490846
| 66> H  -2.960882	2.492088	-1.125247
| 67> O  -2.069303	-3.338132	-0.163509
| 68> H  -2.656802	-4.045963	0.132283
| 69> H  -2.499021	-2.459521	0.150315
| 70> **                         ****END OF INPUT****

CARTESIAN COORDINATES (ANGSTROEM)
---------------------------------
  O      1.742730   -2.298407    2.399808
  H      1.339389   -2.670773    1.570912
  H      2.066285   -3.061176    2.897690
  O      2.708764    0.342188   -0.645374
  H      2.680211    1.324514   -0.766887
  H      3.123552    0.173168    0.254521
  O      1.148682   -3.222175   -2.484835
  H      1.486140   -2.282895   -2.691341
  H      1.740104   -3.826676   -2.952249
  O      1.000602    2.922993    1.370133
  H      1.283580    2.404803    2.156903
  H      0.041195    3.111874    1.465985
  O      1.828626    1.399464    3.438306
  H      2.111233    1.774006    4.282655
  H      1.150188    0.667883    3.658763
  O     -3.322478    0.724539   -1.487747
  H     -3.976219    0.611151   -2.192334
  H     -2.451323    0.452587   -1.901111
  O      1.831636   -0.778927   -2.930353
  H      2.285547   -0.396889   -2.140005
  H      0.964457   -0.333494   -2.969592
  O     -1.371951    0.496929    1.822194
  H     -1.573717    1.463723    1.768792
  H     -0.686076    0.319104    1.128295
  O     -3.116826   -1.135217    0.554655
  H     -2.555391   -0.567975    1.141215
  H     -3.338710   -0.530810   -0.186993
  O     -1.681921    3.151359    1.469007
  H     -2.214046    3.734831    2.025027
  H     -2.033945    3.264602    0.508574
  O      2.116265    2.917559   -0.904684
  H      1.692619    2.976351    0.019022
  H      2.671995    3.700874   -1.007138
  O      0.259069   -0.367926   -0.064202
  H      0.365825   -1.346362    0.042052
  H      1.188660   -0.023898   -0.221148
  O      0.544090   -3.048089    0.144994
  H     -0.419679   -3.290618    0.122597
  H      0.884879   -3.239014   -0.764961
  O     -1.508278   -2.636639   -2.804247
  H     -1.829432   -2.972287   -1.938910
  H     -0.603572   -3.009847   -2.871198
  O     -0.950856   -0.086520   -2.395745
  H     -1.189859   -1.032376   -2.641224
  H     -0.520253   -0.170622   -1.498370
  O      3.446316   -0.119367    1.833302
  H      2.984904   -0.958782    2.038441
  H      2.991877    0.523308    2.422806
  O     -0.300028    2.724325   -2.350468
  H     -0.429142    1.788263   -2.582887
  H      0.578079    2.785117   -1.915707
  O      0.138611   -0.479356    3.812675
  H     -0.547601   -0.163383    3.173020
  H      0.593984   -1.215019    3.351236
  O     -2.497764    3.337063   -0.946565
  H     -1.670351    3.247273   -1.490846
  H     -2.960882    2.492088   -1.125247
  O     -2.069303   -3.338132   -0.163509
  H     -2.656802   -4.045963    0.132283
  H     -2.499021   -2.459521    0.150315

 Total Charge           Charge          ....    0
 Multiplicity           Mult            ....    1
 Number of Electrons    NEL             ....  200
 Basis Dimension        Dim             ....  860

ORBITAL ENERGIES
----------------

  NO   OCC          E(Eh)            E(eV)
   0   2.0000     -19.151384      -521.1356
   1   2.0000     -19.145681      -520.9805
   2   2.0000     -19.145036      -520.9629
   3   2.0000     -19.141789      -520.8746
   4   2.0000     -19.139383      -520.8091
   5   2.0000     -19.132626      -520.6252
   6   2.0000     -19.132190      -520.6134
   7   2.0000     -19.131196      -520.5863
   8   2.0000     -19.129681      -520.5451
   9   2.0000     -19.126518      -520.4590
  10   2.0000     -19.125950      -520.4435
  11   2.0000     -19.118685      -520.2459
  12   2.0000     -19.118195      -520.2325
  13   2.0000     -19.118075      -520.2293
  14   2.0000     -19.116527      -520.1872
  15   2.0000     -19.114152      -520.1225
  16   2.0000     -19.111048      -520.0380
  17   2.0000     -19.109816      -520.0045
  18   2.0000     -19.107425      -519.9395
  19   2.0000     -19.107365      -519.9378
  20   2.0000      -1.044850       -28.4318
  21   2.0000      -1.036462       -28.2036
  22   2.0000      -1.033209       -28.1151
  23   2.0000      -1.029713       -28.0199
  24   2.0000      -1.027697       -27.9651
  25   2.0000      -1.024013       -27.8648
  26   2.0000      -1.020136       -27.7593
  27   2.0000      -1.019308       -27.7368
  28   2.0000      -1.015652       -27.6373
  29   2.0000      -1.012129       -27.5414
  30   2.0000      -1.008189       -27.4342
  31   2.0000      -1.002985       -27.2926
  32   2.0000      -0.999292       -27.1921
  33   2.0000      -0.996733       -27.1225
  34   2.0000      -0.995015       -27.0757
  35   2.0000      -0.990122       -26.9426
  36   2.0000      -0.987240       -26.8642
  37   2.0000      -0.982923       -26.7467
  38   2.0000      -0.981545       -26.7092
  39   2.0000      -0.979668       -26.6581
  40   2.0000      -0.563952       -15.3459
  41   2.0000      -0.560192       -15.2436
  42   2.0000      -0.553836       -15.0706
  43   2.0000      -0.550910       -14.9910
  44   2.0000      -0.549593       -14.9552
  45   2.0000      -0.547422       -14.8961
  46   2.0000      -0.544496       -14.8165
  47   2.0000      -0.542119       -14.7518
  48   2.0000      -0.540542       -14.7089
  49   2.0000      -0.538506       -14.6535
  50   2.0000      -0.535957       -14.5841
  51   2.0000      -0.533788       -14.5251
  52   2.0000      -0.528516       -14.3816
  53   2.0000      -0.525336       -14.2951
  54   2.0000      -0.525035       -14.2869
  55   2.0000      -0.522785       -14.2257
  56   2.0000      -0.519091       -14.1252
  57   2.0000      -0.517732       -14.0882
  58   2.0000      -0.514975       -14.0132
  59   2.0000      -0.511364       -13.9149
  60   2.0000      -0.471257       -12.8236
  61   2.0000      -0.456234       -12.4148
  62   2.0000      -0.448922       -12.2158
  63   2.0000      -0.445283       -12.1168
  64   2.0000      -0.439431       -11.9575
  65   2.0000      -0.438369       -11.9286
  66   2.0000      -0.426251       -11.5989
  67   2.0000      -0.418952       -11.4003
  68   2.0000      -0.414960       -11.2916
  69   2.0000      -0.408777       -11.1234
  70   2.0000      -0.399982       -10.8841
  71   2.0000      -0.397119       -10.8061
  72   2.0000      -0.391804       -10.6615
  73   2.0000      -0.389609       -10.6018
  74   2.0000      -0.383612       -10.4386
  75   2.0000      -0.379727       -10.3329
  76   2.0000      -0.371971       -10.1219
  77   2.0000      -0.368093       -10.0163
  78   2.0000      -0.365499        -9.9457
  79   2.0000      -0.348989        -9.4965
  80   2.0000      -0.342275        -9.3138
  81   2.0000      -0.340513        -9.2658
  82   2.0000      -0.337687        -9.1889
  83   2.0000      -0.336828        -9.1656
  84   2.0000      -0.335204        -9.1214
  85   2.0000      -0.330792        -9.0013
  86   2.0000      -0.327968        -8.9245
  87   2.0000      -0.326166        -8.8754
  88   2.0000      -0.324891        -8.8407
  89   2.0000      -0.324328        -8.8254
  90   2.0000      -0.321591        -8.7509
  91   2.0000      -0.318972        -8.6797
  92   2.0000      -0.316462        -8.6114
  93   2.0000      -0.314690        -8.5632
  94   2.0000      -0.312544        -8.5047
  95   2.0000      -0.310508        -8.4494
  96   2.0000      -0.308913        -8.4060
  97   2.0000      -0.305302        -8.3077
  98   2.0000      -0.302860        -8.2412
  99   2.0000      -0.298733        -8.1289
 100   0.0000      -0.007270        -0.1978
 101   0.0000       0.014995         0.4080
 102   0.0000       0.016112         0.4384
 103   0.0000       0.024870         0.6767
 104   0.0000       0.032290         0.8787

MULLIKEN ATOMIC CHARGES
-----------------------
   0 O :   -0.707132
   1 H :    0.389295
   2 H :    0.334999
   3 O :   -0.766063
   4 H :    0.373737
   5 H :    0.393058
   6 O :   -0.729480
   7 H :    0.378625
   8 H :    0.333960
   9 O :   -0.733963
  10 H :    0.374799
  11 H :    0.368312
  12 O :   -0.732731
  13 H :    0.330965
  14 H :    0.364721
  15 O :   -0.714429
  16 H :    0.334925
  17 H :    0.378873
  18 O :   -0.688833
  19 H :    0.392263
  20 H :    0.340818
  21 O :   -0.770612
  22 H :    0.372082
  23 H :    0.385535
  24 O :   -0.708898
  25 H :    0.382854
  26 H :    0.355283
  27 O :   -0.733962
  28 H :    0.332309
  29 H :    0.379111
  30 O :   -0.732320
  31 H :    0.398218
  32 H :    0.332841
  33 O :   -0.773690
  34 H :    0.360495
  35 H :    0.366323
  36 O :   -0.750376
  37 H :    0.379196
  38 H :    0.373722
  39 O :   -0.692048
  40 H :    0.346131
  41 H :    0.350083
  42 O :   -0.813358
  43 H :    0.388906
  44 H :    0.377093
  45 O :   -0.697094
  46 H :    0.341879
  47 H :    0.359219
  48 O :   -0.701976
  49 H :    0.354756
  50 H :    0.355250
  51 O :   -0.682936
  52 H :    0.382237
  53 H :    0.340569
  54 O :   -0.695770
  55 H :    0.382054
  56 H :    0.353092
  57 O :   -0.738040
  58 H :    0.334391
  59 H :    0.390731
Sum of atomic charges:    0.0000000

LOEWDIN ATOMIC CHARGES
----------------------
   0 O :   -0.281508
   1 H :    0.145042
   2 H :    0.161394
   3 O :   -0.282237
   4 H :    0.136183
   5 H :    0.141794
   6 O :   -0.295572
   7 H :    0.138724
   8 H :    0.157764
   9 O :   -0.279342
  10 H :    0.135053
  11 H :    0.134997
  12 O :   -0.290030
  13 H :    0.154951
  14 H :    0.131930
  15 O :   -0.281136
  16 H :    0.160818
  17 H :    0.140262
  18 O :   -0.258574
  19 H :    0.144695
  20 H :    0.141616
  21 O :   -0.278816
  22 H :    0.137252
  23 H :    0.129566
  24 O :   -0.271178
  25 H :    0.143757
  26 H :    0.140134
  27 O :   -0.292115
  28 H :    0.155429
  29 H :    0.138846
  30 O :   -0.289412
  31 H :    0.133175
  32 H :    0.156932
  33 O :   -0.266368
  34 H :    0.129823
  35 H :    0.127952
  36 O :   -0.277535
  37 H :    0.138372
  38 H :    0.141894
  39 O :   -0.285033
  40 H :    0.138019
  41 H :    0.137569
  42 O :   -0.307781
  43 H :    0.136064
  44 H :    0.122605
  45 O :   -0.288362
  46 H :    0.138809
  47 H :    0.138384
  48 O :   -0.289616
  49 H :    0.142070
  50 H :    0.143169
  51 O :   -0.267796
  52 H :    0.140008
  53 H :    0.137311
  54 O :   -0.271151
  55 H :    0.144749
  56 H :    0.138725
  57 O :   -0.295741
  58 H :    0.156949
  59 H :    0.136518

  Mayer bond orders larger than 0.1
B(  0-O ,  1-H ) :   0.7843 B(  0-O ,  2-H ) :   0.8902 B(  3-O ,  4-H ) :   0.7832
B(  3-O ,  5-H ) :   0.7507 B(  3-O , 35-H ) :   0.1943 B(  4-H , 30-O ) :   0.1191
B(  5-H , 45-O ) :   0.1446 B(  6-O ,  7-H ) :   0.7210 B(  6-O ,  8-H ) :   0.8893
B(  6-O , 38-H ) :   0.1196 B(  7-H , 18-O ) :   0.1808 B(  9-O , 10-H ) :   0.7996
B(  9-O , 11-H ) :   0.8025 B(  9-O , 31-H ) :   0.1560 B( 10-H , 12-O ) :   0.1012
B( 11-H , 27-O ) :   0.1054 B( 12-O , 13-H ) :   0.8910 B( 12-O , 14-H ) :   0.7054
B( 14-H , 51-O ) :   0.2189 B( 15-O , 16-H ) :   0.8895 B( 15-O , 17-H ) :   0.7619
B( 17-H , 42-O ) :   0.1237 B( 18-O , 19-H ) :   0.7974 B( 18-O , 20-H ) :   0.8551
B( 21-O , 22-H ) :   0.7872 B( 21-O , 23-H ) :   0.7831 B( 21-O , 25-H ) :   0.1007
B( 22-H , 27-O ) :   0.1220 B( 24-O , 25-H ) :   0.7982 B( 24-O , 26-H ) :   0.8247
B( 24-O , 59-H ) :   0.1945 B( 27-O , 28-H ) :   0.8903 B( 27-O , 29-H ) :   0.6955
B( 29-H , 54-O ) :   0.2166 B( 30-O , 31-H ) :   0.7210 B( 30-O , 32-H ) :   0.8908
B( 33-O , 34-H ) :   0.7780 B( 33-O , 35-H ) :   0.7275 B( 33-O , 44-H ) :   0.1222
B( 34-H , 36-O ) :   0.1488 B( 36-O , 37-H ) :   0.7746 B( 36-O , 38-H ) :   0.7902
B( 37-H , 57-O ) :   0.1309 B( 39-O , 40-H ) :   0.8328 B( 39-O , 41-H ) :   0.8328
B( 39-O , 43-H ) :   0.1617 B( 42-O , 43-H ) :   0.7451 B( 42-O , 44-H ) :   0.7509
B( 45-O , 46-H ) :   0.8480 B( 45-O , 47-H ) :   0.8244 B( 48-O , 49-H ) :   0.8598
B( 48-O , 50-H ) :   0.8280 B( 48-O , 55-H ) :   0.1060 B( 51-O , 52-H ) :   0.8036
B( 51-O , 53-H ) :   0.8409 B( 54-O , 55-H ) :   0.7944 B( 54-O , 56-H ) :   0.8417
B( 57-O , 58-H ) :   0.8897 B( 57-O , 59-H ) :   0.6999

Dispersion correction           -0.076529416
FINAL SINGLE POINT ENERGY     -1528.928051009960

DIPOLE MOMENT
-------------
                                X             Y             Z
Electronic contribution:     -0.04541       0.21483      -0.04285
Nuclear contribution   :      0.14709      -1.49341       0.93080
                        -----------------------------------------
Total Dipole Moment    :      0.10168      -1.27858       0.88795
                        -----------------------------------------
Magnitude (a.u.)       :      1.55999
Magnitude (Debye)      :      3.96518

                             ****ORCA TERMINATED NORMALLY****
TOTAL RUN TIME: 0 days 0 hours 2 minutes 38 seconds 140 msec
