                         Program Version 3.0.3 - RELEASE   -
|  1> ! wB97X-D3 MA-Def2-TZVP def2-TZVP/J RIJCOSX TightSCF Grid4
|  2>
|  3> %pal nprocs 1 end
|  4>
|  5> %scf
|  6>         maxiter 400
|  7> end
|  8>
|  9> %cosmo
| 10>         SMD true
| 11>         solvent "WATER"
| 12> end
| 13>
| 14> * xyz  0  1
| 15> O  1.751188	-2.237476	2.382720
| 16> H  1.251453	-2.647571	1.608713
| 17> H  2.071333	-2.996846	2.908855
| 18> O  2.560187	0.330925	-0.545280
| 19> H  2.388158	1.330922	-0.554564
| 20> H  3.060602	0.092930	0.324143
| 21> O  1.154056	-3.132361	-2.274090
| 22> H  1.552931	-2.225394	-2.547109
| 23> H  1.715696	-3.814145	-2.692163
| 24> O  1.000094	3.495904	1.634527
| 25> H  1.366835	2.749705	2.202286
| 26> H  0.009870	3.317361	1.605085
| 27> O  2.050548	1.477464	3.063114
| 28> H  2.457460	1.811031	3.888045
| 29> H  1.348318	0.780088	3.384926
| 30> O  -3.233982	0.649246	-1.499116
| 31> H  -3.885074	0.575587	-2.225594
| 32> H  -2.345946	0.387846	-1.915206
| 33> O  1.903392	-0.723168	-2.914800
| 34> H  2.279316	-0.353903	-2.058594
| 35> H  0.985392	-0.348173	-2.929422
| 36> O  -1.462708	0.279033	1.891323
| 37> H  -1.574224	1.282186	1.784745
| 38> H  -0.797915	0.045361	1.161661
| 39> O  -3.410270	-1.036114	0.604862
| 40> H  -2.742540	-0.559692	1.192774
| 41> H  -3.464325	-0.419951	-0.184109
| 42> O  -1.596301	2.871221	1.422698
| 43> H  -2.210028	3.386199	1.983506
| 44> H  -1.931916	3.018948	0.444065
| 45> O  1.771054	2.823497	-0.700669
| 46> H  1.464913	3.135533	0.251644
| 47> H  2.441951	3.476270	-0.984658
| 48> O  0.166005	-0.467373	-0.008312
| 49> H  0.271013	-1.470866	0.107501
| 50> H  1.127936	-0.124659	-0.138607
| 51> O  0.413408	-3.081484	0.258293
| 52> H  -0.585243	-3.198084	0.129947
| 53> H  0.804283	-3.210464	-0.665194
| 54> O  -1.400286	-2.535799	-2.909195
| 55> H  -1.789541	-2.768282	-2.011009
| 56> H  -0.471159	-2.900956	-2.824324
| 57> O  -0.833957	-0.066241	-2.390257
| 58> H  -1.085083	-1.026723	-2.690578
| 59> H  -0.456992	-0.209711	-1.452463
| 60> O  3.571789	-0.309237	1.749808
| 61> H  2.999626	-1.104950	1.954351
| 62> H  3.105636	0.411848	2.275744
| 63> O  -0.256844	2.669026	-2.463851
| 64> H  -0.399737	1.699046	-2.601698
| 65> H  0.514639	2.723911	-1.820613
| 66> O  0.358680	-0.337425	3.746069
| 67> H  -0.410795	-0.125056	3.129907
| 68> H  0.807073	-1.114082	3.300198
| 69> O  -2.406056	3.182288	-0.984650
| 70> H  -1.575244	3.078615	-1.561499
| 71> H  -2.865997	2.309200	-1.150878
| 72> O  -2.140739	-3.044370	-0.371979
| 73> H  -2.710398	-3.829612	-0.249900
| 74> H  -2.666867	-2.248218	0.049170
| 75> **                         ****END OF INPUT****

CARTESIAN COORDINATES (ANGSTROEM)
---------------------------------
  O      1.751188   -2.237476    2.382720
  H      1.251453   -2.647571    1.608713
  H      2.071333   -2.996846    2.908855
  O      2.560187    0.330925   -0.545280
  H      2.388158    1.330922   -0.554564
  H      3.060602    0.092930    0.324143
  O      1.154056   -3.132361   -2.274090
  H      1.552931   -2.225394   -2.547109
  H      1.715696   -3.814145   -2.692163
  O      1.000094    3.495904    1.634527
  H      1.366835    2.749705    2.202286
  H      0.009870    3.317361    1.605085
  O      2.050548    1.477464    3.063114
  H      2.457460    1.811031    3.888045
  H      1.348318    0.780088    3.384926
  O     -3.233982    0.649246   -1.499116
  H     -3.885074    0.575587   -2.225594
  H     -2.345946    0.387846   -1.915206
  O      1.903392   -0.723168   -2.914800
  H      2.279316   -0.353903   -2.058594
  H      0.985392   -0.348173   -2.929422
  O     -1.462708    0.279033    1.891323
  H     -1.574224    1.282186    1.784745
  H     -0.797915    0.045361    1.161661
  O     -3.410270   -1.036114    0.604862
  H     -2.742540   -0.559692    1.192774
  H     -3.464325   -0.419951   -0.184109
  O     -1.596301    2.871221    1.422698
  H     -2.210028    3.386199    1.983506
  H     -1.931916    3.018948    0.444065
  O      1.771054    2.823497   -0.700669
  H      1.464913    3.135533    0.251644
  H      2.441951    3.476270   -0.984658
  O      0.166005   -0.467373   -0.008312
  H      0.271013   -1.470866    0.107501
  H      1.127936   -0.124659   -0.138607
  O      0.413408   -3.081484    0.258293
  H     -0.585243   -3.198084    0.129947
  H      0.804283   -3.210464   -0.665194
  O     -1.400286   -2.535799   -2.909195
  H     -1.789541   -2.768282   -2.011009
  H     -0.471159   -2.900956   -2.824324
  O     -0.833957   -0.066241   -2.390257
  H     -1.085083   -1.026723   -2.690578
  H     -0.456992   -0.209711   -1.452463
  O      3.571789   -0.309237    1.749808
  H      2.999626   -1.104950    1.954351
  H      3.105636    0.411848    2.275744
  O     -0.256844    2.669026   -2.463851
  H     -0.399737    1.699046   -2.601698
  H      0.514639    2.723911   -1.820613
  O      0.358680   -0.337425    3.746069
  H     -0.410795   -0.125056    3.129907
  H      0.807073   -1.114082    3.300198
  O     -2.406056    3.182288   -0.984650
  H     -1.575244    3.078615   -1.561499
  H     -2.865997    2.309200   -1.150878
  O     -2.140739   -3.044370   -0.371979
  H     -2.710398   -3.829612   -0.249900
  H     -2.666867   -2.248218    0.049170

 Total Charge           Charge          ....    0
 Multiplicity           Mult            ....    1
 Number of Electrons    NEL             ....  200
 Basis Dimension        Dim             ....  940

ORBITAL ENERGIES
----------------

  NO   OCC          E(Eh)            E(eV)
   0   2.0000     -19.248601      -523.7811
   1   2.0000     -19.247027      -523.7382
   2   2.0000     -19.244702      -523.6750
   3   2.0000     -19.241455      -523.5866
   4   2.0000     -19.240827      -523.5695
   5   2.0000     -19.240369      -523.5570
   6   2.0000     -19.240173      -523.5517
   7   2.0000     -19.239583      -523.5357
   8   2.0000     -19.239433      -523.5316
   9   2.0000     -19.238342      -523.5019
  10   2.0000     -19.236557      -523.4533
  11   2.0000     -19.232350      -523.3388
  12   2.0000     -19.231928      -523.3274
  13   2.0000     -19.230863      -523.2984
  14   2.0000     -19.229560      -523.2629
  15   2.0000     -19.229053      -523.2491
  16   2.0000     -19.228973      -523.2469
  17   2.0000     -19.228792      -523.2420
  18   2.0000     -19.228781      -523.2417
  19   2.0000     -19.228554      -523.2356
  20   2.0000      -1.156743       -31.4766
  21   2.0000      -1.144108       -31.1328
  22   2.0000      -1.143559       -31.1178
  23   2.0000      -1.139743       -31.0140
  24   2.0000      -1.134595       -30.8739
  25   2.0000      -1.134185       -30.8627
  26   2.0000      -1.131370       -30.7861
  27   2.0000      -1.130871       -30.7726
  28   2.0000      -1.126455       -30.6524
  29   2.0000      -1.122776       -30.5523
  30   2.0000      -1.120913       -30.5016
  31   2.0000      -1.119341       -30.4588
  32   2.0000      -1.115508       -30.3545
  33   2.0000      -1.108398       -30.1610
  34   2.0000      -1.102636       -30.0042
  35   2.0000      -1.098772       -29.8991
  36   2.0000      -1.096855       -29.8469
  37   2.0000      -1.095056       -29.7980
  38   2.0000      -1.094782       -29.7905
  39   2.0000      -1.088244       -29.6126
  40   2.0000      -0.655293       -17.8314
  41   2.0000      -0.648479       -17.6460
  42   2.0000      -0.645499       -17.5649
  43   2.0000      -0.644027       -17.5249
  44   2.0000      -0.640237       -17.4217
  45   2.0000      -0.638936       -17.3863
  46   2.0000      -0.636369       -17.3165
  47   2.0000      -0.635092       -17.2817
  48   2.0000      -0.634121       -17.2553
  49   2.0000      -0.632627       -17.2146
  50   2.0000      -0.631703       -17.1895
  51   2.0000      -0.629742       -17.1361
  52   2.0000      -0.629027       -17.1167
  53   2.0000      -0.627434       -17.0733
  54   2.0000      -0.626245       -17.0410
  55   2.0000      -0.624979       -17.0065
  56   2.0000      -0.621652       -16.9160
  57   2.0000      -0.621515       -16.9123
  58   2.0000      -0.619887       -16.8680
  59   2.0000      -0.617592       -16.8055
  60   2.0000      -0.574705       -15.6385
  61   2.0000      -0.564693       -15.3661
  62   2.0000      -0.559751       -15.2316
  63   2.0000      -0.553352       -15.0575
  64   2.0000      -0.545910       -14.8550
  65   2.0000      -0.544408       -14.8141
  66   2.0000      -0.531707       -14.4685
  67   2.0000      -0.526879       -14.3371
  68   2.0000      -0.521873       -14.2009
  69   2.0000      -0.509951       -13.8765
  70   2.0000      -0.508605       -13.8399
  71   2.0000      -0.501925       -13.6581
  72   2.0000      -0.498281       -13.5589
  73   2.0000      -0.492110       -13.3910
  74   2.0000      -0.490578       -13.3493
  75   2.0000      -0.489273       -13.3138
  76   2.0000      -0.478238       -13.0135
  77   2.0000      -0.476114       -12.9557
  78   2.0000      -0.467664       -12.7258
  79   2.0000      -0.455881       -12.4052
  80   2.0000      -0.431041       -11.7292
  81   2.0000      -0.430592       -11.7170
  82   2.0000      -0.429569       -11.6892
  83   2.0000      -0.427099       -11.6219
  84   2.0000      -0.426637       -11.6094
  85   2.0000      -0.425290       -11.5727
  86   2.0000      -0.424464       -11.5502
  87   2.0000      -0.423503       -11.5241
  88   2.0000      -0.423127       -11.5139
  89   2.0000      -0.421666       -11.4741
  90   2.0000      -0.419782       -11.4229
  91   2.0000      -0.418541       -11.3891
  92   2.0000      -0.415861       -11.3162
  93   2.0000      -0.415027       -11.2935
  94   2.0000      -0.414291       -11.2734
  95   2.0000      -0.413794       -11.2599
  96   2.0000      -0.412249       -11.2179
  97   2.0000      -0.411546       -11.1987
  98   2.0000      -0.408660       -11.1202
  99   2.0000      -0.407749       -11.0954
 100   0.0000       0.055529         1.5110
 101   0.0000       0.076336         2.0772
 102   0.0000       0.079325         2.1585
 103   0.0000       0.083845         2.2815
 104   0.0000       0.101694         2.7672

MULLIKEN ATOMIC CHARGES
-----------------------
   0 O :   -0.850206
   1 H :    0.433196
   2 H :    0.422738
   3 O :   -0.950706
   4 H :    0.452656
   5 H :    0.477782
   6 O :   -0.879224
   7 H :    0.440689
   8 H :    0.425074
   9 O :   -0.832234
  10 H :    0.423014
  11 H :    0.423902
  12 O :   -0.834221
  13 H :    0.418541
  14 H :    0.418036
  15 O :   -0.806450
  16 H :    0.429008
  17 H :    0.427327
  18 O :   -0.817796
  19 H :    0.449055
  20 H :    0.397146
  21 O :   -0.878125
  22 H :    0.463558
  23 H :    0.400955
  24 O :   -0.857317
  25 H :    0.433179
  26 H :    0.431342
  27 O :   -0.836950
  28 H :    0.417127
  29 H :    0.440936
  30 O :   -0.822817
  31 H :    0.428505
  32 H :    0.419902
  33 O :   -0.759492
  34 H :    0.355362
  35 H :    0.354211
  36 O :   -0.859809
  37 H :    0.450502
  38 H :    0.456580
  39 O :   -0.797126
  40 H :    0.419894
  41 H :    0.427785
  42 O :   -1.048742
  43 H :    0.496061
  44 H :    0.394572
  45 O :   -0.842167
  46 H :    0.422324
  47 H :    0.416337
  48 O :   -0.846380
  49 H :    0.424422
  50 H :    0.418957
  51 O :   -0.835730
  52 H :    0.430776
  53 H :    0.412466
  54 O :   -0.870284
  55 H :    0.455436
  56 H :    0.420341
  57 O :   -0.865694
  58 H :    0.421005
  59 H :    0.440775
Sum of atomic charges:   -0.0000000

LOEWDIN ATOMIC CHARGES
----------------------
   0 O :   -0.375269
   1 H :    0.202978
   2 H :    0.224044
   3 O :   -0.417968
   4 H :    0.194402
   5 H :    0.195740
   6 O :   -0.382195
   7 H :    0.199821
   8 H :    0.222310
   9 O :   -0.401123
  10 H :    0.195898
  11 H :    0.195869
  12 O :   -0.392702
  13 H :    0.219781
  14 H :    0.194673
  15 O :   -0.373665
  16 H :    0.224239
  17 H :    0.198361
  18 O :   -0.395994
  19 H :    0.202352
  20 H :    0.202586
  21 O :   -0.417074
  22 H :    0.197390
  23 H :    0.189558
  24 O :   -0.406654
  25 H :    0.198670
  26 H :    0.197819
  27 O :   -0.383992
  28 H :    0.220336
  29 H :    0.193562
  30 O :   -0.385326
  31 H :    0.192374
  32 H :    0.220909
  33 O :   -0.408004
  34 H :    0.192156
  35 H :    0.191371
  36 O :   -0.402282
  37 H :    0.202103
  38 H :    0.201505
  39 O :   -0.408391
  40 H :    0.198897
  41 H :    0.200523
  42 O :   -0.464484
  43 H :    0.196896
  44 H :    0.187882
  45 O :   -0.415342
  46 H :    0.199725
  47 H :    0.197057
  48 O :   -0.418331
  49 H :    0.199732
  50 H :    0.195555
  51 O :   -0.407574
  52 H :    0.196063
  53 H :    0.198538
  54 O :   -0.409348
  55 H :    0.198105
  56 H :    0.198158
  57 O :   -0.389797
  58 H :    0.220750
  59 H :    0.196824

  Mayer bond orders larger than 0.1
B(  0-O ,  1-H ) :   0.7902 B(  0-O ,  2-H ) :   0.8308 B(  3-O ,  4-H ) :   0.7640
B(  3-O ,  5-H ) :   0.7157 B(  3-O , 33-O ) :  -0.1222 B(  3-O , 35-H ) :   0.2425
B(  4-H , 30-O ) :   0.1005 B(  5-H , 45-O ) :   0.1075 B(  6-O ,  7-H ) :   0.7398
B(  6-O ,  8-H ) :   0.8275 B(  7-H , 18-O ) :   0.1061 B(  9-O , 10-H ) :   0.8029
B(  9-O , 11-H ) :   0.7943 B(  9-O , 31-H ) :   0.1520 B( 12-O , 13-H ) :   0.8381
B( 12-O , 14-H ) :   0.7311 B( 14-H , 51-O ) :   0.1482 B( 15-O , 16-H ) :   0.8329
B( 15-O , 17-H ) :   0.7966 B( 18-O , 19-H ) :   0.7889 B( 18-O , 20-H ) :   0.8329
B( 21-O , 22-H ) :   0.7628 B( 21-O , 23-H ) :   0.8152 B( 24-O , 25-H ) :   0.7900
B( 24-O , 26-H ) :   0.8108 B( 24-O , 59-H ) :   0.1411 B( 27-O , 28-H ) :   0.8357
B( 27-O , 29-H ) :   0.7150 B( 29-H , 54-O ) :   0.1402 B( 30-O , 31-H ) :   0.7119
B( 30-O , 32-H ) :   0.8341 B( 33-O , 34-H ) :   0.7408 B( 33-O , 35-H ) :   0.7121
B( 33-O , 42-O ) :  -0.1291 B( 33-O , 44-H ) :   0.1537 B( 34-H , 36-O ) :   0.2314
B( 36-O , 37-H ) :   0.7637 B( 36-O , 38-H ) :   0.7701 B( 39-O , 40-H ) :   0.8054
B( 39-O , 41-H ) :   0.8071 B( 39-O , 42-O ) :   0.1265 B( 42-O , 43-H ) :   0.7268
B( 42-O , 44-H ) :   0.7831 B( 45-O , 46-H ) :   0.8148 B( 45-O , 47-H ) :   0.7982
B( 48-O , 49-H ) :   0.8220 B( 48-O , 50-H ) :   0.8013 B( 51-O , 52-H ) :   0.7918
B( 51-O , 53-H ) :   0.8153 B( 54-O , 55-H ) :   0.7740 B( 54-O , 56-H ) :   0.8096
B( 57-O , 58-H ) :   0.8325 B( 57-O , 59-H ) :   0.7113

Dispersion correction           -0.042612536
FINAL SINGLE POINT ENERGY     -1529.196996780874

DIPOLE MOMENT
-------------
                                X             Y             Z
Electronic contribution:      0.03833      -0.33360       0.21636
Nuclear contribution   :      0.11395      -2.24726       0.87119
                        -----------------------------------------
Total Dipole Moment    :      0.15227      -2.58086       1.08755
                        -----------------------------------------
Magnitude (a.u.)       :      2.80478
Magnitude (Debye)      :      7.12918

                             ****ORCA TERMINATED NORMALLY****
TOTAL RUN TIME: 0 days 0 hours 52 minutes 59 seconds 115 msec
