                         Program Version 4.2.0 -  RELEASE  -
|  1> # 12mecn.remya.etal.2.mol0
|  2> ! MP2 def2-TZVP EnGrad TightSCF
|  3>
|  4> %pal
|  5>     nprocs 6
|  6> end
|  7>
|  8> %maxcore 8000
|  9>
| 10> %scf
| 11>     ConvForced true
| 12> end
| 13>
| 14> *xyz 0 1
| 15> C  -0.869520000  -3.929380000   1.700199000
| 16> H  -0.057420000  -3.268850000   2.015352000
| 17> H  -0.697530000  -4.930670000   2.101524000
| 18> H  -1.821490000  -3.546590000   2.077146000
| 19> C  -0.916080000  -3.969960000   0.256749000
| 20> N  -0.955390000  -3.995980000  -0.909290000
| 21> *
| 22>
| 23>                          ****END OF INPUT****

CARTESIAN COORDINATES (ANGSTROEM)
---------------------------------
  C     -0.869520   -3.929380    1.700199
  H     -0.057420   -3.268850    2.015352
  H     -0.697530   -4.930670    2.101524
  H     -1.821490   -3.546590    2.077146
  C     -0.916080   -3.969960    0.256749
  N     -0.955390   -3.995980   -0.909290

 Total Charge           Charge          ....    0
 Multiplicity           Mult            ....    1
 Number of Electrons    NEL             ....   22
 Basis Dimension        Dim             ....  111

ORBITAL ENERGIES
----------------

  NO   OCC          E(Eh)            E(eV)
   0   2.0000     -15.573454      -423.7752
   1   2.0000     -11.285320      -307.0892
   2   2.0000     -11.280378      -306.9547
   3   2.0000      -1.214656       -33.0525
   4   2.0000      -1.044640       -28.4261
   5   2.0000      -0.700506       -19.0617
   6   2.0000      -0.632985       -17.2244
   7   2.0000      -0.632201       -17.2031
   8   2.0000      -0.556069       -15.1314
   9   2.0000      -0.457803       -12.4575
  10   2.0000      -0.457721       -12.4552
  11   0.0000       0.118731         3.2308
  12   0.0000       0.170815         4.6481
  13   0.0000       0.171370         4.6632
  14   0.0000       0.202196         5.5020
  15   0.0000       0.224395         6.1061

MULLIKEN ATOMIC CHARGES
-----------------------
   0 C :   -0.278755
   1 H :    0.172062
   2 H :    0.172232
   3 H :    0.172026
   4 C :   -0.145829
   5 N :   -0.091735
Sum of atomic charges:    0.0000000

LOEWDIN ATOMIC CHARGES
----------------------
   0 C :   -0.283662
   1 H :    0.152785
   2 H :    0.151648
   3 H :    0.152886
   4 C :   -0.219818
   5 N :    0.046161

  Mayer bond orders larger than 0.100000
B(  0-C ,  1-H ) :   0.9165 B(  0-C ,  2-H ) :   0.9166 B(  0-C ,  3-H ) :   0.9165
B(  0-C ,  4-C ) :   0.9014 B(  4-C ,  5-N ) :   2.8367

MP2 TOTAL ENERGY:     -132.483115301 Eh
FINAL SINGLE POINT ENERGY      -132.483115300998

DIPOLE MOMENT
-------------
                                X             Y             Z
Electronic contribution:     -0.09828      -0.09423      -3.10738
Nuclear contribution   :      0.14847       0.13372       4.63748
                        -----------------------------------------
Total Dipole Moment    :      0.05020       0.03949       1.53009
                        -----------------------------------------
Magnitude (a.u.)       :      1.53142
Magnitude (Debye)      :      3.89257

Rotational constants in cm-1:     5.253160     0.308595     0.308542
Rotational constants in MHz : 157485.765231  9251.439317  9249.848249

                             ****ORCA TERMINATED NORMALLY****
TOTAL RUN TIME: 0 days 0 hours 0 minutes 11 seconds 808 msec
