                         Program Version 4.2.0 -  RELEASE  -
|  1> # 12h2o.su.etal.mol2,5,8
|  2> ! MP2 def2-TZVP EnGrad TightSCF
|  3>
|  4> %pal
|  5>     nprocs 6
|  6> end
|  7>
|  8> %maxcore 8000
|  9>
| 10> %scf
| 11>     ConvForced true
| 12> end
| 13>
| 14> *xyz 0 1
| 15> O   0.923410000  -1.794470000  -2.768350000
| 16> H   1.359750000  -2.338250000  -3.430940000
| 17> H   1.303000000  -0.879480000  -2.865760000
| 18> O   0.885520000  -1.737840000   0.052730000
| 19> H   1.284090000  -0.839590000   0.017130000
| 20> H   1.032320000  -2.090180000  -0.841890000
| 21> O   1.752130000   0.741530000  -2.896280000
| 22> H   2.036450000   0.920500000  -1.984040000
| 23> H   0.921210000   1.242140000  -2.984230000
| 24> *
| 25>
| 26>                          ****END OF INPUT****

CARTESIAN COORDINATES (ANGSTROEM)
---------------------------------
  O      0.923410   -1.794470   -2.768350
  H      1.359750   -2.338250   -3.430940
  H      1.303000   -0.879480   -2.865760
  O      0.885520   -1.737840    0.052730
  H      1.284090   -0.839590    0.017130
  H      1.032320   -2.090180   -0.841890
  O      1.752130    0.741530   -2.896280
  H      2.036450    0.920500   -1.984040
  H      0.921210    1.242140   -2.984230

 Total Charge           Charge          ....    0
 Multiplicity           Mult            ....    1
 Number of Electrons    NEL             ....   30
 Basis Dimension        Dim             ....  129

ORBITAL ENERGIES
----------------

  NO   OCC          E(Eh)            E(eV)
   0   2.0000     -20.615533      -560.9772
   1   2.0000     -20.547227      -559.1185
   2   2.0000     -20.529902      -558.6470
   3   2.0000      -1.400901       -38.1205
   4   2.0000      -1.332661       -36.2635
   5   2.0000      -1.307909       -35.5900
   6   2.0000      -0.758124       -20.6296
   7   2.0000      -0.718923       -19.5629
   8   2.0000      -0.677444       -18.4342
   9   2.0000      -0.637538       -17.3483
  10   2.0000      -0.585141       -15.9225
  11   2.0000      -0.555455       -15.1147
  12   2.0000      -0.534937       -14.5564
  13   2.0000      -0.493984       -13.4420
  14   2.0000      -0.475239       -12.9319
  15   0.0000       0.086883         2.3642
  16   0.0000       0.153633         4.1806
  17   0.0000       0.158505         4.3131
  18   0.0000       0.216054         5.8791
  19   0.0000       0.281385         7.6569

MULLIKEN ATOMIC CHARGES
-----------------------
   0 O :   -0.731316
   1 H :    0.337031
   2 H :    0.365017
   3 O :   -0.685360
   4 H :    0.297710
   5 H :    0.369776
   6 O :   -0.673590
   7 H :    0.353459
   8 H :    0.367274
Sum of atomic charges:    0.0000000

LOEWDIN ATOMIC CHARGES
----------------------
   0 O :   -0.338238
   1 H :    0.153847
   2 H :    0.142278
   3 O :   -0.345570
   4 H :    0.152053
   5 H :    0.149915
   6 O :   -0.266363
   7 H :    0.171450
   8 H :    0.180628

  Mayer bond orders larger than 0.100000
B(  0-O ,  1-H ) :   0.8505 B(  0-O ,  2-H ) :   0.7751 B(  3-O ,  4-H ) :   0.8724
B(  3-O ,  5-H ) :   0.8108 B(  6-O ,  7-H ) :   0.8388 B(  6-O ,  8-H ) :   0.8313

MP2 TOTAL ENERGY:     -228.951899116 Eh
FINAL SINGLE POINT ENERGY      -228.951899115667

DIPOLE MOMENT
-------------
                                X             Y             Z
Electronic contribution:     -0.06904       0.04610      -0.11889
Nuclear contribution   :      0.67812       1.32903      -0.72077
                        -----------------------------------------
Total Dipole Moment    :      0.60908       1.37513      -0.83966
                        -----------------------------------------
Magnitude (a.u.)       :      1.72249
Magnitude (Debye)      :      4.37823

Rotational constants in cm-1:     0.343931     0.122426     0.091540
Rotational constants in MHz : 10310.803279  3670.248044  2744.289531

                             ****ORCA TERMINATED NORMALLY****
TOTAL RUN TIME: 0 days 0 hours 0 minutes 11 seconds 267 msec
