                         Program Version 4.2.0 -  RELEASE  -
|  1> # 12h2o.su.etal.mol2,3,5,8,11
|  2> ! MP2 def2-TZVP EnGrad TightSCF
|  3>
|  4> %pal
|  5>     nprocs 6
|  6> end
|  7>
|  8> %maxcore 8000
|  9>
| 10> %scf
| 11>     ConvForced true
| 12> end
| 13>
| 14> *xyz 0 1
| 15> O   0.923410000  -1.794470000  -2.768350000
| 16> H   1.359750000  -2.338250000  -3.430940000
| 17> H   1.303000000  -0.879480000  -2.865760000
| 18> O  -1.752130000  -0.741530000  -2.896280000
| 19> H  -2.036450000  -0.920500000  -1.984040000
| 20> H  -0.921210000  -1.242140000  -2.984230000
| 21> O   0.885520000  -1.737840000   0.052730000
| 22> H   1.284090000  -0.839590000   0.017130000
| 23> H   1.032320000  -2.090180000  -0.841890000
| 24> O   1.752130000   0.741530000  -2.896280000
| 25> H   2.036450000   0.920500000  -1.984040000
| 26> H   0.921210000   1.242140000  -2.984230000
| 27> O  -0.741530000   1.752130000   2.896280000
| 28> H  -0.920500000   2.036450000   1.984040000
| 29> H  -1.242140000   0.921210000   2.984230000
| 30> *
| 31>
| 32>                          ****END OF INPUT****

CARTESIAN COORDINATES (ANGSTROEM)
---------------------------------
  O      0.923410   -1.794470   -2.768350
  H      1.359750   -2.338250   -3.430940
  H      1.303000   -0.879480   -2.865760
  O     -1.752130   -0.741530   -2.896280
  H     -2.036450   -0.920500   -1.984040
  H     -0.921210   -1.242140   -2.984230
  O      0.885520   -1.737840    0.052730
  H      1.284090   -0.839590    0.017130
  H      1.032320   -2.090180   -0.841890
  O      1.752130    0.741530   -2.896280
  H      2.036450    0.920500   -1.984040
  H      0.921210    1.242140   -2.984230
  O     -0.741530    1.752130    2.896280
  H     -0.920500    2.036450    1.984040
  H     -1.242140    0.921210    2.984230

 Total Charge           Charge          ....    0
 Multiplicity           Mult            ....    1
 Number of Electrons    NEL             ....   50
 Basis Dimension        Dim             ....  215

ORBITAL ENERGIES
----------------

  NO   OCC          E(Eh)            E(eV)
   0   2.0000     -20.621499      -561.1395
   1   2.0000     -20.577371      -559.9387
   2   2.0000     -20.564966      -559.6012
   3   2.0000     -20.547541      -559.1270
   4   2.0000     -20.539244      -558.9013
   5   2.0000      -1.407623       -38.3034
   6   2.0000      -1.363920       -37.1142
   7   2.0000      -1.344173       -36.5768
   8   2.0000      -1.326098       -36.0849
   9   2.0000      -1.321320       -35.9549
  10   2.0000      -0.763612       -20.7790
  11   2.0000      -0.746125       -20.3031
  12   2.0000      -0.707031       -19.2393
  13   2.0000      -0.696095       -18.9417
  14   2.0000      -0.691033       -18.8040
  15   2.0000      -0.648189       -17.6381
  16   2.0000      -0.608837       -16.5673
  17   2.0000      -0.581662       -15.8278
  18   2.0000      -0.576208       -15.6794
  19   2.0000      -0.563765       -15.3408
  20   2.0000      -0.547284       -14.8923
  21   2.0000      -0.519684       -14.1413
  22   2.0000      -0.509018       -13.8511
  23   2.0000      -0.492946       -13.4137
  24   2.0000      -0.486921       -13.2498
  25   0.0000       0.075705         2.0600
  26   0.0000       0.122412         3.3310
  27   0.0000       0.139646         3.8000
  28   0.0000       0.155687         4.2365
  29   0.0000       0.171015         4.6535

MULLIKEN ATOMIC CHARGES
-----------------------
   0 O :   -0.748745
   1 H :    0.352837
   2 H :    0.379261
   3 O :   -0.715057
   4 H :    0.333769
   5 H :    0.361462
   6 O :   -0.686755
   7 H :    0.305073
   8 H :    0.368459
   9 O :   -0.680397
  10 H :    0.354680
  11 H :    0.374996
  12 O :   -0.674445
  13 H :    0.331674
  14 H :    0.343188
Sum of atomic charges:   -0.0000000

LOEWDIN ATOMIC CHARGES
----------------------
   0 O :   -0.311866
   1 H :    0.160405
   2 H :    0.145262
   3 O :   -0.350629
   4 H :    0.161526
   5 H :    0.145975
   6 O :   -0.343999
   7 H :    0.155289
   8 H :    0.148546
   9 O :   -0.265141
  10 H :    0.171867
  11 H :    0.182509
  12 O :   -0.332137
  13 H :    0.162979
  14 H :    0.169415

  Mayer bond orders larger than 0.100000
B(  0-O ,  1-H ) :   0.8390 B(  0-O ,  2-H ) :   0.7530 B(  3-O ,  4-H ) :   0.8541
B(  3-O ,  5-H ) :   0.8139 B(  6-O ,  7-H ) :   0.8674 B(  6-O ,  8-H ) :   0.8142
B(  9-O , 10-H ) :   0.8382 B(  9-O , 11-H ) :   0.8223 B( 12-O , 13-H ) :   0.8564
B( 12-O , 14-H ) :   0.8495

MP2 TOTAL ENERGY:     -381.591609310 Eh
FINAL SINGLE POINT ENERGY      -381.591609310090

DIPOLE MOMENT
-------------
                                X             Y             Z
Electronic contribution:      0.14846       0.13590      -0.08576
Nuclear contribution   :      0.56744       0.30841      -0.72077
                        -----------------------------------------
Total Dipole Moment    :      0.71590       0.44431      -0.80653
                        -----------------------------------------
Magnitude (a.u.)       :      1.16636
Magnitude (Debye)      :      2.96466

Rotational constants in cm-1:     0.066635     0.025561     0.024971
Rotational constants in MHz :  1997.673654   766.299893   748.608047

                             ****ORCA TERMINATED NORMALLY****
TOTAL RUN TIME: 0 days 0 hours 0 minutes 36 seconds 457 msec
