                         Program Version 4.2.0 -  RELEASE  -
|  1> # 12h2o.su.etal.mol0,1,2,3,4,5,6,7,8
|  2> ! MP2 def2-TZVP EnGrad TightSCF
|  3>
|  4> %pal
|  5>     nprocs 6
|  6> end
|  7>
|  8> %maxcore 8000
|  9>
| 10> %scf
| 11>     ConvForced true
| 12> end
| 13>
| 14> *xyz 0 1
| 15> O   1.794470000   0.923410000   2.768350000
| 16> H   2.338250000   1.359750000   3.430940000
| 17> H   0.879480000   1.303000000   2.865760000
| 18> O  -1.794470000  -0.923410000   2.768350000
| 19> H  -2.338250000  -1.359750000   3.430940000
| 20> H  -0.879480000  -1.303000000   2.865760000
| 21> O   0.923410000  -1.794470000  -2.768350000
| 22> H   1.359750000  -2.338250000  -3.430940000
| 23> H   1.303000000  -0.879480000  -2.865760000
| 24> O  -1.752130000  -0.741530000  -2.896280000
| 25> H  -2.036450000  -0.920500000  -1.984040000
| 26> H  -0.921210000  -1.242140000  -2.984230000
| 27> O  -0.885520000   1.737840000   0.052730000
| 28> H  -1.032320000   2.090180000  -0.841890000
| 29> H  -1.284090000   0.839590000   0.017130000
| 30> O   0.885520000  -1.737840000   0.052730000
| 31> H   1.284090000  -0.839590000   0.017130000
| 32> H   1.032320000  -2.090180000  -0.841890000
| 33> O   1.737840000   0.885520000  -0.052730000
| 34> H   2.090180000   1.032320000   0.841890000
| 35> H   0.839590000   1.284090000  -0.017130000
| 36> O  -1.737840000  -0.885520000  -0.052730000
| 37> H  -2.090180000  -1.032320000   0.841890000
| 38> H  -0.839590000  -1.284090000  -0.017130000
| 39> O   1.752130000   0.741530000  -2.896280000
| 40> H   2.036450000   0.920500000  -1.984040000
| 41> H   0.921210000   1.242140000  -2.984230000
| 42> *
| 43>
| 44>                          ****END OF INPUT****

CARTESIAN COORDINATES (ANGSTROEM)
---------------------------------
  O      1.794470    0.923410    2.768350
  H      2.338250    1.359750    3.430940
  H      0.879480    1.303000    2.865760
  O     -1.794470   -0.923410    2.768350
  H     -2.338250   -1.359750    3.430940
  H     -0.879480   -1.303000    2.865760
  O      0.923410   -1.794470   -2.768350
  H      1.359750   -2.338250   -3.430940
  H      1.303000   -0.879480   -2.865760
  O     -1.752130   -0.741530   -2.896280
  H     -2.036450   -0.920500   -1.984040
  H     -0.921210   -1.242140   -2.984230
  O     -0.885520    1.737840    0.052730
  H     -1.032320    2.090180   -0.841890
  H     -1.284090    0.839590    0.017130
  O      0.885520   -1.737840    0.052730
  H      1.284090   -0.839590    0.017130
  H      1.032320   -2.090180   -0.841890
  O      1.737840    0.885520   -0.052730
  H      2.090180    1.032320    0.841890
  H      0.839590    1.284090   -0.017130
  O     -1.737840   -0.885520   -0.052730
  H     -2.090180   -1.032320    0.841890
  H     -0.839590   -1.284090   -0.017130
  O      1.752130    0.741530   -2.896280
  H      2.036450    0.920500   -1.984040
  H      0.921210    1.242140   -2.984230

 Total Charge           Charge          ....    0
 Multiplicity           Mult            ....    1
 Number of Electrons    NEL             ....   90
 Basis Dimension        Dim             ....  387

ORBITAL ENERGIES
----------------

  NO   OCC          E(Eh)            E(eV)
   0   2.0000     -20.597398      -560.4837
   1   2.0000     -20.592298      -560.3449
   2   2.0000     -20.574066      -559.8488
   3   2.0000     -20.561137      -559.4970
   4   2.0000     -20.559219      -559.4448
   5   2.0000     -20.555099      -559.3327
   6   2.0000     -20.543156      -559.0077
   7   2.0000     -20.531917      -558.7019
   8   2.0000     -20.501854      -557.8838
   9   2.0000      -1.376341       -37.4521
  10   2.0000      -1.370679       -37.2981
  11   2.0000      -1.367577       -37.2137
  12   2.0000      -1.356856       -36.9219
  13   2.0000      -1.343229       -36.5511
  14   2.0000      -1.340225       -36.4694
  15   2.0000      -1.332704       -36.2647
  16   2.0000      -1.313909       -35.7533
  17   2.0000      -1.286700       -35.0129
  18   2.0000      -0.742925       -20.2160
  19   2.0000      -0.736731       -20.0475
  20   2.0000      -0.729071       -19.8390
  21   2.0000      -0.721645       -19.6369
  22   2.0000      -0.716067       -19.4852
  23   2.0000      -0.712785       -19.3959
  24   2.0000      -0.705405       -19.1950
  25   2.0000      -0.694063       -18.8864
  26   2.0000      -0.663852       -18.0643
  27   2.0000      -0.635180       -17.2841
  28   2.0000      -0.617315       -16.7980
  29   2.0000      -0.612356       -16.6631
  30   2.0000      -0.598246       -16.2791
  31   2.0000      -0.592697       -16.1281
  32   2.0000      -0.583632       -15.8814
  33   2.0000      -0.572745       -15.5852
  34   2.0000      -0.561527       -15.2799
  35   2.0000      -0.539075       -14.6690
  36   2.0000      -0.534764       -14.5517
  37   2.0000      -0.522902       -14.2289
  38   2.0000      -0.512624       -13.9492
  39   2.0000      -0.506121       -13.7723
  40   2.0000      -0.503625       -13.7043
  41   2.0000      -0.497727       -13.5438
  42   2.0000      -0.491757       -13.3814
  43   2.0000      -0.479543       -13.0490
  44   2.0000      -0.452059       -12.3011
  45   0.0000       0.093720         2.5503
  46   0.0000       0.120955         3.2914
  47   0.0000       0.125566         3.4168
  48   0.0000       0.152974         4.1626
  49   0.0000       0.184717         5.0264

MULLIKEN ATOMIC CHARGES
-----------------------
   0 O :   -0.704700
   1 H :    0.353622
   2 H :    0.368461
   3 O :   -0.706529
   4 H :    0.352771
   5 H :    0.368745
   6 O :   -0.751730
   7 H :    0.346742
   8 H :    0.385332
   9 O :   -0.738266
  10 H :    0.368251
  11 H :    0.349131
  12 O :   -0.722690
  13 H :    0.346147
  14 H :    0.383108
  15 O :   -0.738780
  16 H :    0.365012
  17 H :    0.375300
  18 O :   -0.759796
  19 H :    0.384375
  20 H :    0.353101
  21 O :   -0.756902
  22 H :    0.377884
  23 H :    0.360967
  24 O :   -0.701576
  25 H :    0.391559
  26 H :    0.350460
Sum of atomic charges:   -0.0000000

LOEWDIN ATOMIC CHARGES
----------------------
   0 O :   -0.311918
   1 H :    0.164525
   2 H :    0.189949
   3 O :   -0.313489
   4 H :    0.163984
   5 H :    0.189788
   6 O :   -0.314185
   7 H :    0.157405
   8 H :    0.147074
   9 O :   -0.359897
  10 H :    0.147447
  11 H :    0.140879
  12 O :   -0.311503
  13 H :    0.164146
  14 H :    0.147337
  15 O :   -0.320318
  16 H :    0.139561
  17 H :    0.148578
  18 O :   -0.305764
  19 H :    0.153987
  20 H :    0.139524
  21 O :   -0.302576
  22 H :    0.150708
  23 H :    0.141489
  24 O :   -0.275393
  25 H :    0.158574
  26 H :    0.170089

  Mayer bond orders larger than 0.100000
B(  0-O ,  1-H ) :   0.8410 B(  0-O ,  2-H ) :   0.8230 B(  3-O ,  4-H ) :   0.8415
B(  3-O ,  5-H ) :   0.8227 B(  6-O ,  7-H ) :   0.8424 B(  6-O ,  8-H ) :   0.7405
B(  8-H , 24-O ) :   0.1001 B(  9-O , 10-H ) :   0.8213 B(  9-O , 11-H ) :   0.8222
B( 12-O , 13-H ) :   0.8431 B( 12-O , 14-H ) :   0.7537 B( 12-O , 20-H ) :   0.1194
B( 14-H , 21-O ) :   0.1074 B( 15-O , 16-H ) :   0.7803 B( 15-O , 17-H ) :   0.8037
B( 15-O , 23-H ) :   0.1219 B( 18-O , 19-H ) :   0.7992 B( 18-O , 20-H ) :   0.7564
B( 21-O , 22-H ) :   0.8044 B( 21-O , 23-H ) :   0.7497 B( 24-O , 25-H ) :   0.7932
B( 24-O , 26-H ) :   0.8372

MP2 TOTAL ENERGY:     -686.926116248 Eh
FINAL SINGLE POINT ENERGY      -686.926116247620

DIPOLE MOMENT
-------------
                                X             Y             Z
Electronic contribution:      0.13666       0.13072       0.25759
Nuclear contribution   :      0.67915       0.30898       2.00481
                        -----------------------------------------
Total Dipole Moment    :      0.81581       0.43970       2.26239
                        -----------------------------------------
Magnitude (a.u.)       :      2.44485
Magnitude (Debye)      :      6.21432

Rotational constants in cm-1:     0.027797     0.018417     0.014775
Rotational constants in MHz :   833.325007   552.139570   442.934731

                             ****ORCA TERMINATED NORMALLY****
TOTAL RUN TIME: 0 days 0 hours 5 minutes 2 seconds 70 msec
