                         Program Version 4.2.0 -  RELEASE  -
|  1> # 12meoh.boyd.etal.mol0,8,11
|  2> ! MP2 def2-TZVP EnGrad TightSCF
|  3>
|  4> %pal
|  5>     nprocs 6
|  6> end
|  7>
|  8> %maxcore 8000
|  9>
| 10> %scf
| 11>     ConvForced true
| 12> end
| 13>
| 14> *xyz 0 1
| 15> O  -1.776108874  -2.741384797  -1.019308298
| 16> H  -2.520094035  -2.452295987  -0.420778302
| 17> C  -2.174025166  -3.952700964  -1.647004581
| 18> H  -1.359803895  -4.272673416  -2.304149236
| 19> H  -3.075973971  -3.808692420  -2.256751112
| 20> H  -2.370225393  -4.752784761  -0.918966137
| 21> O   3.570084754   2.361662577  -0.202416728
| 22> H   3.393280933   1.755669977   0.560634073
| 23> C   4.368082883   1.644741793  -1.143112807
| 24> H   4.552851717   2.311801738  -1.989632421
| 25> H   3.862427494   0.740851663  -1.508095690
| 26> H   5.333949674   1.357289092  -0.706288100
| 27> O   3.252955559   0.588596242   1.858934315
| 28> H   3.621209177  -0.251605199   1.476063364
| 29> C   4.040824528   0.944288422   2.989639460
| 30> H   3.670521436   1.902573549   3.363847391
| 31> H   5.103749934   1.055868619   2.734277559
| 32> H   3.948540682   0.200279590   3.792908518
| 33> *
| 34>
| 35>                          ****END OF INPUT****

CARTESIAN COORDINATES (ANGSTROEM)
---------------------------------
  O     -1.776109   -2.741385   -1.019308
  H     -2.520094   -2.452296   -0.420778
  C     -2.174025   -3.952701   -1.647005
  H     -1.359804   -4.272673   -2.304149
  H     -3.075974   -3.808692   -2.256751
  H     -2.370225   -4.752785   -0.918966
  O      3.570085    2.361663   -0.202417
  H      3.393281    1.755670    0.560634
  C      4.368083    1.644742   -1.143113
  H      4.552852    2.311802   -1.989632
  H      3.862427    0.740852   -1.508096
  H      5.333950    1.357289   -0.706288
  O      3.252956    0.588596    1.858934
  H      3.621209   -0.251605    1.476063
  C      4.040825    0.944288    2.989639
  H      3.670521    1.902574    3.363847
  H      5.103750    1.055869    2.734278
  H      3.948541    0.200280    3.792909

 Total Charge           Charge          ....    0
 Multiplicity           Mult            ....    1
 Number of Electrons    NEL             ....   54
 Basis Dimension        Dim             ....  258

ORBITAL ENERGIES
----------------

  NO   OCC          E(Eh)            E(eV)
   0   2.0000     -20.586463      -560.1861
   1   2.0000     -20.557495      -559.3979
   2   2.0000     -20.516387      -558.2793
   3   2.0000     -11.287309      -307.1433
   4   2.0000     -11.271397      -306.7103
   5   2.0000     -11.253201      -306.2152
   6   2.0000      -1.379174       -37.5292
   7   2.0000      -1.346640       -36.6439
   8   2.0000      -1.312686       -35.7200
   9   2.0000      -0.938956       -25.5503
  10   2.0000      -0.918896       -25.0044
  11   2.0000      -0.899419       -24.4744
  12   2.0000      -0.709246       -19.2996
  13   2.0000      -0.681197       -18.5363
  14   2.0000      -0.674950       -18.3663
  15   2.0000      -0.629876       -17.1398
  16   2.0000      -0.617040       -16.7905
  17   2.0000      -0.609989       -16.5986
  18   2.0000      -0.593931       -16.1617
  19   2.0000      -0.590872       -16.0785
  20   2.0000      -0.562758       -15.3134
  21   2.0000      -0.524193       -14.2640
  22   2.0000      -0.499969       -13.6049
  23   2.0000      -0.488526       -13.2935
  24   2.0000      -0.457646       -12.4532
  25   2.0000      -0.448561       -12.2060
  26   2.0000      -0.419807       -11.4235
  27   0.0000       0.116390         3.1671
  28   0.0000       0.135280         3.6811
  29   0.0000       0.161854         4.4043
  30   0.0000       0.176026         4.7899
  31   0.0000       0.180326         4.9069

MULLIKEN ATOMIC CHARGES
-----------------------
   0 O :   -0.494807
   1 H :    0.322250
   2 C :   -0.173556
   3 H :    0.128310
   4 H :    0.109806
   5 H :    0.107997
   6 O :   -0.520905
   7 H :    0.358990
   8 C :   -0.193966
   9 H :    0.127037
  10 H :    0.105118
  11 H :    0.093064
  12 O :   -0.514714
  13 H :    0.340648
  14 C :   -0.192099
  15 H :    0.147220
  16 H :    0.125403
  17 H :    0.124204
Sum of atomic charges:   -0.0000000

LOEWDIN ATOMIC CHARGES
----------------------
   0 O :   -0.108401
   1 H :    0.192885
   2 C :   -0.384719
   3 H :    0.110108
   4 H :    0.095347
   5 H :    0.094780
   6 O :   -0.119692
   7 H :    0.159778
   8 C :   -0.395931
   9 H :    0.107981
  10 H :    0.091592
  11 H :    0.088301
  12 O :   -0.076090
  13 H :    0.197644
  14 C :   -0.375050
  15 H :    0.116952
  16 H :    0.101365
  17 H :    0.103151

  Mayer bond orders larger than 0.100000
B(  0-O ,  1-H ) :   0.8413 B(  0-O ,  2-C ) :   0.9281 B(  2-C ,  3-H ) :   0.9376
B(  2-C ,  4-H ) :   0.9398 B(  2-C ,  5-H ) :   0.9379 B(  6-O ,  7-H ) :   0.7957
B(  6-O ,  8-C ) :   0.9444 B(  8-C ,  9-H ) :   0.9429 B(  8-C , 10-H ) :   0.9400
B(  8-C , 11-H ) :   0.9341 B( 12-O , 13-H ) :   0.8292 B( 12-O , 14-C ) :   0.8768
B( 14-C , 15-H ) :   0.9393 B( 14-C , 16-H ) :   0.9364 B( 14-C , 17-H ) :   0.9347

MP2 TOTAL ENERGY:     -346.528859301 Eh
FINAL SINGLE POINT ENERGY      -346.528859300911

DIPOLE MOMENT
-------------
                                X             Y             Z
Electronic contribution:     -1.50169       2.10578       0.74188
Nuclear contribution   :      1.57857      -3.55710       0.02325
                        -----------------------------------------
Total Dipole Moment    :      0.07688      -1.45132       0.76513
                        -----------------------------------------
Magnitude (a.u.)       :      1.64245
Magnitude (Debye)      :      4.17479

Rotational constants in cm-1:     0.077873     0.012540     0.011139
Rotational constants in MHz :  2334.566512   375.935325   333.934273

                             ****ORCA TERMINATED NORMALLY****
TOTAL RUN TIME: 0 days 0 hours 0 minutes 58 seconds 302 msec
