                         Program Version 4.2.0 -  RELEASE  -
|  1> # 12h2o.su.etal.mol0,1,2,6,7,8,10
|  2> ! MP2 def2-TZVP EnGrad TightSCF
|  3>
|  4> %pal
|  5>     nprocs 6
|  6> end
|  7>
|  8> %maxcore 8000
|  9>
| 10> %scf
| 11>     ConvForced true
| 12> end
| 13>
| 14> *xyz 0 1
| 15> O   1.794470000   0.923410000   2.768350000
| 16> H   2.338250000   1.359750000   3.430940000
| 17> H   0.879480000   1.303000000   2.865760000
| 18> O  -1.794470000  -0.923410000   2.768350000
| 19> H  -2.338250000  -1.359750000   3.430940000
| 20> H  -0.879480000  -1.303000000   2.865760000
| 21> O   0.923410000  -1.794470000  -2.768350000
| 22> H   1.359750000  -2.338250000  -3.430940000
| 23> H   1.303000000  -0.879480000  -2.865760000
| 24> O   1.737840000   0.885520000  -0.052730000
| 25> H   2.090180000   1.032320000   0.841890000
| 26> H   0.839590000   1.284090000  -0.017130000
| 27> O  -1.737840000  -0.885520000  -0.052730000
| 28> H  -2.090180000  -1.032320000   0.841890000
| 29> H  -0.839590000  -1.284090000  -0.017130000
| 30> O   1.752130000   0.741530000  -2.896280000
| 31> H   2.036450000   0.920500000  -1.984040000
| 32> H   0.921210000   1.242140000  -2.984230000
| 33> O  -0.923410000   1.794470000  -2.768350000
| 34> H  -1.359750000   2.338250000  -3.430940000
| 35> H  -1.303000000   0.879480000  -2.865760000
| 36> *
| 37>
| 38>                          ****END OF INPUT****

CARTESIAN COORDINATES (ANGSTROEM)
---------------------------------
  O      1.794470    0.923410    2.768350
  H      2.338250    1.359750    3.430940
  H      0.879480    1.303000    2.865760
  O     -1.794470   -0.923410    2.768350
  H     -2.338250   -1.359750    3.430940
  H     -0.879480   -1.303000    2.865760
  O      0.923410   -1.794470   -2.768350
  H      1.359750   -2.338250   -3.430940
  H      1.303000   -0.879480   -2.865760
  O      1.737840    0.885520   -0.052730
  H      2.090180    1.032320    0.841890
  H      0.839590    1.284090   -0.017130
  O     -1.737840   -0.885520   -0.052730
  H     -2.090180   -1.032320    0.841890
  H     -0.839590   -1.284090   -0.017130
  O      1.752130    0.741530   -2.896280
  H      2.036450    0.920500   -1.984040
  H      0.921210    1.242140   -2.984230
  O     -0.923410    1.794470   -2.768350
  H     -1.359750    2.338250   -3.430940
  H     -1.303000    0.879480   -2.865760

 Total Charge           Charge          ....    0
 Multiplicity           Mult            ....    1
 Number of Electrons    NEL             ....   70
 Basis Dimension        Dim             ....  301

ORBITAL ENERGIES
----------------

  NO   OCC          E(Eh)            E(eV)
   0   2.0000     -20.599739      -560.5474
   1   2.0000     -20.593569      -560.3795
   2   2.0000     -20.572366      -559.8025
   3   2.0000     -20.548295      -559.1475
   4   2.0000     -20.523331      -558.4682
   5   2.0000     -20.522495      -558.4455
   6   2.0000     -20.492475      -557.6286
   7   2.0000      -1.377631       -37.4873
   8   2.0000      -1.371384       -37.3173
   9   2.0000      -1.350460       -36.7479
  10   2.0000      -1.330701       -36.2102
  11   2.0000      -1.314066       -35.7576
  12   2.0000      -1.301549       -35.4170
  13   2.0000      -1.273625       -34.6571
  14   2.0000      -0.744683       -20.2639
  15   2.0000      -0.737893       -20.0791
  16   2.0000      -0.717242       -19.5171
  17   2.0000      -0.700822       -19.0703
  18   2.0000      -0.679201       -18.4820
  19   2.0000      -0.671964       -18.2851
  20   2.0000      -0.659449       -17.9445
  21   2.0000      -0.616212       -16.7680
  22   2.0000      -0.606752       -16.5106
  23   2.0000      -0.596193       -16.2232
  24   2.0000      -0.577217       -15.7069
  25   2.0000      -0.556194       -15.1348
  26   2.0000      -0.555218       -15.1083
  27   2.0000      -0.535160       -14.5624
  28   2.0000      -0.522834       -14.2270
  29   2.0000      -0.520032       -14.1508
  30   2.0000      -0.507009       -13.7964
  31   2.0000      -0.494755       -13.4630
  32   2.0000      -0.468123       -12.7383
  33   2.0000      -0.463138       -12.6026
  34   2.0000      -0.443303       -12.0629
  35   0.0000       0.087906         2.3920
  36   0.0000       0.121980         3.3192
  37   0.0000       0.129083         3.5125
  38   0.0000       0.167831         4.5669
  39   0.0000       0.177118         4.8196

MULLIKEN ATOMIC CHARGES
-----------------------
   0 O :   -0.699462
   1 H :    0.353831
   2 H :    0.358748
   3 O :   -0.699782
   4 H :    0.351543
   5 H :    0.357011
   6 O :   -0.738240
   7 H :    0.315566
   8 H :    0.369879
   9 O :   -0.715050
  10 H :    0.370807
  11 H :    0.342570
  12 O :   -0.707541
  13 H :    0.359328
  14 H :    0.339814
  15 O :   -0.720823
  16 H :    0.381773
  17 H :    0.358003
  18 O :   -0.706039
  19 H :    0.347829
  20 H :    0.380234
Sum of atomic charges:    0.0000000

LOEWDIN ATOMIC CHARGES
----------------------
   0 O :   -0.311768
   1 H :    0.164435
   2 H :    0.186184
   3 O :   -0.312999
   4 H :    0.163110
   5 H :    0.185281
   6 O :   -0.377068
   7 H :    0.144123
   8 H :    0.142192
   9 O :   -0.325275
  10 H :    0.151992
  11 H :    0.170026
  12 O :   -0.349455
  13 H :    0.146193
  14 H :    0.168480
  15 O :   -0.291957
  16 H :    0.155684
  17 H :    0.146795
  18 O :   -0.312838
  19 H :    0.161601
  20 H :    0.195265

  Mayer bond orders larger than 0.100000
B(  0-O ,  1-H ) :   0.8406 B(  0-O ,  2-H ) :   0.8296 B(  3-O ,  4-H ) :   0.8417
B(  3-O ,  5-H ) :   0.8305 B(  6-O ,  7-H ) :   0.8650 B(  6-O ,  8-H ) :   0.7664
B(  8-H , 15-O ) :   0.1052 B(  9-O , 10-H ) :   0.8118 B(  9-O , 11-H ) :   0.8384
B( 12-O , 13-H ) :   0.8258 B( 12-O , 14-H ) :   0.8431 B( 15-O , 16-H ) :   0.8046
B( 15-O , 17-H ) :   0.8106 B( 18-O , 19-H ) :   0.8443 B( 18-O , 20-H ) :   0.8144

MP2 TOTAL ENERGY:     -534.235633820 Eh
FINAL SINGLE POINT ENERGY      -534.235633820011

DIPOLE MOMENT
-------------
                                X             Y             Z
Electronic contribution:     -0.02292       0.27558       0.20267
Nuclear contribution   :     -0.45497       0.56566       2.23466
                        -----------------------------------------
Total Dipole Moment    :     -0.47788       0.84124       2.43733
                        -----------------------------------------
Magnitude (a.u.)       :      2.62233
Magnitude (Debye)      :      6.66544

Rotational constants in cm-1:     0.035456     0.019399     0.016201
Rotational constants in MHz :  1062.959046   581.571983   485.703240

                             ****ORCA TERMINATED NORMALLY****
TOTAL RUN TIME: 0 days 0 hours 1 minutes 27 seconds 770 msec
