                         Program Version 3.0.3 - RELEASE   -
|  1> ! wB97X-D3 Def2-TZVP def2-TZVP/J RIJCOSX TightSCF Grid4
|  2>
|  3> %pal nprocs 12 end
|  4>
|  5> %scf
|  6>         maxiter 400
|  7> end
|  8>
|  9> * xyz  0  1
| 10> O  2.081362	1.195624	0.526618
| 11> H  1.521380	1.597059	-0.170232
| 12> H  1.472937	1.125202	1.289549
| 13> O  -0.036184	0.581440	2.331299
| 14> H  -0.118135	-0.386892	2.115448
| 15> H  -0.149617	0.660074	3.287149
| 16> O  -0.161220	-1.874740	1.344840
| 17> H  0.646613	-1.744242	0.720580
| 18> H  -0.035035	-2.724001	1.788173
| 19> O  -1.747672	1.368368	0.268780
| 20> H  -2.042474	0.458647	-0.009714
| 21> H  -1.268674	1.215851	1.111016
| 22> O  1.747659	-1.368392	-0.268778
| 23> H  1.268650	-1.215860	-1.111008
| 24> H  2.042474	-0.458671	0.009702
| 25> O  0.161203	1.874763	-1.344840
| 26> H  0.035040	2.724014	-1.788199
| 27> H  -0.646631	1.744265	-0.720590
| 28> O  0.036203	-0.581435	-2.331254
| 29> H  0.118140	0.386902	-2.115409
| 30> H  0.149631	-0.660079	-3.287103
| 31> O  -2.081360	-1.195643	-0.526658
| 32> H  -1.472915	-1.125197	-1.289570
| 33> H  -1.521377	-1.597062	0.170201
| 34> **                         ****END OF INPUT****

CARTESIAN COORDINATES (ANGSTROEM)
---------------------------------
  O      2.081362    1.195624    0.526618
  H      1.521380    1.597059   -0.170232
  H      1.472937    1.125202    1.289549
  O     -0.036184    0.581440    2.331299
  H     -0.118135   -0.386892    2.115448
  H     -0.149617    0.660074    3.287149
  O     -0.161220   -1.874740    1.344840
  H      0.646613   -1.744242    0.720580
  H     -0.035035   -2.724001    1.788173
  O     -1.747672    1.368368    0.268780
  H     -2.042474    0.458647   -0.009714
  H     -1.268674    1.215851    1.111016
  O      1.747659   -1.368392   -0.268778
  H      1.268650   -1.215860   -1.111008
  H      2.042474   -0.458671    0.009702
  O      0.161203    1.874763   -1.344840
  H      0.035040    2.724014   -1.788199
  H     -0.646631    1.744265   -0.720590
  O      0.036203   -0.581435   -2.331254
  H      0.118140    0.386902   -2.115409
  H      0.149631   -0.660079   -3.287103
  O     -2.081360   -1.195643   -0.526658
  H     -1.472915   -1.125197   -1.289570
  H     -1.521377   -1.597062    0.170201

 Total Charge           Charge          ....    0
 Multiplicity           Mult            ....    1
 Number of Electrons    NEL             ....   80
 Basis Dimension        Dim             ....  344

ORBITAL ENERGIES
----------------

  NO   OCC          E(Eh)            E(eV)
   0   2.0000     -19.253063      -523.9025
   1   2.0000     -19.253060      -523.9024
   2   2.0000     -19.247960      -523.7636
   3   2.0000     -19.247956      -523.7635
   4   2.0000     -19.222929      -523.0825
   5   2.0000     -19.222928      -523.0825
   6   2.0000     -19.215622      -522.8837
   7   2.0000     -19.215619      -522.8836
   8   2.0000      -1.155578       -31.4449
   9   2.0000      -1.148992       -31.2657
  10   2.0000      -1.138080       -30.9687
  11   2.0000      -1.132154       -30.8075
  12   2.0000      -1.119067       -30.4514
  13   2.0000      -1.112662       -30.2771
  14   2.0000      -1.101876       -29.9836
  15   2.0000      -1.095987       -29.8233
  16   2.0000      -0.669034       -18.2053
  17   2.0000      -0.667833       -18.1727
  18   2.0000      -0.643940       -17.5225
  19   2.0000      -0.642567       -17.4851
  20   2.0000      -0.625732       -17.0270
  21   2.0000      -0.622061       -16.9272
  22   2.0000      -0.620333       -16.8801
  23   2.0000      -0.615019       -16.7355
  24   2.0000      -0.557425       -15.1683
  25   2.0000      -0.532365       -14.4864
  26   2.0000      -0.530787       -14.4434
  27   2.0000      -0.502789       -13.6816
  28   2.0000      -0.502546       -13.6750
  29   2.0000      -0.496170       -13.5015
  30   2.0000      -0.485788       -13.2190
  31   2.0000      -0.459559       -12.5052
  32   2.0000      -0.439253       -11.9527
  33   2.0000      -0.434961       -11.8359
  34   2.0000      -0.430762       -11.7216
  35   2.0000      -0.427944       -11.6449
  36   2.0000      -0.414992       -11.2925
  37   2.0000      -0.411928       -11.2091
  38   2.0000      -0.398134       -10.8338
  39   2.0000      -0.397114       -10.8060
  40   0.0000       0.080726         2.1967
  41   0.0000       0.105195         2.8625
  42   0.0000       0.125337         3.4106
  43   0.0000       0.136843         3.7237
  44   0.0000       0.182616         4.9692

MULLIKEN ATOMIC CHARGES
-----------------------
   0 O :   -0.700370
   1 H :    0.356359
   2 H :    0.352017
   3 O :   -0.729690
   4 H :    0.362000
   5 H :    0.351101
   6 O :   -0.756269
   7 H :    0.376250
   8 H :    0.353999
   9 O :   -0.704148
  10 H :    0.380920
  11 H :    0.357832
  12 O :   -0.704141
  13 H :    0.357817
  14 H :    0.380923
  15 O :   -0.756299
  16 H :    0.354023
  17 H :    0.376247
  18 O :   -0.729686
  19 H :    0.362003
  20 H :    0.351098
  21 O :   -0.700378
  22 H :    0.352026
  23 H :    0.356365
Sum of atomic charges:   -0.0000000

LOEWDIN ATOMIC CHARGES
----------------------
   0 O :   -0.295481
   1 H :    0.136722
   2 H :    0.141592
   3 O :   -0.295905
   4 H :    0.139767
   5 H :    0.161658
   6 O :   -0.300690
   7 H :    0.136459
   8 H :    0.158840
   9 O :   -0.269757
  10 H :    0.146022
  11 H :    0.140768
  12 O :   -0.269756
  13 H :    0.140765
  14 H :    0.146022
  15 O :   -0.300685
  16 H :    0.158841
  17 H :    0.136459
  18 O :   -0.295897
  19 H :    0.139768
  20 H :    0.161657
  21 O :   -0.295482
  22 H :    0.141590
  23 H :    0.136722

  Mayer bond orders larger than 0.1
B(  0-O ,  1-H ) :   0.8399 B(  0-O ,  2-H ) :   0.8538 B(  0-O , 14-H ) :   0.1220
B(  3-O ,  4-H ) :   0.7820 B(  3-O ,  5-H ) :   0.8829 B(  4-H ,  6-O ) :   0.1251
B(  6-O ,  7-H ) :   0.7026 B(  6-O ,  8-H ) :   0.8802 B(  7-H , 12-O ) :   0.2103
B(  9-O , 10-H ) :   0.7858 B(  9-O , 11-H ) :   0.8369 B(  9-O , 17-H ) :   0.2102
B( 10-H , 21-O ) :   0.1220 B( 12-O , 13-H ) :   0.8369 B( 12-O , 14-H ) :   0.7858
B( 15-O , 16-H ) :   0.8802 B( 15-O , 17-H ) :   0.7026 B( 15-O , 19-H ) :   0.1251
B( 18-O , 19-H ) :   0.7820 B( 18-O , 20-H ) :   0.8829 B( 21-O , 22-H ) :   0.8538
B( 21-O , 23-H ) :   0.8399

Dispersion correction           -0.012133041
FINAL SINGLE POINT ENERGY      -611.641231744030

DIPOLE MOMENT
-------------
                                X             Y             Z
Electronic contribution:      0.00000       0.00002      -0.00001
Nuclear contribution   :      0.00002       0.00003      -0.00002
                        -----------------------------------------
Total Dipole Moment    :      0.00002       0.00005      -0.00003
                        -----------------------------------------
Magnitude (a.u.)       :      0.00006
Magnitude (Debye)      :      0.00016

                             ****ORCA TERMINATED NORMALLY****
TOTAL RUN TIME: 0 days 0 hours 1 minutes 5 seconds 546 msec
