                         Program Version 3.0.3 - RELEASE   -
|  1> ! B3LYP Def2-TZVP def2-TZVP/J RIJCOSX TightSCF Grid4 D3BJ
|  2>
|  3> %pal nprocs 12 end
|  4>
|  5> %scf
|  6>         maxiter 400
|  7> end
|  8>
|  9> * xyz  0  1
| 10> O  2.051532	1.097154	0.526730
| 11> H  1.482804	1.519451	-0.173114
| 12> H  1.423730	1.043711	1.293118
| 13> O  -0.064418	0.597699	2.244940
| 14> H  -0.120509	-0.396767	2.020135
| 15> H  -0.161931	0.670983	3.211493
| 16> O  -0.131955	-1.814448	1.286191
| 17> H  0.725702	-1.704082	0.638498
| 18> H  -0.004630	-2.643515	1.781636
| 19> O  -1.774149	1.404553	0.274919
| 20> H  -2.035090	0.461960	-0.020397
| 21> H  -1.266315	1.236579	1.115430
| 22> O  1.774148	-1.404554	-0.274919
| 23> H  1.266315	-1.236580	-1.115431
| 24> H  2.035090	-0.461960	0.020397
| 25> O  0.131954	1.814447	-1.286190
| 26> H  0.004631	2.643515	-1.781636
| 27> H  -0.725703	1.704082	-0.638499
| 28> O  0.064419	-0.597699	-2.244940
| 29> H  0.120509	0.396766	-2.020134
| 30> H  0.161929	-0.670982	-3.211494
| 31> O  -2.051532	-1.097154	-0.526730
| 32> H  -1.423729	-1.043712	-1.293118
| 33> H  -1.482805	-1.519452	0.173114
| 34> **                         ****END OF INPUT****

CARTESIAN COORDINATES (ANGSTROEM)
---------------------------------
  O      2.051532    1.097154    0.526730
  H      1.482804    1.519451   -0.173114
  H      1.423730    1.043711    1.293118
  O     -0.064418    0.597699    2.244940
  H     -0.120509   -0.396767    2.020135
  H     -0.161931    0.670983    3.211493
  O     -0.131955   -1.814448    1.286191
  H      0.725702   -1.704082    0.638498
  H     -0.004630   -2.643515    1.781636
  O     -1.774149    1.404553    0.274919
  H     -2.035090    0.461960   -0.020397
  H     -1.266315    1.236579    1.115430
  O      1.774148   -1.404554   -0.274919
  H      1.266315   -1.236580   -1.115431
  H      2.035090   -0.461960    0.020397
  O      0.131954    1.814447   -1.286190
  H      0.004631    2.643515   -1.781636
  H     -0.725703    1.704082   -0.638499
  O      0.064419   -0.597699   -2.244940
  H      0.120509    0.396766   -2.020134
  H      0.161929   -0.670982   -3.211494
  O     -2.051532   -1.097154   -0.526730
  H     -1.423729   -1.043712   -1.293118
  H     -1.482805   -1.519452    0.173114

 Total Charge           Charge          ....    0
 Multiplicity           Mult            ....    1
 Number of Electrons    NEL             ....   80
 Basis Dimension        Dim             ....  344

ORBITAL ENERGIES
----------------

  NO   OCC          E(Eh)            E(eV)
   0   2.0000     -19.147006      -521.0165
   1   2.0000     -19.147006      -521.0165
   2   2.0000     -19.136680      -520.7355
   3   2.0000     -19.136679      -520.7355
   4   2.0000     -19.118535      -520.2418
   5   2.0000     -19.118534      -520.2417
   6   2.0000     -19.110766      -520.0304
   7   2.0000     -19.110763      -520.0303
   8   2.0000      -1.037686       -28.2369
   9   2.0000      -1.028818       -27.9956
  10   2.0000      -1.017595       -27.6902
  11   2.0000      -1.009712       -27.4757
  12   2.0000      -1.001614       -27.2553
  13   2.0000      -0.991348       -26.9760
  14   2.0000      -0.982850       -26.7447
  15   2.0000      -0.973461       -26.4892
  16   2.0000      -0.561995       -15.2927
  17   2.0000      -0.560767       -15.2592
  18   2.0000      -0.533913       -14.5285
  19   2.0000      -0.531731       -14.4691
  20   2.0000      -0.519721       -14.1423
  21   2.0000      -0.515117       -14.0171
  22   2.0000      -0.514600       -14.0030
  23   2.0000      -0.507584       -13.8121
  24   2.0000      -0.461603       -12.5609
  25   2.0000      -0.431986       -11.7549
  26   2.0000      -0.428797       -11.6682
  27   2.0000      -0.406520       -11.0620
  28   2.0000      -0.401715       -10.9312
  29   2.0000      -0.397737       -10.8230
  30   2.0000      -0.385007       -10.4766
  31   2.0000      -0.357920        -9.7395
  32   2.0000      -0.338310        -9.2059
  33   2.0000      -0.334418        -9.1000
  34   2.0000      -0.329014        -8.9529
  35   2.0000      -0.325682        -8.8623
  36   2.0000      -0.314843        -8.5673
  37   2.0000      -0.312294        -8.4980
  38   2.0000      -0.299746        -8.1565
  39   2.0000      -0.299017        -8.1367
  40   0.0000      -0.004003        -0.1089
  41   0.0000       0.016432         0.4471
  42   0.0000       0.037173         1.0115
  43   0.0000       0.046790         1.2732
  44   0.0000       0.098735         2.6867

MULLIKEN ATOMIC CHARGES
-----------------------
   0 O :   -0.693884
   1 H :    0.356461
   2 H :    0.349959
   3 O :   -0.716658
   4 H :    0.360476
   5 H :    0.333003
   6 O :   -0.749097
   7 H :    0.367352
   8 H :    0.333990
   9 O :   -0.678694
  10 H :    0.380202
  11 H :    0.356892
  12 O :   -0.678690
  13 H :    0.356885
  14 H :    0.380202
  15 O :   -0.749102
  16 H :    0.333992
  17 H :    0.367351
  18 O :   -0.716654
  19 H :    0.360481
  20 H :    0.333001
  21 O :   -0.693885
  22 H :    0.349960
  23 H :    0.356458
Sum of atomic charges:   -0.0000000

LOEWDIN ATOMIC CHARGES
----------------------
   0 O :   -0.298484
   1 H :    0.143469
   2 H :    0.144331
   3 O :   -0.302357
   4 H :    0.142748
   5 H :    0.161904
   6 O :   -0.321549
   7 H :    0.137476
   8 H :    0.155970
   9 O :   -0.258043
  10 H :    0.150100
  11 H :    0.144435
  12 O :   -0.258044
  13 H :    0.144434
  14 H :    0.150101
  15 O :   -0.321549
  16 H :    0.155970
  17 H :    0.137475
  18 O :   -0.302355
  19 H :    0.142748
  20 H :    0.161903
  21 O :   -0.298484
  22 H :    0.144332
  23 H :    0.143469

  Mayer bond orders larger than 0.1
B(  0-O ,  1-H ) :   0.8268 B(  0-O ,  2-H ) :   0.8388 B(  0-O , 14-H ) :   0.1585
B(  3-O ,  4-H ) :   0.7441 B(  3-O ,  5-H ) :   0.8881 B(  4-H ,  6-O ) :   0.1657
B(  6-O ,  7-H ) :   0.6381 B(  6-O ,  8-H ) :   0.8868 B(  7-H , 12-O ) :   0.2879
B(  9-O , 10-H ) :   0.7553 B(  9-O , 11-H ) :   0.8221 B(  9-O , 17-H ) :   0.2879
B( 10-H , 21-O ) :   0.1585 B( 12-O , 13-H ) :   0.8221 B( 12-O , 14-H ) :   0.7553
B( 15-O , 16-H ) :   0.8868 B( 15-O , 17-H ) :   0.6381 B( 15-O , 19-H ) :   0.1657
B( 18-O , 19-H ) :   0.7441 B( 18-O , 20-H ) :   0.8881 B( 21-O , 22-H ) :   0.8388
B( 21-O , 23-H ) :   0.8268

Dispersion correction           -0.025916020
FINAL SINGLE POINT ENERGY      -611.540180307826

DIPOLE MOMENT
-------------
                                X             Y             Z
Electronic contribution:      0.00000       0.00000       0.00000
Nuclear contribution   :      0.00000       0.00000      -0.00000
                        -----------------------------------------
Total Dipole Moment    :      0.00000       0.00000      -0.00000
                        -----------------------------------------
Magnitude (a.u.)       :      0.00000
Magnitude (Debye)      :      0.00001

                             ****ORCA TERMINATED NORMALLY****
TOTAL RUN TIME: 0 days 0 hours 1 minutes 1 seconds 967 msec
