                         Program Version 3.0.3 - RELEASE   -
|  1> ! B3LYP Def2-TZVP def2-TZVP/J RIJCOSX TightSCF Grid4 D3BJ
|  2>
|  3> %pal nprocs 12 end
|  4>
|  5> %scf
|  6>         maxiter 400
|  7> end
|  8>
|  9> * xyz  0  1
| 10> O  2.081362	1.195624	0.526618
| 11> H  1.521380	1.597059	-0.170232
| 12> H  1.472937	1.125202	1.289549
| 13> O  -0.036184	0.581440	2.331299
| 14> H  -0.118135	-0.386892	2.115448
| 15> H  -0.149617	0.660074	3.287149
| 16> O  -0.161220	-1.874740	1.344840
| 17> H  0.646613	-1.744242	0.720580
| 18> H  -0.035035	-2.724001	1.788173
| 19> O  -1.747672	1.368368	0.268780
| 20> H  -2.042474	0.458647	-0.009714
| 21> H  -1.268674	1.215851	1.111016
| 22> O  1.747659	-1.368392	-0.268778
| 23> H  1.268650	-1.215860	-1.111008
| 24> H  2.042474	-0.458671	0.009702
| 25> O  0.161203	1.874763	-1.344840
| 26> H  0.035040	2.724014	-1.788199
| 27> H  -0.646631	1.744265	-0.720590
| 28> O  0.036203	-0.581435	-2.331254
| 29> H  0.118140	0.386902	-2.115409
| 30> H  0.149631	-0.660079	-3.287103
| 31> O  -2.081360	-1.195643	-0.526658
| 32> H  -1.472915	-1.125197	-1.289570
| 33> H  -1.521377	-1.597062	0.170201
| 34> **                         ****END OF INPUT****

CARTESIAN COORDINATES (ANGSTROEM)
---------------------------------
  O      2.081362    1.195624    0.526618
  H      1.521380    1.597059   -0.170232
  H      1.472937    1.125202    1.289549
  O     -0.036184    0.581440    2.331299
  H     -0.118135   -0.386892    2.115448
  H     -0.149617    0.660074    3.287149
  O     -0.161220   -1.874740    1.344840
  H      0.646613   -1.744242    0.720580
  H     -0.035035   -2.724001    1.788173
  O     -1.747672    1.368368    0.268780
  H     -2.042474    0.458647   -0.009714
  H     -1.268674    1.215851    1.111016
  O      1.747659   -1.368392   -0.268778
  H      1.268650   -1.215860   -1.111008
  H      2.042474   -0.458671    0.009702
  O      0.161203    1.874763   -1.344840
  H      0.035040    2.724014   -1.788199
  H     -0.646631    1.744265   -0.720590
  O      0.036203   -0.581435   -2.331254
  H      0.118140    0.386902   -2.115409
  H      0.149631   -0.660079   -3.287103
  O     -2.081360   -1.195643   -0.526658
  H     -1.472915   -1.125197   -1.289570
  H     -1.521377   -1.597062    0.170201

 Total Charge           Charge          ....    0
 Multiplicity           Mult            ....    1
 Number of Electrons    NEL             ....   80
 Basis Dimension        Dim             ....  344

ORBITAL ENERGIES
----------------

  NO   OCC          E(Eh)            E(eV)
   0   2.0000     -19.145490      -520.9753
   1   2.0000     -19.145487      -520.9752
   2   2.0000     -19.140631      -520.8430
   3   2.0000     -19.140627      -520.8429
   4   2.0000     -19.115181      -520.1505
   5   2.0000     -19.115180      -520.1505
   6   2.0000     -19.108124      -519.9585
   7   2.0000     -19.108121      -519.9584
   8   2.0000      -1.039510       -28.2865
   9   2.0000      -1.033340       -28.1186
  10   2.0000      -1.022532       -27.8245
  11   2.0000      -1.016923       -27.6719
  12   2.0000      -1.003490       -27.3064
  13   2.0000      -0.997353       -27.1394
  14   2.0000      -0.986771       -26.8514
  15   2.0000      -0.981094       -26.6969
  16   2.0000      -0.565294       -15.3824
  17   2.0000      -0.564072       -15.3492
  18   2.0000      -0.541218       -14.7273
  19   2.0000      -0.539814       -14.6891
  20   2.0000      -0.521826       -14.1996
  21   2.0000      -0.518767       -14.1164
  22   2.0000      -0.516654       -14.0589
  23   2.0000      -0.512131       -13.9358
  24   2.0000      -0.453665       -12.3448
  25   2.0000      -0.430279       -11.7085
  26   2.0000      -0.429077       -11.6758
  27   2.0000      -0.403017       -10.9666
  28   2.0000      -0.400115       -10.8877
  29   2.0000      -0.393272       -10.7015
  30   2.0000      -0.384706       -10.4684
  31   2.0000      -0.360298        -9.8042
  32   2.0000      -0.340039        -9.2529
  33   2.0000      -0.336097        -9.1457
  34   2.0000      -0.332376        -9.0444
  35   2.0000      -0.329836        -8.9753
  36   2.0000      -0.316541        -8.6135
  37   2.0000      -0.313726        -8.5369
  38   2.0000      -0.299475        -8.1491
  39   2.0000      -0.298564        -8.1243
  40   0.0000      -0.003527        -0.0960
  41   0.0000       0.017068         0.4644
  42   0.0000       0.036437         0.9915
  43   0.0000       0.046388         1.2623
  44   0.0000       0.096271         2.6197

MULLIKEN ATOMIC CHARGES
-----------------------
   0 O :   -0.689476
   1 H :    0.349873
   2 H :    0.345781
   3 O :   -0.703622
   4 H :    0.358670
   5 H :    0.330699
   6 O :   -0.728312
   7 H :    0.372375
   8 H :    0.333186
   9 O :   -0.692196
  10 H :    0.372649
  11 H :    0.350370
  12 O :   -0.692189
  13 H :    0.350365
  14 H :    0.372649
  15 O :   -0.728321
  16 H :    0.333195
  17 H :    0.372380
  18 O :   -0.703620
  19 H :    0.358671
  20 H :    0.330698
  21 O :   -0.689478
  22 H :    0.345782
  23 H :    0.349874
Sum of atomic charges:   -0.0000000

LOEWDIN ATOMIC CHARGES
----------------------
   0 O :   -0.293931
   1 H :    0.135823
   2 H :    0.140870
   3 O :   -0.292075
   4 H :    0.139255
   5 H :    0.158766
   6 O :   -0.295741
   7 H :    0.135341
   8 H :    0.155681
   9 O :   -0.267975
  10 H :    0.144454
  11 H :    0.139525
  12 O :   -0.267973
  13 H :    0.139523
  14 H :    0.144454
  15 O :   -0.295735
  16 H :    0.155682
  17 H :    0.135342
  18 O :   -0.292067
  19 H :    0.139256
  20 H :    0.158766
  21 O :   -0.293932
  22 H :    0.140867
  23 H :    0.135823

  Mayer bond orders larger than 0.1
B(  0-O ,  1-H ) :   0.8398 B(  0-O ,  2-H ) :   0.8546 B(  0-O , 14-H ) :   0.1319
B(  3-O ,  4-H ) :   0.7775 B(  3-O ,  5-H ) :   0.8921 B(  4-H ,  6-O ) :   0.1312
B(  6-O ,  7-H ) :   0.6984 B(  6-O ,  8-H ) :   0.8895 B(  7-H , 12-O ) :   0.2170
B(  9-O , 10-H ) :   0.7855 B(  9-O , 11-H ) :   0.8375 B(  9-O , 17-H ) :   0.2170
B( 10-H , 21-O ) :   0.1319 B( 12-O , 13-H ) :   0.8375 B( 12-O , 14-H ) :   0.7855
B( 15-O , 16-H ) :   0.8895 B( 15-O , 17-H ) :   0.6984 B( 15-O , 19-H ) :   0.1313
B( 18-O , 19-H ) :   0.7775 B( 18-O , 20-H ) :   0.8921 B( 21-O , 22-H ) :   0.8546
B( 21-O , 23-H ) :   0.8398

Dispersion correction           -0.024827523
FINAL SINGLE POINT ENERGY      -611.549253708259

DIPOLE MOMENT
-------------
                                X             Y             Z
Electronic contribution:      0.00001       0.00002      -0.00002
Nuclear contribution   :      0.00002       0.00003      -0.00002
                        -----------------------------------------
Total Dipole Moment    :      0.00003       0.00005      -0.00004
                        -----------------------------------------
Magnitude (a.u.)       :      0.00007
Magnitude (Debye)      :      0.00018

                             ****ORCA TERMINATED NORMALLY****
TOTAL RUN TIME: 0 days 0 hours 1 minutes 2 seconds 685 msec
