                         Program Version 3.0.3 - RELEASE   -
|  1> ! B3LYP Def2-TZVP def2-TZVP/J RIJCOSX TightSCF Grid4 D3BJ COSMO
|  2>
|  3> %pal nprocs 12 end
|  4>
|  5> %scf
|  6>         maxiter 400
|  7> end
|  8>
|  9> %cosmo
| 10>         SMD true
| 11>         solvent "WATER"
| 12> end
| 13>
| 14> * xyz  0  1
| 15> O  2.058060	1.146415	0.564795
| 16> H  1.473215	1.534133	-0.147809
| 17> H  1.405646	1.034526	1.313103
| 18> O  -0.035310	0.618318	2.216835
| 19> H  -0.107341	-0.371979	2.002888
| 20> H  -0.140860	0.690084	3.185867
| 21> O  -0.166175	-1.811537	1.248646
| 22> H  0.682620	-1.732733	0.655002
| 23> H  -0.037390	-2.607309	1.801101
| 24> O  -1.824273	1.377725	0.327617
| 25> H  -2.028575	0.440047	0.000218
| 26> H  -1.261105	1.202414	1.136796
| 27> O  1.824462	-1.376068	-0.327440
| 28> H  1.261390	-1.201948	-1.136960
| 29> H  2.027249	-0.438196	0.000071
| 30> O  0.167013	1.810406	-1.249586
| 31> H  0.038807	2.607561	-1.800229
| 32> H  -0.681228	1.731835	-0.655496
| 33> O  0.034448	-0.620056	-2.217192
| 34> H  0.107751	0.370191	-2.004270
| 35> H  0.141661	-0.692702	-3.185987
| 36> O  -2.058830	-1.144534	-0.563642
| 37> H  -1.407367	-1.033775	-1.312850
| 38> H  -1.473869	-1.532821	0.148524
| 39> **                         ****END OF INPUT****

CARTESIAN COORDINATES (ANGSTROEM)
---------------------------------
  O      2.058060    1.146415    0.564795
  H      1.473215    1.534133   -0.147809
  H      1.405646    1.034526    1.313103
  O     -0.035310    0.618318    2.216835
  H     -0.107341   -0.371979    2.002888
  H     -0.140860    0.690084    3.185867
  O     -0.166175   -1.811537    1.248646
  H      0.682620   -1.732733    0.655002
  H     -0.037390   -2.607309    1.801101
  O     -1.824273    1.377725    0.327617
  H     -2.028575    0.440047    0.000218
  H     -1.261105    1.202414    1.136796
  O      1.824462   -1.376068   -0.327440
  H      1.261390   -1.201948   -1.136960
  H      2.027249   -0.438196    0.000071
  O      0.167013    1.810406   -1.249586
  H      0.038807    2.607561   -1.800229
  H     -0.681228    1.731835   -0.655496
  O      0.034448   -0.620056   -2.217192
  H      0.107751    0.370191   -2.004270
  H      0.141661   -0.692702   -3.185987
  O     -2.058830   -1.144534   -0.563642
  H     -1.407367   -1.033775   -1.312850
  H     -1.473869   -1.532821    0.148524

 Total Charge           Charge          ....    0
 Multiplicity           Mult            ....    1
 Number of Electrons    NEL             ....   80
 Basis Dimension        Dim             ....  344

ORBITAL ENERGIES
----------------

  NO   OCC          E(Eh)            E(eV)
   0   2.0000     -19.132045      -520.6094
   1   2.0000     -19.132033      -520.6091
   2   2.0000     -19.130870      -520.5774
   3   2.0000     -19.130742      -520.5739
   4   2.0000     -19.117192      -520.2053
   5   2.0000     -19.117076      -520.2021
   6   2.0000     -19.114851      -520.1415
   7   2.0000     -19.114767      -520.1393
   8   2.0000      -1.029233       -28.0068
   9   2.0000      -1.016702       -27.6659
  10   2.0000      -1.010106       -27.4864
  11   2.0000      -1.002584       -27.2817
  12   2.0000      -0.998053       -27.1584
  13   2.0000      -0.990388       -26.9498
  14   2.0000      -0.983696       -26.7677
  15   2.0000      -0.971870       -26.4459
  16   2.0000      -0.544418       -14.8144
  17   2.0000      -0.543384       -14.7862
  18   2.0000      -0.523372       -14.2417
  19   2.0000      -0.523271       -14.2389
  20   2.0000      -0.516880       -14.0650
  21   2.0000      -0.514523       -14.0009
  22   2.0000      -0.510757       -13.8984
  23   2.0000      -0.508699       -13.8424
  24   2.0000      -0.452401       -12.3105
  25   2.0000      -0.429456       -11.6861
  26   2.0000      -0.414924       -11.2907
  27   2.0000      -0.412139       -11.2149
  28   2.0000      -0.405536       -11.0352
  29   2.0000      -0.391003       -10.6397
  30   2.0000      -0.383317       -10.4306
  31   2.0000      -0.361182        -9.8283
  32   2.0000      -0.327230        -8.9044
  33   2.0000      -0.326725        -8.8906
  34   2.0000      -0.321513        -8.7488
  35   2.0000      -0.320025        -8.7083
  36   2.0000      -0.315800        -8.5934
  37   2.0000      -0.312693        -8.5088
  38   2.0000      -0.308377        -8.3914
  39   2.0000      -0.308333        -8.3902
  40   0.0000       0.017082         0.4648
  41   0.0000       0.048658         1.3240
  42   0.0000       0.065475         1.7817
  43   0.0000       0.082207         2.2370
  44   0.0000       0.102370         2.7856

MULLIKEN ATOMIC CHARGES
-----------------------
   0 O :   -0.767844
   1 H :    0.375520
   2 H :    0.371722
   3 O :   -0.745400
   4 H :    0.374796
   5 H :    0.387074
   6 O :   -0.751820
   7 H :    0.377877
   8 H :    0.388127
   9 O :   -0.758584
  10 H :    0.375433
  11 H :    0.373298
  12 O :   -0.758583
  13 H :    0.373884
  14 H :    0.374821
  15 O :   -0.751314
  16 H :    0.388209
  17 H :    0.376896
  18 O :   -0.745024
  19 H :    0.374640
  20 H :    0.386965
  21 O :   -0.767572
  22 H :    0.371597
  23 H :    0.375284
Sum of atomic charges:   -0.0000000

LOEWDIN ATOMIC CHARGES
----------------------
   0 O :   -0.348594
   1 H :    0.144967
   2 H :    0.146019
   3 O :   -0.289734
   4 H :    0.149108
   5 H :    0.188457
   6 O :   -0.286604
   7 H :    0.147740
   8 H :    0.186448
   9 O :   -0.329347
  10 H :    0.145736
  11 H :    0.145455
  12 O :   -0.329005
  13 H :    0.145702
  14 H :    0.145556
  15 O :   -0.286433
  16 H :    0.186512
  17 H :    0.147450
  18 O :   -0.289614
  19 H :    0.149110
  20 H :    0.188466
  21 O :   -0.348341
  22 H :    0.146018
  23 H :    0.144930

  Mayer bond orders larger than 0.1
B(  0-O ,  1-H ) :   0.7998 B(  0-O ,  2-H ) :   0.8026 B(  0-O , 14-H ) :   0.1508
B(  1-H , 15-O ) :   0.1078 B(  2-H ,  3-O ) :   0.1089 B(  3-O ,  4-H ) :   0.7493
B(  3-O ,  5-H ) :   0.8499 B(  3-O , 11-H ) :   0.1160 B(  4-H ,  6-O ) :   0.1483
B(  6-O ,  7-H ) :   0.7084 B(  6-O ,  8-H ) :   0.8485 B(  6-O , 23-H ) :   0.1078
B(  7-H , 12-O ) :   0.1998 B(  9-O , 10-H ) :   0.7676 B(  9-O , 11-H ) :   0.7955
B(  9-O , 17-H ) :   0.2000 B( 10-H , 21-O ) :   0.1505 B( 12-O , 13-H ) :   0.7952
B( 12-O , 14-H ) :   0.7679 B( 13-H , 18-O ) :   0.1157 B( 15-O , 16-H ) :   0.8485
B( 15-O , 17-H ) :   0.7091 B( 15-O , 19-H ) :   0.1479 B( 18-O , 19-H ) :   0.7498
B( 18-O , 20-H ) :   0.8500 B( 18-O , 22-H ) :   0.1089 B( 21-O , 22-H ) :   0.8027
B( 21-O , 23-H ) :   0.8000

Dispersion correction           -0.025976823
FINAL SINGLE POINT ENERGY      -611.576111867793

DIPOLE MOMENT
-------------
                                X             Y             Z
Electronic contribution:      0.00195      -0.00190      -0.00119
Nuclear contribution   :      0.00151      -0.00167      -0.00008
                        -----------------------------------------
Total Dipole Moment    :      0.00346      -0.00358      -0.00127
                        -----------------------------------------
Magnitude (a.u.)       :      0.00513
Magnitude (Debye)      :      0.01305

                             ****ORCA TERMINATED NORMALLY****
TOTAL RUN TIME: 0 days 0 hours 1 minutes 5 seconds 634 msec
