                         Program Version 3.0.3 - RELEASE   -
|  1> ! wB97X-D3 Def2-TZVP def2-TZVP/J RIJCOSX TightSCF Grid4 COSMO
|  2>
|  3> %pal nprocs 12 end
|  4>
|  5> %scf
|  6>         maxiter 400
|  7> end
|  8>
|  9> %cosmo
| 10>         SMD true
| 11>         solvent "WATER"
| 12> end
| 13>
| 14> * xyz  0  1
| 15> O  2.079924	1.257150	0.568982
| 16> H  1.494485	1.603407	-0.142686
| 17> H  1.454672	1.122275	1.316490
| 18> O  -0.002138	0.605424	2.283133
| 19> H  -0.099079	-0.365110	2.092040
| 20> H  -0.133474	0.695370	3.239285
| 21> O  -0.186957	-1.865000	1.315019
| 22> H  0.627139	-1.784383	0.730311
| 23> H  -0.096868	-2.699535	1.799741
| 24> O  -1.800403	1.347315	0.330782
| 25> H  -2.029835	0.436446	0.015123
| 26> H  -1.249160	1.180623	1.131277
| 27> O  1.801076	-1.346244	-0.331569
| 28> H  1.249821	-1.180711	-1.132266
| 29> H  2.029091	-0.435228	-0.015402
| 30> O  0.188051	1.864297	-1.315466
| 31> H  0.099759	2.699670	-1.799108
| 32> H  -0.626313	1.784836	-0.730857
| 33> O  -0.000195	-0.606213	-2.283037
| 34> H  0.098511	0.364083	-2.092123
| 35> H  0.134731	-0.696835	-3.238622
| 36> O  -2.081047	-1.256726	-0.568031
| 37> H  -1.456728	-1.122512	-1.316387
| 38> H  -1.495062	-1.602404	0.143370
| 39> **                         ****END OF INPUT****

CARTESIAN COORDINATES (ANGSTROEM)
---------------------------------
  O      2.079924    1.257150    0.568982
  H      1.494485    1.603407   -0.142686
  H      1.454672    1.122275    1.316490
  O     -0.002138    0.605424    2.283133
  H     -0.099079   -0.365110    2.092040
  H     -0.133474    0.695370    3.239285
  O     -0.186957   -1.865000    1.315019
  H      0.627139   -1.784383    0.730311
  H     -0.096868   -2.699535    1.799741
  O     -1.800403    1.347315    0.330782
  H     -2.029835    0.436446    0.015123
  H     -1.249160    1.180623    1.131277
  O      1.801076   -1.346244   -0.331569
  H      1.249821   -1.180711   -1.132266
  H      2.029091   -0.435228   -0.015402
  O      0.188051    1.864297   -1.315466
  H      0.099759    2.699670   -1.799108
  H     -0.626313    1.784836   -0.730857
  O     -0.000195   -0.606213   -2.283037
  H      0.098511    0.364083   -2.092123
  H      0.134731   -0.696835   -3.238622
  O     -2.081047   -1.256726   -0.568031
  H     -1.456728   -1.122512   -1.316387
  H     -1.495062   -1.602404    0.143370

 Total Charge           Charge          ....    0
 Multiplicity           Mult            ....    1
 Number of Electrons    NEL             ....   80
 Basis Dimension        Dim             ....  344

ORBITAL ENERGIES
----------------

  NO   OCC          E(Eh)            E(eV)
   0   2.0000     -19.239470      -523.5326
   1   2.0000     -19.239349      -523.5293
   2   2.0000     -19.239112      -523.5228
   3   2.0000     -19.239064      -523.5215
   4   2.0000     -19.226844      -523.1890
   5   2.0000     -19.226779      -523.1872
   6   2.0000     -19.222980      -523.0839
   7   2.0000     -19.222967      -523.0835
   8   2.0000      -1.147442       -31.2235
   9   2.0000      -1.136938       -30.9377
  10   2.0000      -1.130389       -30.7595
  11   2.0000      -1.122613       -30.5479
  12   2.0000      -1.119865       -30.4731
  13   2.0000      -1.112788       -30.2805
  14   2.0000      -1.107264       -30.1302
  15   2.0000      -1.097289       -29.8587
  16   2.0000      -0.652030       -17.7426
  17   2.0000      -0.651135       -17.7183
  18   2.0000      -0.632287       -17.2054
  19   2.0000      -0.630889       -17.1674
  20   2.0000      -0.626353       -17.0439
  21   2.0000      -0.623859       -16.9761
  22   2.0000      -0.620257       -16.8780
  23   2.0000      -0.619654       -16.8616
  24   2.0000      -0.550157       -14.9705
  25   2.0000      -0.533064       -14.5054
  26   2.0000      -0.518350       -14.1050
  27   2.0000      -0.509987       -13.8774
  28   2.0000      -0.507351       -13.8057
  29   2.0000      -0.492158       -13.3923
  30   2.0000      -0.486581       -13.2406
  31   2.0000      -0.463978       -12.6255
  32   2.0000      -0.428595       -11.6627
  33   2.0000      -0.428526       -11.6608
  34   2.0000      -0.422386       -11.4937
  35   2.0000      -0.420703       -11.4479
  36   2.0000      -0.418933       -11.3997
  37   2.0000      -0.416246       -11.3266
  38   2.0000      -0.410722       -11.1763
  39   2.0000      -0.410537       -11.1713
  40   0.0000       0.098627         2.6838
  41   0.0000       0.136762         3.7215
  42   0.0000       0.152255         4.1431
  43   0.0000       0.172439         4.6923
  44   0.0000       0.183062         4.9814

MULLIKEN ATOMIC CHARGES
-----------------------
   0 O :   -0.773071
   1 H :    0.375785
   2 H :    0.375894
   3 O :   -0.766559
   4 H :    0.375437
   5 H :    0.405556
   6 O :   -0.768967
   7 H :    0.383990
   8 H :    0.408088
   9 O :   -0.764789
  10 H :    0.374074
  11 H :    0.374815
  12 O :   -0.765035
  13 H :    0.375291
  14 H :    0.373728
  15 O :   -0.768714
  16 H :    0.408106
  17 H :    0.383507
  18 O :   -0.766181
  19 H :    0.375083
  20 H :    0.405402
  21 O :   -0.772933
  22 H :    0.376030
  23 H :    0.375463
Sum of atomic charges:   -0.0000000

LOEWDIN ATOMIC CHARGES
----------------------
   0 O :   -0.343542
   1 H :    0.138661
   2 H :    0.143283
   3 O :   -0.288391
   4 H :    0.144628
   5 H :    0.187076
   6 O :   -0.277668
   7 H :    0.144992
   8 H :    0.186971
   9 O :   -0.321986
  10 H :    0.143570
  11 H :    0.142486
  12 O :   -0.322042
  13 H :    0.142734
  14 H :    0.143382
  15 O :   -0.277644
  16 H :    0.186962
  17 H :    0.144866
  18 O :   -0.288309
  19 H :    0.144504
  20 H :    0.187034
  21 O :   -0.343440
  22 H :    0.143297
  23 H :    0.138577

  Mayer bond orders larger than 0.1
B(  0-O ,  1-H ) :   0.8112 B(  0-O ,  2-H ) :   0.8189 B(  0-O , 14-H ) :   0.1165
B(  3-O ,  4-H ) :   0.7794 B(  3-O ,  5-H ) :   0.8413 B(  4-H ,  6-O ) :   0.1164
B(  6-O ,  7-H ) :   0.7534 B(  6-O ,  8-H ) :   0.8384 B(  7-H , 12-O ) :   0.1438
B(  9-O , 10-H ) :   0.7975 B(  9-O , 11-H ) :   0.8087 B(  9-O , 17-H ) :   0.1439
B( 10-H , 21-O ) :   0.1163 B( 12-O , 13-H ) :   0.8086 B( 12-O , 14-H ) :   0.7976
B( 15-O , 16-H ) :   0.8384 B( 15-O , 17-H ) :   0.7537 B( 15-O , 19-H ) :   0.1163
B( 18-O , 19-H ) :   0.7797 B( 18-O , 20-H ) :   0.8414 B( 21-O , 22-H ) :   0.8188
B( 21-O , 23-H ) :   0.8114

Dispersion correction           -0.012147633
FINAL SINGLE POINT ENERGY      -611.677194017457

DIPOLE MOMENT
-------------
                                X             Y             Z
Electronic contribution:      0.00082      -0.00113      -0.00022
Nuclear contribution   :      0.00422      -0.00001       0.00047
                        -----------------------------------------
Total Dipole Moment    :      0.00504      -0.00114       0.00024
                        -----------------------------------------
Magnitude (a.u.)       :      0.00517
Magnitude (Debye)      :      0.01315

                             ****ORCA TERMINATED NORMALLY****
TOTAL RUN TIME: 0 days 0 hours 1 minutes 8 seconds 659 msec
