                         Program Version 3.0.3 - RELEASE   -
|  1> ! B3LYP Def2-TZVP def2-TZVP/J RIJCOSX TightSCF Grid4 D3BJ COSMO
|  2>
|  3> %pal nprocs 12 end
|  4>
|  5> %scf
|  6>         maxiter 400
|  7> end
|  8>
|  9> %cosmo
| 10>         SMD true
| 11>         solvent "WATER"
| 12> end
| 13>
| 14> * xyz  0  1
| 15> O  2.079924	1.257150	0.568982
| 16> H  1.494485	1.603407	-0.142686
| 17> H  1.454672	1.122275	1.316490
| 18> O  -0.002138	0.605424	2.283133
| 19> H  -0.099079	-0.365110	2.092040
| 20> H  -0.133474	0.695370	3.239285
| 21> O  -0.186957	-1.865000	1.315019
| 22> H  0.627139	-1.784383	0.730311
| 23> H  -0.096868	-2.699535	1.799741
| 24> O  -1.800403	1.347315	0.330782
| 25> H  -2.029835	0.436446	0.015123
| 26> H  -1.249160	1.180623	1.131277
| 27> O  1.801076	-1.346244	-0.331569
| 28> H  1.249821	-1.180711	-1.132266
| 29> H  2.029091	-0.435228	-0.015402
| 30> O  0.188051	1.864297	-1.315466
| 31> H  0.099759	2.699670	-1.799108
| 32> H  -0.626313	1.784836	-0.730857
| 33> O  -0.000195	-0.606213	-2.283037
| 34> H  0.098511	0.364083	-2.092123
| 35> H  0.134731	-0.696835	-3.238622
| 36> O  -2.081047	-1.256726	-0.568031
| 37> H  -1.456728	-1.122512	-1.316387
| 38> H  -1.495062	-1.602404	0.143370
| 39> **                         ****END OF INPUT****

CARTESIAN COORDINATES (ANGSTROEM)
---------------------------------
  O      2.079924    1.257150    0.568982
  H      1.494485    1.603407   -0.142686
  H      1.454672    1.122275    1.316490
  O     -0.002138    0.605424    2.283133
  H     -0.099079   -0.365110    2.092040
  H     -0.133474    0.695370    3.239285
  O     -0.186957   -1.865000    1.315019
  H      0.627139   -1.784383    0.730311
  H     -0.096868   -2.699535    1.799741
  O     -1.800403    1.347315    0.330782
  H     -2.029835    0.436446    0.015123
  H     -1.249160    1.180623    1.131277
  O      1.801076   -1.346244   -0.331569
  H      1.249821   -1.180711   -1.132266
  H      2.029091   -0.435228   -0.015402
  O      0.188051    1.864297   -1.315466
  H      0.099759    2.699670   -1.799108
  H     -0.626313    1.784836   -0.730857
  O     -0.000195   -0.606213   -2.283037
  H      0.098511    0.364083   -2.092123
  H      0.134731   -0.696835   -3.238622
  O     -2.081047   -1.256726   -0.568031
  H     -1.456728   -1.122512   -1.316387
  H     -1.495062   -1.602404    0.143370

 Total Charge           Charge          ....    0
 Multiplicity           Mult            ....    1
 Number of Electrons    NEL             ....   80
 Basis Dimension        Dim             ....  344

ORBITAL ENERGIES
----------------

  NO   OCC          E(Eh)            E(eV)
   0   2.0000     -19.131334      -520.5901
   1   2.0000     -19.131211      -520.5867
   2   2.0000     -19.130857      -520.5771
   3   2.0000     -19.130814      -520.5759
   4   2.0000     -19.117697      -520.2190
   5   2.0000     -19.117633      -520.2172
   6   2.0000     -19.113986      -520.1180
   7   2.0000     -19.113975      -520.1177
   8   2.0000      -1.030280       -28.0354
   9   2.0000      -1.020474       -27.7685
  10   2.0000      -1.013787       -27.5865
  11   2.0000      -1.005663       -27.3655
  12   2.0000      -1.003881       -27.3170
  13   2.0000      -0.996400       -27.1134
  14   2.0000      -0.990741       -26.9594
  15   2.0000      -0.981286       -26.7022
  16   2.0000      -0.547510       -14.8985
  17   2.0000      -0.546564       -14.8728
  18   2.0000      -0.528367       -14.3776
  19   2.0000      -0.527529       -14.3548
  20   2.0000      -0.521237       -14.1836
  21   2.0000      -0.518781       -14.1168
  22   2.0000      -0.516224       -14.0472
  23   2.0000      -0.515246       -14.0205
  24   2.0000      -0.445056       -12.1106
  25   2.0000      -0.428079       -11.6486
  26   2.0000      -0.416555       -11.3351
  27   2.0000      -0.406289       -11.0557
  28   2.0000      -0.402783       -10.9603
  29   2.0000      -0.391709       -10.6589
  30   2.0000      -0.385114       -10.4795
  31   2.0000      -0.363996        -9.9048
  32   2.0000      -0.328817        -8.9476
  33   2.0000      -0.328728        -8.9452
  34   2.0000      -0.323037        -8.7903
  35   2.0000      -0.321411        -8.7460
  36   2.0000      -0.319079        -8.6826
  37   2.0000      -0.316727        -8.6186
  38   2.0000      -0.310740        -8.4557
  39   2.0000      -0.310513        -8.4495
  40   0.0000       0.016426         0.4470
  41   0.0000       0.048914         1.3310
  42   0.0000       0.064420         1.7530
  43   0.0000       0.081802         2.2259
  44   0.0000       0.098621         2.6836

MULLIKEN ATOMIC CHARGES
-----------------------
   0 O :   -0.763088
   1 H :    0.369661
   2 H :    0.369059
   3 O :   -0.738264
   4 H :    0.372143
   5 H :    0.384121
   6 O :   -0.740719
   7 H :    0.380093
   8 H :    0.386595
   9 O :   -0.754458
  10 H :    0.366960
  11 H :    0.368134
  12 O :   -0.754717
  13 H :    0.368581
  14 H :    0.366649
  15 O :   -0.740454
  16 H :    0.386607
  17 H :    0.379613
  18 O :   -0.737923
  19 H :    0.371829
  20 H :    0.383985
  21 O :   -0.762944
  22 H :    0.369161
  23 H :    0.369377
Sum of atomic charges:   -0.0000000

LOEWDIN ATOMIC CHARGES
----------------------
   0 O :   -0.342422
   1 H :    0.137716
   2 H :    0.142310
   3 O :   -0.283772
   4 H :    0.144331
   5 H :    0.184118
   6 O :   -0.272765
   7 H :    0.144225
   8 H :    0.183888
   9 O :   -0.320817
  10 H :    0.142024
  11 H :    0.141244
  12 O :   -0.320877
  13 H :    0.141485
  14 H :    0.141840
  15 O :   -0.272742
  16 H :    0.183880
  17 H :    0.144094
  18 O :   -0.283695
  19 H :    0.144213
  20 H :    0.184078
  21 O :   -0.342319
  22 H :    0.142324
  23 H :    0.137638

  Mayer bond orders larger than 0.1
B(  0-O ,  1-H ) :   0.8110 B(  0-O ,  2-H ) :   0.8196 B(  0-O , 14-H ) :   0.1264
B(  1-H , 15-O ) :   0.1027 B(  3-O ,  4-H ) :   0.7752 B(  3-O ,  5-H ) :   0.8542
B(  3-O , 11-H ) :   0.1059 B(  4-H ,  6-O ) :   0.1226 B(  6-O ,  7-H ) :   0.7487
B(  6-O ,  8-H ) :   0.8514 B(  6-O , 23-H ) :   0.1027 B(  7-H , 12-O ) :   0.1518
B(  9-O , 10-H ) :   0.7968 B(  9-O , 11-H ) :   0.8089 B(  9-O , 17-H ) :   0.1518
B( 10-H , 21-O ) :   0.1262 B( 12-O , 13-H ) :   0.8088 B( 12-O , 14-H ) :   0.7968
B( 13-H , 18-O ) :   0.1057 B( 15-O , 16-H ) :   0.8514 B( 15-O , 17-H ) :   0.7490
B( 15-O , 19-H ) :   0.1225 B( 18-O , 19-H ) :   0.7755 B( 18-O , 20-H ) :   0.8543
B( 21-O , 22-H ) :   0.8195 B( 21-O , 23-H ) :   0.8112

Dispersion correction           -0.024949704
FINAL SINGLE POINT ENERGY      -611.584285339807

DIPOLE MOMENT
-------------
                                X             Y             Z
Electronic contribution:      0.00071      -0.00117      -0.00024
Nuclear contribution   :      0.00422      -0.00001       0.00047
                        -----------------------------------------
Total Dipole Moment    :      0.00493      -0.00118       0.00022
                        -----------------------------------------
Magnitude (a.u.)       :      0.00508
Magnitude (Debye)      :      0.01290

                             ****ORCA TERMINATED NORMALLY****
TOTAL RUN TIME: 0 days 0 hours 1 minutes 6 seconds 838 msec
