                         Program Version 4.2.0 -  RELEASE  -
|  1> # 12h2o.su.etal.mol0,3,4,5
|  2> ! MP2 def2-TZVP EnGrad TightSCF
|  3>
|  4> %pal
|  5>     nprocs 6
|  6> end
|  7>
|  8> %maxcore 8000
|  9>
| 10> %scf
| 11>     ConvForced true
| 12> end
| 13>
| 14> *xyz 0 1
| 15> O   1.794470000   0.923410000   2.768350000
| 16> H   2.338250000   1.359750000   3.430940000
| 17> H   0.879480000   1.303000000   2.865760000
| 18> O  -1.752130000  -0.741530000  -2.896280000
| 19> H  -2.036450000  -0.920500000  -1.984040000
| 20> H  -0.921210000  -1.242140000  -2.984230000
| 21> O  -0.885520000   1.737840000   0.052730000
| 22> H  -1.032320000   2.090180000  -0.841890000
| 23> H  -1.284090000   0.839590000   0.017130000
| 24> O   0.885520000  -1.737840000   0.052730000
| 25> H   1.284090000  -0.839590000   0.017130000
| 26> H   1.032320000  -2.090180000  -0.841890000
| 27> *
| 28>
| 29>                          ****END OF INPUT****

CARTESIAN COORDINATES (ANGSTROEM)
---------------------------------
  O      1.794470    0.923410    2.768350
  H      2.338250    1.359750    3.430940
  H      0.879480    1.303000    2.865760
  O     -1.752130   -0.741530   -2.896280
  H     -2.036450   -0.920500   -1.984040
  H     -0.921210   -1.242140   -2.984230
  O     -0.885520    1.737840    0.052730
  H     -1.032320    2.090180   -0.841890
  H     -1.284090    0.839590    0.017130
  O      0.885520   -1.737840    0.052730
  H      1.284090   -0.839590    0.017130
  H      1.032320   -2.090180   -0.841890

 Total Charge           Charge          ....    0
 Multiplicity           Mult            ....    1
 Number of Electrons    NEL             ....   40
 Basis Dimension        Dim             ....  172

ORBITAL ENERGIES
----------------

  NO   OCC          E(Eh)            E(eV)
   0   2.0000     -20.577085      -559.9310
   1   2.0000     -20.567548      -559.6714
   2   2.0000     -20.566298      -559.6374
   3   2.0000     -20.555010      -559.3303
   4   2.0000      -1.356038       -36.8997
   5   2.0000      -1.343422       -36.5564
   6   2.0000      -1.341981       -36.5172
   7   2.0000      -1.330333       -36.2002
   8   2.0000      -0.719074       -19.5670
   9   2.0000      -0.706177       -19.2160
  10   2.0000      -0.702912       -19.1272
  11   2.0000      -0.698357       -19.0033
  12   2.0000      -0.593528       -16.1507
  13   2.0000      -0.583416       -15.8756
  14   2.0000      -0.581135       -15.8135
  15   2.0000      -0.567018       -15.4293
  16   2.0000      -0.520915       -14.1748
  17   2.0000      -0.511779       -13.9262
  18   2.0000      -0.507256       -13.8031
  19   2.0000      -0.498148       -13.5553
  20   0.0000       0.083946         2.2843
  21   0.0000       0.129654         3.5281
  22   0.0000       0.138580         3.7710
  23   0.0000       0.170378         4.6362
  24   0.0000       0.185350         5.0436

MULLIKEN ATOMIC CHARGES
-----------------------
   0 O :   -0.686830
   1 H :    0.336082
   2 H :    0.351474
   3 O :   -0.669167
   4 H :    0.334735
   5 H :    0.334381
   6 O :   -0.679956
   7 H :    0.344429
   8 H :    0.334912
   9 O :   -0.679922
  10 H :    0.357519
  11 H :    0.322343
Sum of atomic charges:   -0.0000000

LOEWDIN ATOMIC CHARGES
----------------------
   0 O :   -0.340069
   1 H :    0.156841
   2 H :    0.183668
   3 O :   -0.326860
   4 H :    0.162038
   5 H :    0.164772
   6 O :   -0.335606
   7 H :    0.167785
   8 H :    0.167400
   9 O :   -0.335279
  10 H :    0.177873
  11 H :    0.157437

  Mayer bond orders larger than 0.100000
B(  0-O ,  1-H ) :   0.8544 B(  0-O ,  2-H ) :   0.8388 B(  3-O ,  4-H ) :   0.8523
B(  3-O ,  5-H ) :   0.8534 B(  6-O ,  7-H ) :   0.8479 B(  6-O ,  8-H ) :   0.8484
B(  9-O , 10-H ) :   0.8335 B(  9-O , 11-H ) :   0.8593

MP2 TOTAL ENERGY:     -305.256554554 Eh
FINAL SINGLE POINT ENERGY      -305.256554553857

DIPOLE MOMENT
-------------
                                X             Y             Z
Electronic contribution:     -0.00615       0.01777       0.05764
Nuclear contribution   :      0.14599       0.11349      -0.22986
                        -----------------------------------------
Total Dipole Moment    :      0.13984       0.13126      -0.17221
                        -----------------------------------------
Magnitude (a.u.)       :      0.25777
Magnitude (Debye)      :      0.65519

Rotational constants in cm-1:     0.120324     0.039067     0.029757
Rotational constants in MHz :  3607.230201  1171.191813   892.092585

                             ****ORCA TERMINATED NORMALLY****
TOTAL RUN TIME: 0 days 0 hours 0 minutes 15 seconds 814 msec
