                         Program Version 3.0.3 - RELEASE   -
|  1> ! B3LYP Def2-SVP def2-SVP/J RIJCOSX TightSCF Grid4 D3BJ COSMO OPT
|  2>
|  3> %pal nprocs 12 end
|  4>
|  5> %scf
|  6>         maxiter 800
|  7> end
|  8>
|  9> %cosmo
| 10>         SMD true
| 11>         solvent "WATER"
| 12> end
| 13>
| 14> * xyz  0  1
| 15> O  0.65654026	0.03092734	-0.96245504
| 16> H  1.47128428	0.53286541	-0.94049575
| 17> H  0.38690419	0.05111308	-1.88067113
| 18> O  -0.92546095	0.08686123	1.37545267
| 19> H  -0.47177885	0.06300633	0.53293540
| 20> H  -0.97064173	-0.82909318	1.64971179
| 21> **                         ****END OF INPUT****
 Total Charge           Charge          ....    0
 Multiplicity           Mult            ....    1
 Number of Electrons    NEL             ....   20
Dispersion correction           -0.002169976
FINAL SINGLE POINT ENERGY      -152.676756982355
Dispersion correction            ...
Dispersion correction           -0.002202556
FINAL SINGLE POINT ENERGY      -152.677765568358
Dispersion correction            ...
Dispersion correction           -0.002237065
FINAL SINGLE POINT ENERGY      -152.677887994203
Dispersion correction            ...
FINAL SINGLE POINT ENERGY      -152.677952023967
FINAL SINGLE POINT ENERGY      -152.677968041675
FINAL SINGLE POINT ENERGY      -152.678290522766
FINAL SINGLE POINT ENERGY      -152.678519707320
FINAL SINGLE POINT ENERGY      -152.678750978528
FINAL SINGLE POINT ENERGY      -152.678809738135
FINAL SINGLE POINT ENERGY      -152.675265659881
FINAL SINGLE POINT ENERGY      -152.678871734450
FINAL SINGLE POINT ENERGY      -152.678871636834
FINAL SINGLE POINT ENERGY      -152.678866558528
FINAL SINGLE POINT ENERGY      -152.678866540898
FINAL SINGLE POINT ENERGY      -152.678865679205
FINAL SINGLE POINT ENERGY      -152.682668233528
FINAL SINGLE POINT ENERGY      -152.678887140514
Dispersion correction            ...
Dispersion correction           -0.002309719
FINAL SINGLE POINT ENERGY      -152.678885869593
Dispersion correction            ...
Dispersion correction           -0.002309730
FINAL SINGLE POINT ENERGY      -152.678880952446
Dispersion correction            ...
                    ***********************HURRAY********************

CARTESIAN COORDINATES (ANGSTROEM)
---------------------------------
  O      0.860831   -0.127842   -0.930763
  H      1.296388    0.739539   -0.960785
  H      0.158869   -0.036338   -1.595968
  O     -0.808401    0.114159    1.314382
  H     -0.188220    0.026928    0.557695
  H     -1.172620   -0.780766    1.389917

 Multiplicity           Mult            ....    1
 Number of Electrons    NEL             ....   20
 Basis Dimension        Dim             ....   48

ORBITAL ENERGIES
----------------

  NO   OCC          E(Eh)            E(eV)
   0   2.0000     -19.137946      -520.7700
   1   2.0000     -19.100019      -519.7379
   2   2.0000      -0.993449       -27.0331
   3   2.0000      -0.956324       -26.0229
   4   2.0000      -0.517062       -14.0700
   5   2.0000      -0.491127       -13.3643
   6   2.0000      -0.395812       -10.7706
   7   2.0000      -0.364156        -9.9092
   8   2.0000      -0.310411        -8.4467
   9   2.0000      -0.283284        -7.7086
  10   0.0000       0.056221         1.5298
  11   0.0000       0.106453         2.8967
  12   0.0000       0.145113         3.9487
  13   0.0000       0.236989         6.4488
  14   0.0000       0.533781        14.5249

MULLIKEN ATOMIC CHARGES
-----------------------
   0 O :   -0.320264
   1 H :    0.212098
   2 H :    0.208472
   3 O :   -0.418403
   4 H :    0.130594
   5 H :    0.187503
Sum of atomic charges:    0.0000000

LOEWDIN ATOMIC CHARGES
----------------------
   0 O :   -0.122369
   1 H :    0.112956
   2 H :    0.110854
   3 O :   -0.230930
   4 H :    0.037453
   5 H :    0.092034

  Mayer bond orders larger than 0.1
B(  0-O ,  1-H ) :   0.9732 B(  0-O ,  2-H ) :   0.9730 B(  0-O ,  4-H ) :   0.1830
B(  3-O ,  4-H ) :   0.9329 B(  3-O ,  5-H ) :   0.9898

Dispersion correction           -0.002309801
FINAL SINGLE POINT ENERGY      -152.678876321344

DIPOLE MOMENT
-------------
                                X             Y             Z
Electronic contribution:      0.17839       0.00313      -0.17319
Nuclear contribution   :     -0.00869      -0.01937      -1.14564
                        -----------------------------------------
Total Dipole Moment    :      0.16970      -0.01624      -1.31883
                        -----------------------------------------
Magnitude (a.u.)       :      1.32981
Magnitude (Debye)      :      3.38010

                             ****ORCA TERMINATED NORMALLY****
TOTAL RUN TIME: 0 days 0 hours 20 minutes 43 seconds 19 msec
