                         Program Version 3.0.3 - RELEASE   -
|  1> ! B3LYP Def2-SVP def2-SVP/J RIJCOSX TightSCF Grid4 D3BJ OPT
|  2>
|  3> %pal nprocs 12 end
|  4>
|  5> %scf
|  6>         maxiter 400
|  7> end
|  8>
|  9> * xyz  0  1
| 10>   O      0.925161   -0.137364   -1.071988
| 11>   H      1.350489    0.720064   -0.917967
| 12>   H      0.073582    0.111826   -1.459572
| 13>   O     -0.928703    0.093471    1.050985
| 14>   H     -0.156359   -0.201867    0.534740
| 15>   H     -1.117323   -0.650450    1.638280
| 16> **                         ****END OF INPUT****
 Total Charge           Charge          ....    0
 Multiplicity           Mult            ....    1
 Number of Electrons    NEL             ....   20
Dispersion correction           -0.002321918
FINAL SINGLE POINT ENERGY      -152.658059074955
Dispersion correction            ...
Dispersion correction           -0.002329221
FINAL SINGLE POINT ENERGY      -152.658074421944
Dispersion correction            ...
Dispersion correction           -0.002333731
FINAL SINGLE POINT ENERGY      -152.658078380281
Dispersion correction            ...
Dispersion correction           -0.002336158
FINAL SINGLE POINT ENERGY      -152.658080221907
Dispersion correction            ...
                    ***********************HURRAY********************

CARTESIAN COORDINATES (ANGSTROEM)
---------------------------------
  O      0.919606   -0.137971   -1.063021
  H      1.345167    0.718229   -0.908701
  H      0.064874    0.107680   -1.449962
  O     -0.921796    0.097836    1.042596
  H     -0.150256   -0.200849    0.528294
  H     -1.110747   -0.649246    1.625272

 Multiplicity           Mult            ....    1
 Number of Electrons    NEL             ....   20
 Basis Dimension        Dim             ....   48

ORBITAL ENERGIES
----------------

  NO   OCC          E(Eh)            E(eV)
   0   2.0000     -19.150432      -521.1097
   1   2.0000     -19.093570      -519.5624
   2   2.0000      -1.009072       -27.4582
   3   2.0000      -0.953223       -25.9385
   4   2.0000      -0.537512       -14.6265
   5   2.0000      -0.491013       -13.3611
   6   2.0000      -0.398310       -10.8386
   7   2.0000      -0.350509        -9.5378
   8   2.0000      -0.317177        -8.6308
   9   2.0000      -0.270392        -7.3577
  10   0.0000       0.032071         0.8727
  11   0.0000       0.088263         2.4017
  12   0.0000       0.114814         3.1243
  13   0.0000       0.210736         5.7344
  14   0.0000       0.531949        14.4751

MULLIKEN ATOMIC CHARGES
-----------------------
   0 O :   -0.260768
   1 H :    0.168519
   2 H :    0.168175
   3 O :   -0.331816
   4 H :    0.109237
   5 H :    0.146653
Sum of atomic charges:   -0.0000000

LOEWDIN ATOMIC CHARGES
----------------------
   0 O :   -0.103068
   1 H :    0.087626
   2 H :    0.085454
   3 O :   -0.176733
   4 H :    0.035451
   5 H :    0.071268

  Mayer bond orders larger than 0.1
B(  0-O ,  1-H ) :   0.9952 B(  0-O ,  2-H ) :   0.9869 B(  0-O ,  4-H ) :   0.1543
B(  3-O ,  4-H ) :   0.9523 B(  3-O ,  5-H ) :   1.0060

Dispersion correction           -0.002337222
FINAL SINGLE POINT ENERGY      -152.658081696424

DIPOLE MOMENT
-------------
                                X             Y             Z
Electronic contribution:      0.11587       0.00293      -0.15805
Nuclear contribution   :      0.12770       0.04668      -0.13671
                        -----------------------------------------
Total Dipole Moment    :      0.24357       0.04962      -0.29476
                        -----------------------------------------
Magnitude (a.u.)       :      0.38558
Magnitude (Debye)      :      0.98008

                             ****ORCA TERMINATED NORMALLY****
TOTAL RUN TIME: 0 days 0 hours 4 minutes 26 seconds 279 msec
