                         Program Version 4.2.0 -  RELEASE  -
|  1> # 12meoh.boyd.etal.mol10,11
|  2> ! MP2 def2-TZVP EnGrad TightSCF
|  3>
|  4> %pal
|  5>     nprocs 6
|  6> end
|  7>
|  8> %maxcore 8000
|  9>
| 10> %scf
| 11>     ConvForced true
| 12> end
| 13>
| 14> *xyz 0 1
| 15> O  -5.201143618   0.064582726  -0.172223772
| 16> H  -4.686891530   0.869258890   0.107806143
| 17> C  -6.513192168   0.171391798   0.359883449
| 18> H  -7.049381312  -0.749234190   0.111361174
| 19> H  -7.057741163   1.017801101  -0.081819420
| 20> H  -6.514770575   0.292264928   1.453058834
| 21> O   3.252955559   0.588596242   1.858934315
| 22> H   3.621209177  -0.251605199   1.476063364
| 23> C   4.040824528   0.944288422   2.989639460
| 24> H   3.670521436   1.902573549   3.363847391
| 25> H   5.103749934   1.055868619   2.734277559
| 26> H   3.948540682   0.200279590   3.792908518
| 27> *
| 28>
| 29>                          ****END OF INPUT****

CARTESIAN COORDINATES (ANGSTROEM)
---------------------------------
  O     -5.201144    0.064583   -0.172224
  H     -4.686892    0.869259    0.107806
  C     -6.513192    0.171392    0.359883
  H     -7.049381   -0.749234    0.111361
  H     -7.057741    1.017801   -0.081819
  H     -6.514771    0.292265    1.453059
  O      3.252956    0.588596    1.858934
  H      3.621209   -0.251605    1.476063
  C      4.040825    0.944288    2.989639
  H      3.670521    1.902574    3.363847
  H      5.103750    1.055869    2.734278
  H      3.948541    0.200280    3.792909

 Total Charge           Charge          ....    0
 Multiplicity           Mult            ....    1
 Number of Electrons    NEL             ....   36
 Basis Dimension        Dim             ....  172

ORBITAL ENERGIES
----------------

  NO   OCC          E(Eh)            E(eV)
   0   2.0000     -20.557249      -559.3912
   1   2.0000     -20.555599      -559.3463
   2   2.0000     -11.271671      -306.7178
   3   2.0000     -11.269722      -306.6647
   4   2.0000      -1.346555       -36.6416
   5   2.0000      -1.345701       -36.6184
   6   2.0000      -0.919722       -25.0269
   7   2.0000      -0.917474       -24.9657
   8   2.0000      -0.681577       -18.5466
   9   2.0000      -0.680400       -18.5146
  10   2.0000      -0.616988       -16.7891
  11   2.0000      -0.615042       -16.7361
  12   2.0000      -0.590907       -16.0794
  13   2.0000      -0.589667       -16.0456
  14   2.0000      -0.500118       -13.6089
  15   2.0000      -0.498042       -13.5524
  16   2.0000      -0.449115       -12.2210
  17   2.0000      -0.446709       -12.1556
  18   0.0000       0.135310         3.6820
  19   0.0000       0.137264         3.7351
  20   0.0000       0.175809         4.7840
  21   0.0000       0.177634         4.8337
  22   0.0000       0.229026         6.2321

MULLIKEN ATOMIC CHARGES
-----------------------
   0 O :   -0.495961
   1 H :    0.322523
   2 C :   -0.172359
   3 H :    0.128687
   4 H :    0.108260
   5 H :    0.108850
   6 O :   -0.497070
   7 H :    0.321902
   8 C :   -0.172622
   9 H :    0.128907
  10 H :    0.109550
  11 H :    0.109334
Sum of atomic charges:    0.0000000

LOEWDIN ATOMIC CHARGES
----------------------
   0 O :   -0.106670
   1 H :    0.191448
   2 C :   -0.385218
   3 H :    0.110232
   4 H :    0.094949
   5 H :    0.095260
   6 O :   -0.109152
   7 H :    0.190185
   8 C :   -0.381914
   9 H :    0.110174
  10 H :    0.095405
  11 H :    0.095302

  Mayer bond orders larger than 0.100000
B(  0-O ,  1-H ) :   0.8415 B(  0-O ,  2-C ) :   0.9283 B(  2-C ,  3-H ) :   0.9377
B(  2-C ,  4-H ) :   0.9389 B(  2-C ,  5-H ) :   0.9385 B(  6-O ,  7-H ) :   0.8421
B(  6-O ,  8-C ) :   0.9267 B(  8-C ,  9-H ) :   0.9377 B(  8-C , 10-H ) :   0.9389
B(  8-C , 11-H ) :   0.9388

MP2 TOTAL ENERGY:     -231.013281468 Eh
FINAL SINGLE POINT ENERGY      -231.013281467543

DIPOLE MOMENT
-------------
                                X             Y             Z
Electronic contribution:      0.56009      -0.59501      -2.13093
Nuclear contribution   :     -0.22037       0.76032       2.74229
                        -----------------------------------------
Total Dipole Moment    :      0.33972       0.16531       0.61136
                        -----------------------------------------
Magnitude (a.u.)       :      0.71868
Magnitude (Debye)      :      1.82674

Rotational constants in cm-1:     0.773400     0.010797     0.010705
Rotational constants in MHz : 23185.945992   323.674271   320.920998

                             ****ORCA TERMINATED NORMALLY****
TOTAL RUN TIME: 0 days 0 hours 0 minutes 15 seconds 139 msec
