                         Program Version 4.2.0 -  RELEASE  -
|  1> # 12h2o.su.etal.mol0,1,2,7,8,10,11
|  2> ! MP2 def2-TZVP EnGrad TightSCF
|  3>
|  4> %pal
|  5>     nprocs 6
|  6> end
|  7>
|  8> %maxcore 8000
|  9>
| 10> %scf
| 11>     ConvForced true
| 12> end
| 13>
| 14> *xyz 0 1
| 15> O   1.794470000   0.923410000   2.768350000
| 16> H   2.338250000   1.359750000   3.430940000
| 17> H   0.879480000   1.303000000   2.865760000
| 18> O  -1.794470000  -0.923410000   2.768350000
| 19> H  -2.338250000  -1.359750000   3.430940000
| 20> H  -0.879480000  -1.303000000   2.865760000
| 21> O   0.923410000  -1.794470000  -2.768350000
| 22> H   1.359750000  -2.338250000  -3.430940000
| 23> H   1.303000000  -0.879480000  -2.865760000
| 24> O  -1.737840000  -0.885520000  -0.052730000
| 25> H  -2.090180000  -1.032320000   0.841890000
| 26> H  -0.839590000  -1.284090000  -0.017130000
| 27> O   1.752130000   0.741530000  -2.896280000
| 28> H   2.036450000   0.920500000  -1.984040000
| 29> H   0.921210000   1.242140000  -2.984230000
| 30> O  -0.923410000   1.794470000  -2.768350000
| 31> H  -1.359750000   2.338250000  -3.430940000
| 32> H  -1.303000000   0.879480000  -2.865760000
| 33> O  -0.741530000   1.752130000   2.896280000
| 34> H  -0.920500000   2.036450000   1.984040000
| 35> H  -1.242140000   0.921210000   2.984230000
| 36> *
| 37>
| 38>                          ****END OF INPUT****

CARTESIAN COORDINATES (ANGSTROEM)
---------------------------------
  O      1.794470    0.923410    2.768350
  H      2.338250    1.359750    3.430940
  H      0.879480    1.303000    2.865760
  O     -1.794470   -0.923410    2.768350
  H     -2.338250   -1.359750    3.430940
  H     -0.879480   -1.303000    2.865760
  O      0.923410   -1.794470   -2.768350
  H      1.359750   -2.338250   -3.430940
  H      1.303000   -0.879480   -2.865760
  O     -1.737840   -0.885520   -0.052730
  H     -2.090180   -1.032320    0.841890
  H     -0.839590   -1.284090   -0.017130
  O      1.752130    0.741530   -2.896280
  H      2.036450    0.920500   -1.984040
  H      0.921210    1.242140   -2.984230
  O     -0.923410    1.794470   -2.768350
  H     -1.359750    2.338250   -3.430940
  H     -1.303000    0.879480   -2.865760
  O     -0.741530    1.752130    2.896280
  H     -0.920500    2.036450    1.984040
  H     -1.242140    0.921210    2.984230

 Total Charge           Charge          ....    0
 Multiplicity           Mult            ....    1
 Number of Electrons    NEL             ....   70
 Basis Dimension        Dim             ....  301

ORBITAL ENERGIES
----------------

  NO   OCC          E(Eh)            E(eV)
   0   2.0000     -20.618353      -561.0539
   1   2.0000     -20.581998      -560.0646
   2   2.0000     -20.570453      -559.7505
   3   2.0000     -20.559411      -559.4500
   4   2.0000     -20.536358      -558.8227
   5   2.0000     -20.518936      -558.3486
   6   2.0000     -20.510654      -558.1233
   7   2.0000      -1.398784       -38.0629
   8   2.0000      -1.361331       -37.0437
   9   2.0000      -1.359104       -36.9831
  10   2.0000      -1.346617       -36.6433
  11   2.0000      -1.315473       -35.7958
  12   2.0000      -1.300838       -35.3976
  13   2.0000      -1.292418       -35.1685
  14   2.0000      -0.764349       -20.7990
  15   2.0000      -0.728123       -19.8132
  16   2.0000      -0.721939       -19.6450
  17   2.0000      -0.707994       -19.2655
  18   2.0000      -0.689353       -18.7582
  19   2.0000      -0.687034       -18.6952
  20   2.0000      -0.679644       -18.4941
  21   2.0000      -0.635622       -17.2962
  22   2.0000      -0.607318       -16.5260
  23   2.0000      -0.601379       -16.3643
  24   2.0000      -0.581105       -15.8127
  25   2.0000      -0.572624       -15.5819
  26   2.0000      -0.548409       -14.9230
  27   2.0000      -0.541122       -14.7247
  28   2.0000      -0.539467       -14.6797
  29   2.0000      -0.522196       -14.2097
  30   2.0000      -0.502412       -13.6713
  31   2.0000      -0.492482       -13.4011
  32   2.0000      -0.481878       -13.1126
  33   2.0000      -0.469721       -12.7818
  34   2.0000      -0.461364       -12.5544
  35   0.0000       0.092021         2.5040
  36   0.0000       0.117283         3.1914
  37   0.0000       0.147142         4.0039
  38   0.0000       0.160364         4.3637
  39   0.0000       0.170587         4.6419

MULLIKEN ATOMIC CHARGES
-----------------------
   0 O :   -0.739873
   1 H :    0.325823
   2 H :    0.364523
   3 O :   -0.720564
   4 H :    0.366024
   5 H :    0.377425
   6 O :   -0.736539
   7 H :    0.322686
   8 H :    0.365239
   9 O :   -0.701866
  10 H :    0.357521
  11 H :    0.339380
  12 O :   -0.704173
  13 H :    0.356903
  14 H :    0.372888
  15 O :   -0.704855
  16 H :    0.350022
  17 H :    0.378958
  18 O :   -0.701966
  19 H :    0.360803
  20 H :    0.371641
Sum of atomic charges:   -0.0000000

LOEWDIN ATOMIC CHARGES
----------------------
   0 O :   -0.377095
   1 H :    0.148609
   2 H :    0.140634
   3 O :   -0.287648
   4 H :    0.168845
   5 H :    0.194566
   6 O :   -0.375496
   7 H :    0.147594
   8 H :    0.141275
   9 O :   -0.347342
  10 H :    0.144804
  11 H :    0.170327
  12 O :   -0.284841
  13 H :    0.172688
  14 H :    0.153211
  15 O :   -0.311595
  16 H :    0.162796
  17 H :    0.194853
  18 O :   -0.282394
  19 H :    0.174265
  20 H :    0.151943

  Mayer bond orders larger than 0.100000
B(  0-O ,  1-H ) :   0.8602 B(  0-O ,  2-H ) :   0.7768 B(  3-O ,  4-H ) :   0.8307
B(  3-O ,  5-H ) :   0.8141 B(  6-O ,  7-H ) :   0.8616 B(  6-O ,  8-H ) :   0.7747
B(  9-O , 10-H ) :   0.8293 B(  9-O , 11-H ) :   0.8458 B( 12-O , 13-H ) :   0.8384
B( 12-O , 14-H ) :   0.7968 B( 15-O , 16-H ) :   0.8428 B( 15-O , 17-H ) :   0.8154
B( 18-O , 19-H ) :   0.8347 B( 18-O , 20-H ) :   0.8066

MP2 TOTAL ENERGY:     -534.238047649 Eh
FINAL SINGLE POINT ENERGY      -534.238047648795

DIPOLE MOMENT
-------------
                                X             Y             Z
Electronic contribution:     -0.43484       0.33791       0.00974
Nuclear contribution   :     -0.56623      -0.34326       0.77428
                        -----------------------------------------
Total Dipole Moment    :     -1.00107      -0.00534       0.78402
                        -----------------------------------------
Magnitude (a.u.)       :      1.27156
Magnitude (Debye)      :      3.23205

Rotational constants in cm-1:     0.036429     0.015534     0.014441
Rotational constants in MHz :  1092.106116   465.707666   432.923820

                             ****ORCA TERMINATED NORMALLY****
TOTAL RUN TIME: 0 days 0 hours 1 minutes 29 seconds 264 msec
