                         Program Version 4.2.0 -  RELEASE  -
|  1> # 12h2o.su.etal.mol1,3,4,6,7,8,9,10,11
|  2> ! MP2 def2-TZVP EnGrad TightSCF
|  3>
|  4> %pal
|  5>     nprocs 6
|  6> end
|  7>
|  8> %maxcore 8000
|  9>
| 10> %scf
| 11>     ConvForced true
| 12> end
| 13>
| 14> *xyz 0 1
| 15> O  -1.794470000  -0.923410000   2.768350000
| 16> H  -2.338250000  -1.359750000   3.430940000
| 17> H  -0.879480000  -1.303000000   2.865760000
| 18> O  -1.752130000  -0.741530000  -2.896280000
| 19> H  -2.036450000  -0.920500000  -1.984040000
| 20> H  -0.921210000  -1.242140000  -2.984230000
| 21> O  -0.885520000   1.737840000   0.052730000
| 22> H  -1.032320000   2.090180000  -0.841890000
| 23> H  -1.284090000   0.839590000   0.017130000
| 24> O   1.737840000   0.885520000  -0.052730000
| 25> H   2.090180000   1.032320000   0.841890000
| 26> H   0.839590000   1.284090000  -0.017130000
| 27> O  -1.737840000  -0.885520000  -0.052730000
| 28> H  -2.090180000  -1.032320000   0.841890000
| 29> H  -0.839590000  -1.284090000  -0.017130000
| 30> O   1.752130000   0.741530000  -2.896280000
| 31> H   2.036450000   0.920500000  -1.984040000
| 32> H   0.921210000   1.242140000  -2.984230000
| 33> O   0.741530000  -1.752130000   2.896280000
| 34> H   0.920500000  -2.036450000   1.984040000
| 35> H   1.242140000  -0.921210000   2.984230000
| 36> O  -0.923410000   1.794470000  -2.768350000
| 37> H  -1.359750000   2.338250000  -3.430940000
| 38> H  -1.303000000   0.879480000  -2.865760000
| 39> O  -0.741530000   1.752130000   2.896280000
| 40> H  -0.920500000   2.036450000   1.984040000
| 41> H  -1.242140000   0.921210000   2.984230000
| 42> *
| 43>
| 44>                          ****END OF INPUT****

CARTESIAN COORDINATES (ANGSTROEM)
---------------------------------
  O     -1.794470   -0.923410    2.768350
  H     -2.338250   -1.359750    3.430940
  H     -0.879480   -1.303000    2.865760
  O     -1.752130   -0.741530   -2.896280
  H     -2.036450   -0.920500   -1.984040
  H     -0.921210   -1.242140   -2.984230
  O     -0.885520    1.737840    0.052730
  H     -1.032320    2.090180   -0.841890
  H     -1.284090    0.839590    0.017130
  O      1.737840    0.885520   -0.052730
  H      2.090180    1.032320    0.841890
  H      0.839590    1.284090   -0.017130
  O     -1.737840   -0.885520   -0.052730
  H     -2.090180   -1.032320    0.841890
  H     -0.839590   -1.284090   -0.017130
  O      1.752130    0.741530   -2.896280
  H      2.036450    0.920500   -1.984040
  H      0.921210    1.242140   -2.984230
  O      0.741530   -1.752130    2.896280
  H      0.920500   -2.036450    1.984040
  H      1.242140   -0.921210    2.984230
  O     -0.923410    1.794470   -2.768350
  H     -1.359750    2.338250   -3.430940
  H     -1.303000    0.879480   -2.865760
  O     -0.741530    1.752130    2.896280
  H     -0.920500    2.036450    1.984040
  H     -1.242140    0.921210    2.984230

 Total Charge           Charge          ....    0
 Multiplicity           Mult            ....    1
 Number of Electrons    NEL             ....   90
 Basis Dimension        Dim             ....  387

ORBITAL ENERGIES
----------------

  NO   OCC          E(Eh)            E(eV)
   0   2.0000     -20.625861      -561.2582
   1   2.0000     -20.613640      -560.9257
   2   2.0000     -20.590929      -560.3077
   3   2.0000     -20.587577      -560.2165
   4   2.0000     -20.564918      -559.5999
   5   2.0000     -20.558500      -559.4252
   6   2.0000     -20.552845      -559.2714
   7   2.0000     -20.519399      -558.3612
   8   2.0000     -20.502958      -557.9138
   9   2.0000      -1.412725       -38.4422
  10   2.0000      -1.402187       -38.1555
  11   2.0000      -1.377813       -37.4922
  12   2.0000      -1.373948       -37.3870
  13   2.0000      -1.356567       -36.9141
  14   2.0000      -1.345584       -36.6152
  15   2.0000      -1.333006       -36.2729
  16   2.0000      -1.304388       -35.4942
  17   2.0000      -1.287921       -35.0461
  18   2.0000      -0.768021       -20.8989
  19   2.0000      -0.765127       -20.8202
  20   2.0000      -0.757157       -20.6033
  21   2.0000      -0.736124       -20.0310
  22   2.0000      -0.732005       -19.9189
  23   2.0000      -0.723608       -19.6904
  24   2.0000      -0.707705       -19.2576
  25   2.0000      -0.683970       -18.6118
  26   2.0000      -0.665986       -18.1224
  27   2.0000      -0.664180       -18.0733
  28   2.0000      -0.645308       -17.5597
  29   2.0000      -0.622753       -16.9460
  30   2.0000      -0.616590       -16.7783
  31   2.0000      -0.606171       -16.4948
  32   2.0000      -0.587312       -15.9816
  33   2.0000      -0.581497       -15.8233
  34   2.0000      -0.563436       -15.3319
  35   2.0000      -0.552442       -15.0327
  36   2.0000      -0.546851       -14.8806
  37   2.0000      -0.532328       -14.4854
  38   2.0000      -0.528196       -14.3729
  39   2.0000      -0.522726       -14.2241
  40   2.0000      -0.506900       -13.7935
  41   2.0000      -0.506166       -13.7735
  42   2.0000      -0.497396       -13.5348
  43   2.0000      -0.469287       -12.7699
  44   2.0000      -0.453081       -12.3290
  45   0.0000       0.067787         1.8446
  46   0.0000       0.119496         3.2516
  47   0.0000       0.129492         3.5237
  48   0.0000       0.135203         3.6791
  49   0.0000       0.160598         4.3701

MULLIKEN ATOMIC CHARGES
-----------------------
   0 O :   -0.754682
   1 H :    0.358450
   2 H :    0.383411
   3 O :   -0.700329
   4 H :    0.387776
   5 H :    0.359398
   6 O :   -0.749520
   7 H :    0.385103
   8 H :    0.360111
   9 O :   -0.737658
  10 H :    0.332104
  11 H :    0.365504
  12 O :   -0.729216
  13 H :    0.397542
  14 H :    0.345294
  15 O :   -0.735534
  16 H :    0.368275
  17 H :    0.346355
  18 O :   -0.681321
  19 H :    0.356245
  20 H :    0.374904
  21 O :   -0.752592
  22 H :    0.350281
  23 H :    0.385391
  24 O :   -0.733151
  25 H :    0.372386
  26 H :    0.345471
Sum of atomic charges:    0.0000000

LOEWDIN ATOMIC CHARGES
----------------------
   0 O :   -0.312724
   1 H :    0.163260
   2 H :    0.146045
   3 O :   -0.273392
   4 H :    0.157439
   5 H :    0.174867
   6 O :   -0.299087
   7 H :    0.152861
   8 H :    0.140634
   9 O :   -0.343981
  10 H :    0.157557
  11 H :    0.143598
  12 O :   -0.282674
  13 H :    0.159738
  14 H :    0.171089
  15 O :   -0.359238
  16 H :    0.149996
  17 H :    0.139675
  18 O :   -0.263741
  19 H :    0.171771
  20 H :    0.181834
  21 O :   -0.313655
  22 H :    0.159301
  23 H :    0.146871
  24 O :   -0.356292
  25 H :    0.149081
  26 H :    0.139167

  Mayer bond orders larger than 0.100000
B(  0-O ,  1-H ) :   0.8361 B(  0-O ,  2-H ) :   0.7474 B(  3-O ,  4-H ) :   0.8030
B(  3-O ,  5-H ) :   0.8318 B(  6-O ,  7-H ) :   0.7920 B(  6-O ,  8-H ) :   0.7802
B(  9-O , 10-H ) :   0.8507 B(  9-O , 11-H ) :   0.7644 B( 12-O , 13-H ) :   0.7787
B( 12-O , 14-H ) :   0.8335 B( 15-O , 16-H ) :   0.8225 B( 15-O , 17-H ) :   0.8263
B( 18-O , 19-H ) :   0.8370 B( 18-O , 20-H ) :   0.8206 B( 21-O , 22-H ) :   0.8406
B( 21-O , 23-H ) :   0.7425 B( 24-O , 25-H ) :   0.8183 B( 24-O , 26-H ) :   0.8292

MP2 TOTAL ENERGY:     -686.916237093 Eh
FINAL SINGLE POINT ENERGY      -686.916237093447

DIPOLE MOMENT
-------------
                                X             Y             Z
Electronic contribution:     -0.23198      -0.34021       0.09009
Nuclear contribution   :     -0.82411      -1.44252       0.77428
                        -----------------------------------------
Total Dipole Moment    :     -1.05609      -1.78273       0.86436
                        -----------------------------------------
Magnitude (a.u.)       :      2.24512
Magnitude (Debye)      :      5.70665

Rotational constants in cm-1:     0.031036     0.014804     0.013735
Rotational constants in MHz :   930.450663   443.818007   411.768315

                             ****ORCA TERMINATED NORMALLY****
TOTAL RUN TIME: 0 days 0 hours 4 minutes 49 seconds 198 msec
