                         Program Version 4.2.0 -  RELEASE  -
|  1> # 12h2o.su.etal.mol1,2,5,6,8,9,10,11
|  2> ! MP2 def2-TZVP EnGrad TightSCF
|  3>
|  4> %pal
|  5>     nprocs 6
|  6> end
|  7>
|  8> %maxcore 8000
|  9>
| 10> %scf
| 11>     ConvForced true
| 12> end
| 13>
| 14> *xyz 0 1
| 15> O  -1.794470000  -0.923410000   2.768350000
| 16> H  -2.338250000  -1.359750000   3.430940000
| 17> H  -0.879480000  -1.303000000   2.865760000
| 18> O   0.923410000  -1.794470000  -2.768350000
| 19> H   1.359750000  -2.338250000  -3.430940000
| 20> H   1.303000000  -0.879480000  -2.865760000
| 21> O   0.885520000  -1.737840000   0.052730000
| 22> H   1.284090000  -0.839590000   0.017130000
| 23> H   1.032320000  -2.090180000  -0.841890000
| 24> O   1.737840000   0.885520000  -0.052730000
| 25> H   2.090180000   1.032320000   0.841890000
| 26> H   0.839590000   1.284090000  -0.017130000
| 27> O   1.752130000   0.741530000  -2.896280000
| 28> H   2.036450000   0.920500000  -1.984040000
| 29> H   0.921210000   1.242140000  -2.984230000
| 30> O   0.741530000  -1.752130000   2.896280000
| 31> H   0.920500000  -2.036450000   1.984040000
| 32> H   1.242140000  -0.921210000   2.984230000
| 33> O  -0.923410000   1.794470000  -2.768350000
| 34> H  -1.359750000   2.338250000  -3.430940000
| 35> H  -1.303000000   0.879480000  -2.865760000
| 36> O  -0.741530000   1.752130000   2.896280000
| 37> H  -0.920500000   2.036450000   1.984040000
| 38> H  -1.242140000   0.921210000   2.984230000
| 39> *
| 40>
| 41>                          ****END OF INPUT****

CARTESIAN COORDINATES (ANGSTROEM)
---------------------------------
  O     -1.794470   -0.923410    2.768350
  H     -2.338250   -1.359750    3.430940
  H     -0.879480   -1.303000    2.865760
  O      0.923410   -1.794470   -2.768350
  H      1.359750   -2.338250   -3.430940
  H      1.303000   -0.879480   -2.865760
  O      0.885520   -1.737840    0.052730
  H      1.284090   -0.839590    0.017130
  H      1.032320   -2.090180   -0.841890
  O      1.737840    0.885520   -0.052730
  H      2.090180    1.032320    0.841890
  H      0.839590    1.284090   -0.017130
  O      1.752130    0.741530   -2.896280
  H      2.036450    0.920500   -1.984040
  H      0.921210    1.242140   -2.984230
  O      0.741530   -1.752130    2.896280
  H      0.920500   -2.036450    1.984040
  H      1.242140   -0.921210    2.984230
  O     -0.923410    1.794470   -2.768350
  H     -1.359750    2.338250   -3.430940
  H     -1.303000    0.879480   -2.865760
  O     -0.741530    1.752130    2.896280
  H     -0.920500    2.036450    1.984040
  H     -1.242140    0.921210    2.984230

 Total Charge           Charge          ....    0
 Multiplicity           Mult            ....    1
 Number of Electrons    NEL             ....   80
 Basis Dimension        Dim             ....  344

ORBITAL ENERGIES
----------------

  NO   OCC          E(Eh)            E(eV)
   0   2.0000     -20.621854      -561.1492
   1   2.0000     -20.605442      -560.7026
   2   2.0000     -20.563539      -559.5624
   3   2.0000     -20.563345      -559.5571
   4   2.0000     -20.540938      -558.9473
   5   2.0000     -20.539817      -558.9168
   6   2.0000     -20.532052      -558.7055
   7   2.0000     -20.527773      -558.5891
   8   2.0000      -1.404997       -38.2319
   9   2.0000      -1.383554       -37.6484
  10   2.0000      -1.355930       -36.8967
  11   2.0000      -1.353960       -36.8431
  12   2.0000      -1.325882       -36.0791
  13   2.0000      -1.324845       -36.0509
  14   2.0000      -1.312412       -35.7125
  15   2.0000      -1.310295       -35.6549
  16   2.0000      -0.763798       -20.7840
  17   2.0000      -0.750862       -20.4320
  18   2.0000      -0.722322       -19.6554
  19   2.0000      -0.714559       -19.4441
  20   2.0000      -0.707448       -19.2506
  21   2.0000      -0.700901       -19.0725
  22   2.0000      -0.695349       -18.9214
  23   2.0000      -0.686690       -18.6858
  24   2.0000      -0.651097       -17.7173
  25   2.0000      -0.622791       -16.9470
  26   2.0000      -0.605127       -16.4663
  27   2.0000      -0.596053       -16.2194
  28   2.0000      -0.587573       -15.9887
  29   2.0000      -0.571464       -15.5503
  30   2.0000      -0.558279       -15.1916
  31   2.0000      -0.548574       -14.9274
  32   2.0000      -0.543153       -14.7800
  33   2.0000      -0.534738       -14.5510
  34   2.0000      -0.505176       -13.7465
  35   2.0000      -0.501533       -13.6474
  36   2.0000      -0.489407       -13.3174
  37   2.0000      -0.488524       -13.2934
  38   2.0000      -0.481077       -13.0908
  39   2.0000      -0.478331       -13.0161
  40   0.0000       0.080587         2.1929
  41   0.0000       0.107735         2.9316
  42   0.0000       0.143200         3.8967
  43   0.0000       0.151678         4.1274
  44   0.0000       0.159281         4.3343

MULLIKEN ATOMIC CHARGES
-----------------------
   0 O :   -0.740404
   1 H :    0.335243
   2 H :    0.386415
   3 O :   -0.742587
   4 H :    0.335055
   5 H :    0.369753
   6 O :   -0.744010
   7 H :    0.335255
   8 H :    0.376160
   9 O :   -0.711168
  10 H :    0.370209
  11 H :    0.370155
  12 O :   -0.714144
  13 H :    0.381829
  14 H :    0.366167
  15 O :   -0.700138
  16 H :    0.393906
  17 H :    0.335238
  18 O :   -0.711160
  19 H :    0.360788
  20 H :    0.374301
  21 O :   -0.711719
  22 H :    0.316779
  23 H :    0.368078
Sum of atomic charges:   -0.0000000

LOEWDIN ATOMIC CHARGES
----------------------
   0 O :   -0.340226
   1 H :    0.153015
   2 H :    0.146682
   3 O :   -0.344411
   4 H :    0.152757
   5 H :    0.142633
   6 O :   -0.347920
   7 H :    0.134683
   8 H :    0.152191
   9 O :   -0.275385
  10 H :    0.176924
  11 H :    0.182875
  12 O :   -0.284169
  13 H :    0.155203
  14 H :    0.149660
  15 O :   -0.277726
  16 H :    0.160779
  17 H :    0.162914
  18 O :   -0.314238
  19 H :    0.167659
  20 H :    0.193652
  21 O :   -0.349715
  22 H :    0.152155
  23 H :    0.150010

  Mayer bond orders larger than 0.100000
B(  0-O ,  1-H ) :   0.8515 B(  0-O ,  2-H ) :   0.7534 B(  3-O ,  4-H ) :   0.8515
B(  3-O ,  5-H ) :   0.7536 B(  5-H , 12-O ) :   0.1082 B(  6-O ,  7-H ) :   0.8055
B(  6-O ,  8-H ) :   0.8019 B(  9-O , 10-H ) :   0.8268 B(  9-O , 11-H ) :   0.8185
B( 12-O , 13-H ) :   0.8128 B( 12-O , 14-H ) :   0.8046 B( 15-O , 16-H ) :   0.7843
B( 15-O , 17-H ) :   0.8477 B( 18-O , 19-H ) :   0.8371 B( 18-O , 20-H ) :   0.8200
B( 21-O , 22-H ) :   0.8635 B( 21-O , 23-H ) :   0.7935

MP2 TOTAL ENERGY:     -610.579335776 Eh
FINAL SINGLE POINT ENERGY      -610.579335776102

DIPOLE MOMENT
-------------
                                X             Y             Z
Electronic contribution:      0.16938       0.11735      -0.11462
Nuclear contribution   :     -0.14644       0.79485      -1.31870
                        -----------------------------------------
Total Dipole Moment    :      0.02294       0.91219      -1.43332
                        -----------------------------------------
Magnitude (a.u.)       :      1.69913
Magnitude (Debye)      :      4.31883

Rotational constants in cm-1:     0.034635     0.015703     0.013323
Rotational constants in MHz :  1038.316664   470.772996   399.414231

                             ****ORCA TERMINATED NORMALLY****
TOTAL RUN TIME: 0 days 0 hours 2 minutes 49 seconds 963 msec
