                         Program Version 4.2.0 -  RELEASE  -
|  1> # 12mecn.remya.etal.2.mol4,5,11
|  2> ! MP2 def2-TZVP EnGrad TightSCF
|  3>
|  4> %pal
|  5>     nprocs 6
|  6> end
|  7>
|  8> %maxcore 8000
|  9>
| 10> %scf
| 11>     ConvForced true
| 12> end
| 13>
| 14> *xyz 0 1
| 15> C  -1.509690000  -0.693960000  -1.610140000
| 16> H  -1.327010000  -1.692700000  -2.017370000
| 17> H  -0.742170000  -0.000650000  -1.964400000
| 18> H  -2.491920000  -0.334310000  -1.929350000
| 19> C  -1.473570000  -0.748120000  -0.167200000
| 20> N  -1.447490000  -0.793720000   0.998938000
| 21> C  -1.955700000   2.515080000   1.698463000
| 22> H  -2.923830000   2.883163000   2.049269000
| 23> H  -1.154850000   3.171830000   2.050990000
| 24> H  -1.790380000   1.506115000   2.087896000
| 25> C  -1.948230000   2.482156000   0.253672000
| 26> N  -1.937550000   2.462523000  -0.913150000
| 27> C   4.214163000   3.378139000   1.593627000
| 28> H   3.242643000   3.657109000   2.012358000
| 29> H   4.969258000   4.086643000   1.941290000
| 30> H   4.482966000   2.372549000   1.931698000
| 31> C   4.130759000   3.388436000   0.150192000
| 32> N   4.050180000   3.381449000  -1.013420000
| 33> *
| 34>
| 35>                          ****END OF INPUT****

CARTESIAN COORDINATES (ANGSTROEM)
---------------------------------
  C     -1.509690   -0.693960   -1.610140
  H     -1.327010   -1.692700   -2.017370
  H     -0.742170   -0.000650   -1.964400
  H     -2.491920   -0.334310   -1.929350
  C     -1.473570   -0.748120   -0.167200
  N     -1.447490   -0.793720    0.998938
  C     -1.955700    2.515080    1.698463
  H     -2.923830    2.883163    2.049269
  H     -1.154850    3.171830    2.050990
  H     -1.790380    1.506115    2.087896
  C     -1.948230    2.482156    0.253672
  N     -1.937550    2.462523   -0.913150
  C      4.214163    3.378139    1.593627
  H      3.242643    3.657109    2.012358
  H      4.969258    4.086643    1.941290
  H      4.482966    2.372549    1.931698
  C      4.130759    3.388436    0.150192
  N      4.050180    3.381449   -1.013420

 Total Charge           Charge          ....    0
 Multiplicity           Mult            ....    1
 Number of Electrons    NEL             ....   66
 Basis Dimension        Dim             ....  333

ORBITAL ENERGIES
----------------

  NO   OCC          E(Eh)            E(eV)
   0   2.0000     -15.573371      -423.7730
   1   2.0000     -15.571242      -423.7150
   2   2.0000     -15.569873      -423.6778
   3   2.0000     -11.286090      -307.1101
   4   2.0000     -11.282123      -307.0022
   5   2.0000     -11.282083      -307.0011
   6   2.0000     -11.280170      -306.9490
   7   2.0000     -11.274774      -306.8022
   8   2.0000     -11.271177      -306.7043
   9   2.0000      -1.217009       -33.1165
  10   2.0000      -1.214787       -33.0560
  11   2.0000      -1.212838       -33.0030
  12   2.0000      -1.044347       -28.4181
  13   2.0000      -1.037356       -28.2279
  14   2.0000      -1.033369       -28.1194
  15   2.0000      -0.701204       -19.0807
  16   2.0000      -0.694632       -18.9019
  17   2.0000      -0.689381       -18.7590
  18   2.0000      -0.632773       -17.2186
  19   2.0000      -0.631752       -17.1908
  20   2.0000      -0.629840       -17.1388
  21   2.0000      -0.626099       -17.0370
  22   2.0000      -0.618766       -16.8375
  23   2.0000      -0.615819       -16.7573
  24   2.0000      -0.558245       -15.1906
  25   2.0000      -0.555968       -15.1287
  26   2.0000      -0.555441       -15.1143
  27   2.0000      -0.461595       -12.5606
  28   2.0000      -0.458245       -12.4695
  29   2.0000      -0.457905       -12.4602
  30   2.0000      -0.457795       -12.4572
  31   2.0000      -0.456267       -12.4157
  32   2.0000      -0.452684       -12.3182
  33   0.0000       0.105122         2.8605
  34   0.0000       0.130586         3.5534
  35   0.0000       0.143070         3.8931
  36   0.0000       0.165949         4.5157
  37   0.0000       0.170783         4.6472

MULLIKEN ATOMIC CHARGES
-----------------------
   0 C :   -0.258494
   1 H :    0.171184
   2 H :    0.184713
   3 H :    0.174909
   4 C :   -0.121461
   5 N :   -0.149958
   6 C :   -0.286617
   7 H :    0.167451
   8 H :    0.161005
   9 H :    0.204558
  10 C :   -0.114545
  11 N :   -0.132754
  12 C :   -0.278955
  13 H :    0.167758
  14 H :    0.172462
  15 H :    0.173809
  16 C :   -0.145489
  17 N :   -0.089577
Sum of atomic charges:   -0.0000000

LOEWDIN ATOMIC CHARGES
----------------------
   0 C :   -0.283319
   1 H :    0.150185
   2 H :    0.158486
   3 H :    0.156873
   4 C :   -0.210778
   5 N :    0.025701
   6 C :   -0.283044
   7 H :    0.152000
   8 H :    0.150191
   9 H :    0.156663
  10 C :   -0.211137
  11 N :    0.038178
  12 C :   -0.284240
  13 H :    0.151684
  14 H :    0.151059
  15 H :    0.153438
  16 C :   -0.219625
  17 N :    0.047686

  Mayer bond orders larger than 0.100000
B(  0-C ,  1-H ) :   0.9097 B(  0-C ,  2-H ) :   0.9103 B(  0-C ,  3-H ) :   0.9128
B(  0-C ,  4-C ) :   0.9113 B(  4-C ,  5-N ) :   2.7812 B(  6-C ,  7-H ) :   0.9156
B(  6-C ,  8-H ) :   0.9175 B(  6-C ,  9-H ) :   0.9036 B(  6-C , 10-C ) :   0.8980
B( 10-C , 11-N ) :   2.7912 B( 12-C , 13-H ) :   0.9174 B( 12-C , 14-H ) :   0.9167
B( 12-C , 15-H ) :   0.9162 B( 12-C , 16-C ) :   0.9025 B( 16-C , 17-N ) :   2.8354

MP2 TOTAL ENERGY:     -397.458860777 Eh
FINAL SINGLE POINT ENERGY      -397.458860776527

DIPOLE MOMENT
-------------
                                X             Y             Z
Electronic contribution:     -0.07507      -0.17104      -3.19486
Nuclear contribution   :      0.12884       0.25107       4.65916
                        -----------------------------------------
Total Dipole Moment    :      0.05377       0.08003       1.46430
                        -----------------------------------------
Magnitude (a.u.)       :      1.46747
Magnitude (Debye)      :      3.73001

Rotational constants in cm-1:     0.045152     0.013204     0.012326
Rotational constants in MHz :  1353.636714   395.853175   369.523644

                             ****ORCA TERMINATED NORMALLY****
TOTAL RUN TIME: 0 days 0 hours 3 minutes 49 seconds 402 msec
