                         Program Version 4.2.0 -  RELEASE  -
|  1> # 12h2o.su.etal.mol0,1,3,4,5,6,7,8,9,10,11
|  2> ! MP2 def2-TZVP EnGrad TightSCF
|  3>
|  4> %pal
|  5>     nprocs 6
|  6> end
|  7>
|  8> %maxcore 8000
|  9>
| 10> %scf
| 11>     ConvForced true
| 12> end
| 13>
| 14> *xyz 0 1
| 15> O   1.794470000   0.923410000   2.768350000
| 16> H   2.338250000   1.359750000   3.430940000
| 17> H   0.879480000   1.303000000   2.865760000
| 18> O  -1.794470000  -0.923410000   2.768350000
| 19> H  -2.338250000  -1.359750000   3.430940000
| 20> H  -0.879480000  -1.303000000   2.865760000
| 21> O  -1.752130000  -0.741530000  -2.896280000
| 22> H  -2.036450000  -0.920500000  -1.984040000
| 23> H  -0.921210000  -1.242140000  -2.984230000
| 24> O  -0.885520000   1.737840000   0.052730000
| 25> H  -1.032320000   2.090180000  -0.841890000
| 26> H  -1.284090000   0.839590000   0.017130000
| 27> O   0.885520000  -1.737840000   0.052730000
| 28> H   1.284090000  -0.839590000   0.017130000
| 29> H   1.032320000  -2.090180000  -0.841890000
| 30> O   1.737840000   0.885520000  -0.052730000
| 31> H   2.090180000   1.032320000   0.841890000
| 32> H   0.839590000   1.284090000  -0.017130000
| 33> O  -1.737840000  -0.885520000  -0.052730000
| 34> H  -2.090180000  -1.032320000   0.841890000
| 35> H  -0.839590000  -1.284090000  -0.017130000
| 36> O   1.752130000   0.741530000  -2.896280000
| 37> H   2.036450000   0.920500000  -1.984040000
| 38> H   0.921210000   1.242140000  -2.984230000
| 39> O   0.741530000  -1.752130000   2.896280000
| 40> H   0.920500000  -2.036450000   1.984040000
| 41> H   1.242140000  -0.921210000   2.984230000
| 42> O  -0.923410000   1.794470000  -2.768350000
| 43> H  -1.359750000   2.338250000  -3.430940000
| 44> H  -1.303000000   0.879480000  -2.865760000
| 45> O  -0.741530000   1.752130000   2.896280000
| 46> H  -0.920500000   2.036450000   1.984040000
| 47> H  -1.242140000   0.921210000   2.984230000
| 48> *
| 49>
| 50>                          ****END OF INPUT****

CARTESIAN COORDINATES (ANGSTROEM)
---------------------------------
  O      1.794470    0.923410    2.768350
  H      2.338250    1.359750    3.430940
  H      0.879480    1.303000    2.865760
  O     -1.794470   -0.923410    2.768350
  H     -2.338250   -1.359750    3.430940
  H     -0.879480   -1.303000    2.865760
  O     -1.752130   -0.741530   -2.896280
  H     -2.036450   -0.920500   -1.984040
  H     -0.921210   -1.242140   -2.984230
  O     -0.885520    1.737840    0.052730
  H     -1.032320    2.090180   -0.841890
  H     -1.284090    0.839590    0.017130
  O      0.885520   -1.737840    0.052730
  H      1.284090   -0.839590    0.017130
  H      1.032320   -2.090180   -0.841890
  O      1.737840    0.885520   -0.052730
  H      2.090180    1.032320    0.841890
  H      0.839590    1.284090   -0.017130
  O     -1.737840   -0.885520   -0.052730
  H     -2.090180   -1.032320    0.841890
  H     -0.839590   -1.284090   -0.017130
  O      1.752130    0.741530   -2.896280
  H      2.036450    0.920500   -1.984040
  H      0.921210    1.242140   -2.984230
  O      0.741530   -1.752130    2.896280
  H      0.920500   -2.036450    1.984040
  H      1.242140   -0.921210    2.984230
  O     -0.923410    1.794470   -2.768350
  H     -1.359750    2.338250   -3.430940
  H     -1.303000    0.879480   -2.865760
  O     -0.741530    1.752130    2.896280
  H     -0.920500    2.036450    1.984040
  H     -1.242140    0.921210    2.984230

 Total Charge           Charge          ....    0
 Multiplicity           Mult            ....    1
 Number of Electrons    NEL             ....  110
 Basis Dimension        Dim             ....  473

ORBITAL ENERGIES
----------------

  NO   OCC          E(Eh)            E(eV)
   0   2.0000     -20.591269      -560.3169
   1   2.0000     -20.584900      -560.1436
   2   2.0000     -20.576555      -559.9165
   3   2.0000     -20.574201      -559.8525
   4   2.0000     -20.572104      -559.7954
   5   2.0000     -20.567542      -559.6713
   6   2.0000     -20.563584      -559.5636
   7   2.0000     -20.562696      -559.5394
   8   2.0000     -20.558417      -559.4230
   9   2.0000     -20.558008      -559.4118
  10   2.0000     -20.512702      -558.1790
  11   2.0000      -1.387954       -37.7681
  12   2.0000      -1.377840       -37.4929
  13   2.0000      -1.372761       -37.3547
  14   2.0000      -1.366410       -37.1819
  15   2.0000      -1.364234       -37.1227
  16   2.0000      -1.356417       -36.9100
  17   2.0000      -1.348891       -36.7052
  18   2.0000      -1.348276       -36.6885
  19   2.0000      -1.344357       -36.5818
  20   2.0000      -1.334583       -36.3159
  21   2.0000      -1.297634       -35.3104
  22   2.0000      -0.745972       -20.2989
  23   2.0000      -0.744518       -20.2594
  24   2.0000      -0.739690       -20.1280
  25   2.0000      -0.737658       -20.0727
  26   2.0000      -0.734510       -19.9870
  27   2.0000      -0.729682       -19.8557
  28   2.0000      -0.727263       -19.7898
  29   2.0000      -0.721585       -19.6353
  30   2.0000      -0.719783       -19.5863
  31   2.0000      -0.711368       -19.3573
  32   2.0000      -0.675665       -18.3858
  33   2.0000      -0.657342       -17.8872
  34   2.0000      -0.632192       -17.2028
  35   2.0000      -0.626790       -17.0558
  36   2.0000      -0.622201       -16.9310
  37   2.0000      -0.607162       -16.5217
  38   2.0000      -0.604280       -16.4433
  39   2.0000      -0.596703       -16.2371
  40   2.0000      -0.586129       -15.9494
  41   2.0000      -0.578259       -15.7352
  42   2.0000      -0.561247       -15.2723
  43   2.0000      -0.539733       -14.6869
  44   2.0000      -0.535430       -14.5698
  45   2.0000      -0.526642       -14.3307
  46   2.0000      -0.523847       -14.2546
  47   2.0000      -0.521216       -14.1830
  48   2.0000      -0.518692       -14.1143
  49   2.0000      -0.513229       -13.9657
  50   2.0000      -0.511474       -13.9179
  51   2.0000      -0.510025       -13.8785
  52   2.0000      -0.505096       -13.7444
  53   2.0000      -0.503325       -13.6962
  54   2.0000      -0.462802       -12.5935
  55   0.0000       0.097989         2.6664
  56   0.0000       0.125658         3.4193
  57   0.0000       0.140105         3.8125
  58   0.0000       0.141331         3.8458
  59   0.0000       0.186704         5.0805

MULLIKEN ATOMIC CHARGES
-----------------------
   0 O :   -0.764112
   1 H :    0.354018
   2 H :    0.386974
   3 O :   -0.763567
   4 H :    0.354613
   5 H :    0.386415
   6 O :   -0.699834
   7 H :    0.392547
   8 H :    0.350269
   9 O :   -0.762082
  10 H :    0.386775
  11 H :    0.365361
  12 O :   -0.747518
  13 H :    0.381863
  14 H :    0.360827
  15 O :   -0.757437
  16 H :    0.383214
  17 H :    0.367093
  18 O :   -0.760584
  19 H :    0.389481
  20 H :    0.358162
  21 O :   -0.736548
  22 H :    0.369096
  23 H :    0.349897
  24 O :   -0.723153
  25 H :    0.387165
  26 H :    0.372808
  27 O :   -0.755163
  28 H :    0.351132
  29 H :    0.387600
  30 O :   -0.725322
  31 H :    0.390031
  32 H :    0.369979
Sum of atomic charges:   -0.0000000

LOEWDIN ATOMIC CHARGES
----------------------
   0 O :   -0.317587
   1 H :    0.160776
   2 H :    0.146694
   3 O :   -0.317072
   4 H :    0.161113
   5 H :    0.146615
   6 O :   -0.273876
   7 H :    0.158651
   8 H :    0.170120
   9 O :   -0.302805
  10 H :    0.153707
  11 H :    0.141326
  12 O :   -0.296139
  13 H :    0.148186
  14 H :    0.170484
  15 O :   -0.299918
  16 H :    0.151509
  17 H :    0.142212
  18 O :   -0.303398
  19 H :    0.154647
  20 H :    0.140075
  21 O :   -0.358511
  22 H :    0.147443
  23 H :    0.141090
  24 O :   -0.284721
  25 H :    0.156401
  26 H :    0.150917
  27 O :   -0.314295
  28 H :    0.159683
  29 H :    0.147310
  30 O :   -0.286579
  31 H :    0.156437
  32 H :    0.149506

  Mayer bond orders larger than 0.100000
B(  0-O ,  1-H ) :   0.8386 B(  0-O ,  2-H ) :   0.7225 B(  2-H , 30-O ) :   0.1265
B(  3-O ,  4-H ) :   0.8384 B(  3-O ,  5-H ) :   0.7231 B(  5-H , 24-O ) :   0.1262
B(  6-O ,  7-H ) :   0.7937 B(  6-O ,  8-H ) :   0.8374 B(  6-O , 29-H ) :   0.1009
B(  9-O , 10-H ) :   0.7908 B(  9-O , 11-H ) :   0.7617 B(  9-O , 17-H ) :   0.1020
B( 12-O , 13-H ) :   0.7374 B( 12-O , 14-H ) :   0.8325 B( 12-O , 20-H ) :   0.1012
B( 13-H , 15-O ) :   0.1176 B( 15-O , 16-H ) :   0.7949 B( 15-O , 17-H ) :   0.7571
B( 18-O , 19-H ) :   0.7895 B( 18-O , 20-H ) :   0.7638 B( 21-O , 22-H ) :   0.8217
B( 21-O , 23-H ) :   0.8223 B( 24-O , 25-H ) :   0.8052 B( 24-O , 26-H ) :   0.7939
B( 27-O , 28-H ) :   0.8402 B( 27-O , 29-H ) :   0.7391 B( 30-O , 31-H ) :   0.7980
B( 30-O , 32-H ) :   0.7987

MP2 TOTAL ENERGY:     -839.614273683 Eh
FINAL SINGLE POINT ENERGY      -839.614273682763

DIPOLE MOMENT
-------------
                                X             Y             Z
Electronic contribution:     -0.13224      -0.11683       0.11467
Nuclear contribution   :     -0.67915      -0.30898       0.63259
                        -----------------------------------------
Total Dipole Moment    :     -0.81139      -0.42581       0.74726
                        -----------------------------------------
Magnitude (a.u.)       :      1.18240
Magnitude (Debye)      :      3.00542

Rotational constants in cm-1:     0.022891     0.012543     0.011684
Rotational constants in MHz :   686.246939   376.019728   350.265653

                             ****ORCA TERMINATED NORMALLY****
TOTAL RUN TIME: 0 days 0 hours 11 minutes 44 seconds 72 msec
