                         Program Version 4.2.0 -  RELEASE  -
|  1> # 12mecn.remya.etal.2.mol3,5,9
|  2> ! MP2 def2-TZVP EnGrad TightSCF
|  3>
|  4> %pal
|  5>     nprocs 6
|  6> end
|  7>
|  8> %maxcore 8000
|  9>
| 10> %scf
| 11>     ConvForced true
| 12> end
| 13>
| 14> *xyz 0 1
| 15> C  -5.181310000   2.853865000  -1.626100000
| 16> H  -5.488260000   3.811434000  -2.053310000
| 17> H  -5.857590000   2.068112000  -1.968630000
| 18> H  -4.170750000   2.611402000  -1.966640000
| 19> C  -5.187260000   2.919160000  -0.181450000
| 20> N  -5.181700000   2.970641000   0.983640000
| 21> C  -1.955700000   2.515080000   1.698463000
| 22> H  -2.923830000   2.883163000   2.049269000
| 23> H  -1.154850000   3.171830000   2.050990000
| 24> H  -1.790380000   1.506115000   2.087896000
| 25> C  -1.948230000   2.482156000   0.253672000
| 26> N  -1.937550000   2.462523000  -0.913150000
| 27> C   0.923766000   4.000693000  -1.575910000
| 28> H   0.011949000   4.478423000  -1.939550000
| 29> H   0.947903000   2.966558000  -1.929960000
| 30> H   1.805950000   4.519548000  -1.956520000
| 31> C   0.942834000   3.994846000  -0.131200000
| 32> N   0.960035000   3.982544000   1.035639000
| 33> *
| 34>
| 35>                          ****END OF INPUT****

CARTESIAN COORDINATES (ANGSTROEM)
---------------------------------
  C     -5.181310    2.853865   -1.626100
  H     -5.488260    3.811434   -2.053310
  H     -5.857590    2.068112   -1.968630
  H     -4.170750    2.611402   -1.966640
  C     -5.187260    2.919160   -0.181450
  N     -5.181700    2.970641    0.983640
  C     -1.955700    2.515080    1.698463
  H     -2.923830    2.883163    2.049269
  H     -1.154850    3.171830    2.050990
  H     -1.790380    1.506115    2.087896
  C     -1.948230    2.482156    0.253672
  N     -1.937550    2.462523   -0.913150
  C      0.923766    4.000693   -1.575910
  H      0.011949    4.478423   -1.939550
  H      0.947903    2.966558   -1.929960
  H      1.805950    4.519548   -1.956520
  C      0.942834    3.994846   -0.131200
  N      0.960035    3.982544    1.035639

 Total Charge           Charge          ....    0
 Multiplicity           Mult            ....    1
 Number of Electrons    NEL             ....   66
 Basis Dimension        Dim             ....  333

ORBITAL ENERGIES
----------------

  NO   OCC          E(Eh)            E(eV)
   0   2.0000     -15.571424      -423.7200
   1   2.0000     -15.570982      -423.7080
   2   2.0000     -15.568903      -423.6514
   3   2.0000     -11.284817      -307.0755
   4   2.0000     -11.282989      -307.0257
   5   2.0000     -11.282343      -307.0082
   6   2.0000     -11.275312      -306.8168
   7   2.0000     -11.272605      -306.7432
   8   2.0000     -11.258356      -306.3554
   9   2.0000      -1.219288       -33.1785
  10   2.0000      -1.215906       -33.0865
  11   2.0000      -1.213353       -33.0170
  12   2.0000      -1.037631       -28.2354
  13   2.0000      -1.035777       -28.1849
  14   2.0000      -1.025388       -27.9022
  15   2.0000      -0.695682       -18.9305
  16   2.0000      -0.694787       -18.9061
  17   2.0000      -0.683662       -18.6034
  18   2.0000      -0.631294       -17.1784
  19   2.0000      -0.626169       -17.0389
  20   2.0000      -0.623722       -16.9723
  21   2.0000      -0.622015       -16.9259
  22   2.0000      -0.610658       -16.6169
  23   2.0000      -0.607866       -16.5409
  24   2.0000      -0.561005       -15.2657
  25   2.0000      -0.555891       -15.1266
  26   2.0000      -0.555456       -15.1147
  27   2.0000      -0.461329       -12.5534
  28   2.0000      -0.459655       -12.5078
  29   2.0000      -0.458324       -12.4716
  30   2.0000      -0.457504       -12.4493
  31   2.0000      -0.456685       -12.4270
  32   2.0000      -0.453052       -12.3282
  33   0.0000       0.123731         3.3669
  34   0.0000       0.137477         3.7409
  35   0.0000       0.157503         4.2859
  36   0.0000       0.168440         4.5835
  37   0.0000       0.171925         4.6783

MULLIKEN ATOMIC CHARGES
-----------------------
   0 C :   -0.288559
   1 H :    0.165984
   2 H :    0.166851
   3 H :    0.202213
   4 C :   -0.103367
   5 N :   -0.143987
   6 C :   -0.289111
   7 H :    0.200817
   8 H :    0.199967
   9 H :    0.160946
  10 C :   -0.065522
  11 N :   -0.208479
  12 C :   -0.257629
  13 H :    0.174999
  14 H :    0.174891
  15 H :    0.172525
  16 C :   -0.118432
  17 N :   -0.144107
Sum of atomic charges:   -0.0000000

LOEWDIN ATOMIC CHARGES
----------------------
   0 C :   -0.283708
   1 H :    0.150671
   2 H :    0.150551
   3 H :    0.155835
   4 C :   -0.207930
   5 N :    0.033819
   6 C :   -0.281038
   7 H :    0.155762
   8 H :    0.155984
   9 H :    0.153227
  10 C :   -0.200354
  11 N :    0.016939
  12 C :   -0.283994
  13 H :    0.154408
  14 H :    0.156932
  15 H :    0.149626
  16 C :   -0.209817
  17 N :    0.033087

  Mayer bond orders larger than 0.100000
B(  0-C ,  1-H ) :   0.9152 B(  0-C ,  2-H ) :   0.9162 B(  0-C ,  3-H ) :   0.9029
B(  0-C ,  4-C ) :   0.9026 B(  4-C ,  5-N ) :   2.7722 B(  6-C ,  7-H ) :   0.9029
B(  6-C ,  8-H ) :   0.9025 B(  6-C ,  9-H ) :   0.9108 B(  6-C , 10-C ) :   0.8988
B( 10-C , 11-N ) :   2.7161 B( 12-C , 13-H ) :   0.9126 B( 12-C , 14-H ) :   0.9143
B( 12-C , 15-H ) :   0.9108 B( 12-C , 16-C ) :   0.9114 B( 16-C , 17-N ) :   2.7710

MP2 TOTAL ENERGY:     -397.467697609 Eh
FINAL SINGLE POINT ENERGY      -397.467697609188

DIPOLE MOMENT
-------------
                                X             Y             Z
Electronic contribution:      0.05029       0.11564       3.16998
Nuclear contribution   :     -0.05141      -0.14619      -4.65803
                        -----------------------------------------
Total Dipole Moment    :     -0.00111      -0.03054      -1.48805
                        -----------------------------------------
Magnitude (a.u.)       :      1.48836
Magnitude (Debye)      :      3.78312

Rotational constants in cm-1:     0.082390     0.020360     0.017306
Rotational constants in MHz :  2470.001779   610.364261   518.823810

                             ****ORCA TERMINATED NORMALLY****
TOTAL RUN TIME: 0 days 0 hours 4 minutes 2 seconds 953 msec
