                         Program Version 4.2.0 -  RELEASE  -
|  1> # 12h2o.su.etal.mol0,1,4,8,11
|  2> ! MP2 def2-TZVP EnGrad TightSCF
|  3>
|  4> %pal
|  5>     nprocs 6
|  6> end
|  7>
|  8> %maxcore 8000
|  9>
| 10> %scf
| 11>     ConvForced true
| 12> end
| 13>
| 14> *xyz 0 1
| 15> O   1.794470000   0.923410000   2.768350000
| 16> H   2.338250000   1.359750000   3.430940000
| 17> H   0.879480000   1.303000000   2.865760000
| 18> O  -1.794470000  -0.923410000   2.768350000
| 19> H  -2.338250000  -1.359750000   3.430940000
| 20> H  -0.879480000  -1.303000000   2.865760000
| 21> O  -0.885520000   1.737840000   0.052730000
| 22> H  -1.032320000   2.090180000  -0.841890000
| 23> H  -1.284090000   0.839590000   0.017130000
| 24> O   1.752130000   0.741530000  -2.896280000
| 25> H   2.036450000   0.920500000  -1.984040000
| 26> H   0.921210000   1.242140000  -2.984230000
| 27> O  -0.741530000   1.752130000   2.896280000
| 28> H  -0.920500000   2.036450000   1.984040000
| 29> H  -1.242140000   0.921210000   2.984230000
| 30> *
| 31>
| 32>                          ****END OF INPUT****

CARTESIAN COORDINATES (ANGSTROEM)
---------------------------------
  O      1.794470    0.923410    2.768350
  H      2.338250    1.359750    3.430940
  H      0.879480    1.303000    2.865760
  O     -1.794470   -0.923410    2.768350
  H     -2.338250   -1.359750    3.430940
  H     -0.879480   -1.303000    2.865760
  O     -0.885520    1.737840    0.052730
  H     -1.032320    2.090180   -0.841890
  H     -1.284090    0.839590    0.017130
  O      1.752130    0.741530   -2.896280
  H      2.036450    0.920500   -1.984040
  H      0.921210    1.242140   -2.984230
  O     -0.741530    1.752130    2.896280
  H     -0.920500    2.036450    1.984040
  H     -1.242140    0.921210    2.984230

 Total Charge           Charge          ....    0
 Multiplicity           Mult            ....    1
 Number of Electrons    NEL             ....   50
 Basis Dimension        Dim             ....  215

ORBITAL ENERGIES
----------------

  NO   OCC          E(Eh)            E(eV)
   0   2.0000     -20.597590      -560.4889
   1   2.0000     -20.594137      -560.3949
   2   2.0000     -20.560825      -559.4885
   3   2.0000     -20.544068      -559.0325
   4   2.0000     -20.507027      -558.0246
   5   2.0000      -1.375745       -37.4359
   6   2.0000      -1.372374       -37.3442
   7   2.0000      -1.339993       -36.4631
   8   2.0000      -1.335531       -36.3417
   9   2.0000      -1.288556       -35.0634
  10   2.0000      -0.742578       -20.2066
  11   2.0000      -0.735331       -20.0094
  12   2.0000      -0.702770       -19.1233
  13   2.0000      -0.702548       -19.1173
  14   2.0000      -0.675112       -18.3707
  15   2.0000      -0.625117       -17.0103
  16   2.0000      -0.608032       -16.5454
  17   2.0000      -0.577591       -15.7170
  18   2.0000      -0.574083       -15.6216
  19   2.0000      -0.542157       -14.7528
  20   2.0000      -0.537810       -14.6346
  21   2.0000      -0.526623       -14.3301
  22   2.0000      -0.504857       -13.7379
  23   2.0000      -0.482107       -13.1188
  24   2.0000      -0.457944       -12.4613
  25   0.0000       0.087276         2.3749
  26   0.0000       0.110713         3.0126
  27   0.0000       0.162288         4.4161
  28   0.0000       0.168690         4.5903
  29   0.0000       0.184098         5.0096

MULLIKEN ATOMIC CHARGES
-----------------------
   0 O :   -0.742839
   1 H :    0.321323
   2 H :    0.368572
   3 O :   -0.708009
   4 H :    0.357278
   5 H :    0.372347
   6 O :   -0.691254
   7 H :    0.342227
   8 H :    0.357649
   9 O :   -0.673126
  10 H :    0.349065
  11 H :    0.323023
  12 O :   -0.715370
  13 H :    0.380293
  14 H :    0.358820
Sum of atomic charges:   -0.0000000

LOEWDIN ATOMIC CHARGES
----------------------
   0 O :   -0.378800
   1 H :    0.146320
   2 H :    0.141300
   3 O :   -0.313846
   4 H :    0.165908
   5 H :    0.192789
   6 O :   -0.314792
   7 H :    0.166732
   8 H :    0.179811
   9 O :   -0.330295
  10 H :    0.169743
  11 H :    0.159492
  12 O :   -0.287695
  13 H :    0.156212
  14 H :    0.147121

  Mayer bond orders larger than 0.100000
B(  0-O ,  1-H ) :   0.8625 B(  0-O ,  2-H ) :   0.7704 B(  2-H , 12-O ) :   0.1024
B(  3-O ,  4-H ) :   0.8391 B(  3-O ,  5-H ) :   0.8210 B(  6-O ,  7-H ) :   0.8458
B(  6-O ,  8-H ) :   0.8337 B(  9-O , 10-H ) :   0.8456 B(  9-O , 11-H ) :   0.8606
B( 12-O , 13-H ) :   0.8107 B( 12-O , 14-H ) :   0.8115

MP2 TOTAL ENERGY:     -381.592099903 Eh
FINAL SINGLE POINT ENERGY      -381.592099903138

DIPOLE MOMENT
-------------
                                X             Y             Z
Electronic contribution:     -0.15067      -0.04527      -0.19233
Nuclear contribution   :     -1.47457      -0.34371       0.49091
                        -----------------------------------------
Total Dipole Moment    :     -1.62524      -0.38898       0.29858
                        -----------------------------------------
Magnitude (a.u.)       :      1.69760
Magnitude (Debye)      :      4.31496

Rotational constants in cm-1:     0.073524     0.027963     0.025065
Rotational constants in MHz :  2204.183529   838.297233   751.434766

                             ****ORCA TERMINATED NORMALLY****
TOTAL RUN TIME: 0 days 0 hours 0 minutes 36 seconds 428 msec
