                         Program Version 4.2.0 -  RELEASE  -
|  1> # 12h2o.su.etal.mol0,1,5,7,9
|  2> ! MP2 def2-TZVP EnGrad TightSCF
|  3>
|  4> %pal
|  5>     nprocs 6
|  6> end
|  7>
|  8> %maxcore 8000
|  9>
| 10> %scf
| 11>     ConvForced true
| 12> end
| 13>
| 14> *xyz 0 1
| 15> O   1.794470000   0.923410000   2.768350000
| 16> H   2.338250000   1.359750000   3.430940000
| 17> H   0.879480000   1.303000000   2.865760000
| 18> O  -1.794470000  -0.923410000   2.768350000
| 19> H  -2.338250000  -1.359750000   3.430940000
| 20> H  -0.879480000  -1.303000000   2.865760000
| 21> O   0.885520000  -1.737840000   0.052730000
| 22> H   1.284090000  -0.839590000   0.017130000
| 23> H   1.032320000  -2.090180000  -0.841890000
| 24> O  -1.737840000  -0.885520000  -0.052730000
| 25> H  -2.090180000  -1.032320000   0.841890000
| 26> H  -0.839590000  -1.284090000  -0.017130000
| 27> O   0.741530000  -1.752130000   2.896280000
| 28> H   0.920500000  -2.036450000   1.984040000
| 29> H   1.242140000  -0.921210000   2.984230000
| 30> *
| 31>
| 32>                          ****END OF INPUT****

CARTESIAN COORDINATES (ANGSTROEM)
---------------------------------
  O      1.794470    0.923410    2.768350
  H      2.338250    1.359750    3.430940
  H      0.879480    1.303000    2.865760
  O     -1.794470   -0.923410    2.768350
  H     -2.338250   -1.359750    3.430940
  H     -0.879480   -1.303000    2.865760
  O      0.885520   -1.737840    0.052730
  H      1.284090   -0.839590    0.017130
  H      1.032320   -2.090180   -0.841890
  O     -1.737840   -0.885520   -0.052730
  H     -2.090180   -1.032320    0.841890
  H     -0.839590   -1.284090   -0.017130
  O      0.741530   -1.752130    2.896280
  H      0.920500   -2.036450    1.984040
  H      1.242140   -0.921210    2.984230

 Total Charge           Charge          ....    0
 Multiplicity           Mult            ....    1
 Number of Electrons    NEL             ....   50
 Basis Dimension        Dim             ....  215

ORBITAL ENERGIES
----------------

  NO   OCC          E(Eh)            E(eV)
   0   2.0000     -20.609457      -560.8118
   1   2.0000     -20.600954      -560.5804
   2   2.0000     -20.555500      -559.3436
   3   2.0000     -20.529029      -558.6233
   4   2.0000     -20.491191      -557.5937
   5   2.0000      -1.392618       -37.8951
   6   2.0000      -1.378952       -37.5232
   7   2.0000      -1.347628       -36.6708
   8   2.0000      -1.312694       -35.7202
   9   2.0000      -1.275563       -34.7098
  10   2.0000      -0.751638       -20.4531
  11   2.0000      -0.746168       -20.3043
  12   2.0000      -0.714064       -19.4307
  13   2.0000      -0.696418       -18.9505
  14   2.0000      -0.665158       -18.0999
  15   2.0000      -0.638279       -17.3685
  16   2.0000      -0.615567       -16.7504
  17   2.0000      -0.585244       -15.9253
  18   2.0000      -0.572258       -15.5719
  19   2.0000      -0.547325       -14.8935
  20   2.0000      -0.536031       -14.5862
  21   2.0000      -0.509618       -13.8674
  22   2.0000      -0.495974       -13.4961
  23   2.0000      -0.474244       -12.9048
  24   2.0000      -0.442171       -12.0321
  25   0.0000       0.096074         2.6143
  26   0.0000       0.121787         3.3140
  27   0.0000       0.160686         4.3725
  28   0.0000       0.183784         5.0010
  29   0.0000       0.196083         5.3357

MULLIKEN ATOMIC CHARGES
-----------------------
   0 O :   -0.709469
   1 H :    0.358522
   2 H :    0.374084
   3 O :   -0.740034
   4 H :    0.330933
   5 H :    0.366346
   6 O :   -0.710250
   7 H :    0.370992
   8 H :    0.368873
   9 O :   -0.735575
  10 H :    0.363803
  11 H :    0.330780
  12 O :   -0.714189
  13 H :    0.381139
  14 H :    0.364046
Sum of atomic charges:    0.0000000

LOEWDIN ATOMIC CHARGES
----------------------
   0 O :   -0.313835
   1 H :    0.166574
   2 H :    0.193573
   3 O :   -0.345022
   4 H :    0.150480
   5 H :    0.142019
   6 O :   -0.278469
   7 H :    0.184390
   8 H :    0.178296
   9 O :   -0.373388
  10 H :    0.145228
  11 H :    0.131141
  12 O :   -0.285122
  13 H :    0.155262
  14 H :    0.148873

  Mayer bond orders larger than 0.100000
B(  0-O ,  1-H ) :   0.8384 B(  0-O ,  2-H ) :   0.8200 B(  3-O ,  4-H ) :   0.8534
B(  3-O ,  5-H ) :   0.7564 B(  5-H , 12-O ) :   0.1059 B(  6-O ,  7-H ) :   0.8222
B(  6-O ,  8-H ) :   0.8291 B(  9-O , 10-H ) :   0.8181 B(  9-O , 11-H ) :   0.8299
B( 12-O , 13-H ) :   0.8118 B( 12-O , 14-H ) :   0.8067

MP2 TOTAL ENERGY:     -381.604006211 Eh
FINAL SINGLE POINT ENERGY      -381.604006210757

DIPOLE MOMENT
-------------
                                X             Y             Z
Electronic contribution:      0.35624      -0.00921      -0.03677
Nuclear contribution   :      1.47399       0.45542       0.57908
                        -----------------------------------------
Total Dipole Moment    :      1.83023       0.44621       0.54231
                        -----------------------------------------
Magnitude (a.u.)       :      1.96034
Magnitude (Debye)      :      4.98280

Rotational constants in cm-1:     0.079218     0.053606     0.042836
Rotational constants in MHz :  2374.892836  1607.080137  1284.178472

                             ****ORCA TERMINATED NORMALLY****
TOTAL RUN TIME: 0 days 0 hours 0 minutes 42 seconds 596 msec
