                         Program Version 4.2.0 -  RELEASE  -
|  1> # 12h2o.su.etal.mol0,4,9,10
|  2> ! MP2 def2-TZVP EnGrad TightSCF
|  3>
|  4> %pal
|  5>     nprocs 6
|  6> end
|  7>
|  8> %maxcore 8000
|  9>
| 10> %scf
| 11>     ConvForced true
| 12> end
| 13>
| 14> *xyz 0 1
| 15> O   1.794470000   0.923410000   2.768350000
| 16> H   2.338250000   1.359750000   3.430940000
| 17> H   0.879480000   1.303000000   2.865760000
| 18> O  -0.885520000   1.737840000   0.052730000
| 19> H  -1.032320000   2.090180000  -0.841890000
| 20> H  -1.284090000   0.839590000   0.017130000
| 21> O   0.741530000  -1.752130000   2.896280000
| 22> H   0.920500000  -2.036450000   1.984040000
| 23> H   1.242140000  -0.921210000   2.984230000
| 24> O  -0.923410000   1.794470000  -2.768350000
| 25> H  -1.359750000   2.338250000  -3.430940000
| 26> H  -1.303000000   0.879480000  -2.865760000
| 27> *
| 28>
| 29>                          ****END OF INPUT****

CARTESIAN COORDINATES (ANGSTROEM)
---------------------------------
  O      1.794470    0.923410    2.768350
  H      2.338250    1.359750    3.430940
  H      0.879480    1.303000    2.865760
  O     -0.885520    1.737840    0.052730
  H     -1.032320    2.090180   -0.841890
  H     -1.284090    0.839590    0.017130
  O      0.741530   -1.752130    2.896280
  H      0.920500   -2.036450    1.984040
  H      1.242140   -0.921210    2.984230
  O     -0.923410    1.794470   -2.768350
  H     -1.359750    2.338250   -3.430940
  H     -1.303000    0.879480   -2.865760

 Total Charge           Charge          ....    0
 Multiplicity           Mult            ....    1
 Number of Electrons    NEL             ....   40
 Basis Dimension        Dim             ....  172

ORBITAL ENERGIES
----------------

  NO   OCC          E(Eh)            E(eV)
   0   2.0000     -20.593800      -560.3858
   1   2.0000     -20.573331      -559.8288
   2   2.0000     -20.536563      -558.8283
   3   2.0000     -20.524424      -558.4980
   4   2.0000      -1.371609       -37.3234
   5   2.0000      -1.351091       -36.7651
   6   2.0000      -1.315458       -35.7954
   7   2.0000      -1.306679       -35.5565
   8   2.0000      -0.738529       -20.0964
   9   2.0000      -0.718129       -19.5413
  10   2.0000      -0.685073       -18.6418
  11   2.0000      -0.675478       -18.3807
  12   2.0000      -0.608693       -16.5634
  13   2.0000      -0.591540       -16.0966
  14   2.0000      -0.563502       -15.3337
  15   2.0000      -0.547506       -14.8984
  16   2.0000      -0.527825       -14.3629
  17   2.0000      -0.511311       -13.9135
  18   2.0000      -0.482014       -13.1163
  19   2.0000      -0.472173       -12.8485
  20   0.0000       0.099320         2.7026
  21   0.0000       0.124428         3.3859
  22   0.0000       0.156629         4.2621
  23   0.0000       0.177199         4.8218
  24   0.0000       0.194535         5.2936

MULLIKEN ATOMIC CHARGES
-----------------------
   0 O :   -0.694577
   1 H :    0.346990
   2 H :    0.368952
   3 O :   -0.695531
   4 H :    0.366902
   5 H :    0.318715
   6 O :   -0.707440
   7 H :    0.326858
   8 H :    0.357804
   9 O :   -0.689525
  10 H :    0.351246
  11 H :    0.349607
Sum of atomic charges:   -0.0000000

LOEWDIN ATOMIC CHARGES
----------------------
   0 O :   -0.309918
   1 H :    0.161188
   2 H :    0.191111
   3 O :   -0.347626
   4 H :    0.149487
   5 H :    0.162228
   6 O :   -0.350589
   7 H :    0.159158
   8 H :    0.147331
   9 O :   -0.308910
  10 H :    0.162953
  11 H :    0.183586

  Mayer bond orders larger than 0.100000
B(  0-O ,  1-H ) :   0.8446 B(  0-O ,  2-H ) :   0.8236 B(  3-O ,  4-H ) :   0.8197
B(  3-O ,  5-H ) :   0.8605 B(  6-O ,  7-H ) :   0.8597 B(  6-O ,  8-H ) :   0.8156
B(  9-O , 10-H ) :   0.8422 B(  9-O , 11-H ) :   0.8375

MP2 TOTAL ENERGY:     -305.265632331 Eh
FINAL SINGLE POINT ENERGY      -305.265632330529

DIPOLE MOMENT
-------------
                                X             Y             Z
Electronic contribution:      0.21992       0.21078       0.02268
Nuclear contribution   :     -0.87642       0.37074      -1.46039
                        -----------------------------------------
Total Dipole Moment    :     -0.65650       0.58152      -1.43770
                        -----------------------------------------
Magnitude (a.u.)       :      1.68409
Magnitude (Debye)      :      4.28060

Rotational constants in cm-1:     0.177369     0.029620     0.026902
Rotational constants in MHz :  5317.378657   887.985161   806.490781

                             ****ORCA TERMINATED NORMALLY****
TOTAL RUN TIME: 0 days 0 hours 0 minutes 24 seconds 860 msec
