                         Program Version 4.2.0 -  RELEASE  -
|  1> # 12mecn.remya.etal.2.mol2,7,8
|  2> ! MP2 def2-TZVP EnGrad TightSCF
|  3>
|  4> %pal
|  5>     nprocs 6
|  6> end
|  7>
|  8> %maxcore 8000
|  9>
| 10> %scf
| 11>     ConvForced true
| 12> end
| 13>
| 14> *xyz 0 1
| 15> C  -4.219070000  -3.477410000  -1.501740000
| 16> H  -3.251530000  -3.803540000  -1.893830000
| 17> H  -4.452920000  -2.481700000  -1.890840000
| 18> H  -4.992170000  -4.178130000  -1.824640000
| 19> C  -4.154550000  -3.418790000  -0.058340000
| 20> N  -4.091140000  -3.354840000   1.104432000
| 21> C   1.502241000   0.651296000   1.710523000
| 22> H   1.309219000   1.637164000   2.143202000
| 23> H   2.493408000   0.297996000   2.009069000
| 24> H   0.746597000  -0.059850000   2.055508000
| 25> C   1.447974000   0.738517000   0.269805000
| 26> N   1.405612000   0.808047000  -0.894380000
| 27> C   1.912641000  -2.468050000  -1.750510000
| 28> H   2.876947000  -2.793500000  -2.151200000
| 29> H   1.688016000  -1.463720000  -2.122170000
| 30> H   1.123460000  -3.154780000  -2.069590000
| 31> C   1.977850000  -2.444240000  -0.306900000
| 32> N   2.036566000  -2.426130000   0.858249000
| 33> *
| 34>
| 35>                          ****END OF INPUT****

CARTESIAN COORDINATES (ANGSTROEM)
---------------------------------
  C     -4.219070   -3.477410   -1.501740
  H     -3.251530   -3.803540   -1.893830
  H     -4.452920   -2.481700   -1.890840
  H     -4.992170   -4.178130   -1.824640
  C     -4.154550   -3.418790   -0.058340
  N     -4.091140   -3.354840    1.104432
  C      1.502241    0.651296    1.710523
  H      1.309219    1.637164    2.143202
  H      2.493408    0.297996    2.009069
  H      0.746597   -0.059850    2.055508
  C      1.447974    0.738517    0.269805
  N      1.405612    0.808047   -0.894380
  C      1.912641   -2.468050   -1.750510
  H      2.876947   -2.793500   -2.151200
  H      1.688016   -1.463720   -2.122170
  H      1.123460   -3.154780   -2.069590
  C      1.977850   -2.444240   -0.306900
  N      2.036566   -2.426130    0.858249

 Total Charge           Charge          ....    0
 Multiplicity           Mult            ....    1
 Number of Electrons    NEL             ....   66
 Basis Dimension        Dim             ....  333

ORBITAL ENERGIES
----------------

  NO   OCC          E(Eh)            E(eV)
   0   2.0000     -15.573691      -423.7817
   1   2.0000     -15.570818      -423.7035
   2   2.0000     -15.568395      -423.6376
   3   2.0000     -11.286398      -307.1185
   4   2.0000     -11.281986      -306.9984
   5   2.0000     -11.280839      -306.9672
   6   2.0000     -11.280521      -306.9586
   7   2.0000     -11.275082      -306.8106
   8   2.0000     -11.270337      -306.6815
   9   2.0000      -1.216709       -33.1083
  10   2.0000      -1.215244       -33.0685
  11   2.0000      -1.211883       -32.9770
  12   2.0000      -1.044718       -28.4282
  13   2.0000      -1.037375       -28.2284
  14   2.0000      -1.032494       -28.0956
  15   2.0000      -0.701516       -19.0892
  16   2.0000      -0.694427       -18.8963
  17   2.0000      -0.688484       -18.7346
  18   2.0000      -0.633123       -17.2281
  19   2.0000      -0.632210       -17.2033
  20   2.0000      -0.629264       -17.1232
  21   2.0000      -0.626209       -17.0400
  22   2.0000      -0.618157       -16.8209
  23   2.0000      -0.615564       -16.7503
  24   2.0000      -0.557655       -15.1746
  25   2.0000      -0.556371       -15.1396
  26   2.0000      -0.554709       -15.0944
  27   2.0000      -0.462755       -12.5922
  28   2.0000      -0.458455       -12.4752
  29   2.0000      -0.458256       -12.4698
  30   2.0000      -0.458142       -12.4667
  31   2.0000      -0.455093       -12.3837
  32   2.0000      -0.450377       -12.2554
  33   0.0000       0.105165         2.8617
  34   0.0000       0.130888         3.5616
  35   0.0000       0.143017         3.8917
  36   0.0000       0.165486         4.5031
  37   0.0000       0.170508         4.6397

MULLIKEN ATOMIC CHARGES
-----------------------
   0 C :   -0.279204
   1 H :    0.167747
   2 H :    0.173913
   3 H :    0.172586
   4 C :   -0.145415
   5 N :   -0.089619
   6 C :   -0.257478
   7 H :    0.170720
   8 H :    0.175670
   9 H :    0.182742
  10 C :   -0.121707
  11 N :   -0.149494
  12 C :   -0.286648
  13 H :    0.167650
  14 H :    0.204484
  15 H :    0.160598
  16 C :   -0.111971
  17 N :   -0.134574
Sum of atomic charges:    0.0000000

LOEWDIN ATOMIC CHARGES
----------------------
   0 C :   -0.284142
   1 H :    0.151478
   2 H :    0.153505
   3 H :    0.151125
   4 C :   -0.219509
   5 N :    0.047545
   6 C :   -0.283663
   7 H :    0.149902
   8 H :    0.156970
   9 H :    0.158345
  10 C :   -0.211145
  11 N :    0.025653
  12 C :   -0.282875
  13 H :    0.152362
  14 H :    0.156835
  15 H :    0.149608
  16 C :   -0.210375
  17 N :    0.038380

  Mayer bond orders larger than 0.100000
B(  0-C ,  1-H ) :   0.9174 B(  0-C ,  2-H ) :   0.9162 B(  0-C ,  3-H ) :   0.9166
B(  0-C ,  4-C ) :   0.9024 B(  4-C ,  5-N ) :   2.8359 B(  6-C ,  7-H ) :   0.9098
B(  6-C ,  8-H ) :   0.9126 B(  6-C ,  9-H ) :   0.9111 B(  6-C , 10-C ) :   0.9111
B( 10-C , 11-N ) :   2.7841 B( 12-C , 13-H ) :   0.9155 B( 12-C , 14-H ) :   0.9039
B( 12-C , 15-H ) :   0.9176 B( 12-C , 16-C ) :   0.8988 B( 16-C , 17-N ) :   2.7904

MP2 TOTAL ENERGY:     -397.458896759 Eh
FINAL SINGLE POINT ENERGY      -397.458896758729

DIPOLE MOMENT
-------------
                                X             Y             Z
Electronic contribution:      0.15875       0.36573       3.19450
Nuclear contribution   :     -0.25109      -0.54945      -4.66283
                        -----------------------------------------
Total Dipole Moment    :     -0.09234      -0.18373      -1.46833
                        -----------------------------------------
Magnitude (a.u.)       :      1.48265
Magnitude (Debye)      :      3.76860

Rotational constants in cm-1:     0.045047     0.013161     0.012149
Rotational constants in MHz :  1350.485361   394.549009   364.219184

                             ****ORCA TERMINATED NORMALLY****
TOTAL RUN TIME: 0 days 0 hours 2 minutes 59 seconds 697 msec
