                         Program Version 4.2.0 -  RELEASE  -
|  1> # 12h2o.su.etal.mol1,4,8
|  2> ! MP2 def2-TZVP EnGrad TightSCF
|  3>
|  4> %pal
|  5>     nprocs 6
|  6> end
|  7>
|  8> %maxcore 8000
|  9>
| 10> %scf
| 11>     ConvForced true
| 12> end
| 13>
| 14> *xyz 0 1
| 15> O  -1.794470000  -0.923410000   2.768350000
| 16> H  -2.338250000  -1.359750000   3.430940000
| 17> H  -0.879480000  -1.303000000   2.865760000
| 18> O  -0.885520000   1.737840000   0.052730000
| 19> H  -1.032320000   2.090180000  -0.841890000
| 20> H  -1.284090000   0.839590000   0.017130000
| 21> O   1.752130000   0.741530000  -2.896280000
| 22> H   2.036450000   0.920500000  -1.984040000
| 23> H   0.921210000   1.242140000  -2.984230000
| 24> *
| 25>
| 26>                          ****END OF INPUT****

CARTESIAN COORDINATES (ANGSTROEM)
---------------------------------
  O     -1.794470   -0.923410    2.768350
  H     -2.338250   -1.359750    3.430940
  H     -0.879480   -1.303000    2.865760
  O     -0.885520    1.737840    0.052730
  H     -1.032320    2.090180   -0.841890
  H     -1.284090    0.839590    0.017130
  O      1.752130    0.741530   -2.896280
  H      2.036450    0.920500   -1.984040
  H      0.921210    1.242140   -2.984230

 Total Charge           Charge          ....    0
 Multiplicity           Mult            ....    1
 Number of Electrons    NEL             ....   30
 Basis Dimension        Dim             ....  129

ORBITAL ENERGIES
----------------

  NO   OCC          E(Eh)            E(eV)
   0   2.0000     -20.567551      -559.6715
   1   2.0000     -20.564497      -559.5884
   2   2.0000     -20.562102      -559.5232
   3   2.0000      -1.342820       -36.5400
   4   2.0000      -1.341315       -36.4990
   5   2.0000      -1.340198       -36.4687
   6   2.0000      -0.711330       -19.3563
   7   2.0000      -0.704295       -19.1648
   8   2.0000      -0.701806       -19.0971
   9   2.0000      -0.580066       -15.7844
  10   2.0000      -0.579136       -15.7591
  11   2.0000      -0.578103       -15.7310
  12   2.0000      -0.510694       -13.8967
  13   2.0000      -0.507732       -13.8161
  14   2.0000      -0.505381       -13.7521
  15   0.0000       0.098629         2.6838
  16   0.0000       0.121391         3.3032
  17   0.0000       0.170330         4.6349
  18   0.0000       0.185935         5.0596
  19   0.0000       0.197544         5.3754

MULLIKEN ATOMIC CHARGES
-----------------------
   0 O :   -0.683600
   1 H :    0.340801
   2 H :    0.344806
   3 O :   -0.673786
   4 H :    0.323914
   5 H :    0.349982
   6 O :   -0.672709
   7 H :    0.342700
   8 H :    0.327893
Sum of atomic charges:   -0.0000000

LOEWDIN ATOMIC CHARGES
----------------------
   0 O :   -0.338858
   1 H :    0.159017
   2 H :    0.181798
   3 O :   -0.334843
   4 H :    0.158277
   5 H :    0.176492
   6 O :   -0.330545
   7 H :    0.167034
   8 H :    0.161628

  Mayer bond orders larger than 0.100000
B(  0-O ,  1-H ) :   0.8518 B(  0-O ,  2-H ) :   0.8441 B(  3-O ,  4-H ) :   0.8588
B(  3-O ,  5-H ) :   0.8413 B(  6-O ,  7-H ) :   0.8493 B(  6-O ,  8-H ) :   0.8576

MP2 TOTAL ENERGY:     -228.939708835 Eh
FINAL SINGLE POINT ENERGY      -228.939708835052

DIPOLE MOMENT
-------------
                                X             Y             Z
Electronic contribution:      0.07811       0.06576      -0.00919
Nuclear contribution   :     -0.59993      -0.56789       0.54442
                        -----------------------------------------
Total Dipole Moment    :     -0.52182      -0.50213       0.53524
                        -----------------------------------------
Magnitude (a.u.)       :      0.90051
Magnitude (Debye)      :      2.28891

Rotational constants in cm-1:     0.323872     0.039198     0.035232
Rotational constants in MHz :  9709.444136  1175.115419  1056.234744

                             ****ORCA TERMINATED NORMALLY****
TOTAL RUN TIME: 0 days 0 hours 0 minutes 21 seconds 320 msec
