                         Program Version 4.2.0 -  RELEASE  -
|  1> # 12h2o.su.etal.mol0,1,2,3,5,7,8,9,10
|  2> ! MP2 def2-TZVP EnGrad TightSCF
|  3>
|  4> %pal
|  5>     nprocs 6
|  6> end
|  7>
|  8> %maxcore 8000
|  9>
| 10> %scf
| 11>     ConvForced true
| 12> end
| 13>
| 14> *xyz 0 1
| 15> O   1.794470000   0.923410000   2.768350000
| 16> H   2.338250000   1.359750000   3.430940000
| 17> H   0.879480000   1.303000000   2.865760000
| 18> O  -1.794470000  -0.923410000   2.768350000
| 19> H  -2.338250000  -1.359750000   3.430940000
| 20> H  -0.879480000  -1.303000000   2.865760000
| 21> O   0.923410000  -1.794470000  -2.768350000
| 22> H   1.359750000  -2.338250000  -3.430940000
| 23> H   1.303000000  -0.879480000  -2.865760000
| 24> O  -1.752130000  -0.741530000  -2.896280000
| 25> H  -2.036450000  -0.920500000  -1.984040000
| 26> H  -0.921210000  -1.242140000  -2.984230000
| 27> O   0.885520000  -1.737840000   0.052730000
| 28> H   1.284090000  -0.839590000   0.017130000
| 29> H   1.032320000  -2.090180000  -0.841890000
| 30> O  -1.737840000  -0.885520000  -0.052730000
| 31> H  -2.090180000  -1.032320000   0.841890000
| 32> H  -0.839590000  -1.284090000  -0.017130000
| 33> O   1.752130000   0.741530000  -2.896280000
| 34> H   2.036450000   0.920500000  -1.984040000
| 35> H   0.921210000   1.242140000  -2.984230000
| 36> O   0.741530000  -1.752130000   2.896280000
| 37> H   0.920500000  -2.036450000   1.984040000
| 38> H   1.242140000  -0.921210000   2.984230000
| 39> O  -0.923410000   1.794470000  -2.768350000
| 40> H  -1.359750000   2.338250000  -3.430940000
| 41> H  -1.303000000   0.879480000  -2.865760000
| 42> *
| 43>
| 44>                          ****END OF INPUT****

CARTESIAN COORDINATES (ANGSTROEM)
---------------------------------
  O      1.794470    0.923410    2.768350
  H      2.338250    1.359750    3.430940
  H      0.879480    1.303000    2.865760
  O     -1.794470   -0.923410    2.768350
  H     -2.338250   -1.359750    3.430940
  H     -0.879480   -1.303000    2.865760
  O      0.923410   -1.794470   -2.768350
  H      1.359750   -2.338250   -3.430940
  H      1.303000   -0.879480   -2.865760
  O     -1.752130   -0.741530   -2.896280
  H     -2.036450   -0.920500   -1.984040
  H     -0.921210   -1.242140   -2.984230
  O      0.885520   -1.737840    0.052730
  H      1.284090   -0.839590    0.017130
  H      1.032320   -2.090180   -0.841890
  O     -1.737840   -0.885520   -0.052730
  H     -2.090180   -1.032320    0.841890
  H     -0.839590   -1.284090   -0.017130
  O      1.752130    0.741530   -2.896280
  H      2.036450    0.920500   -1.984040
  H      0.921210    1.242140   -2.984230
  O      0.741530   -1.752130    2.896280
  H      0.920500   -2.036450    1.984040
  H      1.242140   -0.921210    2.984230
  O     -0.923410    1.794470   -2.768350
  H     -1.359750    2.338250   -3.430940
  H     -1.303000    0.879480   -2.865760

 Total Charge           Charge          ....    0
 Multiplicity           Mult            ....    1
 Number of Electrons    NEL             ....   90
 Basis Dimension        Dim             ....  387

ORBITAL ENERGIES
----------------

  NO   OCC          E(Eh)            E(eV)
   0   2.0000     -20.601713      -560.6011
   1   2.0000     -20.589203      -560.2607
   2   2.0000     -20.581341      -560.0468
   3   2.0000     -20.576415      -559.9127
   4   2.0000     -20.553637      -559.2929
   5   2.0000     -20.534737      -558.7786
   6   2.0000     -20.533461      -558.7439
   7   2.0000     -20.532909      -558.7289
   8   2.0000     -20.512074      -558.1619
   9   2.0000      -1.381220       -37.5849
  10   2.0000      -1.379469       -37.5373
  11   2.0000      -1.373441       -37.3732
  12   2.0000      -1.355723       -36.8911
  13   2.0000      -1.346042       -36.6277
  14   2.0000      -1.331969       -36.2447
  15   2.0000      -1.316810       -35.8322
  16   2.0000      -1.311599       -35.6904
  17   2.0000      -1.295726       -35.2585
  18   2.0000      -0.746861       -20.3231
  19   2.0000      -0.743846       -20.2411
  20   2.0000      -0.737827       -20.0773
  21   2.0000      -0.731553       -19.9066
  22   2.0000      -0.711001       -19.3473
  23   2.0000      -0.699784       -19.0421
  24   2.0000      -0.697174       -18.9711
  25   2.0000      -0.693320       -18.8662
  26   2.0000      -0.678245       -18.4560
  27   2.0000      -0.641572       -17.4581
  28   2.0000      -0.626363       -17.0442
  29   2.0000      -0.612198       -16.6587
  30   2.0000      -0.594617       -16.1803
  31   2.0000      -0.589417       -16.0389
  32   2.0000      -0.581534       -15.8243
  33   2.0000      -0.571394       -15.5484
  34   2.0000      -0.554067       -15.0769
  35   2.0000      -0.542733       -14.7685
  36   2.0000      -0.534588       -14.5469
  37   2.0000      -0.523744       -14.2518
  38   2.0000      -0.520574       -14.1655
  39   2.0000      -0.515080       -14.0160
  40   2.0000      -0.495668       -13.4878
  41   2.0000      -0.485919       -13.2225
  42   2.0000      -0.482527       -13.1302
  43   2.0000      -0.478025       -13.0077
  44   2.0000      -0.463517       -12.6129
  45   0.0000       0.089649         2.4395
  46   0.0000       0.114587         3.1181
  47   0.0000       0.145160         3.9500
  48   0.0000       0.155920         4.2428
  49   0.0000       0.161512         4.3950

MULLIKEN ATOMIC CHARGES
-----------------------
   0 O :   -0.710187
   1 H :    0.358688
   2 H :    0.374251
   3 O :   -0.742220
   4 H :    0.332618
   5 H :    0.370181
   6 O :   -0.757793
   7 H :    0.354774
   8 H :    0.382361
   9 O :   -0.728327
  10 H :    0.391370
  11 H :    0.360016
  12 O :   -0.722603
  13 H :    0.346732
  14 H :    0.390736
  15 O :   -0.748937
  16 H :    0.371034
  17 H :    0.343503
  18 O :   -0.705012
  19 H :    0.344983
  20 H :    0.384975
  21 O :   -0.717234
  22 H :    0.384578
  23 H :    0.363694
  24 O :   -0.745703
  25 H :    0.336832
  26 H :    0.386693
Sum of atomic charges:   -0.0000000

LOEWDIN ATOMIC CHARGES
----------------------
   0 O :   -0.314262
   1 H :    0.166597
   2 H :    0.193621
   3 O :   -0.344951
   4 H :    0.151495
   5 H :    0.142784
   6 O :   -0.314947
   7 H :    0.161216
   8 H :    0.145656
   9 O :   -0.291094
  10 H :    0.158707
  11 H :    0.145593
  12 O :   -0.283526
  13 H :    0.171797
  14 H :    0.157064
  15 O :   -0.350270
  16 H :    0.150041
  17 H :    0.136689
  18 O :   -0.280520
  19 H :    0.165594
  20 H :    0.157401
  21 O :   -0.286707
  22 H :    0.155179
  23 H :    0.148549
  24 O :   -0.341905
  25 H :    0.153695
  26 H :    0.146503

  Mayer bond orders larger than 0.100000
B(  0-O ,  1-H ) :   0.8382 B(  0-O ,  2-H ) :   0.8200 B(  3-O ,  4-H ) :   0.8528
B(  3-O ,  5-H ) :   0.7528 B(  5-H , 21-O ) :   0.1092 B(  6-O ,  7-H ) :   0.8385
B(  6-O ,  8-H ) :   0.7327 B(  8-H , 18-O ) :   0.1151 B(  9-O , 10-H ) :   0.7885
B(  9-O , 11-H ) :   0.8112 B(  9-O , 26-H ) :   0.1183 B( 12-O , 13-H ) :   0.8342
B( 12-O , 14-H ) :   0.7851 B( 15-O , 16-H ) :   0.8061 B( 15-O , 17-H ) :   0.7976
B( 18-O , 19-H ) :   0.8452 B( 18-O , 20-H ) :   0.7674 B( 21-O , 22-H ) :   0.8066
B( 21-O , 23-H ) :   0.8077 B( 24-O , 25-H ) :   0.8504 B( 24-O , 26-H ) :   0.7364

MP2 TOTAL ENERGY:     -686.924683477 Eh
FINAL SINGLE POINT ENERGY      -686.924683477465

DIPOLE MOMENT
-------------
                                X             Y             Z
Electronic contribution:      0.24323      -0.02572      -0.05754
Nuclear contribution   :      1.47399       0.45542       0.68611
                        -----------------------------------------
Total Dipole Moment    :      1.71722       0.42970       0.62856
                        -----------------------------------------
Magnitude (a.u.)       :      1.87845
Magnitude (Debye)      :      4.77464

Rotational constants in cm-1:     0.029206     0.013498     0.012386
Rotational constants in MHz :   875.574023   404.654378   371.326686

                             ****ORCA TERMINATED NORMALLY****
TOTAL RUN TIME: 0 days 0 hours 4 minutes 28 seconds 779 msec
