                         Program Version 3.0.3 - RELEASE   -
|  1> ! B3LYP Def2-TZVP def2-TZVP/J RIJCOSX TightSCF Grid4 D3BJ COSMO
|  2>
|  3> %pal nprocs 12 end
|  4>
|  5> %scf
|  6>         maxiter 400
|  7> end
|  8>
|  9> %cosmo
| 10>         SMD true
| 11>         solvent "WATER"
| 12> end
| 13>
| 14> * xyz  0  1
| 15> O  1.137516	-0.247546	1.017017
| 16> H  0.393060	-0.141760	0.363809
| 17> H  1.875978	-0.514251	0.436152
| 18> O  -0.908444	0.078874	-0.820433
| 19> H  -0.938282	1.053868	-0.899676
| 20> H  -1.710116	-0.113757	-0.293098
| 21> **                         ****END OF INPUT****

CARTESIAN COORDINATES (ANGSTROEM)
---------------------------------
  O      1.137516   -0.247546    1.017017
  H      0.393060   -0.141760    0.363809
  H      1.875978   -0.514251    0.436152
  O     -0.908444    0.078874   -0.820433
  H     -0.938282    1.053868   -0.899676
  H     -1.710116   -0.113757   -0.293098

 Total Charge           Charge          ....    0
 Multiplicity           Mult            ....    1
 Number of Electrons    NEL             ....   20
 Basis Dimension        Dim             ....   86

ORBITAL ENERGIES
----------------

  NO   OCC          E(Eh)            E(eV)
   0   2.0000     -19.140501      -520.8395
   1   2.0000     -19.110121      -520.0128
   2   2.0000      -1.019248       -27.7352
   3   2.0000      -0.986952       -26.8563
   4   2.0000      -0.526443       -14.3253
   5   2.0000      -0.505700       -13.7608
   6   2.0000      -0.417346       -11.3566
   7   2.0000      -0.386099       -10.5063
   8   2.0000      -0.327405        -8.9091
   9   2.0000      -0.308113        -8.3842
  10   0.0000       0.026888         0.7317
  11   0.0000       0.074668         2.0318
  12   0.0000       0.115044         3.1305
  13   0.0000       0.198146         5.3918
  14   0.0000       0.324397         8.8273

MULLIKEN ATOMIC CHARGES
-----------------------
   0 O :   -0.784486
   1 H :    0.360699
   2 H :    0.369087
   3 O :   -0.724518
   4 H :    0.389180
   5 H :    0.390038
Sum of atomic charges:   -0.0000000

LOEWDIN ATOMIC CHARGES
----------------------
   0 O :   -0.409889
   1 H :    0.147294
   2 H :    0.179137
   3 O :   -0.306588
   4 H :    0.194648
   5 H :    0.195399

  Mayer bond orders larger than 0.1
B(  0-O ,  1-H ) :   0.8091 B(  0-O ,  2-H ) :   0.8731 B(  1-H ,  3-O ) :   0.1215
B(  3-O ,  4-H ) :   0.8544 B(  3-O ,  5-H ) :   0.8544

Dispersion correction           -0.002315681
FINAL SINGLE POINT ENERGY      -152.884301659574

DIPOLE MOMENT
-------------
                                X             Y             Z
Electronic contribution:     -0.20619       0.03615      -0.16692
Nuclear contribution   :     -0.69711       0.51727      -0.65422
                        -----------------------------------------
Total Dipole Moment    :     -0.90329       0.55342      -0.82114
                        -----------------------------------------
Magnitude (a.u.)       :      1.34033
Magnitude (Debye)      :      3.40685

                             ****ORCA TERMINATED NORMALLY****
TOTAL RUN TIME: 0 days 0 hours 0 minutes 50 seconds 161 msec
