                         Program Version 3.0.3 - RELEASE   -
|  1> ! wB97X-D3 MA-Def2-TZVP def2-TZVP/J RIJCOSX TightSCF Grid4
|  2>
|  3> %pal nprocs 1 end
|  4>
|  5> %scf
|  6>         maxiter 400
|  7> end
|  8>
|  9> * xyz  0  1
| 10> O  1.119114	-0.133853	0.975252
| 11> H  0.482644	-0.131862	0.221763
| 12> H  1.867213	-0.640830	0.611010
| 13> O  -0.988983	0.115575	-0.927867
| 14> H  -0.993867	1.086528	-0.818014
| 15> H  -1.636408	-0.180130	-0.258373
| 16> **                         ****END OF INPUT****

CARTESIAN COORDINATES (ANGSTROEM)
---------------------------------
  O      1.119114   -0.133853    0.975252
  H      0.482644   -0.131862    0.221763
  H      1.867213   -0.640830    0.611010
  O     -0.988983    0.115575   -0.927867
  H     -0.993867    1.086528   -0.818014
  H     -1.636408   -0.180130   -0.258373

 Total Charge           Charge          ....    0
 Multiplicity           Mult            ....    1
 Number of Electrons    NEL             ....   20
 Basis Dimension        Dim             ....   94

ORBITAL ENERGIES
----------------

  NO   OCC          E(Eh)            E(eV)
   0   2.0000     -19.270185      -524.3684
   1   2.0000     -19.215263      -522.8739
   2   2.0000      -1.156817       -31.4786
   3   2.0000      -1.100631       -29.9497
   4   2.0000      -0.654607       -17.8128
   5   2.0000      -0.607554       -16.5324
   6   2.0000      -0.527797       -14.3621
   7   2.0000      -0.481872       -13.1124
   8   2.0000      -0.439555       -11.9609
   9   2.0000      -0.396485       -10.7889
  10   0.0000       0.060662         1.6507
  11   0.0000       0.108101         2.9416
  12   0.0000       0.126519         3.4427
  13   0.0000       0.141054         3.8383
  14   0.0000       0.166318         4.5257

MULLIKEN ATOMIC CHARGES
-----------------------
   0 O :   -0.689346
   1 H :    0.332564
   2 H :    0.323647
   3 O :   -0.687072
   4 H :    0.360177
   5 H :    0.360030
Sum of atomic charges:   -0.0000000

LOEWDIN ATOMIC CHARGES
----------------------
   0 O :   -0.410480
   1 H :    0.180599
   2 H :    0.186079
   3 O :   -0.356902
   4 H :    0.200290
   5 H :    0.200414

  Mayer bond orders larger than 0.1
B(  0-O ,  1-H ) :   0.8617 B(  0-O ,  2-H ) :   0.9017 B(  3-O ,  4-H ) :   0.8882
B(  3-O ,  5-H ) :   0.8883

Dispersion correction           -0.000547535
FINAL SINGLE POINT ENERGY      -152.887541964520

DIPOLE MOMENT
-------------
                                X             Y             Z
Electronic contribution:     -0.09892       0.00252      -0.09542
Nuclear contribution   :     -0.45004       0.14172      -0.28166
                        -----------------------------------------
Total Dipole Moment    :     -0.54896       0.14424      -0.37708
                        -----------------------------------------
Magnitude (a.u.)       :      0.68143
Magnitude (Debye)      :      1.73207

                             ****ORCA TERMINATED NORMALLY****
TOTAL RUN TIME: 0 days 0 hours 0 minutes 16 seconds 947 msec
