                         Program Version 3.0.3 - RELEASE   -
|  1> ! wB97X-D3 MA-Def2-TZVP def2-TZVP/J RIJCOSX TightSCF Grid4
|  2>
|  3> %pal nprocs 1 end
|  4>
|  5> %scf
|  6>         maxiter 400
|  7> end
|  8>
|  9> * xyz  0  1
| 10> O  1.171575	-0.281205	1.044558
| 11> H  0.443848	-0.149509	0.409290
| 12> H  1.906579	-0.523423	0.465880
| 13> O  -0.925475	0.124486	-0.824605
| 14> H  -1.030347	1.076329	-0.963014
| 15> H  -1.716467	-0.131250	-0.328337
| 16> **                         ****END OF INPUT****

CARTESIAN COORDINATES (ANGSTROEM)
---------------------------------
  O      1.171575   -0.281205    1.044558
  H      0.443848   -0.149509    0.409290
  H      1.906579   -0.523423    0.465880
  O     -0.925475    0.124486   -0.824605
  H     -1.030347    1.076329   -0.963014
  H     -1.716467   -0.131250   -0.328337

 Total Charge           Charge          ....    0
 Multiplicity           Mult            ....    1
 Number of Electrons    NEL             ....   20
 Basis Dimension        Dim             ....   94

ORBITAL ENERGIES
----------------

  NO   OCC          E(Eh)            E(eV)
   0   2.0000     -19.270709      -524.3827
   1   2.0000     -19.206012      -522.6222
   2   2.0000      -1.161822       -31.6148
   3   2.0000      -1.097179       -29.8558
   4   2.0000      -0.663406       -18.0522
   5   2.0000      -0.605000       -16.4629
   6   2.0000      -0.530543       -14.4368
   7   2.0000      -0.474935       -12.9236
   8   2.0000      -0.440913       -11.9979
   9   2.0000      -0.389568       -10.6007
  10   0.0000       0.059050         1.6068
  11   0.0000       0.112718         3.0672
  12   0.0000       0.126026         3.4293
  13   0.0000       0.142000         3.8640
  14   0.0000       0.168049         4.5729

MULLIKEN ATOMIC CHARGES
-----------------------
   0 O :   -0.684507
   1 H :    0.352098
   2 H :    0.320857
   3 O :   -0.698291
   4 H :    0.355118
   5 H :    0.354725
Sum of atomic charges:   -0.0000000

LOEWDIN ATOMIC CHARGES
----------------------
   0 O :   -0.398036
   1 H :    0.175080
   2 H :    0.180491
   3 O :   -0.345936
   4 H :    0.193504
   5 H :    0.194897

  Mayer bond orders larger than 0.1
B(  0-O ,  1-H ) :   0.8690 B(  0-O ,  2-H ) :   0.9043 B(  3-O ,  4-H ) :   0.8888
B(  3-O ,  5-H ) :   0.8890

Dispersion correction           -0.000541193
FINAL SINGLE POINT ENERGY      -152.888982784086

DIPOLE MOMENT
-------------
                                X             Y             Z
Electronic contribution:     -0.06822      -0.04250      -0.03272
Nuclear contribution   :     -0.73962       0.48742      -0.71257
                        -----------------------------------------
Total Dipole Moment    :     -0.80785       0.44491      -0.74529
                        -----------------------------------------
Magnitude (a.u.)       :      1.18576
Magnitude (Debye)      :      3.01396

                             ****ORCA TERMINATED NORMALLY****
TOTAL RUN TIME: 0 days 0 hours 0 minutes 20 seconds 501 msec
