                         Program Version 4.2.0 -  RELEASE  -
|  1> # 12h2o.su.etal.mol1,3,4,9,10
|  2> ! MP2 def2-TZVP EnGrad TightSCF
|  3>
|  4> %pal
|  5>     nprocs 6
|  6> end
|  7>
|  8> %maxcore 8000
|  9>
| 10> %scf
| 11>     ConvForced true
| 12> end
| 13>
| 14> *xyz 0 1
| 15> O  -1.794470000  -0.923410000   2.768350000
| 16> H  -2.338250000  -1.359750000   3.430940000
| 17> H  -0.879480000  -1.303000000   2.865760000
| 18> O  -1.752130000  -0.741530000  -2.896280000
| 19> H  -2.036450000  -0.920500000  -1.984040000
| 20> H  -0.921210000  -1.242140000  -2.984230000
| 21> O  -0.885520000   1.737840000   0.052730000
| 22> H  -1.032320000   2.090180000  -0.841890000
| 23> H  -1.284090000   0.839590000   0.017130000
| 24> O   0.741530000  -1.752130000   2.896280000
| 25> H   0.920500000  -2.036450000   1.984040000
| 26> H   1.242140000  -0.921210000   2.984230000
| 27> O  -0.923410000   1.794470000  -2.768350000
| 28> H  -1.359750000   2.338250000  -3.430940000
| 29> H  -1.303000000   0.879480000  -2.865760000
| 30> *
| 31>
| 32>                          ****END OF INPUT****

CARTESIAN COORDINATES (ANGSTROEM)
---------------------------------
  O     -1.794470   -0.923410    2.768350
  H     -2.338250   -1.359750    3.430940
  H     -0.879480   -1.303000    2.865760
  O     -1.752130   -0.741530   -2.896280
  H     -2.036450   -0.920500   -1.984040
  H     -0.921210   -1.242140   -2.984230
  O     -0.885520    1.737840    0.052730
  H     -1.032320    2.090180   -0.841890
  H     -1.284090    0.839590    0.017130
  O      0.741530   -1.752130    2.896280
  H      0.920500   -2.036450    1.984040
  H      1.242140   -0.921210    2.984230
  O     -0.923410    1.794470   -2.768350
  H     -1.359750    2.338250   -3.430940
  H     -1.303000    0.879480   -2.865760

 Total Charge           Charge          ....    0
 Multiplicity           Mult            ....    1
 Number of Electrons    NEL             ....   50
 Basis Dimension        Dim             ....  215

ORBITAL ENERGIES
----------------

  NO   OCC          E(Eh)            E(eV)
   0   2.0000     -20.612230      -560.8873
   1   2.0000     -20.599434      -560.5391
   2   2.0000     -20.543978      -559.0301
   3   2.0000     -20.520901      -558.4021
   4   2.0000     -20.519897      -558.3748
   5   2.0000      -1.397628       -38.0314
   6   2.0000      -1.384694       -37.6794
   7   2.0000      -1.329151       -36.1680
   8   2.0000      -1.303157       -35.4607
   9   2.0000      -1.298284       -35.3281
  10   2.0000      -0.754751       -20.5378
  11   2.0000      -0.742267       -20.1981
  12   2.0000      -0.715711       -19.4755
  13   2.0000      -0.693990       -18.8844
  14   2.0000      -0.667720       -18.1696
  15   2.0000      -0.634082       -17.2542
  16   2.0000      -0.619693       -16.8627
  17   2.0000      -0.581141       -15.8136
  18   2.0000      -0.560485       -15.2516
  19   2.0000      -0.548415       -14.9231
  20   2.0000      -0.530439       -14.4340
  21   2.0000      -0.517005       -14.0684
  22   2.0000      -0.489961       -13.3325
  23   2.0000      -0.471164       -12.8210
  24   2.0000      -0.465530       -12.6677
  25   0.0000       0.087586         2.3833
  26   0.0000       0.113169         3.0795
  27   0.0000       0.159876         4.3504
  28   0.0000       0.160827         4.3763
  29   0.0000       0.175962         4.7882

MULLIKEN ATOMIC CHARGES
-----------------------
   0 O :   -0.728556
   1 H :    0.324887
   2 H :    0.363027
   3 O :   -0.675078
   4 H :    0.358847
   5 H :    0.363301
   6 O :   -0.692735
   7 H :    0.365782
   8 H :    0.307347
   9 O :   -0.677878
  10 H :    0.353913
  11 H :    0.367644
  12 O :   -0.732226
  13 H :    0.336361
  14 H :    0.365365
Sum of atomic charges:    0.0000000

LOEWDIN ATOMIC CHARGES
----------------------
   0 O :   -0.370760
   1 H :    0.148904
   2 H :    0.141379
   3 O :   -0.266764
   4 H :    0.173556
   5 H :    0.178793
   6 O :   -0.347909
   7 H :    0.148211
   8 H :    0.154983
   9 O :   -0.270814
  10 H :    0.173075
  11 H :    0.180636
  12 O :   -0.339039
  13 H :    0.153455
  14 H :    0.142296

  Mayer bond orders larger than 0.100000
B(  0-O ,  1-H ) :   0.8604 B(  0-O ,  2-H ) :   0.7885 B(  3-O ,  4-H ) :   0.8354
B(  3-O ,  5-H ) :   0.8337 B(  6-O ,  7-H ) :   0.8142 B(  6-O ,  8-H ) :   0.8641
B(  9-O , 10-H ) :   0.8399 B(  9-O , 11-H ) :   0.8310 B( 12-O , 13-H ) :   0.8508
B( 12-O , 14-H ) :   0.7750

MP2 TOTAL ENERGY:     -381.586670049 Eh
FINAL SINGLE POINT ENERGY      -381.586670048703

DIPOLE MOMENT
-------------
                                X             Y             Z
Electronic contribution:      0.21426      -0.08270      -0.04566
Nuclear contribution   :      0.19651      -1.55321      -0.77428
                        -----------------------------------------
Total Dipole Moment    :      0.41077      -1.63591      -0.81994
                        -----------------------------------------
Magnitude (a.u.)       :      1.87543
Magnitude (Debye)      :      4.76697

Rotational constants in cm-1:     0.092178     0.022927     0.021354
Rotational constants in MHz :  2763.413966   687.347571   640.170231

                             ****ORCA TERMINATED NORMALLY****
TOTAL RUN TIME: 0 days 0 hours 0 minutes 32 seconds 664 msec
