                         Program Version 3.0.3 - RELEASE   -
|  1> ! wB97X-D3 MA-Def2-TZVP def2-TZVP/J RIJCOSX TightSCF Grid4
|  2>
|  3> %pal nprocs 1 end
|  4>
|  5> %scf
|  6>         maxiter 400
|  7> end
|  8>
|  9> * xyz  0  1
| 10> O  -0.173776	-1.232856	-0.653106
| 11> H  0.103189	-0.335831	-0.904492
| 12> H  0.646359	-1.742665	-0.711175
| 13> O  0.161576	1.194881	0.627069
| 14> H  -0.097528	0.280234	0.830516
| 15> H  -0.678710	1.673458	0.650544
| 16> **                         ****END OF INPUT****

CARTESIAN COORDINATES (ANGSTROEM)
---------------------------------
  O     -0.173776   -1.232856   -0.653106
  H      0.103189   -0.335831   -0.904492
  H      0.646359   -1.742665   -0.711175
  O      0.161576    1.194881    0.627069
  H     -0.097528    0.280234    0.830516
  H     -0.678710    1.673458    0.650544

 Total Charge           Charge          ....    0
 Multiplicity           Mult            ....    1
 Number of Electrons    NEL             ....   20
 Basis Dimension        Dim             ....   94

ORBITAL ENERGIES
----------------

  NO   OCC          E(Eh)            E(eV)
   0   2.0000     -19.244664      -523.6739
   1   2.0000     -19.241109      -523.5772
   2   2.0000      -1.141669       -31.0664
   3   2.0000      -1.126376       -30.6503
   4   2.0000      -0.650436       -17.6993
   5   2.0000      -0.622565       -16.9409
   6   2.0000      -0.509254       -13.8575
   7   2.0000      -0.496606       -13.5133
   8   2.0000      -0.433658       -11.8004
   9   2.0000      -0.415431       -11.3044
  10   0.0000       0.067092         1.8257
  11   0.0000       0.105431         2.8689
  12   0.0000       0.131373         3.5748
  13   0.0000       0.144065         3.9202
  14   0.0000       0.165626         4.5069

MULLIKEN ATOMIC CHARGES
-----------------------
   0 O :   -0.684742
   1 H :    0.346035
   2 H :    0.339307
   3 O :   -0.686418
   4 H :    0.347999
   5 H :    0.337819
Sum of atomic charges:   -0.0000000

LOEWDIN ATOMIC CHARGES
----------------------
   0 O :   -0.377092
   1 H :    0.190705
   2 H :    0.188300
   3 O :   -0.379187
   4 H :    0.189688
   5 H :    0.187587

  Mayer bond orders larger than 0.1
B(  0-O ,  1-H ) :   0.8786 B(  0-O ,  2-H ) :   0.8945 B(  3-O ,  4-H ) :   0.8764
B(  3-O ,  5-H ) :   0.8952

Dispersion correction           -0.000510415
FINAL SINGLE POINT ENERGY      -152.886792176369

DIPOLE MOMENT
-------------
                                X             Y             Z
Electronic contribution:      0.00027      -0.00540       0.00575
Nuclear contribution   :     -0.00191      -0.04066      -0.06870
                        -----------------------------------------
Total Dipole Moment    :     -0.00164      -0.04607      -0.06295
                        -----------------------------------------
Magnitude (a.u.)       :      0.07802
Magnitude (Debye)      :      0.19831

                             ****ORCA TERMINATED NORMALLY****
TOTAL RUN TIME: 0 days 0 hours 0 minutes 20 seconds 39 msec
