                         Program Version 3.0.3 - RELEASE   -
|  1> ! wB97X-D3 Def2-TZVP def2-TZVP/J RIJCOSX TightSCF Grid4 COSMO
|  2>
|  3> %pal nprocs 12 end
|  4>
|  5> %scf
|  6>         maxiter 400
|  7> end
|  8>
|  9> %cosmo
| 10>         SMD true
| 11>         solvent "WATER"
| 12> end
| 13>
| 14> * xyz  0  1
| 15> O  -0.165161	-0.992666	-0.645176
| 16> H  0.241978	-0.810154	-1.507569
| 17> H  0.427574	-1.655835	-0.257698
| 18> O  0.133623	1.357521	0.769269
| 19> H  0.044747	0.520417	0.260333
| 20> H  -0.721650	1.417937	1.220198
| 21> **                         ****END OF INPUT****

CARTESIAN COORDINATES (ANGSTROEM)
---------------------------------
  O     -0.165161   -0.992666   -0.645176
  H      0.241978   -0.810154   -1.507569
  H      0.427574   -1.655835   -0.257698
  O      0.133623    1.357521    0.769269
  H      0.044747    0.520417    0.260333
  H     -0.721650    1.417937    1.220198

 Total Charge           Charge          ....    0
 Multiplicity           Mult            ....    1
 Number of Electrons    NEL             ....   20
 Basis Dimension        Dim             ....   86

ORBITAL ENERGIES
----------------

  NO   OCC          E(Eh)            E(eV)
   0   2.0000     -19.244466      -523.6685
   1   2.0000     -19.217090      -522.9236
   2   2.0000      -1.135975       -30.9115
   3   2.0000      -1.106730       -30.1157
   4   2.0000      -0.631004       -17.1705
   5   2.0000      -0.613695       -16.6995
   6   2.0000      -0.519968       -14.1490
   7   2.0000      -0.485083       -13.1998
   8   2.0000      -0.426796       -11.6137
   9   2.0000      -0.410690       -11.1754
  10   0.0000       0.119097         3.2408
  11   0.0000       0.166921         4.5422
  12   0.0000       0.206552         5.6206
  13   0.0000       0.287978         7.8363
  14   0.0000       0.423347        11.5198

MULLIKEN ATOMIC CHARGES
-----------------------
   0 O :   -0.754831
   1 H :    0.401223
   2 H :    0.401289
   3 O :   -0.793355
   4 H :    0.362464
   5 H :    0.383210
Sum of atomic charges:   -0.0000000

LOEWDIN ATOMIC CHARGES
----------------------
   0 O :   -0.301431
   1 H :    0.190900
   2 H :    0.190202
   3 O :   -0.395084
   4 H :    0.139327
   5 H :    0.176085

  Mayer bond orders larger than 0.1
B(  0-O ,  1-H ) :   0.8477 B(  0-O ,  2-H ) :   0.8474 B(  0-O ,  4-H ) :   0.1054
B(  3-O ,  4-H ) :   0.8200 B(  3-O ,  5-H ) :   0.8650

Dispersion correction           -0.000536188
FINAL SINGLE POINT ENERGY      -152.909398614216

DIPOLE MOMENT
-------------
                                X             Y             Z
Electronic contribution:     -0.01263      -0.22006      -0.13152
Nuclear contribution   :      0.04638      -1.04656      -0.44358
                        -----------------------------------------
Total Dipole Moment    :      0.03375      -1.26662      -0.57511
                        -----------------------------------------
Magnitude (a.u.)       :      1.39148
Magnitude (Debye)      :      3.53687

                             ****ORCA TERMINATED NORMALLY****
TOTAL RUN TIME: 0 days 0 hours 0 minutes 51 seconds 110 msec
