                         Program Version 3.0.3 - RELEASE   -
|  1> ! wB97X-D3 MA-Def2-TZVP def2-TZVP/J RIJCOSX TightSCF Grid4
|  2>
|  3> %pal nprocs 1 end
|  4>
|  5> %scf
|  6>         maxiter 400
|  7> end
|  8>
|  9> %cosmo
| 10>         SMD true
| 11>         solvent "WATER"
| 12> end
| 13>
| 14> * xyz  0  1
| 15> O  -0.165161	-0.992666	-0.645176
| 16> H  0.241978	-0.810154	-1.507569
| 17> H  0.427574	-1.655835	-0.257698
| 18> O  0.133623	1.357521	0.769269
| 19> H  0.044747	0.520417	0.260333
| 20> H  -0.721650	1.417937	1.220198
| 21> **                         ****END OF INPUT****

CARTESIAN COORDINATES (ANGSTROEM)
---------------------------------
  O     -0.165161   -0.992666   -0.645176
  H      0.241978   -0.810154   -1.507569
  H      0.427574   -1.655835   -0.257698
  O      0.133623    1.357521    0.769269
  H      0.044747    0.520417    0.260333
  H     -0.721650    1.417937    1.220198

 Total Charge           Charge          ....    0
 Multiplicity           Mult            ....    1
 Number of Electrons    NEL             ....   20
 Basis Dimension        Dim             ....   94

ORBITAL ENERGIES
----------------

  NO   OCC          E(Eh)            E(eV)
   0   2.0000     -19.247741      -523.7576
   1   2.0000     -19.223046      -523.0857
   2   2.0000      -1.138058       -30.9681
   3   2.0000      -1.110199       -30.2100
   4   2.0000      -0.632768       -17.2185
   5   2.0000      -0.616777       -16.7834
   6   2.0000      -0.522376       -14.2146
   7   2.0000      -0.487831       -13.2746
   8   2.0000      -0.429041       -11.6748
   9   2.0000      -0.413953       -11.2642
  10   0.0000       0.080561         2.1922
  11   0.0000       0.119825         3.2606
  12   0.0000       0.140172         3.8143
  13   0.0000       0.143067         3.8930
  14   0.0000       0.171356         4.6628

MULLIKEN ATOMIC CHARGES
-----------------------
   0 O :   -0.781709
   1 H :    0.407576
   2 H :    0.408588
   3 O :   -0.811918
   4 H :    0.387263
   5 H :    0.390199
Sum of atomic charges:   -0.0000000

LOEWDIN ATOMIC CHARGES
----------------------
   0 O :   -0.367340
   1 H :    0.216785
   2 H :    0.216087
   3 O :   -0.451531
   4 H :    0.181624
   5 H :    0.204375

  Mayer bond orders larger than 0.1
B(  0-O ,  1-H ) :   0.8470 B(  0-O ,  2-H ) :   0.8464 B(  3-O ,  4-H ) :   0.8139
B(  3-O ,  5-H ) :   0.8548

Dispersion correction           -0.000536188
FINAL SINGLE POINT ENERGY      -152.911639006271

DIPOLE MOMENT
-------------
                                X             Y             Z
Electronic contribution:     -0.01845      -0.21654      -0.12542
Nuclear contribution   :      0.04638      -1.04656      -0.44358
                        -----------------------------------------
Total Dipole Moment    :      0.02793      -1.26310      -0.56901
                        -----------------------------------------
Magnitude (a.u.)       :      1.38563
Magnitude (Debye)      :      3.52199

                             ****ORCA TERMINATED NORMALLY****
TOTAL RUN TIME: 0 days 0 hours 0 minutes 17 seconds 88 msec
