                         Program Version 4.2.0 -  RELEASE  -
|  1> # 12mecn.remya.etal.2.mol7,11
|  2> ! MP2 def2-TZVP EnGrad TightSCF
|  3>
|  4> %pal
|  5>     nprocs 6
|  6> end
|  7>
|  8> %maxcore 8000
|  9>
| 10> %scf
| 11>     ConvForced true
| 12> end
| 13>
| 14> *xyz 0 1
| 15> C   1.502241000   0.651296000   1.710523000
| 16> H   1.309219000   1.637164000   2.143202000
| 17> H   2.493408000   0.297996000   2.009069000
| 18> H   0.746597000  -0.059850000   2.055508000
| 19> C   1.447974000   0.738517000   0.269805000
| 20> N   1.405612000   0.808047000  -0.894380000
| 21> C   4.214163000   3.378139000   1.593627000
| 22> H   3.242643000   3.657109000   2.012358000
| 23> H   4.969258000   4.086643000   1.941290000
| 24> H   4.482966000   2.372549000   1.931698000
| 25> C   4.130759000   3.388436000   0.150192000
| 26> N   4.050180000   3.381449000  -1.013420000
| 27> *
| 28>
| 29>                          ****END OF INPUT****

CARTESIAN COORDINATES (ANGSTROEM)
---------------------------------
  C      1.502241    0.651296    1.710523
  H      1.309219    1.637164    2.143202
  H      2.493408    0.297996    2.009069
  H      0.746597   -0.059850    2.055508
  C      1.447974    0.738517    0.269805
  N      1.405612    0.808047   -0.894380
  C      4.214163    3.378139    1.593627
  H      3.242643    3.657109    2.012358
  H      4.969258    4.086643    1.941290
  H      4.482966    2.372549    1.931698
  C      4.130759    3.388436    0.150192
  N      4.050180    3.381449   -1.013420

 Total Charge           Charge          ....    0
 Multiplicity           Mult            ....    1
 Number of Electrons    NEL             ....   44
 Basis Dimension        Dim             ....  222

ORBITAL ENERGIES
----------------

  NO   OCC          E(Eh)            E(eV)
   0   2.0000     -15.572121      -423.7390
   1   2.0000     -15.571613      -423.7251
   2   2.0000     -11.290476      -307.2295
   3   2.0000     -11.290130      -307.2201
   4   2.0000     -11.276831      -306.8582
   5   2.0000     -11.276448      -306.8477
   6   2.0000      -1.212813       -33.0023
   7   2.0000      -1.211438       -32.9649
   8   2.0000      -1.049133       -28.5484
   9   2.0000      -1.046029       -28.4639
  10   2.0000      -0.704243       -19.1634
  11   2.0000      -0.701162       -19.0796
  12   2.0000      -0.643147       -17.5009
  13   2.0000      -0.640643       -17.4328
  14   2.0000      -0.634261       -17.2591
  15   2.0000      -0.629638       -17.1333
  16   2.0000      -0.554031       -15.0760
  17   2.0000      -0.551290       -15.0014
  18   2.0000      -0.463251       -12.6057
  19   2.0000      -0.457259       -12.4427
  20   2.0000      -0.454054       -12.3554
  21   2.0000      -0.447019       -12.1640
  22   0.0000       0.095292         2.5930
  23   0.0000       0.142703         3.8831
  24   0.0000       0.146623         3.9898
  25   0.0000       0.155228         4.2240
  26   0.0000       0.185219         5.0401

MULLIKEN ATOMIC CHARGES
-----------------------
   0 C :   -0.281712
   1 H :    0.162533
   2 H :    0.165596
   3 H :    0.182558
   4 C :   -0.156687
   5 N :   -0.072300
   6 C :   -0.283555
   7 H :    0.163731
   8 H :    0.182631
   9 H :    0.163521
  10 C :   -0.155186
  11 N :   -0.071128
Sum of atomic charges:    0.0000000

LOEWDIN ATOMIC CHARGES
----------------------
   0 C :   -0.288056
   1 H :    0.148609
   2 H :    0.150016
   3 H :    0.153907
   4 C :   -0.225935
   5 N :    0.061467
   6 C :   -0.288304
   7 H :    0.149258
   8 H :    0.151968
   9 H :    0.149423
  10 C :   -0.224242
  11 N :    0.061892

  Mayer bond orders larger than 0.100000
B(  0-C ,  1-H ) :   0.9214 B(  0-C ,  2-H ) :   0.9227 B(  0-C ,  3-H ) :   0.9112
B(  0-C ,  4-C ) :   0.8957 B(  4-C ,  5-N ) :   2.8261 B(  6-C ,  7-H ) :   0.9224
B(  6-C ,  8-H ) :   0.9109 B(  6-C ,  9-H ) :   0.9208 B(  6-C , 10-C ) :   0.9000
B( 10-C , 11-N ) :   2.8265

MP2 TOTAL ENERGY:     -264.963929360 Eh
FINAL SINGLE POINT ENERGY      -264.963929360422

DIPOLE MOMENT
-------------
                                X             Y             Z
Electronic contribution:     -0.30362       0.22404      -6.38774
Nuclear contribution   :      0.44535      -0.31761       9.26060
                        -----------------------------------------
Total Dipole Moment    :      0.14173      -0.09357       2.87286
                        -----------------------------------------
Magnitude (a.u.)       :      2.87788
Magnitude (Debye)      :      7.31498

Rotational constants in cm-1:     0.154461     0.056400     0.041982
Rotational constants in MHz :  4630.618855  1690.815145  1258.579087

                             ****ORCA TERMINATED NORMALLY****
TOTAL RUN TIME: 0 days 0 hours 1 minutes 7 seconds 998 msec
