                         Program Version 4.2.0 -  RELEASE  -
|  1> # 12h2o.su.etal.mol0,1,2,3,6,7,8,10
|  2> ! MP2 def2-TZVP EnGrad TightSCF
|  3>
|  4> %pal
|  5>     nprocs 6
|  6> end
|  7>
|  8> %maxcore 8000
|  9>
| 10> %scf
| 11>     ConvForced true
| 12> end
| 13>
| 14> *xyz 0 1
| 15> O   1.794470000   0.923410000   2.768350000
| 16> H   2.338250000   1.359750000   3.430940000
| 17> H   0.879480000   1.303000000   2.865760000
| 18> O  -1.794470000  -0.923410000   2.768350000
| 19> H  -2.338250000  -1.359750000   3.430940000
| 20> H  -0.879480000  -1.303000000   2.865760000
| 21> O   0.923410000  -1.794470000  -2.768350000
| 22> H   1.359750000  -2.338250000  -3.430940000
| 23> H   1.303000000  -0.879480000  -2.865760000
| 24> O  -1.752130000  -0.741530000  -2.896280000
| 25> H  -2.036450000  -0.920500000  -1.984040000
| 26> H  -0.921210000  -1.242140000  -2.984230000
| 27> O   1.737840000   0.885520000  -0.052730000
| 28> H   2.090180000   1.032320000   0.841890000
| 29> H   0.839590000   1.284090000  -0.017130000
| 30> O  -1.737840000  -0.885520000  -0.052730000
| 31> H  -2.090180000  -1.032320000   0.841890000
| 32> H  -0.839590000  -1.284090000  -0.017130000
| 33> O   1.752130000   0.741530000  -2.896280000
| 34> H   2.036450000   0.920500000  -1.984040000
| 35> H   0.921210000   1.242140000  -2.984230000
| 36> O  -0.923410000   1.794470000  -2.768350000
| 37> H  -1.359750000   2.338250000  -3.430940000
| 38> H  -1.303000000   0.879480000  -2.865760000
| 39> *
| 40>
| 41>                          ****END OF INPUT****

CARTESIAN COORDINATES (ANGSTROEM)
---------------------------------
  O      1.794470    0.923410    2.768350
  H      2.338250    1.359750    3.430940
  H      0.879480    1.303000    2.865760
  O     -1.794470   -0.923410    2.768350
  H     -2.338250   -1.359750    3.430940
  H     -0.879480   -1.303000    2.865760
  O      0.923410   -1.794470   -2.768350
  H      1.359750   -2.338250   -3.430940
  H      1.303000   -0.879480   -2.865760
  O     -1.752130   -0.741530   -2.896280
  H     -2.036450   -0.920500   -1.984040
  H     -0.921210   -1.242140   -2.984230
  O      1.737840    0.885520   -0.052730
  H      2.090180    1.032320    0.841890
  H      0.839590    1.284090   -0.017130
  O     -1.737840   -0.885520   -0.052730
  H     -2.090180   -1.032320    0.841890
  H     -0.839590   -1.284090   -0.017130
  O      1.752130    0.741530   -2.896280
  H      2.036450    0.920500   -1.984040
  H      0.921210    1.242140   -2.984230
  O     -0.923410    1.794470   -2.768350
  H     -1.359750    2.338250   -3.430940
  H     -1.303000    0.879480   -2.865760

 Total Charge           Charge          ....    0
 Multiplicity           Mult            ....    1
 Number of Electrons    NEL             ....   80
 Basis Dimension        Dim             ....  344

ORBITAL ENERGIES
----------------

  NO   OCC          E(Eh)            E(eV)
   0   2.0000     -20.603330      -560.6451
   1   2.0000     -20.603330      -560.6451
   2   2.0000     -20.551862      -559.2446
   3   2.0000     -20.551862      -559.2446
   4   2.0000     -20.523551      -558.4742
   5   2.0000     -20.523551      -558.4742
   6   2.0000     -20.523149      -558.4633
   7   2.0000     -20.523148      -558.4633
   8   2.0000      -1.381431       -37.5906
   9   2.0000      -1.381036       -37.5799
  10   2.0000      -1.335365       -36.3371
  11   2.0000      -1.333756       -36.2933
  12   2.0000      -1.324972       -36.0543
  13   2.0000      -1.315254       -35.7899
  14   2.0000      -1.305750       -35.5313
  15   2.0000      -1.295401       -35.2497
  16   2.0000      -0.749454       -20.3937
  17   2.0000      -0.746581       -20.3155
  18   2.0000      -0.705128       -19.1875
  19   2.0000      -0.702770       -19.1234
  20   2.0000      -0.690419       -18.7873
  21   2.0000      -0.689452       -18.7609
  22   2.0000      -0.678890       -18.4735
  23   2.0000      -0.673989       -18.3402
  24   2.0000      -0.620015       -16.8715
  25   2.0000      -0.619722       -16.8635
  26   2.0000      -0.596747       -16.2383
  27   2.0000      -0.584620       -15.9083
  28   2.0000      -0.572067       -15.5667
  29   2.0000      -0.558164       -15.1884
  30   2.0000      -0.551628       -15.0106
  31   2.0000      -0.541929       -14.7466
  32   2.0000      -0.533735       -14.5237
  33   2.0000      -0.521252       -14.1840
  34   2.0000      -0.500345       -13.6151
  35   2.0000      -0.496368       -13.5069
  36   2.0000      -0.473960       -12.8971
  37   2.0000      -0.472680       -12.8623
  38   2.0000      -0.468855       -12.7582
  39   2.0000      -0.468684       -12.7535
  40   0.0000       0.081916         2.2291
  41   0.0000       0.116270         3.1639
  42   0.0000       0.145941         3.9713
  43   0.0000       0.169538         4.6134
  44   0.0000       0.169974         4.6252

MULLIKEN ATOMIC CHARGES
-----------------------
   0 O :   -0.700958
   1 H :    0.355281
   2 H :    0.358718
   3 O :   -0.700958
   4 H :    0.355281
   5 H :    0.358718
   6 O :   -0.746145
   7 H :    0.332987
   8 H :    0.384324
   9 O :   -0.729190
  10 H :    0.382170
  11 H :    0.364588
  12 O :   -0.719014
  13 H :    0.371585
  14 H :    0.345655
  15 O :   -0.719014
  16 H :    0.371585
  17 H :    0.345655
  18 O :   -0.729190
  19 H :    0.382170
  20 H :    0.364588
  21 O :   -0.746145
  22 H :    0.332987
  23 H :    0.384324
Sum of atomic charges:   -0.0000000

LOEWDIN ATOMIC CHARGES
----------------------
   0 O :   -0.312364
   1 H :    0.165099
   2 H :    0.186143
   3 O :   -0.312364
   4 H :    0.165099
   5 H :    0.186143
   6 O :   -0.344588
   7 H :    0.151727
   8 H :    0.146042
   9 O :   -0.292725
  10 H :    0.155383
  11 H :    0.148484
  12 O :   -0.326663
  13 H :    0.152114
  14 H :    0.171349
  15 O :   -0.326663
  16 H :    0.152114
  17 H :    0.171349
  18 O :   -0.292725
  19 H :    0.155383
  20 H :    0.148484
  21 O :   -0.344588
  22 H :    0.151727
  23 H :    0.146042

  Mayer bond orders larger than 0.100000
B(  0-O ,  1-H ) :   0.8398 B(  0-O ,  2-H ) :   0.8297 B(  3-O ,  4-H ) :   0.8398
B(  3-O ,  5-H ) :   0.8297 B(  6-O ,  7-H ) :   0.8528 B(  6-O ,  8-H ) :   0.7386
B(  8-H , 18-O ) :   0.1191 B(  9-O , 10-H ) :   0.8050 B(  9-O , 11-H ) :   0.7932
B(  9-O , 23-H ) :   0.1191 B( 12-O , 13-H ) :   0.8114 B( 12-O , 14-H ) :   0.8363
B( 15-O , 16-H ) :   0.8114 B( 15-O , 17-H ) :   0.8363 B( 18-O , 19-H ) :   0.8050
B( 18-O , 20-H ) :   0.7932 B( 21-O , 22-H ) :   0.8528 B( 21-O , 23-H ) :   0.7386

MP2 TOTAL ENERGY:     -610.583484305 Eh
FINAL SINGLE POINT ENERGY      -610.583484304501

DIPOLE MOMENT
-------------
                                X             Y             Z
Electronic contribution:     -0.00000      -0.00000       0.30539
Nuclear contribution   :     -0.00000       0.00000       2.92077
                        -----------------------------------------
Total Dipole Moment    :     -0.00000      -0.00000       3.22616
                        -----------------------------------------
Magnitude (a.u.)       :      3.22616
Magnitude (Debye)      :      8.20025

Rotational constants in cm-1:     0.029666     0.017814     0.013941
Rotational constants in MHz :   889.355408   534.036281   417.947211

                             ****ORCA TERMINATED NORMALLY****
TOTAL RUN TIME: 0 days 0 hours 2 minutes 52 seconds 541 msec
