                         Program Version 4.2.0 -  RELEASE  -
|  1> # 12meoh.boyd.etal.mol2,3,9
|  2> ! MP2 def2-TZVP EnGrad TightSCF
|  3>
|  4> %pal
|  5>     nprocs 6
|  6> end
|  7>
|  8> %maxcore 8000
|  9>
| 10> %scf
| 11>     ConvForced true
| 12> end
| 13>
| 14> *xyz 0 1
| 15> O  -3.839777402   2.233595098   0.660436763
| 16> H  -2.958345897   1.907036203   0.973588449
| 17> C  -3.600368059   3.168790682  -0.390480452
| 18> H  -4.551709193   3.344148967  -0.901254863
| 19> H  -2.868237594   2.789240199  -1.113617525
| 20> H  -3.243594915   4.128998607   0.009549480
| 21> O  -3.821405976  -2.118091637   0.596795346
| 22> H  -4.342989117  -1.344303030   0.251966383
| 23> C  -3.443883586  -1.809641231   1.934889393
| 24> H  -2.831494349  -2.637429600   2.305201764
| 25> H  -4.325601146  -1.719364371   2.585074667
| 26> H  -2.858527126  -0.882644791   1.996110694
| 27> O   1.390610024   3.194080770  -1.536658882
| 28> H   2.162932299   2.881562730  -0.993525056
| 29> C   1.202977189   4.580367182  -1.302880219
| 30> H   0.374773115   4.915764831  -1.934164643
| 31> H   2.098649340   5.157710875  -1.570472348
| 32> H   0.950320401   4.800436015  -0.254328827
| 33> *
| 34>
| 35>                          ****END OF INPUT****

CARTESIAN COORDINATES (ANGSTROEM)
---------------------------------
  O     -3.839777    2.233595    0.660437
  H     -2.958346    1.907036    0.973588
  C     -3.600368    3.168791   -0.390480
  H     -4.551709    3.344149   -0.901255
  H     -2.868238    2.789240   -1.113618
  H     -3.243595    4.128999    0.009549
  O     -3.821406   -2.118092    0.596795
  H     -4.342989   -1.344303    0.251966
  C     -3.443884   -1.809641    1.934889
  H     -2.831494   -2.637430    2.305202
  H     -4.325601   -1.719364    2.585075
  H     -2.858527   -0.882645    1.996111
  O      1.390610    3.194081   -1.536659
  H      2.162932    2.881563   -0.993525
  C      1.202977    4.580367   -1.302880
  H      0.374773    4.915765   -1.934165
  H      2.098649    5.157711   -1.570472
  H      0.950320    4.800436   -0.254329

 Total Charge           Charge          ....    0
 Multiplicity           Mult            ....    1
 Number of Electrons    NEL             ....   54
 Basis Dimension        Dim             ....  258

ORBITAL ENERGIES
----------------

  NO   OCC          E(Eh)            E(eV)
   0   2.0000     -20.564149      -559.5789
   1   2.0000     -20.561971      -559.5197
   2   2.0000     -20.551317      -559.2298
   3   2.0000     -11.277938      -306.8883
   4   2.0000     -11.273857      -306.7772
   5   2.0000     -11.267449      -306.6029
   6   2.0000      -1.354828       -36.8667
   7   2.0000      -1.351092       -36.7651
   8   2.0000      -1.340566       -36.4787
   9   2.0000      -0.925970       -25.1969
  10   2.0000      -0.922312       -25.0974
  11   2.0000      -0.914401       -24.8821
  12   2.0000      -0.689371       -18.7587
  13   2.0000      -0.685532       -18.6543
  14   2.0000      -0.675298       -18.3758
  15   2.0000      -0.623643       -16.9702
  16   2.0000      -0.619718       -16.8634
  17   2.0000      -0.612650       -16.6710
  18   2.0000      -0.598891       -16.2966
  19   2.0000      -0.593780       -16.1576
  20   2.0000      -0.584760       -15.9121
  21   2.0000      -0.505859       -13.7651
  22   2.0000      -0.505050       -13.7431
  23   2.0000      -0.495533       -13.4841
  24   2.0000      -0.455197       -12.3865
  25   2.0000      -0.453172       -12.3314
  26   2.0000      -0.443995       -12.0817
  27   0.0000       0.112534         3.0622
  28   0.0000       0.127423         3.4674
  29   0.0000       0.152339         4.1454
  30   0.0000       0.169972         4.6252
  31   0.0000       0.176080         4.7914

MULLIKEN ATOMIC CHARGES
-----------------------
   0 O :   -0.504229
   1 H :    0.324695
   2 C :   -0.180242
   3 H :    0.129073
   4 H :    0.125260
   5 H :    0.108878
   6 O :   -0.501228
   7 H :    0.327464
   8 C :   -0.159664
   9 H :    0.127393
  10 H :    0.112386
  11 H :    0.089890
  12 O :   -0.498946
  13 H :    0.323513
  14 C :   -0.173730
  15 H :    0.129111
  16 H :    0.113137
  17 H :    0.107237
Sum of atomic charges:   -0.0000000

LOEWDIN ATOMIC CHARGES
----------------------
   0 O :   -0.113674
   1 H :    0.187890
   2 C :   -0.377094
   3 H :    0.109616
   4 H :    0.099768
   5 H :    0.095980
   6 O :   -0.110353
   7 H :    0.192662
   8 C :   -0.381258
   9 H :    0.109226
  10 H :    0.097014
  11 H :    0.090139
  12 O :   -0.106195
  13 H :    0.191381
  14 C :   -0.386578
  15 H :    0.110214
  16 H :    0.096551
  17 H :    0.094712

  Mayer bond orders larger than 0.100000
B(  0-O ,  1-H ) :   0.8411 B(  0-O ,  2-C ) :   0.9190 B(  2-C ,  3-H ) :   0.9374
B(  2-C ,  4-H ) :   0.9404 B(  2-C ,  5-H ) :   0.9383 B(  6-O ,  7-H ) :   0.8380
B(  6-O ,  8-C ) :   0.9315 B(  8-C ,  9-H ) :   0.9382 B(  8-C , 10-H ) :   0.9415
B(  8-C , 11-H ) :   0.9378 B( 12-O , 13-H ) :   0.8408 B( 12-O , 14-C ) :   0.9244
B( 14-C , 15-H ) :   0.9375 B( 14-C , 16-H ) :   0.9404 B( 14-C , 17-H ) :   0.9372

MP2 TOTAL ENERGY:     -346.522588262 Eh
FINAL SINGLE POINT ENERGY      -346.522588261878

DIPOLE MOMENT
-------------
                                X             Y             Z
Electronic contribution:     -0.71011      -3.38832      -0.82119
Nuclear contribution   :      1.59734       4.56671       1.29033
                        -----------------------------------------
Total Dipole Moment    :      0.88723       1.17839       0.46915
                        -----------------------------------------
Magnitude (a.u.)       :      1.54786
Magnitude (Debye)      :      3.93436

Rotational constants in cm-1:     0.068729     0.015273     0.013054
Rotational constants in MHz :  2060.437641   457.881014   391.345505

                             ****ORCA TERMINATED NORMALLY****
TOTAL RUN TIME: 0 days 0 hours 0 minutes 51 seconds 322 msec
