                         Program Version 4.2.0 -  RELEASE  -
|  1> # 12meoh.boyd.etal.mol0,1,7
|  2> ! MP2 def2-TZVP EnGrad TightSCF
|  3>
|  4> %pal
|  5>     nprocs 6
|  6> end
|  7>
|  8> %maxcore 8000
|  9>
| 10> %scf
| 11>     ConvForced true
| 12> end
| 13>
| 14> *xyz 0 1
| 15> O  -1.776108874  -2.741384797  -1.019308298
| 16> H  -2.520094035  -2.452295987  -0.420778302
| 17> C  -2.174025166  -3.952700964  -1.647004581
| 18> H  -1.359803895  -4.272673416  -2.304149236
| 19> H  -3.075973971  -3.808692420  -2.256751112
| 20> H  -2.370225393  -4.752784761  -0.918966137
| 21> O   0.666045193  -2.600503172   0.138317521
| 22> H  -0.227115049  -2.712051982  -0.281868004
| 23> C   0.490021232  -1.851247678   1.341189459
| 24> H   1.466500502  -1.466176022   1.645844415
| 25> H   0.097564527  -2.488364683   2.146902740
| 26> H  -0.187588112  -1.000787499   1.200739571
| 27> O   4.310535586  -1.588322800   0.656128299
| 28> H   3.804372199  -1.630404735  -0.196849819
| 29> C   4.312298137  -2.894980854   1.222112691
| 30> H   4.713177833  -2.819907076   2.237066773
| 31> H   4.957796734  -3.574699304   0.648211180
| 32> H   3.302735989  -3.324433205   1.269756773
| 33> *
| 34>
| 35>                          ****END OF INPUT****

CARTESIAN COORDINATES (ANGSTROEM)
---------------------------------
  O     -1.776109   -2.741385   -1.019308
  H     -2.520094   -2.452296   -0.420778
  C     -2.174025   -3.952701   -1.647005
  H     -1.359804   -4.272673   -2.304149
  H     -3.075974   -3.808692   -2.256751
  H     -2.370225   -4.752785   -0.918966
  O      0.666045   -2.600503    0.138318
  H     -0.227115   -2.712052   -0.281868
  C      0.490021   -1.851248    1.341189
  H      1.466501   -1.466176    1.645844
  H      0.097565   -2.488365    2.146903
  H     -0.187588   -1.000787    1.200740
  O      4.310536   -1.588323    0.656128
  H      3.804372   -1.630405   -0.196850
  C      4.312298   -2.894981    1.222113
  H      4.713178   -2.819907    2.237067
  H      4.957797   -3.574699    0.648211
  H      3.302736   -3.324433    1.269757

 Total Charge           Charge          ....    0
 Multiplicity           Mult            ....    1
 Number of Electrons    NEL             ....   54
 Basis Dimension        Dim             ....  258

ORBITAL ENERGIES
----------------

  NO   OCC          E(Eh)            E(eV)
   0   2.0000     -20.594587      -560.4072
   1   2.0000     -20.540633      -558.9390
   2   2.0000     -20.521009      -558.4050
   3   2.0000     -11.293620      -307.3150
   4   2.0000     -11.254140      -306.2407
   5   2.0000     -11.253372      -306.2198
   6   2.0000      -1.387217       -37.7481
   7   2.0000      -1.330175       -36.1959
   8   2.0000      -1.316218       -35.8161
   9   2.0000      -0.945108       -25.7177
  10   2.0000      -0.902985       -24.5715
  11   2.0000      -0.900798       -24.5119
  12   2.0000      -0.719606       -19.5815
  13   2.0000      -0.677907       -18.4468
  14   2.0000      -0.664207       -18.0740
  15   2.0000      -0.639724       -17.4078
  16   2.0000      -0.615012       -16.7353
  17   2.0000      -0.600266       -16.3341
  18   2.0000      -0.595826       -16.2133
  19   2.0000      -0.574584       -15.6352
  20   2.0000      -0.564741       -15.3674
  21   2.0000      -0.531998       -14.4764
  22   2.0000      -0.490762       -13.3543
  23   2.0000      -0.484126       -13.1737
  24   2.0000      -0.464342       -12.6354
  25   2.0000      -0.432151       -11.7594
  26   2.0000      -0.423352       -11.5200
  27   0.0000       0.111414         3.0317
  28   0.0000       0.152921         4.1612
  29   0.0000       0.160284         4.3615
  30   0.0000       0.183196         4.9850
  31   0.0000       0.193878         5.2757

MULLIKEN ATOMIC CHARGES
-----------------------
   0 O :   -0.518834
   1 H :    0.341402
   2 C :   -0.185474
   3 H :    0.147640
   4 H :    0.125350
   5 H :    0.125131
   6 O :   -0.538267
   7 H :    0.355829
   8 C :   -0.198584
   9 H :    0.143407
  10 H :    0.098544
  11 H :    0.103814
  12 O :   -0.511107
  13 H :    0.332074
  14 C :   -0.182782
  15 H :    0.120816
  16 H :    0.108306
  17 H :    0.132732
Sum of atomic charges:    0.0000000

LOEWDIN ATOMIC CHARGES
----------------------
   0 O :   -0.077071
   1 H :    0.201364
   2 C :   -0.373953
   3 H :    0.117359
   4 H :    0.104009
   5 H :    0.101608
   6 O :   -0.129478
   7 H :    0.160901
   8 C :   -0.396156
   9 H :    0.108246
  10 H :    0.091054
  11 H :    0.092540
  12 O :   -0.110725
  13 H :    0.193068
  14 C :   -0.384039
  15 H :    0.106678
  16 H :    0.094594
  17 H :    0.100000

  Mayer bond orders larger than 0.100000
B(  0-O ,  1-H ) :   0.8274 B(  0-O ,  2-C ) :   0.8729 B(  2-C ,  3-H ) :   0.9388
B(  2-C ,  4-H ) :   0.9341 B(  2-C ,  5-H ) :   0.9373 B(  6-O ,  7-H ) :   0.7933
B(  6-O ,  8-C ) :   0.9238 B(  8-C ,  9-H ) :   0.9382 B(  8-C , 10-H ) :   0.9374
B(  8-C , 11-H ) :   0.9384 B( 12-O , 13-H ) :   0.8364 B( 12-O , 14-C ) :   0.9133
B( 14-C , 15-H ) :   0.9389 B( 14-C , 16-H ) :   0.9414 B( 14-C , 17-H ) :   0.9344

MP2 TOTAL ENERGY:     -346.533262442 Eh
FINAL SINGLE POINT ENERGY      -346.533262441844

DIPOLE MOMENT
-------------
                                X             Y             Z
Electronic contribution:      0.71178       2.15029      -1.64349
Nuclear contribution   :     -2.63494      -2.89745       1.39539
                        -----------------------------------------
Total Dipole Moment    :     -1.92316      -0.74716      -0.24810
                        -----------------------------------------
Magnitude (a.u.)       :      2.07806
Magnitude (Debye)      :      5.28201

Rotational constants in cm-1:     0.191814     0.021877     0.020845
Rotational constants in MHz :  5750.433312   655.870917   624.906516

                             ****ORCA TERMINATED NORMALLY****
TOTAL RUN TIME: 0 days 0 hours 1 minutes 17 seconds 880 msec
