                         Program Version 4.2.0 -  RELEASE  -
|  1> # 12meoh.boyd.etal.mol5,8,10
|  2> ! MP2 def2-TZVP EnGrad TightSCF
|  3>
|  4> %pal
|  5>     nprocs 6
|  6> end
|  7>
|  8> %maxcore 8000
|  9>
| 10> %scf
| 11>     ConvForced true
| 12> end
| 13>
| 14> *xyz 0 1
| 15> O  -0.662721750   1.449094618  -1.383082065
| 16> H   0.064188300   2.119867608  -1.465650660
| 17> C  -0.353319239   0.341218776  -2.229326771
| 18> H  -1.072358530  -0.454743281  -2.019906495
| 19> H   0.657636746  -0.044472139  -2.042736771
| 20> H  -0.434616607   0.624733901  -3.287793021
| 21> O   3.570084754   2.361662577  -0.202416728
| 22> H   3.393280933   1.755669977   0.560634073
| 23> C   4.368082883   1.644741793  -1.143112807
| 24> H   4.552851717   2.311801738  -1.989632421
| 25> H   3.862427494   0.740851663  -1.508095690
| 26> H   5.333949674   1.357289092  -0.706288100
| 27> O  -5.201143618   0.064582726  -0.172223772
| 28> H  -4.686891530   0.869258890   0.107806143
| 29> C  -6.513192168   0.171391798   0.359883449
| 30> H  -7.049381312  -0.749234190   0.111361174
| 31> H  -7.057741163   1.017801101  -0.081819420
| 32> H  -6.514770575   0.292264928   1.453058834
| 33> *
| 34>
| 35>                          ****END OF INPUT****

CARTESIAN COORDINATES (ANGSTROEM)
---------------------------------
  O     -0.662722    1.449095   -1.383082
  H      0.064188    2.119868   -1.465651
  C     -0.353319    0.341219   -2.229327
  H     -1.072359   -0.454743   -2.019906
  H      0.657637   -0.044472   -2.042737
  H     -0.434617    0.624734   -3.287793
  O      3.570085    2.361663   -0.202417
  H      3.393281    1.755670    0.560634
  C      4.368083    1.644742   -1.143113
  H      4.552852    2.311802   -1.989632
  H      3.862427    0.740852   -1.508096
  H      5.333950    1.357289   -0.706288
  O     -5.201144    0.064583   -0.172224
  H     -4.686892    0.869259    0.107806
  C     -6.513192    0.171392    0.359883
  H     -7.049381   -0.749234    0.111361
  H     -7.057741    1.017801   -0.081819
  H     -6.514771    0.292265    1.453059

 Total Charge           Charge          ....    0
 Multiplicity           Mult            ....    1
 Number of Electrons    NEL             ....   54
 Basis Dimension        Dim             ....  258

ORBITAL ENERGIES
----------------

  NO   OCC          E(Eh)            E(eV)
   0   2.0000     -20.563780      -559.5689
   1   2.0000     -20.551934      -559.2466
   2   2.0000     -20.550674      -559.2123
   3   2.0000     -11.277786      -306.8842
   4   2.0000     -11.267903      -306.6152
   5   2.0000     -11.266233      -306.5698
   6   2.0000      -1.353148       -36.8210
   7   2.0000      -1.340901       -36.4878
   8   2.0000      -1.340262       -36.4704
   9   2.0000      -0.925980       -25.1972
  10   2.0000      -0.915839       -24.9212
  11   2.0000      -0.913702       -24.8631
  12   2.0000      -0.688130       -18.7250
  13   2.0000      -0.676142       -18.3988
  14   2.0000      -0.675868       -18.3913
  15   2.0000      -0.623443       -16.9648
  16   2.0000      -0.612515       -16.6674
  17   2.0000      -0.611142       -16.6300
  18   2.0000      -0.595897       -16.2152
  19   2.0000      -0.585992       -15.9457
  20   2.0000      -0.585349       -15.9282
  21   2.0000      -0.507888       -13.8203
  22   2.0000      -0.496109       -13.4998
  23   2.0000      -0.493980       -13.4419
  24   2.0000      -0.456158       -12.4127
  25   2.0000      -0.444966       -12.1081
  26   2.0000      -0.442333       -12.0365
  27   0.0000       0.113485         3.0881
  28   0.0000       0.140802         3.8314
  29   0.0000       0.159799         4.3483
  30   0.0000       0.164403         4.4736
  31   0.0000       0.180313         4.9066

MULLIKEN ATOMIC CHARGES
-----------------------
   0 O :   -0.507031
   1 H :    0.327373
   2 C :   -0.171488
   3 H :    0.137167
   4 H :    0.102513
   5 H :    0.109916
   6 O :   -0.500269
   7 H :    0.324980
   8 C :   -0.178520
   9 H :    0.130882
  10 H :    0.108913
  11 H :    0.115759
  12 O :   -0.497441
  13 H :    0.327522
  14 C :   -0.172438
  15 H :    0.126528
  16 H :    0.107857
  17 H :    0.107779
Sum of atomic charges:    0.0000000

LOEWDIN ATOMIC CHARGES
----------------------
   0 O :   -0.115025
   1 H :    0.190208
   2 C :   -0.377028
   3 H :    0.111528
   4 H :    0.093175
   5 H :    0.095893
   6 O :   -0.110876
   7 H :    0.189445
   8 C :   -0.379477
   9 H :    0.110654
  10 H :    0.094319
  11 H :    0.097274
  12 O :   -0.106637
  13 H :    0.193738
  14 C :   -0.386137
  15 H :    0.109399
  16 H :    0.094725
  17 H :    0.094822

  Mayer bond orders larger than 0.100000
B(  0-O ,  1-H ) :   0.8379 B(  0-O ,  2-C ) :   0.9246 B(  2-C ,  3-H ) :   0.9370
B(  2-C ,  4-H ) :   0.9388 B(  2-C ,  5-H ) :   0.9403 B(  6-O ,  7-H ) :   0.8412
B(  6-O ,  8-C ) :   0.9218 B(  8-C ,  9-H ) :   0.9379 B(  8-C , 10-H ) :   0.9364
B(  8-C , 11-H ) :   0.9404 B( 12-O , 13-H ) :   0.8380 B( 12-O , 14-C ) :   0.9318
B( 14-C , 15-H ) :   0.9380 B( 14-C , 16-H ) :   0.9389 B( 14-C , 17-H ) :   0.9385

MP2 TOTAL ENERGY:     -346.522764919 Eh
FINAL SINGLE POINT ENERGY      -346.522764919479

DIPOLE MOMENT
-------------
                                X             Y             Z
Electronic contribution:      0.15735       2.05603       1.46364
Nuclear contribution   :      0.47237      -2.21324      -1.37384
                        -----------------------------------------
Total Dipole Moment    :      0.62972      -0.15721       0.08980
                        -----------------------------------------
Magnitude (a.u.)       :      0.65523
Magnitude (Debye)      :      1.66546

Rotational constants in cm-1:     0.183944     0.010233     0.009864
Rotational constants in MHz :  5514.492304   306.779537   295.728427

                             ****ORCA TERMINATED NORMALLY****
TOTAL RUN TIME: 0 days 0 hours 0 minutes 58 seconds 858 msec
