                         Program Version 4.2.0 -  RELEASE  -
|  1> # 12mecn.remya.etal.2.mol1,4,5
|  2> ! MP2 def2-TZVP EnGrad TightSCF
|  3>
|  4> %pal
|  5>     nprocs 6
|  6> end
|  7>
|  8> %maxcore 8000
|  9>
| 10> %scf
| 11>     ConvForced true
| 12> end
| 13>
| 14> *xyz 0 1
| 15> C  -4.697980000  -0.249690000   1.746215000
| 16> H  -4.927570000   0.755530000   2.111799000
| 17> H  -3.709180000  -0.561560000   2.093253000
| 18> H  -5.432280000  -0.961520000   2.128066000
| 19> C  -4.714100000  -0.247110000   0.301670000
| 20> N  -4.729750000  -0.234960000  -0.865260000
| 21> C  -1.509690000  -0.693960000  -1.610140000
| 22> H  -1.327010000  -1.692700000  -2.017370000
| 23> H  -0.742170000  -0.000650000  -1.964400000
| 24> H  -2.491920000  -0.334310000  -1.929350000
| 25> C  -1.473570000  -0.748120000  -0.167200000
| 26> N  -1.447490000  -0.793720000   0.998938000
| 27> C  -1.955700000   2.515080000   1.698463000
| 28> H  -2.923830000   2.883163000   2.049269000
| 29> H  -1.154850000   3.171830000   2.050990000
| 30> H  -1.790380000   1.506115000   2.087896000
| 31> C  -1.948230000   2.482156000   0.253672000
| 32> N  -1.937550000   2.462523000  -0.913150000
| 33> *
| 34>
| 35>                          ****END OF INPUT****

CARTESIAN COORDINATES (ANGSTROEM)
---------------------------------
  C     -4.697980   -0.249690    1.746215
  H     -4.927570    0.755530    2.111799
  H     -3.709180   -0.561560    2.093253
  H     -5.432280   -0.961520    2.128066
  C     -4.714100   -0.247110    0.301670
  N     -4.729750   -0.234960   -0.865260
  C     -1.509690   -0.693960   -1.610140
  H     -1.327010   -1.692700   -2.017370
  H     -0.742170   -0.000650   -1.964400
  H     -2.491920   -0.334310   -1.929350
  C     -1.473570   -0.748120   -0.167200
  N     -1.447490   -0.793720    0.998938
  C     -1.955700    2.515080    1.698463
  H     -2.923830    2.883163    2.049269
  H     -1.154850    3.171830    2.050990
  H     -1.790380    1.506115    2.087896
  C     -1.948230    2.482156    0.253672
  N     -1.937550    2.462523   -0.913150

 Total Charge           Charge          ....    0
 Multiplicity           Mult            ....    1
 Number of Electrons    NEL             ....   66
 Basis Dimension        Dim             ....  333

ORBITAL ENERGIES
----------------

  NO   OCC          E(Eh)            E(eV)
   0   2.0000     -15.571805      -423.7303
   1   2.0000     -15.571236      -423.7149
   2   2.0000     -15.568755      -423.6474
   3   2.0000     -11.284823      -307.0756
   4   2.0000     -11.281856      -306.9949
   5   2.0000     -11.280825      -306.9669
   6   2.0000     -11.278509      -306.9038
   7   2.0000     -11.277853      -306.8860
   8   2.0000     -11.260713      -306.4196
   9   2.0000      -1.218890       -33.1677
  10   2.0000      -1.214556       -33.0498
  11   2.0000      -1.212947       -33.0060
  12   2.0000      -1.041566       -28.3424
  13   2.0000      -1.038793       -28.2670
  14   2.0000      -1.026877       -27.9428
  15   2.0000      -0.698778       -19.0147
  16   2.0000      -0.695345       -18.9213
  17   2.0000      -0.684362       -18.6224
  18   2.0000      -0.636204       -17.3120
  19   2.0000      -0.633857       -17.2481
  20   2.0000      -0.627858       -17.0849
  21   2.0000      -0.622405       -16.9365
  22   2.0000      -0.612307       -16.6617
  23   2.0000      -0.608995       -16.5716
  24   2.0000      -0.559648       -15.2288
  25   2.0000      -0.555817       -15.1245
  26   2.0000      -0.555105       -15.1052
  27   2.0000      -0.464349       -12.6356
  28   2.0000      -0.460522       -12.5314
  29   2.0000      -0.458657       -12.4807
  30   2.0000      -0.455805       -12.4031
  31   2.0000      -0.453610       -12.3434
  32   2.0000      -0.451257       -12.2793
  33   0.0000       0.111289         3.0283
  34   0.0000       0.149170         4.0591
  35   0.0000       0.153890         4.1875
  36   0.0000       0.158488         4.3127
  37   0.0000       0.163365         4.4454

MULLIKEN ATOMIC CHARGES
-----------------------
   0 C :   -0.292937
   1 H :    0.158685
   2 H :    0.201544
   3 H :    0.177366
   4 C :   -0.111315
   5 N :   -0.132892
   6 C :   -0.266025
   7 H :    0.166864
   8 H :    0.174087
   9 H :    0.209462
  10 C :   -0.091867
  11 N :   -0.193410
  12 C :   -0.291951
  13 H :    0.160937
  14 H :    0.177716
  15 H :    0.197489
  16 C :   -0.126132
  17 N :   -0.117621
Sum of atomic charges:    0.0000000

LOEWDIN ATOMIC CHARGES
----------------------
   0 C :   -0.286100
   1 H :    0.149161
   2 H :    0.155157
   3 H :    0.151840
   4 C :   -0.211777
   5 N :    0.042948
   6 C :   -0.282503
   7 H :    0.150448
   8 H :    0.155439
   9 H :    0.160430
  10 C :   -0.202836
  11 N :    0.014380
  12 C :   -0.286103
  13 H :    0.148896
  14 H :    0.153341
  15 H :    0.153993
  16 C :   -0.214377
  17 N :    0.047663

  Mayer bond orders larger than 0.100000
B(  0-C ,  1-H ) :   0.9190 B(  0-C ,  2-H ) :   0.9078 B(  0-C ,  3-H ) :   0.9104
B(  0-C ,  4-C ) :   0.8975 B(  4-C ,  5-N ) :   2.7681 B(  6-C ,  7-H ) :   0.9080
B(  6-C ,  8-H ) :   0.9118 B(  6-C ,  9-H ) :   0.8990 B(  6-C , 10-C ) :   0.9101
B( 10-C , 11-N ) :   2.7239 B( 12-C , 13-H ) :   0.9221 B( 12-C , 14-H ) :   0.9094
B( 12-C , 15-H ) :   0.9074 B( 12-C , 16-C ) :   0.8958 B( 16-C , 17-N ) :   2.7921

MP2 TOTAL ENERGY:     -397.466741639 Eh
FINAL SINGLE POINT ENERGY      -397.466741639027

DIPOLE MOMENT
-------------
                                X             Y             Z
Electronic contribution:      0.05120      -0.18304      -3.28355
Nuclear contribution   :     -0.07703       0.24619       4.65563
                        -----------------------------------------
Total Dipole Moment    :     -0.02583       0.06315       1.37208
                        -----------------------------------------
Magnitude (a.u.)       :      1.37378
Magnitude (Debye)      :      3.49187

Rotational constants in cm-1:     0.045743     0.037802     0.030487
Rotational constants in MHz :  1371.335292  1133.283818   913.964184

                             ****ORCA TERMINATED NORMALLY****
TOTAL RUN TIME: 0 days 0 hours 4 minutes 46 seconds 584 msec
