                         Program Version 3.0.3 - RELEASE   -
|  1> ! wB97X-D3 MA-Def2-TZVP def2-TZVP/J RIJCOSX TightSCF Grid4
|  2>
|  3> %pal nprocs 1 end
|  4>
|  5> %scf
|  6>         maxiter 400
|  7> end
|  8>
|  9> * xyz  0  1
| 10> O  1.916305	1.393465	0.445749
| 11> H  1.241190	1.198416	1.178690
| 12> H  2.589590	1.958961	0.846374
| 13> O  0.080334	0.773453	2.169258
| 14> H  -0.740471	1.034663	1.693845
| 15> H  0.046334	-0.208181	2.138032
| 16> O  0.018508	-1.859705	1.420534
| 17> H  0.786119	-1.701615	0.776213
| 18> H  0.225397	-2.675153	1.895696
| 19> O  -1.950243	1.138168	0.387910
| 20> H  -2.044177	0.176476	0.079054
| 21> H  -2.848884	1.483827	0.469692
| 22> O  1.868375	-1.254411	-0.304684
| 23> H  1.336279	-1.160367	-1.126678
| 24> H  2.112291	-0.330490	-0.073673
| 25> O  -0.015451	1.809748	-1.470107
| 26> H  0.758179	1.854349	-0.863849
| 27> H  -0.781961	1.773374	-0.855298
| 28> O  0.010261	-0.666807	-2.249896
| 29> H  0.003153	0.323812	-2.034072
| 30> H  0.071736	-0.731084	-3.211889
| 31> O  -1.955640	-1.350237	-0.407338
| 32> H  -1.366386	-1.265905	-1.189875
| 33> H  -1.360841	-1.714758	0.286311
| 34> **                         ****END OF INPUT****

CARTESIAN COORDINATES (ANGSTROEM)
---------------------------------
  O      1.916305    1.393465    0.445749
  H      1.241190    1.198416    1.178690
  H      2.589590    1.958961    0.846374
  O      0.080334    0.773453    2.169258
  H     -0.740471    1.034663    1.693845
  H      0.046334   -0.208181    2.138032
  O      0.018508   -1.859705    1.420534
  H      0.786119   -1.701615    0.776213
  H      0.225397   -2.675153    1.895696
  O     -1.950243    1.138168    0.387910
  H     -2.044177    0.176476    0.079054
  H     -2.848884    1.483827    0.469692
  O      1.868375   -1.254411   -0.304684
  H      1.336279   -1.160367   -1.126678
  H      2.112291   -0.330490   -0.073673
  O     -0.015451    1.809748   -1.470107
  H      0.758179    1.854349   -0.863849
  H     -0.781961    1.773374   -0.855298
  O      0.010261   -0.666807   -2.249896
  H      0.003153    0.323812   -2.034072
  H      0.071736   -0.731084   -3.211889
  O     -1.955640   -1.350237   -0.407338
  H     -1.366386   -1.265905   -1.189875
  H     -1.360841   -1.714758    0.286311

 Total Charge           Charge          ....    0
 Multiplicity           Mult            ....    1
 Number of Electrons    NEL             ....   80
 Basis Dimension        Dim             ....  376

ORBITAL ENERGIES
----------------

  NO   OCC          E(Eh)            E(eV)
   0   2.0000     -19.248890      -523.7889
   1   2.0000     -19.248242      -523.7713
   2   2.0000     -19.246307      -523.7186
   3   2.0000     -19.246075      -523.7123
   4   2.0000     -19.228952      -523.2464
   5   2.0000     -19.228447      -523.2326
   6   2.0000     -19.227618      -523.2101
   7   2.0000     -19.227453      -523.2056
   8   2.0000      -1.153672       -31.3930
   9   2.0000      -1.140712       -31.0404
  10   2.0000      -1.138530       -30.9810
  11   2.0000      -1.137741       -30.9595
  12   2.0000      -1.116615       -30.3846
  13   2.0000      -1.116033       -30.3688
  14   2.0000      -1.114197       -30.3188
  15   2.0000      -1.102195       -29.9923
  16   2.0000      -0.655180       -17.8283
  17   2.0000      -0.653831       -17.7916
  18   2.0000      -0.651158       -17.7189
  19   2.0000      -0.649661       -17.6782
  20   2.0000      -0.630325       -17.1520
  21   2.0000      -0.629054       -17.1174
  22   2.0000      -0.624795       -17.0015
  23   2.0000      -0.621768       -16.9192
  24   2.0000      -0.566356       -15.4113
  25   2.0000      -0.527628       -14.3575
  26   2.0000      -0.526023       -14.3138
  27   2.0000      -0.524028       -14.2595
  28   2.0000      -0.494879       -13.4663
  29   2.0000      -0.494070       -13.4443
  30   2.0000      -0.493588       -13.4312
  31   2.0000      -0.457234       -12.4420
  32   2.0000      -0.432711       -11.7747
  33   2.0000      -0.431707       -11.7473
  34   2.0000      -0.430443       -11.7129
  35   2.0000      -0.429013       -11.6740
  36   2.0000      -0.418038       -11.3754
  37   2.0000      -0.413747       -11.2586
  38   2.0000      -0.413217       -11.2442
  39   2.0000      -0.412364       -11.2210
  40   0.0000       0.056629         1.5410
  41   0.0000       0.079938         2.1752
  42   0.0000       0.081471         2.2169
  43   0.0000       0.081683         2.2227
  44   0.0000       0.121976         3.3191

MULLIKEN ATOMIC CHARGES
-----------------------
   0 O :   -0.830239
   1 H :    0.414761
   2 H :    0.357418
   3 O :   -0.749154
   4 H :    0.403695
   5 H :    0.402575
   6 O :   -0.824204
   7 H :    0.410773
   8 H :    0.357101
   9 O :   -0.848238
  10 H :    0.405675
  11 H :    0.358908
  12 O :   -0.751873
  13 H :    0.400229
  14 H :    0.408422
  15 O :   -0.729410
  16 H :    0.407289
  17 H :    0.397456
  18 O :   -0.841771
  19 H :    0.408386
  20 H :    0.357629
  21 O :   -0.724165
  22 H :    0.407169
  23 H :    0.401567
Sum of atomic charges:   -0.0000000

LOEWDIN ATOMIC CHARGES
----------------------
   0 O :   -0.403990
   1 H :    0.186959
   2 H :    0.189880
   3 O :   -0.362712
   4 H :    0.192289
   5 H :    0.192337
   6 O :   -0.398156
   7 H :    0.188659
   8 H :    0.190261
   9 O :   -0.399406
  10 H :    0.190468
  11 H :    0.190645
  12 O :   -0.363652
  13 H :    0.192642
  14 H :    0.193679
  15 O :   -0.361826
  16 H :    0.193852
  17 H :    0.192452
  18 O :   -0.403672
  19 H :    0.186845
  20 H :    0.189915
  21 O :   -0.363160
  22 H :    0.194672
  23 H :    0.191017

  Mayer bond orders larger than 0.1
B(  0-O ,  1-H ) :   0.7488 B(  0-O ,  2-H ) :   0.8761 B(  1-H ,  3-O ) :   0.1158
B(  3-O ,  4-H ) :   0.8468 B(  3-O ,  5-H ) :   0.8470 B(  6-O ,  7-H ) :   0.7516
B(  6-O ,  8-H ) :   0.8764 B(  7-H , 12-O ) :   0.1223 B(  9-O , 10-H ) :   0.7475
B(  9-O , 11-H ) :   0.8742 B( 10-H , 21-O ) :   0.1329 B( 12-O , 13-H ) :   0.8471
B( 12-O , 14-H ) :   0.8463 B( 15-O , 16-H ) :   0.8454 B( 15-O , 17-H ) :   0.8536
B( 15-O , 19-H ) :   0.1235 B( 18-O , 19-H ) :   0.7497 B( 18-O , 20-H ) :   0.8758
B( 21-O , 22-H ) :   0.8539 B( 21-O , 23-H ) :   0.8485

Dispersion correction           -0.012234178
FINAL SINGLE POINT ENERGY      -611.650404636922

DIPOLE MOMENT
-------------
                                X             Y             Z
Electronic contribution:     -0.02842      -0.00964       0.00966
Nuclear contribution   :      0.06879       0.04077       0.02141
                        -----------------------------------------
Total Dipole Moment    :      0.04038       0.03112       0.03107
                        -----------------------------------------
Magnitude (a.u.)       :      0.05970
Magnitude (Debye)      :      0.15175

                             ****ORCA TERMINATED NORMALLY****
TOTAL RUN TIME: 0 days 0 hours 6 minutes 47 seconds 671 msec
