                         Program Version 4.2.0 -  RELEASE  -
|  1> # 12h2o.su.etal.mol0,4,5,7,8,9,11
|  2> ! MP2 def2-TZVP EnGrad TightSCF
|  3>
|  4> %pal
|  5>     nprocs 6
|  6> end
|  7>
|  8> %maxcore 8000
|  9>
| 10> %scf
| 11>     ConvForced true
| 12> end
| 13>
| 14> *xyz 0 1
| 15> O   1.794470000   0.923410000   2.768350000
| 16> H   2.338250000   1.359750000   3.430940000
| 17> H   0.879480000   1.303000000   2.865760000
| 18> O  -0.885520000   1.737840000   0.052730000
| 19> H  -1.032320000   2.090180000  -0.841890000
| 20> H  -1.284090000   0.839590000   0.017130000
| 21> O   0.885520000  -1.737840000   0.052730000
| 22> H   1.284090000  -0.839590000   0.017130000
| 23> H   1.032320000  -2.090180000  -0.841890000
| 24> O  -1.737840000  -0.885520000  -0.052730000
| 25> H  -2.090180000  -1.032320000   0.841890000
| 26> H  -0.839590000  -1.284090000  -0.017130000
| 27> O   1.752130000   0.741530000  -2.896280000
| 28> H   2.036450000   0.920500000  -1.984040000
| 29> H   0.921210000   1.242140000  -2.984230000
| 30> O   0.741530000  -1.752130000   2.896280000
| 31> H   0.920500000  -2.036450000   1.984040000
| 32> H   1.242140000  -0.921210000   2.984230000
| 33> O  -0.741530000   1.752130000   2.896280000
| 34> H  -0.920500000   2.036450000   1.984040000
| 35> H  -1.242140000   0.921210000   2.984230000
| 36> *
| 37>
| 38>                          ****END OF INPUT****

CARTESIAN COORDINATES (ANGSTROEM)
---------------------------------
  O      1.794470    0.923410    2.768350
  H      2.338250    1.359750    3.430940
  H      0.879480    1.303000    2.865760
  O     -0.885520    1.737840    0.052730
  H     -1.032320    2.090180   -0.841890
  H     -1.284090    0.839590    0.017130
  O      0.885520   -1.737840    0.052730
  H      1.284090   -0.839590    0.017130
  H      1.032320   -2.090180   -0.841890
  O     -1.737840   -0.885520   -0.052730
  H     -2.090180   -1.032320    0.841890
  H     -0.839590   -1.284090   -0.017130
  O      1.752130    0.741530   -2.896280
  H      2.036450    0.920500   -1.984040
  H      0.921210    1.242140   -2.984230
  O      0.741530   -1.752130    2.896280
  H      0.920500   -2.036450    1.984040
  H      1.242140   -0.921210    2.984230
  O     -0.741530    1.752130    2.896280
  H     -0.920500    2.036450    1.984040
  H     -1.242140    0.921210    2.984230

 Total Charge           Charge          ....    0
 Multiplicity           Mult            ....    1
 Number of Electrons    NEL             ....   70
 Basis Dimension        Dim             ....  301

ORBITAL ENERGIES
----------------

  NO   OCC          E(Eh)            E(eV)
   0   2.0000     -20.618698      -561.0633
   1   2.0000     -20.583716      -560.1114
   2   2.0000     -20.579486      -559.9963
   3   2.0000     -20.574126      -559.8504
   4   2.0000     -20.573255      -559.8267
   5   2.0000     -20.542173      -558.9809
   6   2.0000     -20.516333      -558.2778
   7   2.0000      -1.402295       -38.1584
   8   2.0000      -1.370263       -37.2867
   9   2.0000      -1.363408       -37.1002
  10   2.0000      -1.362617       -37.0787
  11   2.0000      -1.350218       -36.7413
  12   2.0000      -1.325788       -36.0765
  13   2.0000      -1.300824       -35.3972
  14   2.0000      -0.758954       -20.6522
  15   2.0000      -0.733897       -19.9703
  16   2.0000      -0.732087       -19.9211
  17   2.0000      -0.725412       -19.7395
  18   2.0000      -0.719510       -19.5789
  19   2.0000      -0.709470       -19.3057
  20   2.0000      -0.682644       -18.5757
  21   2.0000      -0.641182       -17.4474
  22   2.0000      -0.623144       -16.9566
  23   2.0000      -0.609616       -16.5885
  24   2.0000      -0.599911       -16.3244
  25   2.0000      -0.590416       -16.0660
  26   2.0000      -0.569351       -15.4928
  27   2.0000      -0.554080       -15.0773
  28   2.0000      -0.536491       -14.5987
  29   2.0000      -0.527726       -14.3602
  30   2.0000      -0.525956       -14.3120
  31   2.0000      -0.519680       -14.1412
  32   2.0000      -0.510257       -13.8848
  33   2.0000      -0.490028       -13.3343
  34   2.0000      -0.466125       -12.6839
  35   0.0000       0.073573         2.0020
  36   0.0000       0.117011         3.1840
  37   0.0000       0.122085         3.3221
  38   0.0000       0.150738         4.1018
  39   0.0000       0.165325         4.4987

MULLIKEN ATOMIC CHARGES
-----------------------
   0 O :   -0.747185
   1 H :    0.339337
   2 H :    0.384980
   3 O :   -0.732524
   4 H :    0.336803
   5 H :    0.356672
   6 O :   -0.713873
   7 H :    0.369343
   8 H :    0.372998
   9 O :   -0.711288
  10 H :    0.352063
  11 H :    0.374291
  12 O :   -0.670957
  13 H :    0.336527
  14 H :    0.337017
  15 O :   -0.732755
  16 H :    0.359603
  17 H :    0.352866
  18 O :   -0.698959
  19 H :    0.389992
  20 H :    0.345048
Sum of atomic charges:    0.0000000

LOEWDIN ATOMIC CHARGES
----------------------
   0 O :   -0.344399
   1 H :    0.154839
   2 H :    0.146083
   3 O :   -0.342627
   4 H :    0.161633
   5 H :    0.142384
   6 O :   -0.272503
   7 H :    0.181540
   8 H :    0.178645
   9 O :   -0.306226
  10 H :    0.167304
  11 H :    0.146342
  12 O :   -0.326920
  13 H :    0.162480
  14 H :    0.165979
  15 O :   -0.355893
  16 H :    0.145076
  17 H :    0.143295
  18 O :   -0.275132
  19 H :    0.160397
  20 H :    0.167705

  Mayer bond orders larger than 0.100000
B(  0-O ,  1-H ) :   0.8495 B(  0-O ,  2-H ) :   0.7539 B(  3-O ,  4-H ) :   0.8500
B(  3-O ,  5-H ) :   0.7650 B(  5-H ,  9-O ) :   0.1099 B(  6-O ,  7-H ) :   0.8170
B(  6-O ,  8-H ) :   0.8244 B(  9-O , 10-H ) :   0.8397 B(  9-O , 11-H ) :   0.7782
B( 12-O , 13-H ) :   0.8515 B( 12-O , 14-H ) :   0.8519 B( 15-O , 16-H ) :   0.8355
B( 15-O , 17-H ) :   0.8106 B( 18-O , 19-H ) :   0.7960 B( 18-O , 20-H ) :   0.8410

MP2 TOTAL ENERGY:     -534.250643885 Eh
FINAL SINGLE POINT ENERGY      -534.250643885344

DIPOLE MOMENT
-------------
                                X             Y             Z
Electronic contribution:     -0.00990      -0.18580      -0.17178
Nuclear contribution   :     -0.30955       0.79086      -0.82779
                        -----------------------------------------
Total Dipole Moment    :     -0.31945       0.60506      -0.99957
                        -----------------------------------------
Magnitude (a.u.)       :      1.21132
Magnitude (Debye)      :      3.07892

Rotational constants in cm-1:     0.036234     0.023954     0.021795
Rotational constants in MHz :  1086.273534   718.118928   653.401270

                             ****ORCA TERMINATED NORMALLY****
TOTAL RUN TIME: 0 days 0 hours 1 minutes 58 seconds 171 msec
