                         Program Version 4.2.0 -  RELEASE  -
|  1> # 12h2o.su.etal.mol0,1,2,3,4,5,6,7,10
|  2> ! MP2 def2-TZVP EnGrad TightSCF
|  3>
|  4> %pal
|  5>     nprocs 6
|  6> end
|  7>
|  8> %maxcore 8000
|  9>
| 10> %scf
| 11>     ConvForced true
| 12> end
| 13>
| 14> *xyz 0 1
| 15> O   1.794470000   0.923410000   2.768350000
| 16> H   2.338250000   1.359750000   3.430940000
| 17> H   0.879480000   1.303000000   2.865760000
| 18> O  -1.794470000  -0.923410000   2.768350000
| 19> H  -2.338250000  -1.359750000   3.430940000
| 20> H  -0.879480000  -1.303000000   2.865760000
| 21> O   0.923410000  -1.794470000  -2.768350000
| 22> H   1.359750000  -2.338250000  -3.430940000
| 23> H   1.303000000  -0.879480000  -2.865760000
| 24> O  -1.752130000  -0.741530000  -2.896280000
| 25> H  -2.036450000  -0.920500000  -1.984040000
| 26> H  -0.921210000  -1.242140000  -2.984230000
| 27> O  -0.885520000   1.737840000   0.052730000
| 28> H  -1.032320000   2.090180000  -0.841890000
| 29> H  -1.284090000   0.839590000   0.017130000
| 30> O   0.885520000  -1.737840000   0.052730000
| 31> H   1.284090000  -0.839590000   0.017130000
| 32> H   1.032320000  -2.090180000  -0.841890000
| 33> O   1.737840000   0.885520000  -0.052730000
| 34> H   2.090180000   1.032320000   0.841890000
| 35> H   0.839590000   1.284090000  -0.017130000
| 36> O  -1.737840000  -0.885520000  -0.052730000
| 37> H  -2.090180000  -1.032320000   0.841890000
| 38> H  -0.839590000  -1.284090000  -0.017130000
| 39> O  -0.923410000   1.794470000  -2.768350000
| 40> H  -1.359750000   2.338250000  -3.430940000
| 41> H  -1.303000000   0.879480000  -2.865760000
| 42> *
| 43>
| 44>                          ****END OF INPUT****

CARTESIAN COORDINATES (ANGSTROEM)
---------------------------------
  O      1.794470    0.923410    2.768350
  H      2.338250    1.359750    3.430940
  H      0.879480    1.303000    2.865760
  O     -1.794470   -0.923410    2.768350
  H     -2.338250   -1.359750    3.430940
  H     -0.879480   -1.303000    2.865760
  O      0.923410   -1.794470   -2.768350
  H      1.359750   -2.338250   -3.430940
  H      1.303000   -0.879480   -2.865760
  O     -1.752130   -0.741530   -2.896280
  H     -2.036450   -0.920500   -1.984040
  H     -0.921210   -1.242140   -2.984230
  O     -0.885520    1.737840    0.052730
  H     -1.032320    2.090180   -0.841890
  H     -1.284090    0.839590    0.017130
  O      0.885520   -1.737840    0.052730
  H      1.284090   -0.839590    0.017130
  H      1.032320   -2.090180   -0.841890
  O      1.737840    0.885520   -0.052730
  H      2.090180    1.032320    0.841890
  H      0.839590    1.284090   -0.017130
  O     -1.737840   -0.885520   -0.052730
  H     -2.090180   -1.032320    0.841890
  H     -0.839590   -1.284090   -0.017130
  O     -0.923410    1.794470   -2.768350
  H     -1.359750    2.338250   -3.430940
  H     -1.303000    0.879480   -2.865760

 Total Charge           Charge          ....    0
 Multiplicity           Mult            ....    1
 Number of Electrons    NEL             ....   90
 Basis Dimension        Dim             ....  387

ORBITAL ENERGIES
----------------

  NO   OCC          E(Eh)            E(eV)
   0   2.0000     -20.605563      -560.7059
   1   2.0000     -20.586436      -560.1854
   2   2.0000     -20.580922      -560.0354
   3   2.0000     -20.543266      -559.0107
   4   2.0000     -20.540411      -558.9330
   5   2.0000     -20.529214      -558.6283
   6   2.0000     -20.527914      -558.5929
   7   2.0000     -20.517591      -558.3120
   8   2.0000     -20.512963      -558.1861
   9   2.0000      -1.386142       -37.7188
  10   2.0000      -1.364826       -37.1388
  11   2.0000      -1.359006       -36.9804
  12   2.0000      -1.342063       -36.5194
  13   2.0000      -1.332978       -36.2722
  14   2.0000      -1.318044       -35.8658
  15   2.0000      -1.312993       -35.7284
  16   2.0000      -1.305880       -35.5348
  17   2.0000      -1.291828       -35.1524
  18   2.0000      -0.751416       -20.4471
  19   2.0000      -0.731545       -19.9064
  20   2.0000      -0.725164       -19.7327
  21   2.0000      -0.708703       -19.2848
  22   2.0000      -0.697518       -18.9804
  23   2.0000      -0.693755       -18.8780
  24   2.0000      -0.691636       -18.8204
  25   2.0000      -0.678811       -18.4714
  26   2.0000      -0.674766       -18.3613
  27   2.0000      -0.630503       -17.1569
  28   2.0000      -0.611216       -16.6320
  29   2.0000      -0.601198       -16.3594
  30   2.0000      -0.595497       -16.2043
  31   2.0000      -0.583527       -15.8786
  32   2.0000      -0.569571       -15.4988
  33   2.0000      -0.559036       -15.2122
  34   2.0000      -0.555270       -15.1097
  35   2.0000      -0.535544       -14.5729
  36   2.0000      -0.532706       -14.4957
  37   2.0000      -0.522049       -14.2057
  38   2.0000      -0.515803       -14.0357
  39   2.0000      -0.488807       -13.3011
  40   2.0000      -0.483703       -13.1622
  41   2.0000      -0.478053       -13.0085
  42   2.0000      -0.476136       -12.9563
  43   2.0000      -0.466653       -12.6983
  44   2.0000      -0.459969       -12.5164
  45   0.0000       0.103579         2.8185
  46   0.0000       0.113310         3.0833
  47   0.0000       0.134294         3.6543
  48   0.0000       0.160122         4.3572
  49   0.0000       0.193524         5.2661

MULLIKEN ATOMIC CHARGES
-----------------------
   0 O :   -0.704111
   1 H :    0.348129
   2 H :    0.368132
   3 O :   -0.703018
   4 H :    0.350088
   5 H :    0.369049
   6 O :   -0.725356
   7 H :    0.362729
   8 H :    0.387450
   9 O :   -0.719339
  10 H :    0.387908
  11 H :    0.362491
  12 O :   -0.744088
  13 H :    0.374429
  14 H :    0.361996
  15 O :   -0.735944
  16 H :    0.365662
  17 H :    0.366338
  18 O :   -0.742970
  19 H :    0.368774
  20 H :    0.365118
  21 O :   -0.758944
  22 H :    0.378659
  23 H :    0.356625
  24 O :   -0.742362
  25 H :    0.331721
  26 H :    0.370837
Sum of atomic charges:   -0.0000000

LOEWDIN ATOMIC CHARGES
----------------------
   0 O :   -0.313253
   1 H :    0.161632
   2 H :    0.189527
   3 O :   -0.311761
   4 H :    0.162789
   5 H :    0.190087
   6 O :   -0.288838
   7 H :    0.167347
   8 H :    0.198151
   9 O :   -0.288162
  10 H :    0.156364
  11 H :    0.147568
  12 O :   -0.324060
  13 H :    0.148787
  14 H :    0.138812
  15 O :   -0.320891
  16 H :    0.141096
  17 H :    0.145078
  18 O :   -0.323339
  19 H :    0.146813
  20 H :    0.140819
  21 O :   -0.306181
  22 H :    0.151739
  23 H :    0.140396
  24 O :   -0.344804
  25 H :    0.151052
  26 H :    0.143230

  Mayer bond orders larger than 0.100000
B(  0-O ,  1-H ) :   0.8438 B(  0-O ,  2-H ) :   0.8229 B(  3-O ,  4-H ) :   0.8430
B(  3-O ,  5-H ) :   0.8225 B(  6-O ,  7-H ) :   0.8329 B(  6-O ,  8-H ) :   0.8070
B(  9-O , 10-H ) :   0.7976 B(  9-O , 11-H ) :   0.8136 B(  9-O , 26-H ) :   0.1125
B( 12-O , 13-H ) :   0.8015 B( 12-O , 14-H ) :   0.7813 B( 12-O , 20-H ) :   0.1161
B( 15-O , 16-H ) :   0.7590 B( 15-O , 17-H ) :   0.8201 B( 15-O , 23-H ) :   0.1254
B( 16-H , 18-O ) :   0.1222 B( 18-O , 19-H ) :   0.8150 B( 18-O , 20-H ) :   0.7624
B( 21-O , 22-H ) :   0.8037 B( 21-O , 23-H ) :   0.7512 B( 24-O , 25-H ) :   0.8533
B( 24-O , 26-H ) :   0.7495

MP2 TOTAL ENERGY:     -686.923780975 Eh
FINAL SINGLE POINT ENERGY      -686.923780974827

DIPOLE MOMENT
-------------
                                X             Y             Z
Electronic contribution:      0.02540      -0.24035       0.09727
Nuclear contribution   :      0.45497      -0.56566       0.68611
                        -----------------------------------------
Total Dipole Moment    :      0.48037      -0.80601       0.78338
                        -----------------------------------------
Magnitude (a.u.)       :      1.22232
Magnitude (Debye)      :      3.10690

Rotational constants in cm-1:     0.027468     0.016650     0.016054
Rotational constants in MHz :   823.458515   499.148244   481.292900

                             ****ORCA TERMINATED NORMALLY****
TOTAL RUN TIME: 0 days 0 hours 5 minutes 3 seconds 244 msec
