                         Program Version 4.2.0 -  RELEASE  -
|  1> # 12meoh.boyd.etal.mol3,7
|  2> ! MP2 def2-TZVP EnGrad TightSCF
|  3>
|  4> %pal
|  5>     nprocs 6
|  6> end
|  7>
|  8> %maxcore 8000
|  9>
| 10> %scf
| 11>     ConvForced true
| 12> end
| 13>
| 14> *xyz 0 1
| 15> O  -3.821405976  -2.118091637   0.596795346
| 16> H  -4.342989117  -1.344303030   0.251966383
| 17> C  -3.443883586  -1.809641231   1.934889393
| 18> H  -2.831494349  -2.637429600   2.305201764
| 19> H  -4.325601146  -1.719364371   2.585074667
| 20> H  -2.858527126  -0.882644791   1.996110694
| 21> O   4.310535586  -1.588322800   0.656128299
| 22> H   3.804372199  -1.630404735  -0.196849819
| 23> C   4.312298137  -2.894980854   1.222112691
| 24> H   4.713177833  -2.819907076   2.237066773
| 25> H   4.957796734  -3.574699304   0.648211180
| 26> H   3.302735989  -3.324433205   1.269756773
| 27> *
| 28>
| 29>                          ****END OF INPUT****

CARTESIAN COORDINATES (ANGSTROEM)
---------------------------------
  O     -3.821406   -2.118092    0.596795
  H     -4.342989   -1.344303    0.251966
  C     -3.443884   -1.809641    1.934889
  H     -2.831494   -2.637430    2.305202
  H     -4.325601   -1.719364    2.585075
  H     -2.858527   -0.882645    1.996111
  O      4.310536   -1.588323    0.656128
  H      3.804372   -1.630405   -0.196850
  C      4.312298   -2.894981    1.222113
  H      4.713178   -2.819907    2.237067
  H      4.957797   -3.574699    0.648211
  H      3.302736   -3.324433    1.269757

 Total Charge           Charge          ....    0
 Multiplicity           Mult            ....    1
 Number of Electrons    NEL             ....   36
 Basis Dimension        Dim             ....  172

ORBITAL ENERGIES
----------------

  NO   OCC          E(Eh)            E(eV)
   0   2.0000     -20.558940      -559.4372
   1   2.0000     -20.556476      -559.3701
   2   2.0000     -11.272702      -306.7458
   3   2.0000     -11.270832      -306.6949
   4   2.0000      -1.348013       -36.6813
   5   2.0000      -1.346176       -36.6313
   6   2.0000      -0.920244       -25.0411
   7   2.0000      -0.918737       -25.0001
   8   2.0000      -0.682360       -18.5680
   9   2.0000      -0.680983       -18.5305
  10   2.0000      -0.618632       -16.8338
  11   2.0000      -0.616136       -16.7659
  12   2.0000      -0.591264       -16.0891
  13   2.0000      -0.589998       -16.0547
  14   2.0000      -0.501897       -13.6573
  15   2.0000      -0.500103       -13.6085
  16   2.0000      -0.450666       -12.2632
  17   2.0000      -0.448227       -12.1969
  18   0.0000       0.133807         3.6411
  19   0.0000       0.136169         3.7053
  20   0.0000       0.174944         4.7605
  21   0.0000       0.177154         4.8206
  22   0.0000       0.226934         6.1752

MULLIKEN ATOMIC CHARGES
-----------------------
   0 O :   -0.495725
   1 H :    0.321288
   2 C :   -0.175005
   3 H :    0.128521
   4 H :    0.109892
   5 H :    0.111030
   6 O :   -0.496684
   7 H :    0.321912
   8 C :   -0.174479
   9 H :    0.128613
  10 H :    0.109313
  11 H :    0.111325
Sum of atomic charges:    0.0000000

LOEWDIN ATOMIC CHARGES
----------------------
   0 O :   -0.110180
   1 H :    0.190730
   2 C :   -0.382011
   3 H :    0.110229
   4 H :    0.095660
   5 H :    0.095571
   6 O :   -0.109464
   7 H :    0.189691
   8 C :   -0.381409
   9 H :    0.109829
  10 H :    0.095408
  11 H :    0.095944

  Mayer bond orders larger than 0.100000
B(  0-O ,  1-H ) :   0.8428 B(  0-O ,  2-C ) :   0.9258 B(  2-C ,  3-H ) :   0.9377
B(  2-C ,  4-H ) :   0.9392 B(  2-C ,  5-H ) :   0.9385 B(  6-O ,  7-H ) :   0.8428
B(  6-O ,  8-C ) :   0.9266 B(  8-C ,  9-H ) :   0.9378 B(  8-C , 10-H ) :   0.9383
B(  8-C , 11-H ) :   0.9401

MP2 TOTAL ENERGY:     -231.013404890 Eh
FINAL SINGLE POINT ENERGY      -231.013404890494

DIPOLE MOMENT
-------------
                                X             Y             Z
Electronic contribution:     -0.32901       1.18118      -2.25828
Nuclear contribution   :     -0.15618      -1.13738       2.29844
                        -----------------------------------------
Total Dipole Moment    :     -0.48519       0.04380       0.04016
                        -----------------------------------------
Magnitude (a.u.)       :      0.48882
Magnitude (Debye)      :      1.24247

Rotational constants in cm-1:     0.409798     0.016272     0.016137
Rotational constants in MHz : 12285.439163   487.812380   483.773356

                             ****ORCA TERMINATED NORMALLY****
TOTAL RUN TIME: 0 days 0 hours 0 minutes 16 seconds 467 msec
