                         Program Version 4.2.0 -  RELEASE  -
|  1> # 12h2o.su.etal.mol2,6,7,8,10
|  2> ! MP2 def2-TZVP EnGrad TightSCF
|  3>
|  4> %pal
|  5>     nprocs 6
|  6> end
|  7>
|  8> %maxcore 8000
|  9>
| 10> %scf
| 11>     ConvForced true
| 12> end
| 13>
| 14> *xyz 0 1
| 15> O   0.923410000  -1.794470000  -2.768350000
| 16> H   1.359750000  -2.338250000  -3.430940000
| 17> H   1.303000000  -0.879480000  -2.865760000
| 18> O   1.737840000   0.885520000  -0.052730000
| 19> H   2.090180000   1.032320000   0.841890000
| 20> H   0.839590000   1.284090000  -0.017130000
| 21> O  -1.737840000  -0.885520000  -0.052730000
| 22> H  -2.090180000  -1.032320000   0.841890000
| 23> H  -0.839590000  -1.284090000  -0.017130000
| 24> O   1.752130000   0.741530000  -2.896280000
| 25> H   2.036450000   0.920500000  -1.984040000
| 26> H   0.921210000   1.242140000  -2.984230000
| 27> O  -0.923410000   1.794470000  -2.768350000
| 28> H  -1.359750000   2.338250000  -3.430940000
| 29> H  -1.303000000   0.879480000  -2.865760000
| 30> *
| 31>
| 32>                          ****END OF INPUT****

CARTESIAN COORDINATES (ANGSTROEM)
---------------------------------
  O      0.923410   -1.794470   -2.768350
  H      1.359750   -2.338250   -3.430940
  H      1.303000   -0.879480   -2.865760
  O      1.737840    0.885520   -0.052730
  H      2.090180    1.032320    0.841890
  H      0.839590    1.284090   -0.017130
  O     -1.737840   -0.885520   -0.052730
  H     -2.090180   -1.032320    0.841890
  H     -0.839590   -1.284090   -0.017130
  O      1.752130    0.741530   -2.896280
  H      2.036450    0.920500   -1.984040
  H      0.921210    1.242140   -2.984230
  O     -0.923410    1.794470   -2.768350
  H     -1.359750    2.338250   -3.430940
  H     -1.303000    0.879480   -2.865760

 Total Charge           Charge          ....    0
 Multiplicity           Mult            ....    1
 Number of Electrons    NEL             ....   50
 Basis Dimension        Dim             ....  215

ORBITAL ENERGIES
----------------

  NO   OCC          E(Eh)            E(eV)
   0   2.0000     -20.583453      -560.1042
   1   2.0000     -20.582789      -560.0862
   2   2.0000     -20.558088      -559.4140
   3   2.0000     -20.536394      -558.8237
   4   2.0000     -20.502837      -557.9105
   5   2.0000      -1.362690       -37.0807
   6   2.0000      -1.360326       -37.0163
   7   2.0000      -1.334030       -36.3008
   8   2.0000      -1.327795       -36.1311
   9   2.0000      -1.284130       -34.9429
  10   2.0000      -0.727885       -19.8068
  11   2.0000      -0.724732       -19.7210
  12   2.0000      -0.695463       -18.9245
  13   2.0000      -0.693995       -18.8846
  14   2.0000      -0.670297       -18.2397
  15   2.0000      -0.614153       -16.7120
  16   2.0000      -0.595442       -16.2028
  17   2.0000      -0.574356       -15.6290
  18   2.0000      -0.565926       -15.3996
  19   2.0000      -0.532453       -14.4888
  20   2.0000      -0.527317       -14.3490
  21   2.0000      -0.517628       -14.0854
  22   2.0000      -0.500926       -13.6309
  23   2.0000      -0.475469       -12.9382
  24   2.0000      -0.453712       -12.3461
  25   0.0000       0.103786         2.8242
  26   0.0000       0.132310         3.6003
  27   0.0000       0.146679         3.9914
  28   0.0000       0.176035         4.7901
  29   0.0000       0.207546         5.6476

MULLIKEN ATOMIC CHARGES
-----------------------
   0 O :   -0.740962
   1 H :    0.319805
   2 H :    0.369274
   3 O :   -0.699236
   4 H :    0.347166
   5 H :    0.359576
   6 O :   -0.688859
   7 H :    0.331421
   8 H :    0.357092
   9 O :   -0.717382
  10 H :    0.379856
  11 H :    0.359825
  12 O :   -0.708253
  13 H :    0.351761
  14 H :    0.378919
Sum of atomic charges:   -0.0000000

LOEWDIN ATOMIC CHARGES
----------------------
   0 O :   -0.377808
   1 H :    0.146089
   2 H :    0.141819
   3 O :   -0.317751
   4 H :    0.169942
   5 H :    0.178538
   6 O :   -0.340186
   7 H :    0.162750
   8 H :    0.177331
   9 O :   -0.288983
  10 H :    0.155985
  11 H :    0.147539
  12 O :   -0.313440
  13 H :    0.163452
  14 H :    0.194724

  Mayer bond orders larger than 0.100000
B(  0-O ,  1-H ) :   0.8630 B(  0-O ,  2-H ) :   0.7677 B(  2-H ,  9-O ) :   0.1041
B(  3-O ,  4-H ) :   0.8439 B(  3-O ,  5-H ) :   0.8293 B(  6-O ,  7-H ) :   0.8553
B(  6-O ,  8-H ) :   0.8335 B(  9-O , 10-H ) :   0.8102 B(  9-O , 11-H ) :   0.8089
B( 12-O , 13-H ) :   0.8421 B( 12-O , 14-H ) :   0.8155

MP2 TOTAL ENERGY:     -381.596875835 Eh
FINAL SINGLE POINT ENERGY      -381.596875835072

DIPOLE MOMENT
-------------
                                X             Y             Z
Electronic contribution:     -0.01680       0.28203      -0.00745
Nuclear contribution   :     -0.45497       0.56566       0.96948
                        -----------------------------------------
Total Dipole Moment    :     -0.47177       0.84768       0.96203
                        -----------------------------------------
Magnitude (a.u.)       :      1.36625
Magnitude (Debye)      :      3.47272

Rotational constants in cm-1:     0.057474     0.046221     0.045205
Rotational constants in MHz :  1723.014301  1385.668184  1355.203375

                             ****ORCA TERMINATED NORMALLY****
TOTAL RUN TIME: 0 days 0 hours 0 minutes 35 seconds 655 msec
