                         Program Version 4.2.0 -  RELEASE  -
|  1> # 12h2o.su.etal.mol2,5,7
|  2> ! MP2 def2-TZVP EnGrad TightSCF
|  3>
|  4> %pal
|  5>     nprocs 6
|  6> end
|  7>
|  8> %maxcore 8000
|  9>
| 10> %scf
| 11>     ConvForced true
| 12> end
| 13>
| 14> *xyz 0 1
| 15> O   0.923410000  -1.794470000  -2.768350000
| 16> H   1.359750000  -2.338250000  -3.430940000
| 17> H   1.303000000  -0.879480000  -2.865760000
| 18> O   0.885520000  -1.737840000   0.052730000
| 19> H   1.284090000  -0.839590000   0.017130000
| 20> H   1.032320000  -2.090180000  -0.841890000
| 21> O  -1.737840000  -0.885520000  -0.052730000
| 22> H  -2.090180000  -1.032320000   0.841890000
| 23> H  -0.839590000  -1.284090000  -0.017130000
| 24> *
| 25>
| 26>                          ****END OF INPUT****

CARTESIAN COORDINATES (ANGSTROEM)
---------------------------------
  O      0.923410   -1.794470   -2.768350
  H      1.359750   -2.338250   -3.430940
  H      1.303000   -0.879480   -2.865760
  O      0.885520   -1.737840    0.052730
  H      1.284090   -0.839590    0.017130
  H      1.032320   -2.090180   -0.841890
  O     -1.737840   -0.885520   -0.052730
  H     -2.090180   -1.032320    0.841890
  H     -0.839590   -1.284090   -0.017130

 Total Charge           Charge          ....    0
 Multiplicity           Mult            ....    1
 Number of Electrons    NEL             ....   30
 Basis Dimension        Dim             ....  129

ORBITAL ENERGIES
----------------

  NO   OCC          E(Eh)            E(eV)
   0   2.0000     -20.597115      -560.4760
   1   2.0000     -20.565354      -559.6117
   2   2.0000     -20.512584      -558.1758
   3   2.0000      -1.375472       -37.4285
   4   2.0000      -1.348354       -36.6906
   5   2.0000      -1.293621       -35.2012
   6   2.0000      -0.741926       -20.1888
   7   2.0000      -0.712258       -19.3815
   8   2.0000      -0.668836       -18.1999
   9   2.0000      -0.617990       -16.8164
  10   2.0000      -0.586792       -15.9674
  11   2.0000      -0.546933       -14.8828
  12   2.0000      -0.534314       -14.5394
  13   2.0000      -0.497721       -13.5437
  14   2.0000      -0.461070       -12.5464
  15   0.0000       0.097082         2.6417
  16   0.0000       0.150782         4.1030
  17   0.0000       0.176281         4.7969
  18   0.0000       0.194047         5.2803
  19   0.0000       0.256509         6.9800

MULLIKEN ATOMIC CHARGES
-----------------------
   0 O :   -0.689191
   1 H :    0.353785
   2 H :    0.352458
   3 O :   -0.693251
   4 H :    0.335816
   5 H :    0.378727
   6 O :   -0.718637
   7 H :    0.321691
   8 H :    0.358603
Sum of atomic charges:    0.0000000

LOEWDIN ATOMIC CHARGES
----------------------
   0 O :   -0.306812
   1 H :    0.164390
   2 H :    0.185134
   3 O :   -0.297949
   4 H :    0.169721
   5 H :    0.153406
   6 O :   -0.365343
   7 H :    0.155437
   8 H :    0.142015

  Mayer bond orders larger than 0.100000
B(  0-O ,  1-H ) :   0.8409 B(  0-O ,  2-H ) :   0.8358 B(  3-O ,  4-H ) :   0.8479
B(  3-O ,  5-H ) :   0.8029 B(  6-O ,  7-H ) :   0.8617 B(  6-O ,  8-H ) :   0.7968

MP2 TOTAL ENERGY:     -228.952325535 Eh
FINAL SINGLE POINT ENERGY      -228.952325535159

DIPOLE MOMENT
-------------
                                X             Y             Z
Electronic contribution:     -0.00064      -0.17343      -0.14138
Nuclear contribution   :      1.58749       0.30943      -0.63259
                        -----------------------------------------
Total Dipole Moment    :      1.58684       0.13600      -0.77398
                        -----------------------------------------
Magnitude (a.u.)       :      1.77076
Magnitude (Debye)      :      4.50093

Rotational constants in cm-1:     0.350109     0.114647     0.088352
Rotational constants in MHz : 10495.989634  3437.036815  2648.715100

                             ****ORCA TERMINATED NORMALLY****
TOTAL RUN TIME: 0 days 0 hours 0 minutes 22 seconds 35 msec
