                         Program Version 4.2.0 -  RELEASE  -
|  1> # 12meoh.boyd.etal.mol3,4,11
|  2> ! MP2 def2-TZVP EnGrad TightSCF
|  3>
|  4> %pal
|  5>     nprocs 6
|  6> end
|  7>
|  8> %maxcore 8000
|  9>
| 10> %scf
| 11>     ConvForced true
| 12> end
| 13>
| 14> *xyz 0 1
| 15> O  -3.821405976  -2.118091637   0.596795346
| 16> H  -4.342989117  -1.344303030   0.251966383
| 17> C  -3.443883586  -1.809641231   1.934889393
| 18> H  -2.831494349  -2.637429600   2.305201764
| 19> H  -4.325601146  -1.719364371   2.585074667
| 20> H  -2.858527126  -0.882644791   1.996110694
| 21> O  -1.358578914   1.232360421   1.189721000
| 22> H  -1.058250183   1.216459361   0.238591307
| 23> C  -0.389763452   1.957872567   1.943072362
| 24> H  -0.747220771   2.012806578   2.975200343
| 25> H  -0.260410585   2.982763209   1.565366540
| 26> H   0.585220638   1.453754179   1.934070793
| 27> O   3.252955559   0.588596242   1.858934315
| 28> H   3.621209177  -0.251605199   1.476063364
| 29> C   4.040824528   0.944288422   2.989639460
| 30> H   3.670521436   1.902573549   3.363847391
| 31> H   5.103749934   1.055868619   2.734277559
| 32> H   3.948540682   0.200279590   3.792908518
| 33> *
| 34>
| 35>                          ****END OF INPUT****

CARTESIAN COORDINATES (ANGSTROEM)
---------------------------------
  O     -3.821406   -2.118092    0.596795
  H     -4.342989   -1.344303    0.251966
  C     -3.443884   -1.809641    1.934889
  H     -2.831494   -2.637430    2.305202
  H     -4.325601   -1.719364    2.585075
  H     -2.858527   -0.882645    1.996111
  O     -1.358579    1.232360    1.189721
  H     -1.058250    1.216459    0.238591
  C     -0.389763    1.957873    1.943072
  H     -0.747221    2.012807    2.975200
  H     -0.260411    2.982763    1.565367
  H      0.585221    1.453754    1.934071
  O      3.252956    0.588596    1.858934
  H      3.621209   -0.251605    1.476063
  C      4.040825    0.944288    2.989639
  H      3.670521    1.902574    3.363847
  H      5.103750    1.055869    2.734278
  H      3.948541    0.200280    3.792909

 Total Charge           Charge          ....    0
 Multiplicity           Mult            ....    1
 Number of Electrons    NEL             ....   54
 Basis Dimension        Dim             ....  258

ORBITAL ENERGIES
----------------

  NO   OCC          E(Eh)            E(eV)
   0   2.0000     -20.565191      -559.6073
   1   2.0000     -20.553052      -559.2770
   2   2.0000     -20.543153      -559.0076
   3   2.0000     -11.277832      -306.8854
   4   2.0000     -11.262037      -306.4556
   5   2.0000     -11.252610      -306.1991
   6   2.0000      -1.354447       -36.8564
   7   2.0000      -1.340489       -36.4766
   8   2.0000      -1.331952       -36.2443
   9   2.0000      -0.926247       -25.2044
  10   2.0000      -0.911292       -24.7975
  11   2.0000      -0.901796       -24.5391
  12   2.0000      -0.689308       -18.7570
  13   2.0000      -0.674588       -18.3565
  14   2.0000      -0.665326       -18.1045
  15   2.0000      -0.623821       -16.9750
  16   2.0000      -0.609742       -16.5919
  17   2.0000      -0.600933       -16.3522
  18   2.0000      -0.597633       -16.2624
  19   2.0000      -0.583566       -15.8796
  20   2.0000      -0.574693       -15.6382
  21   2.0000      -0.508120       -13.8267
  22   2.0000      -0.494822       -13.4648
  23   2.0000      -0.483655       -13.1609
  24   2.0000      -0.456725       -12.4281
  25   2.0000      -0.442712       -12.0468
  26   2.0000      -0.432502       -11.7690
  27   0.0000       0.125120         3.4047
  28   0.0000       0.137104         3.7308
  29   0.0000       0.160560         4.3691
  30   0.0000       0.166507         4.5309
  31   0.0000       0.182454         4.9648

MULLIKEN ATOMIC CHARGES
-----------------------
   0 O :   -0.505024
   1 H :    0.320148
   2 C :   -0.186858
   3 H :    0.118653
   4 H :    0.101640
   5 H :    0.141271
   6 O :   -0.504157
   7 H :    0.323170
   8 C :   -0.184648
   9 H :    0.120191
  10 H :    0.104759
  11 H :    0.143243
  12 O :   -0.496976
  13 H :    0.322982
  14 C :   -0.173588
  15 H :    0.129314
  16 H :    0.112785
  17 H :    0.113095
Sum of atomic charges:    0.0000000

LOEWDIN ATOMIC CHARGES
----------------------
   0 O :   -0.114101
   1 H :    0.189883
   2 C :   -0.385380
   3 H :    0.107153
   4 H :    0.092434
   5 H :    0.100907
   6 O :   -0.112678
   7 H :    0.192815
   8 C :   -0.382343
   9 H :    0.107638
  10 H :    0.095603
  11 H :    0.102325
  12 O :   -0.108131
  13 H :    0.191371
  14 C :   -0.381432
  15 H :    0.110111
  16 H :    0.097212
  17 H :    0.096614

  Mayer bond orders larger than 0.100000
B(  0-O ,  1-H ) :   0.8439 B(  0-O ,  2-C ) :   0.9159 B(  2-C ,  3-H ) :   0.9382
B(  2-C ,  4-H ) :   0.9404 B(  2-C ,  5-H ) :   0.9303 B(  6-O ,  7-H ) :   0.8392
B(  6-O ,  8-C ) :   0.9026 B(  8-C ,  9-H ) :   0.9375 B(  8-C , 10-H ) :   0.9347
B(  8-C , 11-H ) :   0.9345 B( 12-O , 13-H ) :   0.8394 B( 12-O , 14-C ) :   0.9169
B( 14-C , 15-H ) :   0.9391 B( 14-C , 16-H ) :   0.9353 B( 14-C , 17-H ) :   0.9385

MP2 TOTAL ENERGY:     -346.524405999 Eh
FINAL SINGLE POINT ENERGY      -346.524405999257

DIPOLE MOMENT
-------------
                                X             Y             Z
Electronic contribution:     -2.57269      -1.70377      -3.88598
Nuclear contribution   :      3.71769       2.28139       4.16809
                        -----------------------------------------
Total Dipole Moment    :      1.14500       0.57762       0.28211
                        -----------------------------------------
Magnitude (a.u.)       :      1.31311
Magnitude (Debye)      :      3.33765

Rotational constants in cm-1:     0.106195     0.016002     0.014662
Rotational constants in MHz :  3183.658192   479.721216   439.553826

                             ****ORCA TERMINATED NORMALLY****
TOTAL RUN TIME: 0 days 0 hours 1 minutes 1 seconds 86 msec
