                         Program Version 4.2.0 -  RELEASE  -
|  1> # 12h2o.su.etal.mol1,4,5,6,9,10,11
|  2> ! MP2 def2-TZVP EnGrad TightSCF
|  3>
|  4> %pal
|  5>     nprocs 6
|  6> end
|  7>
|  8> %maxcore 8000
|  9>
| 10> %scf
| 11>     ConvForced true
| 12> end
| 13>
| 14> *xyz 0 1
| 15> O  -1.794470000  -0.923410000   2.768350000
| 16> H  -2.338250000  -1.359750000   3.430940000
| 17> H  -0.879480000  -1.303000000   2.865760000
| 18> O  -0.885520000   1.737840000   0.052730000
| 19> H  -1.032320000   2.090180000  -0.841890000
| 20> H  -1.284090000   0.839590000   0.017130000
| 21> O   0.885520000  -1.737840000   0.052730000
| 22> H   1.284090000  -0.839590000   0.017130000
| 23> H   1.032320000  -2.090180000  -0.841890000
| 24> O   1.737840000   0.885520000  -0.052730000
| 25> H   2.090180000   1.032320000   0.841890000
| 26> H   0.839590000   1.284090000  -0.017130000
| 27> O   0.741530000  -1.752130000   2.896280000
| 28> H   0.920500000  -2.036450000   1.984040000
| 29> H   1.242140000  -0.921210000   2.984230000
| 30> O  -0.923410000   1.794470000  -2.768350000
| 31> H  -1.359750000   2.338250000  -3.430940000
| 32> H  -1.303000000   0.879480000  -2.865760000
| 33> O  -0.741530000   1.752130000   2.896280000
| 34> H  -0.920500000   2.036450000   1.984040000
| 35> H  -1.242140000   0.921210000   2.984230000
| 36> *
| 37>
| 38>                          ****END OF INPUT****

CARTESIAN COORDINATES (ANGSTROEM)
---------------------------------
  O     -1.794470   -0.923410    2.768350
  H     -2.338250   -1.359750    3.430940
  H     -0.879480   -1.303000    2.865760
  O     -0.885520    1.737840    0.052730
  H     -1.032320    2.090180   -0.841890
  H     -1.284090    0.839590    0.017130
  O      0.885520   -1.737840    0.052730
  H      1.284090   -0.839590    0.017130
  H      1.032320   -2.090180   -0.841890
  O      1.737840    0.885520   -0.052730
  H      2.090180    1.032320    0.841890
  H      0.839590    1.284090   -0.017130
  O      0.741530   -1.752130    2.896280
  H      0.920500   -2.036450    1.984040
  H      1.242140   -0.921210    2.984230
  O     -0.923410    1.794470   -2.768350
  H     -1.359750    2.338250   -3.430940
  H     -1.303000    0.879480   -2.865760
  O     -0.741530    1.752130    2.896280
  H     -0.920500    2.036450    1.984040
  H     -1.242140    0.921210    2.984230

 Total Charge           Charge          ....    0
 Multiplicity           Mult            ....    1
 Number of Electrons    NEL             ....   70
 Basis Dimension        Dim             ....  301

ORBITAL ENERGIES
----------------

  NO   OCC          E(Eh)            E(eV)
   0   2.0000     -20.608679      -560.7907
   1   2.0000     -20.586230      -560.1798
   2   2.0000     -20.564458      -559.5874
   3   2.0000     -20.562706      -559.5397
   4   2.0000     -20.557137      -559.3881
   5   2.0000     -20.532506      -558.7179
   6   2.0000     -20.504216      -557.9481
   7   2.0000      -1.388012       -37.7697
   8   2.0000      -1.372191       -37.3392
   9   2.0000      -1.356780       -36.9199
  10   2.0000      -1.349425       -36.7197
  11   2.0000      -1.334280       -36.3076
  12   2.0000      -1.316020       -35.8107
  13   2.0000      -1.288890       -35.0725
  14   2.0000      -0.753955       -20.5162
  15   2.0000      -0.734466       -19.9858
  16   2.0000      -0.718986       -19.5646
  17   2.0000      -0.715934       -19.4815
  18   2.0000      -0.706748       -19.2316
  19   2.0000      -0.699684       -19.0394
  20   2.0000      -0.667888       -18.1742
  21   2.0000      -0.632273       -17.2050
  22   2.0000      -0.617632       -16.8066
  23   2.0000      -0.603298       -16.4166
  24   2.0000      -0.594662       -16.1816
  25   2.0000      -0.575279       -15.6541
  26   2.0000      -0.559023       -15.2118
  27   2.0000      -0.549400       -14.9499
  28   2.0000      -0.531677       -14.4677
  29   2.0000      -0.519991       -14.1497
  30   2.0000      -0.510491       -13.8912
  31   2.0000      -0.503843       -13.7103
  32   2.0000      -0.499966       -13.6048
  33   2.0000      -0.480023       -13.0621
  34   2.0000      -0.454336       -12.3631
  35   0.0000       0.084940         2.3113
  36   0.0000       0.118247         3.2177
  37   0.0000       0.146715         3.9923
  38   0.0000       0.160146         4.3578
  39   0.0000       0.171062         4.6548

MULLIKEN ATOMIC CHARGES
-----------------------
   0 O :   -0.743396
   1 H :    0.335506
   2 H :    0.384945
   3 O :   -0.729735
   4 H :    0.387032
   5 H :    0.360832
   6 O :   -0.734334
   7 H :    0.355080
   8 H :    0.340160
   9 O :   -0.712935
  10 H :    0.346439
  11 H :    0.382007
  12 O :   -0.700815
  13 H :    0.389649
  14 H :    0.344930
  15 O :   -0.695749
  16 H :    0.359071
  17 H :    0.355550
  18 O :   -0.737178
  19 H :    0.361720
  20 H :    0.351222
Sum of atomic charges:   -0.0000000

LOEWDIN ATOMIC CHARGES
----------------------
   0 O :   -0.343149
   1 H :    0.153073
   2 H :    0.146290
   3 O :   -0.281235
   4 H :    0.156559
   5 H :    0.177947
   6 O :   -0.345277
   7 H :    0.141988
   8 H :    0.164255
   9 O :   -0.306874
  10 H :    0.164617
  11 H :    0.147705
  12 O :   -0.276520
  13 H :    0.160415
  14 H :    0.167569
  15 O :   -0.308999
  16 H :    0.166929
  17 H :    0.186351
  18 O :   -0.359217
  19 H :    0.145036
  20 H :    0.142537

  Mayer bond orders larger than 0.100000
B(  0-O ,  1-H ) :   0.8515 B(  0-O ,  2-H ) :   0.7542 B(  3-O ,  4-H ) :   0.7927
B(  3-O ,  5-H ) :   0.8243 B(  6-O ,  7-H ) :   0.7652 B(  6-O ,  8-H ) :   0.8490
B(  7-H ,  9-O ) :   0.1118 B(  9-O , 10-H ) :   0.8428 B(  9-O , 11-H ) :   0.7713
B( 12-O , 13-H ) :   0.7943 B( 12-O , 14-H ) :   0.8411 B( 15-O , 16-H ) :   0.8382
B( 15-O , 17-H ) :   0.8339 B( 18-O , 19-H ) :   0.8312 B( 18-O , 20-H ) :   0.8120

MP2 TOTAL ENERGY:     -534.257292183 Eh
FINAL SINGLE POINT ENERGY      -534.257292183165

DIPOLE MOMENT
-------------
                                X             Y             Z
Electronic contribution:      0.18187       0.20936      -0.22950
Nuclear contribution   :     -0.82456      -0.53418      -2.14649
                        -----------------------------------------
Total Dipole Moment    :     -0.64270      -0.32483      -2.37599
                        -----------------------------------------
Magnitude (a.u.)       :      2.48272
Magnitude (Debye)      :      6.31058

Rotational constants in cm-1:     0.043938     0.023819     0.019634
Rotational constants in MHz :  1317.236241   714.087961   588.626106

                             ****ORCA TERMINATED NORMALLY****
TOTAL RUN TIME: 0 days 0 hours 1 minutes 55 seconds 71 msec
