                         Program Version 4.2.0 -  RELEASE  -
|  1> # 12meoh.boyd.etal.mol3,7,11
|  2> ! MP2 def2-TZVP EnGrad TightSCF
|  3>
|  4> %pal
|  5>     nprocs 6
|  6> end
|  7>
|  8> %maxcore 8000
|  9>
| 10> %scf
| 11>     ConvForced true
| 12> end
| 13>
| 14> *xyz 0 1
| 15> O  -3.821405976  -2.118091637   0.596795346
| 16> H  -4.342989117  -1.344303030   0.251966383
| 17> C  -3.443883586  -1.809641231   1.934889393
| 18> H  -2.831494349  -2.637429600   2.305201764
| 19> H  -4.325601146  -1.719364371   2.585074667
| 20> H  -2.858527126  -0.882644791   1.996110694
| 21> O   4.310535586  -1.588322800   0.656128299
| 22> H   3.804372199  -1.630404735  -0.196849819
| 23> C   4.312298137  -2.894980854   1.222112691
| 24> H   4.713177833  -2.819907076   2.237066773
| 25> H   4.957796734  -3.574699304   0.648211180
| 26> H   3.302735989  -3.324433205   1.269756773
| 27> O   3.252955559   0.588596242   1.858934315
| 28> H   3.621209177  -0.251605199   1.476063364
| 29> C   4.040824528   0.944288422   2.989639460
| 30> H   3.670521436   1.902573549   3.363847391
| 31> H   5.103749934   1.055868619   2.734277559
| 32> H   3.948540682   0.200279590   3.792908518
| 33> *
| 34>
| 35>                          ****END OF INPUT****

CARTESIAN COORDINATES (ANGSTROEM)
---------------------------------
  O     -3.821406   -2.118092    0.596795
  H     -4.342989   -1.344303    0.251966
  C     -3.443884   -1.809641    1.934889
  H     -2.831494   -2.637430    2.305202
  H     -4.325601   -1.719364    2.585075
  H     -2.858527   -0.882645    1.996111
  O      4.310536   -1.588323    0.656128
  H      3.804372   -1.630405   -0.196850
  C      4.312298   -2.894981    1.222113
  H      4.713178   -2.819907    2.237067
  H      4.957797   -3.574699    0.648211
  H      3.302736   -3.324433    1.269757
  O      3.252956    0.588596    1.858934
  H      3.621209   -0.251605    1.476063
  C      4.040825    0.944288    2.989639
  H      3.670521    1.902574    3.363847
  H      5.103750    1.055869    2.734278
  H      3.948541    0.200280    3.792909

 Total Charge           Charge          ....    0
 Multiplicity           Mult            ....    1
 Number of Electrons    NEL             ....   54
 Basis Dimension        Dim             ....  258

ORBITAL ENERGIES
----------------

  NO   OCC          E(Eh)            E(eV)
   0   2.0000     -20.589246      -560.2619
   1   2.0000     -20.556435      -559.3690
   2   2.0000     -20.514477      -558.2273
   3   2.0000     -11.291256      -307.2507
   4   2.0000     -11.269867      -306.6687
   5   2.0000     -11.249380      -306.1112
   6   2.0000      -1.382800       -37.6279
   7   2.0000      -1.345500       -36.6129
   8   2.0000      -1.311147       -35.6781
   9   2.0000      -0.943124       -25.6637
  10   2.0000      -0.917482       -24.9659
  11   2.0000      -0.895774       -24.3753
  12   2.0000      -0.713778       -19.4229
  13   2.0000      -0.679760       -18.4972
  14   2.0000      -0.673906       -18.3379
  15   2.0000      -0.635627       -17.2963
  16   2.0000      -0.615853       -16.7582
  17   2.0000      -0.610325       -16.6078
  18   2.0000      -0.590810       -16.0768
  19   2.0000      -0.588721       -16.0199
  20   2.0000      -0.562178       -15.2976
  21   2.0000      -0.529281       -14.4025
  22   2.0000      -0.499299       -13.5866
  23   2.0000      -0.487105       -13.2548
  24   2.0000      -0.457406       -12.4466
  25   2.0000      -0.448024       -12.1913
  26   2.0000      -0.417270       -11.3545
  27   0.0000       0.120106         3.2683
  28   0.0000       0.136741         3.7209
  29   0.0000       0.156278         4.2525
  30   0.0000       0.173336         4.7167
  31   0.0000       0.178041         4.8447

MULLIKEN ATOMIC CHARGES
-----------------------
   0 O :   -0.496923
   1 H :    0.321455
   2 C :   -0.175604
   3 H :    0.126635
   4 H :    0.108721
   5 H :    0.115716
   6 O :   -0.513282
   7 H :    0.344905
   8 C :   -0.184569
   9 H :    0.139895
  10 H :    0.124813
  11 H :    0.129675
  12 O :   -0.532719
  13 H :    0.339510
  14 C :   -0.164101
  15 H :    0.120580
  16 H :    0.102919
  17 H :    0.092377
Sum of atomic charges:   -0.0000000

LOEWDIN ATOMIC CHARGES
----------------------
   0 O :   -0.110827
   1 H :    0.190759
   2 C :   -0.381893
   3 H :    0.109758
   4 H :    0.095298
   5 H :    0.096904
   6 O :   -0.074743
   7 H :    0.200489
   8 C :   -0.372551
   9 H :    0.114131
  10 H :    0.104139
  11 H :    0.102718
  12 O :   -0.126276
  13 H :    0.157063
  14 C :   -0.393287
  15 H :    0.105494
  16 H :    0.093206
  17 H :    0.089618

  Mayer bond orders larger than 0.100000
B(  0-O ,  1-H ) :   0.8428 B(  0-O ,  2-C ) :   0.9249 B(  2-C ,  3-H ) :   0.9379
B(  2-C ,  4-H ) :   0.9390 B(  2-C ,  5-H ) :   0.9384 B(  6-O ,  7-H ) :   0.8275
B(  6-O ,  8-C ) :   0.8726 B(  8-C ,  9-H ) :   0.9399 B(  8-C , 10-H ) :   0.9330
B(  8-C , 11-H ) :   0.9398 B( 12-O , 13-H ) :   0.7922 B( 12-O , 14-C ) :   0.9409
B( 14-C , 15-H ) :   0.9420 B( 14-C , 16-H ) :   0.9381 B( 14-C , 17-H ) :   0.9389

MP2 TOTAL ENERGY:     -346.529254587 Eh
FINAL SINGLE POINT ENERGY      -346.529254586953

DIPOLE MOMENT
-------------
                                X             Y             Z
Electronic contribution:     -1.31150       0.50865      -3.87148
Nuclear contribution   :      1.46240      -1.18666       3.92396
                        -----------------------------------------
Total Dipole Moment    :      0.15090      -0.67801       0.05248
                        -----------------------------------------
Magnitude (a.u.)       :      0.69658
Magnitude (Debye)      :      1.77056

Rotational constants in cm-1:     0.070621     0.012741     0.011263
Rotational constants in MHz :  2117.156012   381.968456   337.658005

                             ****ORCA TERMINATED NORMALLY****
TOTAL RUN TIME: 0 days 0 hours 0 minutes 56 seconds 919 msec
