                         Program Version 4.2.0 -  RELEASE  -
|  1> # 12h2o.su.etal.mol0,3,5,6,10,11
|  2> ! MP2 def2-TZVP EnGrad TightSCF
|  3>
|  4> %pal
|  5>     nprocs 6
|  6> end
|  7>
|  8> %maxcore 8000
|  9>
| 10> %scf
| 11>     ConvForced true
| 12> end
| 13>
| 14> *xyz 0 1
| 15> O   1.794470000   0.923410000   2.768350000
| 16> H   2.338250000   1.359750000   3.430940000
| 17> H   0.879480000   1.303000000   2.865760000
| 18> O  -1.752130000  -0.741530000  -2.896280000
| 19> H  -2.036450000  -0.920500000  -1.984040000
| 20> H  -0.921210000  -1.242140000  -2.984230000
| 21> O   0.885520000  -1.737840000   0.052730000
| 22> H   1.284090000  -0.839590000   0.017130000
| 23> H   1.032320000  -2.090180000  -0.841890000
| 24> O   1.737840000   0.885520000  -0.052730000
| 25> H   2.090180000   1.032320000   0.841890000
| 26> H   0.839590000   1.284090000  -0.017130000
| 27> O  -0.923410000   1.794470000  -2.768350000
| 28> H  -1.359750000   2.338250000  -3.430940000
| 29> H  -1.303000000   0.879480000  -2.865760000
| 30> O  -0.741530000   1.752130000   2.896280000
| 31> H  -0.920500000   2.036450000   1.984040000
| 32> H  -1.242140000   0.921210000   2.984230000
| 33> *
| 34>
| 35>                          ****END OF INPUT****

CARTESIAN COORDINATES (ANGSTROEM)
---------------------------------
  O      1.794470    0.923410    2.768350
  H      2.338250    1.359750    3.430940
  H      0.879480    1.303000    2.865760
  O     -1.752130   -0.741530   -2.896280
  H     -2.036450   -0.920500   -1.984040
  H     -0.921210   -1.242140   -2.984230
  O      0.885520   -1.737840    0.052730
  H      1.284090   -0.839590    0.017130
  H      1.032320   -2.090180   -0.841890
  O      1.737840    0.885520   -0.052730
  H      2.090180    1.032320    0.841890
  H      0.839590    1.284090   -0.017130
  O     -0.923410    1.794470   -2.768350
  H     -1.359750    2.338250   -3.430940
  H     -1.303000    0.879480   -2.865760
  O     -0.741530    1.752130    2.896280
  H     -0.920500    2.036450    1.984040
  H     -1.242140    0.921210    2.984230

 Total Charge           Charge          ....    0
 Multiplicity           Mult            ....    1
 Number of Electrons    NEL             ....   60
 Basis Dimension        Dim             ....  258

ORBITAL ENERGIES
----------------

  NO   OCC          E(Eh)            E(eV)
   0   2.0000     -20.612719      -560.9006
   1   2.0000     -20.599809      -560.5493
   2   2.0000     -20.555117      -559.3332
   3   2.0000     -20.549599      -559.1830
   4   2.0000     -20.526553      -558.5559
   5   2.0000     -20.525638      -558.5310
   6   2.0000      -1.398195       -38.0468
   7   2.0000      -1.385086       -37.6901
   8   2.0000      -1.343321       -36.5536
   9   2.0000      -1.330175       -36.1959
  10   2.0000      -1.307824       -35.5877
  11   2.0000      -1.306248       -35.5448
  12   2.0000      -0.755205       -20.5502
  13   2.0000      -0.742682       -20.2094
  14   2.0000      -0.720404       -19.6032
  15   2.0000      -0.701266       -19.0824
  16   2.0000      -0.697752       -18.9868
  17   2.0000      -0.680043       -18.5049
  18   2.0000      -0.636562       -17.3217
  19   2.0000      -0.620955       -16.8971
  20   2.0000      -0.594625       -16.1806
  21   2.0000      -0.576066       -15.6756
  22   2.0000      -0.563314       -15.3286
  23   2.0000      -0.552335       -15.0298
  24   2.0000      -0.536230       -14.5916
  25   2.0000      -0.520008       -14.1501
  26   2.0000      -0.498099       -13.5540
  27   2.0000      -0.493477       -13.4282
  28   2.0000      -0.476047       -12.9539
  29   2.0000      -0.474335       -12.9073
  30   0.0000       0.083631         2.2757
  31   0.0000       0.107246         2.9183
  32   0.0000       0.152213         4.1419
  33   0.0000       0.158156         4.3037
  34   0.0000       0.166892         4.5414

MULLIKEN ATOMIC CHARGES
-----------------------
   0 O :   -0.731844
   1 H :    0.339312
   2 H :    0.368198
   3 O :   -0.677761
   4 H :    0.359774
   5 H :    0.358341
   6 O :   -0.718819
   7 H :    0.365973
   8 H :    0.312231
   9 O :   -0.692848
  10 H :    0.379567
  11 H :    0.330275
  12 O :   -0.733198
  13 H :    0.327001
  14 H :    0.364611
  15 O :   -0.677259
  16 H :    0.357060
  17 H :    0.369386
Sum of atomic charges:   -0.0000000

LOEWDIN ATOMIC CHARGES
----------------------
   0 O :   -0.336874
   1 H :    0.155280
   2 H :    0.143234
   3 O :   -0.269794
   4 H :    0.174828
   5 H :    0.175501
   6 O :   -0.364189
   7 H :    0.144380
   8 H :    0.149778
   9 O :   -0.296321
  10 H :    0.153173
  11 H :    0.164951
  12 O :   -0.372971
  13 H :    0.149831
  14 H :    0.141595
  15 O :   -0.266840
  16 H :    0.172819
  17 H :    0.181620

  Mayer bond orders larger than 0.100000
B(  0-O ,  1-H ) :   0.8494 B(  0-O ,  2-H ) :   0.7715 B(  3-O ,  4-H ) :   0.8346
B(  3-O ,  5-H ) :   0.8352 B(  6-O ,  7-H ) :   0.7824 B(  6-O ,  8-H ) :   0.8659
B(  9-O , 10-H ) :   0.7945 B(  9-O , 11-H ) :   0.8465 B( 12-O , 13-H ) :   0.8593
B( 12-O , 14-H ) :   0.7858 B( 15-O , 16-H ) :   0.8371 B( 15-O , 17-H ) :   0.8296

MP2 TOTAL ENERGY:     -457.913590282 Eh
FINAL SINGLE POINT ENERGY      -457.913590282068

DIPOLE MOMENT
-------------
                                X             Y             Z
Electronic contribution:     -0.07430       0.01269       0.28342
Nuclear contribution   :     -1.09927       0.25788       0.00000
                        -----------------------------------------
Total Dipole Moment    :     -1.17356       0.27057       0.28342
                        -----------------------------------------
Magnitude (a.u.)       :      1.23725
Magnitude (Debye)      :      3.14483

Rotational constants in cm-1:     0.056173     0.021726     0.019430
Rotational constants in MHz :  1684.016388   651.323767   582.500753

                             ****ORCA TERMINATED NORMALLY****
TOTAL RUN TIME: 0 days 0 hours 1 minutes 0 seconds 982 msec
