                         Program Version 4.2.0 -  RELEASE  -
|  1> # 12h2o.su.etal.mol3,6,7
|  2> ! MP2 def2-TZVP EnGrad TightSCF
|  3>
|  4> %pal
|  5>     nprocs 6
|  6> end
|  7>
|  8> %maxcore 8000
|  9>
| 10> %scf
| 11>     ConvForced true
| 12> end
| 13>
| 14> *xyz 0 1
| 15> O  -1.752130000  -0.741530000  -2.896280000
| 16> H  -2.036450000  -0.920500000  -1.984040000
| 17> H  -0.921210000  -1.242140000  -2.984230000
| 18> O   1.737840000   0.885520000  -0.052730000
| 19> H   2.090180000   1.032320000   0.841890000
| 20> H   0.839590000   1.284090000  -0.017130000
| 21> O  -1.737840000  -0.885520000  -0.052730000
| 22> H  -2.090180000  -1.032320000   0.841890000
| 23> H  -0.839590000  -1.284090000  -0.017130000
| 24> *
| 25>
| 26>                          ****END OF INPUT****

CARTESIAN COORDINATES (ANGSTROEM)
---------------------------------
  O     -1.752130   -0.741530   -2.896280
  H     -2.036450   -0.920500   -1.984040
  H     -0.921210   -1.242140   -2.984230
  O      1.737840    0.885520   -0.052730
  H      2.090180    1.032320    0.841890
  H      0.839590    1.284090   -0.017130
  O     -1.737840   -0.885520   -0.052730
  H     -2.090180   -1.032320    0.841890
  H     -0.839590   -1.284090   -0.017130

 Total Charge           Charge          ....    0
 Multiplicity           Mult            ....    1
 Number of Electrons    NEL             ....   30
 Basis Dimension        Dim             ....  129

ORBITAL ENERGIES
----------------

  NO   OCC          E(Eh)            E(eV)
   0   2.0000     -20.592928      -560.3621
   1   2.0000     -20.570305      -559.7465
   2   2.0000     -20.529850      -558.6456
   3   2.0000      -1.371245       -37.3135
   4   2.0000      -1.346213       -36.6323
   5   2.0000      -1.311719       -35.6937
   6   2.0000      -0.733566       -19.9614
   7   2.0000      -0.707908       -19.2632
   8   2.0000      -0.681895       -18.5553
   9   2.0000      -0.611235       -16.6326
  10   2.0000      -0.585524       -15.9329
  11   2.0000      -0.550792       -14.9878
  12   2.0000      -0.532975       -14.5030
  13   2.0000      -0.512970       -13.9586
  14   2.0000      -0.476186       -12.9577
  15   0.0000       0.096184         2.6173
  16   0.0000       0.137075         3.7300
  17   0.0000       0.163351         4.4450
  18   0.0000       0.196917         5.3584
  19   0.0000       0.207439         5.6447

MULLIKEN ATOMIC CHARGES
-----------------------
   0 O :   -0.693203
   1 H :    0.367507
   2 H :    0.320582
   3 O :   -0.681129
   4 H :    0.335692
   5 H :    0.346309
   6 O :   -0.694448
   7 H :    0.349198
   8 H :    0.349491
Sum of atomic charges:    0.0000000

LOEWDIN ATOMIC CHARGES
----------------------
   0 O :   -0.339127
   1 H :    0.152068
   2 H :    0.158625
   3 O :   -0.337859
   4 H :    0.164480
   5 H :    0.173913
   6 O :   -0.317820
   7 H :    0.170486
   8 H :    0.175235

  Mayer bond orders larger than 0.100000
B(  0-O ,  1-H ) :   0.8239 B(  0-O ,  2-H ) :   0.8624 B(  3-O ,  4-H ) :   0.8533
B(  3-O ,  5-H ) :   0.8427 B(  6-O ,  7-H ) :   0.8424 B(  6-O ,  8-H ) :   0.8356

MP2 TOTAL ENERGY:     -228.946353223 Eh
FINAL SINGLE POINT ENERGY      -228.946353223294

DIPOLE MOMENT
-------------
                                X             Y             Z
Electronic contribution:     -0.09418       0.11911      -0.20168
Nuclear contribution   :      0.45497      -0.56566       2.23466
                        -----------------------------------------
Total Dipole Moment    :      0.36079      -0.44655       2.03298
                        -----------------------------------------
Magnitude (a.u.)       :      2.11249
Magnitude (Debye)      :      5.36951

Rotational constants in cm-1:     0.255573     0.077674     0.060341
Rotational constants in MHz :  7661.875385  2328.593282  1808.965686

                             ****ORCA TERMINATED NORMALLY****
TOTAL RUN TIME: 0 days 0 hours 0 minutes 9 seconds 536 msec
