                         Program Version 4.2.0 -  RELEASE  -
|  1> # 12h2o.su.etal.mol0,2,7,8,10
|  2> ! MP2 def2-TZVP EnGrad TightSCF
|  3>
|  4> %pal
|  5>     nprocs 6
|  6> end
|  7>
|  8> %maxcore 8000
|  9>
| 10> %scf
| 11>     ConvForced true
| 12> end
| 13>
| 14> *xyz 0 1
| 15> O   1.794470000   0.923410000   2.768350000
| 16> H   2.338250000   1.359750000   3.430940000
| 17> H   0.879480000   1.303000000   2.865760000
| 18> O   0.923410000  -1.794470000  -2.768350000
| 19> H   1.359750000  -2.338250000  -3.430940000
| 20> H   1.303000000  -0.879480000  -2.865760000
| 21> O  -1.737840000  -0.885520000  -0.052730000
| 22> H  -2.090180000  -1.032320000   0.841890000
| 23> H  -0.839590000  -1.284090000  -0.017130000
| 24> O   1.752130000   0.741530000  -2.896280000
| 25> H   2.036450000   0.920500000  -1.984040000
| 26> H   0.921210000   1.242140000  -2.984230000
| 27> O  -0.923410000   1.794470000  -2.768350000
| 28> H  -1.359750000   2.338250000  -3.430940000
| 29> H  -1.303000000   0.879480000  -2.865760000
| 30> *
| 31>
| 32>                          ****END OF INPUT****

CARTESIAN COORDINATES (ANGSTROEM)
---------------------------------
  O      1.794470    0.923410    2.768350
  H      2.338250    1.359750    3.430940
  H      0.879480    1.303000    2.865760
  O      0.923410   -1.794470   -2.768350
  H      1.359750   -2.338250   -3.430940
  H      1.303000   -0.879480   -2.865760
  O     -1.737840   -0.885520   -0.052730
  H     -2.090180   -1.032320    0.841890
  H     -0.839590   -1.284090   -0.017130
  O      1.752130    0.741530   -2.896280
  H      2.036450    0.920500   -1.984040
  H      0.921210    1.242140   -2.984230
  O     -0.923410    1.794470   -2.768350
  H     -1.359750    2.338250   -3.430940
  H     -1.303000    0.879480   -2.865760

 Total Charge           Charge          ....    0
 Multiplicity           Mult            ....    1
 Number of Electrons    NEL             ....   50
 Basis Dimension        Dim             ....  215

ORBITAL ENERGIES
----------------

  NO   OCC          E(Eh)            E(eV)
   0   2.0000     -20.581982      -560.0642
   1   2.0000     -20.566633      -559.6465
   2   2.0000     -20.560769      -559.4870
   3   2.0000     -20.552253      -559.2552
   4   2.0000     -20.511500      -558.1463
   5   2.0000      -1.361545       -37.0495
   6   2.0000      -1.347725       -36.6735
   7   2.0000      -1.341948       -36.5163
   8   2.0000      -1.328268       -36.1440
   9   2.0000      -1.293282       -35.1920
  10   2.0000      -0.728358       -19.8196
  11   2.0000      -0.710344       -19.3295
  12   2.0000      -0.709128       -19.2964
  13   2.0000      -0.690065       -18.7776
  14   2.0000      -0.680571       -18.5193
  15   2.0000      -0.607793       -16.5389
  16   2.0000      -0.581747       -15.8301
  17   2.0000      -0.578029       -15.7290
  18   2.0000      -0.568641       -15.4735
  19   2.0000      -0.541926       -14.7465
  20   2.0000      -0.522361       -14.2142
  21   2.0000      -0.509860       -13.8740
  22   2.0000      -0.495341       -13.4789
  23   2.0000      -0.493632       -13.4324
  24   2.0000      -0.462206       -12.5773
  25   0.0000       0.106600         2.9007
  26   0.0000       0.123191         3.3522
  27   0.0000       0.146846         3.9959
  28   0.0000       0.160135         4.3575
  29   0.0000       0.184434         5.0187

MULLIKEN ATOMIC CHARGES
-----------------------
   0 O :   -0.684057
   1 H :    0.340212
   2 H :    0.343731
   3 O :   -0.737015
   4 H :    0.323508
   5 H :    0.364942
   6 O :   -0.686103
   7 H :    0.330593
   8 H :    0.354467
   9 O :   -0.703605
  10 H :    0.355537
  11 H :    0.373220
  12 O :   -0.703104
  13 H :    0.349930
  14 H :    0.377744
Sum of atomic charges:   -0.0000000

LOEWDIN ATOMIC CHARGES
----------------------
   0 O :   -0.339793
   1 H :    0.158491
   2 H :    0.181166
   3 O :   -0.375554
   4 H :    0.147961
   5 H :    0.141146
   6 O :   -0.341150
   7 H :    0.162468
   8 H :    0.178047
   9 O :   -0.284774
  10 H :    0.172122
  11 H :    0.153346
  12 O :   -0.310758
  13 H :    0.162794
  14 H :    0.194489

  Mayer bond orders larger than 0.100000
B(  0-O ,  1-H ) :   0.8524 B(  0-O ,  2-H ) :   0.8448 B(  3-O ,  4-H ) :   0.8612
B(  3-O ,  5-H ) :   0.7751 B(  6-O ,  7-H ) :   0.8563 B(  6-O ,  8-H ) :   0.8378
B(  9-O , 10-H ) :   0.8393 B(  9-O , 11-H ) :   0.7962 B( 12-O , 13-H ) :   0.8429
B( 12-O , 14-H ) :   0.8164

MP2 TOTAL ENERGY:     -381.587190367 Eh
FINAL SINGLE POINT ENERGY      -381.587190366541

DIPOLE MOMENT
-------------
                                X             Y             Z
Electronic contribution:     -0.05221       0.24896      -0.12999
Nuclear contribution   :     -0.30955       0.79086       0.82779
                        -----------------------------------------
Total Dipole Moment    :     -0.36177       1.03982       0.69780
                        -----------------------------------------
Magnitude (a.u.)       :      1.30346
Magnitude (Debye)      :      3.31314

Rotational constants in cm-1:     0.049976     0.027250     0.025709
Rotational constants in MHz :  1498.228934   816.932344   770.749978

                             ****ORCA TERMINATED NORMALLY****
TOTAL RUN TIME: 0 days 0 hours 0 minutes 29 seconds 231 msec
