                         Program Version 4.2.0 -  RELEASE  -
|  1> # 12h2o.su.etal.mol0,1,3,4,5,8,9,11
|  2> ! MP2 def2-TZVP EnGrad TightSCF
|  3>
|  4> %pal
|  5>     nprocs 6
|  6> end
|  7>
|  8> %maxcore 8000
|  9>
| 10> %scf
| 11>     ConvForced true
| 12> end
| 13>
| 14> *xyz 0 1
| 15> O   1.794470000   0.923410000   2.768350000
| 16> H   2.338250000   1.359750000   3.430940000
| 17> H   0.879480000   1.303000000   2.865760000
| 18> O  -1.794470000  -0.923410000   2.768350000
| 19> H  -2.338250000  -1.359750000   3.430940000
| 20> H  -0.879480000  -1.303000000   2.865760000
| 21> O  -1.752130000  -0.741530000  -2.896280000
| 22> H  -2.036450000  -0.920500000  -1.984040000
| 23> H  -0.921210000  -1.242140000  -2.984230000
| 24> O  -0.885520000   1.737840000   0.052730000
| 25> H  -1.032320000   2.090180000  -0.841890000
| 26> H  -1.284090000   0.839590000   0.017130000
| 27> O   0.885520000  -1.737840000   0.052730000
| 28> H   1.284090000  -0.839590000   0.017130000
| 29> H   1.032320000  -2.090180000  -0.841890000
| 30> O   1.752130000   0.741530000  -2.896280000
| 31> H   2.036450000   0.920500000  -1.984040000
| 32> H   0.921210000   1.242140000  -2.984230000
| 33> O   0.741530000  -1.752130000   2.896280000
| 34> H   0.920500000  -2.036450000   1.984040000
| 35> H   1.242140000  -0.921210000   2.984230000
| 36> O  -0.741530000   1.752130000   2.896280000
| 37> H  -0.920500000   2.036450000   1.984040000
| 38> H  -1.242140000   0.921210000   2.984230000
| 39> *
| 40>
| 41>                          ****END OF INPUT****

CARTESIAN COORDINATES (ANGSTROEM)
---------------------------------
  O      1.794470    0.923410    2.768350
  H      2.338250    1.359750    3.430940
  H      0.879480    1.303000    2.865760
  O     -1.794470   -0.923410    2.768350
  H     -2.338250   -1.359750    3.430940
  H     -0.879480   -1.303000    2.865760
  O     -1.752130   -0.741530   -2.896280
  H     -2.036450   -0.920500   -1.984040
  H     -0.921210   -1.242140   -2.984230
  O     -0.885520    1.737840    0.052730
  H     -1.032320    2.090180   -0.841890
  H     -1.284090    0.839590    0.017130
  O      0.885520   -1.737840    0.052730
  H      1.284090   -0.839590    0.017130
  H      1.032320   -2.090180   -0.841890
  O      1.752130    0.741530   -2.896280
  H      2.036450    0.920500   -1.984040
  H      0.921210    1.242140   -2.984230
  O      0.741530   -1.752130    2.896280
  H      0.920500   -2.036450    1.984040
  H      1.242140   -0.921210    2.984230
  O     -0.741530    1.752130    2.896280
  H     -0.920500    2.036450    1.984040
  H     -1.242140    0.921210    2.984230

 Total Charge           Charge          ....    0
 Multiplicity           Mult            ....    1
 Number of Electrons    NEL             ....   80
 Basis Dimension        Dim             ....  344

ORBITAL ENERGIES
----------------

  NO   OCC          E(Eh)            E(eV)
   0   2.0000     -20.599645      -560.5448
   1   2.0000     -20.599645      -560.5448
   2   2.0000     -20.584007      -560.1193
   3   2.0000     -20.584006      -560.1193
   4   2.0000     -20.544493      -559.0441
   5   2.0000     -20.544493      -559.0441
   6   2.0000     -20.541813      -558.9711
   7   2.0000     -20.541813      -558.9711
   8   2.0000      -1.378454       -37.5096
   9   2.0000      -1.377727       -37.4899
  10   2.0000      -1.363251       -37.0960
  11   2.0000      -1.362512       -37.0758
  12   2.0000      -1.346597       -36.6428
  13   2.0000      -1.336333       -36.3635
  14   2.0000      -1.324977       -36.0545
  15   2.0000      -1.314989       -35.7827
  16   2.0000      -0.741636       -20.1809
  17   2.0000      -0.739171       -20.1139
  18   2.0000      -0.726609       -19.7720
  19   2.0000      -0.724297       -19.7091
  20   2.0000      -0.710997       -19.3472
  21   2.0000      -0.709374       -19.3031
  22   2.0000      -0.700452       -19.0603
  23   2.0000      -0.696492       -18.9525
  24   2.0000      -0.628451       -17.1010
  25   2.0000      -0.621512       -16.9122
  26   2.0000      -0.600770       -16.3478
  27   2.0000      -0.600402       -16.3378
  28   2.0000      -0.597593       -16.2613
  29   2.0000      -0.577587       -15.7169
  30   2.0000      -0.567736       -15.4489
  31   2.0000      -0.548758       -14.9325
  32   2.0000      -0.540202       -14.6996
  33   2.0000      -0.539595       -14.6831
  34   2.0000      -0.530378       -14.4323
  35   2.0000      -0.524611       -14.2754
  36   2.0000      -0.493125       -13.4186
  37   2.0000      -0.491919       -13.3858
  38   2.0000      -0.488946       -13.3049
  39   2.0000      -0.488912       -13.3040
  40   0.0000       0.063896         1.7387
  41   0.0000       0.116773         3.1776
  42   0.0000       0.121510         3.3064
  43   0.0000       0.136672         3.7190
  44   0.0000       0.162961         4.4344

MULLIKEN ATOMIC CHARGES
-----------------------
   0 O :   -0.751837
   1 H :    0.339689
   2 H :    0.383749
   3 O :   -0.751837
   4 H :    0.339689
   5 H :    0.383749
   6 O :   -0.676604
   7 H :    0.337173
   8 H :    0.341661
   9 O :   -0.701693
  10 H :    0.349013
  11 H :    0.355218
  12 O :   -0.701693
  13 H :    0.355218
  14 H :    0.349013
  15 O :   -0.676604
  16 H :    0.337173
  17 H :    0.341661
  18 O :   -0.724287
  19 H :    0.380900
  20 H :    0.367019
  21 O :   -0.724287
  22 H :    0.380900
  23 H :    0.367019
Sum of atomic charges:   -0.0000000

LOEWDIN ATOMIC CHARGES
----------------------
   0 O :   -0.346367
   1 H :    0.154828
   2 H :    0.145551
   3 O :   -0.346367
   4 H :    0.154828
   5 H :    0.145551
   6 O :   -0.327286
   7 H :    0.162759
   8 H :    0.165902
   9 O :   -0.315613
  10 H :    0.168349
  11 H :    0.175478
  12 O :   -0.315613
  13 H :    0.175478
  14 H :    0.168349
  15 O :   -0.327286
  16 H :    0.162759
  17 H :    0.165902
  18 O :   -0.288661
  19 H :    0.155646
  20 H :    0.149414
  21 O :   -0.288661
  22 H :    0.155646
  23 H :    0.149414

  Mayer bond orders larger than 0.100000
B(  0-O ,  1-H ) :   0.8492 B(  0-O ,  2-H ) :   0.7396 B(  2-H , 21-O ) :   0.1184
B(  3-O ,  4-H ) :   0.8492 B(  3-O ,  5-H ) :   0.7396 B(  5-H , 18-O ) :   0.1184
B(  6-O ,  7-H ) :   0.8509 B(  6-O ,  8-H ) :   0.8465 B(  9-O , 10-H ) :   0.8412
B(  9-O , 11-H ) :   0.8291 B( 12-O , 13-H ) :   0.8291 B( 12-O , 14-H ) :   0.8412
B( 15-O , 16-H ) :   0.8509 B( 15-O , 17-H ) :   0.8465 B( 18-O , 19-H ) :   0.8116
B( 18-O , 20-H ) :   0.7915 B( 21-O , 22-H ) :   0.8116 B( 21-O , 23-H ) :   0.7915

MP2 TOTAL ENERGY:     -610.573981664 Eh
FINAL SINGLE POINT ENERGY      -610.573981663642

DIPOLE MOMENT
-------------
                                X             Y             Z
Electronic contribution:      0.00000      -0.00000      -0.26633
Nuclear contribution   :     -0.00000      -0.00000      -0.28337
                        -----------------------------------------
Total Dipole Moment    :      0.00000      -0.00000      -0.54970
                        -----------------------------------------
Magnitude (a.u.)       :      0.54970
Magnitude (Debye)      :      1.39722

Rotational constants in cm-1:     0.030711     0.015719     0.015532
Rotational constants in MHz :   920.683949   471.244270   465.637885

                             ****ORCA TERMINATED NORMALLY****
TOTAL RUN TIME: 0 days 0 hours 2 minutes 46 seconds 955 msec
