                         Program Version 4.2.0 -  RELEASE  -
|  1> # 12meoh.boyd.etal.mol8,10
|  2> ! MP2 def2-TZVP EnGrad TightSCF
|  3>
|  4> %pal
|  5>     nprocs 6
|  6> end
|  7>
|  8> %maxcore 8000
|  9>
| 10> %scf
| 11>     ConvForced true
| 12> end
| 13>
| 14> *xyz 0 1
| 15> O   3.570084754   2.361662577  -0.202416728
| 16> H   3.393280933   1.755669977   0.560634073
| 17> C   4.368082883   1.644741793  -1.143112807
| 18> H   4.552851717   2.311801738  -1.989632421
| 19> H   3.862427494   0.740851663  -1.508095690
| 20> H   5.333949674   1.357289092  -0.706288100
| 21> O  -5.201143618   0.064582726  -0.172223772
| 22> H  -4.686891530   0.869258890   0.107806143
| 23> C  -6.513192168   0.171391798   0.359883449
| 24> H  -7.049381312  -0.749234190   0.111361174
| 25> H  -7.057741163   1.017801101  -0.081819420
| 26> H  -6.514770575   0.292264928   1.453058834
| 27> *
| 28>
| 29>                          ****END OF INPUT****

CARTESIAN COORDINATES (ANGSTROEM)
---------------------------------
  O      3.570085    2.361663   -0.202417
  H      3.393281    1.755670    0.560634
  C      4.368083    1.644742   -1.143113
  H      4.552852    2.311802   -1.989632
  H      3.862427    0.740852   -1.508096
  H      5.333950    1.357289   -0.706288
  O     -5.201144    0.064583   -0.172224
  H     -4.686892    0.869259    0.107806
  C     -6.513192    0.171392    0.359883
  H     -7.049381   -0.749234    0.111361
  H     -7.057741    1.017801   -0.081819
  H     -6.514771    0.292265    1.453059

 Total Charge           Charge          ....    0
 Multiplicity           Mult            ....    1
 Number of Electrons    NEL             ....   36
 Basis Dimension        Dim             ....  172

ORBITAL ENERGIES
----------------

  NO   OCC          E(Eh)            E(eV)
   0   2.0000     -20.557420      -559.3958
   1   2.0000     -20.557011      -559.3847
   2   2.0000     -11.271601      -306.7159
   3   2.0000     -11.271234      -306.7059
   4   2.0000      -1.347504       -36.6674
   5   2.0000      -1.346500       -36.6401
   6   2.0000      -0.919693       -25.0261
   7   2.0000      -0.919045       -25.0085
   8   2.0000      -0.682120       -18.5614
   9   2.0000      -0.681651       -18.5487
  10   2.0000      -0.616837       -16.7850
  11   2.0000      -0.616655       -16.7800
  12   2.0000      -0.591352       -16.0915
  13   2.0000      -0.589455       -16.0399
  14   2.0000      -0.501417       -13.6443
  15   2.0000      -0.499703       -13.5976
  16   2.0000      -0.449582       -12.2338
  17   2.0000      -0.448425       -12.2023
  18   0.0000       0.135373         3.6837
  19   0.0000       0.135407         3.6846
  20   0.0000       0.176104         4.7920
  21   0.0000       0.176524         4.8035
  22   0.0000       0.229307         6.2398

MULLIKEN ATOMIC CHARGES
-----------------------
   0 O :   -0.496320
   1 H :    0.320515
   2 C :   -0.174432
   3 H :    0.129717
   4 H :    0.110777
   5 H :    0.109744
   6 O :   -0.496402
   7 H :    0.322132
   8 C :   -0.172404
   9 H :    0.129025
  10 H :    0.108914
  11 H :    0.108734
Sum of atomic charges:    0.0000000

LOEWDIN ATOMIC CHARGES
----------------------
   0 O :   -0.110187
   1 H :    0.187538
   2 C :   -0.378885
   3 H :    0.110485
   4 H :    0.095576
   5 H :    0.095472
   6 O :   -0.106960
   7 H :    0.191215
   8 C :   -0.385039
   9 H :    0.110358
  10 H :    0.095184
  11 H :    0.095243

  Mayer bond orders larger than 0.100000
B(  0-O ,  1-H ) :   0.8441 B(  0-O ,  2-C ) :   0.9248 B(  2-C ,  3-H ) :   0.9379
B(  2-C ,  4-H ) :   0.9381 B(  2-C ,  5-H ) :   0.9394 B(  6-O ,  7-H ) :   0.8417
B(  6-O ,  8-C ) :   0.9275 B(  8-C ,  9-H ) :   0.9376 B(  8-C , 10-H ) :   0.9390
B(  8-C , 11-H ) :   0.9385

MP2 TOTAL ENERGY:     -231.013530209 Eh
FINAL SINGLE POINT ENERGY      -231.013530209429

DIPOLE MOMENT
-------------
                                X             Y             Z
Electronic contribution:      0.62412       0.73895       0.34903
Nuclear contribution   :     -0.61994      -0.86725       0.12260
                        -----------------------------------------
Total Dipole Moment    :      0.00418      -0.12830       0.47164
                        -----------------------------------------
Magnitude (a.u.)       :      0.48879
Magnitude (Debye)      :      1.24242

Rotational constants in cm-1:     0.745749     0.010357     0.010266
Rotational constants in MHz : 22356.990298   310.504117   307.773766

                             ****ORCA TERMINATED NORMALLY****
TOTAL RUN TIME: 0 days 0 hours 0 minutes 15 seconds 405 msec
