                         Program Version 4.2.0 -  RELEASE  -
|  1> # 12h2o.su.etal.mol0,1,2,9
|  2> ! MP2 def2-TZVP EnGrad TightSCF
|  3>
|  4> %pal
|  5>     nprocs 6
|  6> end
|  7>
|  8> %maxcore 8000
|  9>
| 10> %scf
| 11>     ConvForced true
| 12> end
| 13>
| 14> *xyz 0 1
| 15> O   1.794470000   0.923410000   2.768350000
| 16> H   2.338250000   1.359750000   3.430940000
| 17> H   0.879480000   1.303000000   2.865760000
| 18> O  -1.794470000  -0.923410000   2.768350000
| 19> H  -2.338250000  -1.359750000   3.430940000
| 20> H  -0.879480000  -1.303000000   2.865760000
| 21> O   0.923410000  -1.794470000  -2.768350000
| 22> H   1.359750000  -2.338250000  -3.430940000
| 23> H   1.303000000  -0.879480000  -2.865760000
| 24> O   0.741530000  -1.752130000   2.896280000
| 25> H   0.920500000  -2.036450000   1.984040000
| 26> H   1.242140000  -0.921210000   2.984230000
| 27> *
| 28>
| 29>                          ****END OF INPUT****

CARTESIAN COORDINATES (ANGSTROEM)
---------------------------------
  O      1.794470    0.923410    2.768350
  H      2.338250    1.359750    3.430940
  H      0.879480    1.303000    2.865760
  O     -1.794470   -0.923410    2.768350
  H     -2.338250   -1.359750    3.430940
  H     -0.879480   -1.303000    2.865760
  O      0.923410   -1.794470   -2.768350
  H      1.359750   -2.338250   -3.430940
  H      1.303000   -0.879480   -2.865760
  O      0.741530   -1.752130    2.896280
  H      0.920500   -2.036450    1.984040
  H      1.242140   -0.921210    2.984230

 Total Charge           Charge          ....    0
 Multiplicity           Mult            ....    1
 Number of Electrons    NEL             ....   40
 Basis Dimension        Dim             ....  172

ORBITAL ENERGIES
----------------

  NO   OCC          E(Eh)            E(eV)
   0   2.0000     -20.593569      -560.3795
   1   2.0000     -20.562762      -559.5412
   2   2.0000     -20.562401      -559.5314
   3   2.0000     -20.509676      -558.0967
   4   2.0000      -1.372061       -37.3357
   5   2.0000      -1.350738       -36.7554
   6   2.0000      -1.337706       -36.4008
   7   2.0000      -1.291663       -35.1479
   8   2.0000      -0.739099       -20.1119
   9   2.0000      -0.712559       -19.3897
  10   2.0000      -0.706086       -19.2136
  11   2.0000      -0.679518       -18.4906
  12   2.0000      -0.615531       -16.7494
  13   2.0000      -0.586665       -15.9640
  14   2.0000      -0.573501       -15.6058
  15   2.0000      -0.543440       -14.7877
  16   2.0000      -0.531356       -14.4589
  17   2.0000      -0.505545       -13.7566
  18   2.0000      -0.494193       -13.4477
  19   2.0000      -0.460364       -12.5271
  20   0.0000       0.109288         2.9739
  21   0.0000       0.125120         3.4047
  22   0.0000       0.159383         4.3370
  23   0.0000       0.182655         4.9703
  24   0.0000       0.195393         5.3169

MULLIKEN ATOMIC CHARGES
-----------------------
   0 O :   -0.702177
   1 H :    0.354412
   2 H :    0.370906
   3 O :   -0.736703
   4 H :    0.322811
   5 H :    0.364461
   6 O :   -0.681115
   7 H :    0.338371
   8 H :    0.342908
   9 O :   -0.702704
  10 H :    0.357554
  11 H :    0.371275
Sum of atomic charges:   -0.0000000

LOEWDIN ATOMIC CHARGES
----------------------
   0 O :   -0.311014
   1 H :    0.164663
   2 H :    0.192473
   3 O :   -0.375715
   4 H :    0.147224
   5 H :    0.140839
   6 O :   -0.338514
   7 H :    0.157616
   8 H :    0.180989
   9 O :   -0.284262
  10 H :    0.173153
  11 H :    0.152547

  Mayer bond orders larger than 0.100000
B(  0-O ,  1-H ) :   0.8406 B(  0-O ,  2-H ) :   0.8222 B(  3-O ,  4-H ) :   0.8619
B(  3-O ,  5-H ) :   0.7779 B(  6-O ,  7-H ) :   0.8533 B(  6-O ,  8-H ) :   0.8457
B(  9-O , 10-H ) :   0.8381 B(  9-O , 11-H ) :   0.8003

MP2 TOTAL ENERGY:     -305.270036631 Eh
FINAL SINGLE POINT ENERGY      -305.270036631123

DIPOLE MOMENT
-------------
                                X             Y             Z
Electronic contribution:      0.19422      -0.01473      -0.00912
Nuclear contribution   :      1.24480       0.76395      -0.05351
                        -----------------------------------------
Total Dipole Moment    :      1.43902       0.74922      -0.06263
                        -----------------------------------------
Magnitude (a.u.)       :      1.62359
Magnitude (Debye)      :      4.12683

Rotational constants in cm-1:     0.087455     0.033564     0.027615
Rotational constants in MHz :  2621.823210  1006.233400   827.865188

                             ****ORCA TERMINATED NORMALLY****
TOTAL RUN TIME: 0 days 0 hours 0 minutes 17 seconds 767 msec
