                         Program Version 4.2.0 -  RELEASE  -
|  1> # 12h2o.su.etal.mol0,1,3,4,8,11
|  2> ! MP2 def2-TZVP EnGrad TightSCF
|  3>
|  4> %pal
|  5>     nprocs 6
|  6> end
|  7>
|  8> %maxcore 8000
|  9>
| 10> %scf
| 11>     ConvForced true
| 12> end
| 13>
| 14> *xyz 0 1
| 15> O   1.794470000   0.923410000   2.768350000
| 16> H   2.338250000   1.359750000   3.430940000
| 17> H   0.879480000   1.303000000   2.865760000
| 18> O  -1.794470000  -0.923410000   2.768350000
| 19> H  -2.338250000  -1.359750000   3.430940000
| 20> H  -0.879480000  -1.303000000   2.865760000
| 21> O  -1.752130000  -0.741530000  -2.896280000
| 22> H  -2.036450000  -0.920500000  -1.984040000
| 23> H  -0.921210000  -1.242140000  -2.984230000
| 24> O  -0.885520000   1.737840000   0.052730000
| 25> H  -1.032320000   2.090180000  -0.841890000
| 26> H  -1.284090000   0.839590000   0.017130000
| 27> O   1.752130000   0.741530000  -2.896280000
| 28> H   2.036450000   0.920500000  -1.984040000
| 29> H   0.921210000   1.242140000  -2.984230000
| 30> O  -0.741530000   1.752130000   2.896280000
| 31> H  -0.920500000   2.036450000   1.984040000
| 32> H  -1.242140000   0.921210000   2.984230000
| 33> *
| 34>
| 35>                          ****END OF INPUT****

CARTESIAN COORDINATES (ANGSTROEM)
---------------------------------
  O      1.794470    0.923410    2.768350
  H      2.338250    1.359750    3.430940
  H      0.879480    1.303000    2.865760
  O     -1.794470   -0.923410    2.768350
  H     -2.338250   -1.359750    3.430940
  H     -0.879480   -1.303000    2.865760
  O     -1.752130   -0.741530   -2.896280
  H     -2.036450   -0.920500   -1.984040
  H     -0.921210   -1.242140   -2.984230
  O     -0.885520    1.737840    0.052730
  H     -1.032320    2.090180   -0.841890
  H     -1.284090    0.839590    0.017130
  O      1.752130    0.741530   -2.896280
  H      2.036450    0.920500   -1.984040
  H      0.921210    1.242140   -2.984230
  O     -0.741530    1.752130    2.896280
  H     -0.920500    2.036450    1.984040
  H     -1.242140    0.921210    2.984230

 Total Charge           Charge          ....    0
 Multiplicity           Mult            ....    1
 Number of Electrons    NEL             ....   60
 Basis Dimension        Dim             ....  258

ORBITAL ENERGIES
----------------

  NO   OCC          E(Eh)            E(eV)
   0   2.0000     -20.602499      -560.6225
   1   2.0000     -20.594755      -560.4118
   2   2.0000     -20.578341      -559.9651
   3   2.0000     -20.562144      -559.5244
   4   2.0000     -20.546242      -559.0917
   5   2.0000     -20.509408      -558.0894
   6   2.0000      -1.380474       -37.5646
   7   2.0000      -1.373092       -37.3637
   8   2.0000      -1.357311       -36.9343
   9   2.0000      -1.341228       -36.4967
  10   2.0000      -1.337730       -36.4015
  11   2.0000      -1.290925       -35.1279
  12   2.0000      -0.747411       -20.3381
  13   2.0000      -0.736133       -20.0312
  14   2.0000      -0.719973       -19.5915
  15   2.0000      -0.704779       -19.1780
  16   2.0000      -0.703693       -19.1485
  17   2.0000      -0.677476       -18.4350
  18   2.0000      -0.627952       -17.0874
  19   2.0000      -0.611046       -16.6274
  20   2.0000      -0.594886       -16.1877
  21   2.0000      -0.579243       -15.7620
  22   2.0000      -0.576470       -15.6865
  23   2.0000      -0.546232       -14.8637
  24   2.0000      -0.538805       -14.6616
  25   2.0000      -0.529395       -14.4056
  26   2.0000      -0.522574       -14.2200
  27   2.0000      -0.505750       -13.7621
  28   2.0000      -0.484329       -13.1793
  29   2.0000      -0.460342       -12.5265
  30   0.0000       0.077108         2.0982
  31   0.0000       0.107921         2.9367
  32   0.0000       0.133893         3.6434
  33   0.0000       0.158438         4.3113
  34   0.0000       0.166422         4.5286

MULLIKEN ATOMIC CHARGES
-----------------------
   0 O :   -0.743965
   1 H :    0.322209
   2 H :    0.368781
   3 O :   -0.710103
   4 H :    0.358809
   5 H :    0.372194
   6 O :   -0.678837
   7 H :    0.328244
   8 H :    0.353066
   9 O :   -0.690012
  10 H :    0.350279
  11 H :    0.344321
  12 O :   -0.681534
  13 H :    0.348333
  14 H :    0.333142
  15 O :   -0.715040
  16 H :    0.381624
  17 H :    0.358487
Sum of atomic charges:   -0.0000000

LOEWDIN ATOMIC CHARGES
----------------------
   0 O :   -0.379249
   1 H :    0.146710
   2 H :    0.141289
   3 O :   -0.314817
   4 H :    0.166529
   5 H :    0.192599
   6 O :   -0.329272
   7 H :    0.159557
   8 H :    0.171829
   9 O :   -0.312820
  10 H :    0.169276
  11 H :    0.172765
  12 O :   -0.331496
  13 H :    0.169266
  14 H :    0.161714
  15 O :   -0.287353
  16 H :    0.156555
  17 H :    0.146918

  Mayer bond orders larger than 0.100000
B(  0-O ,  1-H ) :   0.8621 B(  0-O ,  2-H ) :   0.7702 B(  2-H , 15-O ) :   0.1025
B(  3-O ,  4-H ) :   0.8383 B(  3-O ,  5-H ) :   0.8211 B(  6-O ,  7-H ) :   0.8565
B(  6-O ,  8-H ) :   0.8396 B(  9-O , 10-H ) :   0.8410 B(  9-O , 11-H ) :   0.8389
B( 12-O , 13-H ) :   0.8456 B( 12-O , 14-H ) :   0.8521 B( 15-O , 16-H ) :   0.8099
B( 15-O , 17-H ) :   0.8127

MP2 TOTAL ENERGY:     -457.909140346 Eh
FINAL SINGLE POINT ENERGY      -457.909140346232

DIPOLE MOMENT
-------------
                                X             Y             Z
Electronic contribution:     -0.21071       0.05343      -0.34937
Nuclear contribution   :     -1.01960      -0.90936       1.17702
                        -----------------------------------------
Total Dipole Moment    :     -1.23031      -0.85593       0.82764
                        -----------------------------------------
Magnitude (a.u.)       :      1.71209
Magnitude (Debye)      :      4.35180

Rotational constants in cm-1:     0.046289     0.021172     0.017016
Rotational constants in MHz :  1387.710855   634.721046   510.113817

                             ****ORCA TERMINATED NORMALLY****
TOTAL RUN TIME: 0 days 0 hours 0 minutes 48 seconds 684 msec
