                         Program Version 4.2.0 -  RELEASE  -
|  1> # 12h2o.su.etal.mol0,1,5,6,7,9
|  2> ! MP2 def2-TZVP EnGrad TightSCF
|  3>
|  4> %pal
|  5>     nprocs 6
|  6> end
|  7>
|  8> %maxcore 8000
|  9>
| 10> %scf
| 11>     ConvForced true
| 12> end
| 13>
| 14> *xyz 0 1
| 15> O   1.794470000   0.923410000   2.768350000
| 16> H   2.338250000   1.359750000   3.430940000
| 17> H   0.879480000   1.303000000   2.865760000
| 18> O  -1.794470000  -0.923410000   2.768350000
| 19> H  -2.338250000  -1.359750000   3.430940000
| 20> H  -0.879480000  -1.303000000   2.865760000
| 21> O   0.885520000  -1.737840000   0.052730000
| 22> H   1.284090000  -0.839590000   0.017130000
| 23> H   1.032320000  -2.090180000  -0.841890000
| 24> O   1.737840000   0.885520000  -0.052730000
| 25> H   2.090180000   1.032320000   0.841890000
| 26> H   0.839590000   1.284090000  -0.017130000
| 27> O  -1.737840000  -0.885520000  -0.052730000
| 28> H  -2.090180000  -1.032320000   0.841890000
| 29> H  -0.839590000  -1.284090000  -0.017130000
| 30> O   0.741530000  -1.752130000   2.896280000
| 31> H   0.920500000  -2.036450000   1.984040000
| 32> H   1.242140000  -0.921210000   2.984230000
| 33> *
| 34>
| 35>                          ****END OF INPUT****

CARTESIAN COORDINATES (ANGSTROEM)
---------------------------------
  O      1.794470    0.923410    2.768350
  H      2.338250    1.359750    3.430940
  H      0.879480    1.303000    2.865760
  O     -1.794470   -0.923410    2.768350
  H     -2.338250   -1.359750    3.430940
  H     -0.879480   -1.303000    2.865760
  O      0.885520   -1.737840    0.052730
  H      1.284090   -0.839590    0.017130
  H      1.032320   -2.090180   -0.841890
  O      1.737840    0.885520   -0.052730
  H      2.090180    1.032320    0.841890
  H      0.839590    1.284090   -0.017130
  O     -1.737840   -0.885520   -0.052730
  H     -2.090180   -1.032320    0.841890
  H     -0.839590   -1.284090   -0.017130
  O      0.741530   -1.752130    2.896280
  H      0.920500   -2.036450    1.984040
  H      1.242140   -0.921210    2.984230

 Total Charge           Charge          ....    0
 Multiplicity           Mult            ....    1
 Number of Electrons    NEL             ....   60
 Basis Dimension        Dim             ....  258

ORBITAL ENERGIES
----------------

  NO   OCC          E(Eh)            E(eV)
   0   2.0000     -20.630452      -561.3831
   1   2.0000     -20.583458      -560.1044
   2   2.0000     -20.572130      -559.7961
   3   2.0000     -20.557263      -559.3916
   4   2.0000     -20.532300      -558.7123
   5   2.0000     -20.490048      -557.5626
   6   2.0000      -1.411068       -38.3971
   7   2.0000      -1.371896       -37.3312
   8   2.0000      -1.357635       -36.9431
   9   2.0000      -1.347493       -36.6671
  10   2.0000      -1.315773       -35.8040
  11   2.0000      -1.274244       -34.6739
  12   2.0000      -0.776321       -21.1248
  13   2.0000      -0.731376       -19.9017
  14   2.0000      -0.729400       -19.8480
  15   2.0000      -0.715909       -19.4809
  16   2.0000      -0.699491       -19.0341
  17   2.0000      -0.659572       -17.9479
  18   2.0000      -0.653527       -17.7834
  19   2.0000      -0.620056       -16.8726
  20   2.0000      -0.611730       -16.6460
  21   2.0000      -0.580047       -15.7839
  22   2.0000      -0.570164       -15.5149
  23   2.0000      -0.557650       -15.1744
  24   2.0000      -0.535046       -14.5593
  25   2.0000      -0.522992       -14.2313
  26   2.0000      -0.499550       -13.5934
  27   2.0000      -0.497454       -13.5364
  28   2.0000      -0.476446       -12.9648
  29   2.0000      -0.441197       -12.0056
  30   0.0000       0.083560         2.2738
  31   0.0000       0.136365         3.7107
  32   0.0000       0.155048         4.2191
  33   0.0000       0.162825         4.4307
  34   0.0000       0.189830         5.1655

MULLIKEN ATOMIC CHARGES
-----------------------
   0 O :   -0.726732
   1 H :    0.371425
   2 H :    0.380307
   3 O :   -0.743307
   4 H :    0.332373
   5 H :    0.367315
   6 O :   -0.736496
   7 H :    0.369305
   8 H :    0.359973
   9 O :   -0.699266
  10 H :    0.377567
  11 H :    0.357281
  12 O :   -0.742083
  13 H :    0.362227
  14 H :    0.335932
  15 O :   -0.713733
  16 H :    0.387522
  17 H :    0.360390
Sum of atomic charges:    0.0000000

LOEWDIN ATOMIC CHARGES
----------------------
   0 O :   -0.288819
   1 H :    0.171411
   2 H :    0.195882
   3 O :   -0.346587
   4 H :    0.151035
   5 H :    0.141989
   6 O :   -0.298767
   7 H :    0.146124
   8 H :    0.172398
   9 O :   -0.294278
  10 H :    0.152013
  11 H :    0.178148
  12 O :   -0.375851
  13 H :    0.144189
  14 H :    0.131428
  15 O :   -0.284613
  16 H :    0.157524
  17 H :    0.146773

  Mayer bond orders larger than 0.100000
B(  0-O ,  1-H ) :   0.8279 B(  0-O ,  2-H ) :   0.8122 B(  3-O ,  4-H ) :   0.8527
B(  3-O ,  5-H ) :   0.7553 B(  5-H , 15-O ) :   0.1066 B(  6-O ,  7-H ) :   0.7613
B(  6-O ,  8-H ) :   0.8348 B(  9-O , 10-H ) :   0.8077 B(  9-O , 11-H ) :   0.8309
B( 12-O , 13-H ) :   0.8196 B( 12-O , 14-H ) :   0.8165 B( 15-O , 16-H ) :   0.8014
B( 15-O , 17-H ) :   0.8178

MP2 TOTAL ENERGY:     -457.936491460 Eh
FINAL SINGLE POINT ENERGY      -457.936491459763

DIPOLE MOMENT
-------------
                                X             Y             Z
Electronic contribution:      0.52340       0.13441      -0.03442
Nuclear contribution   :      1.01960       0.90936       1.35336
                        -----------------------------------------
Total Dipole Moment    :      1.54300       1.04377       1.31894
                        -----------------------------------------
Magnitude (a.u.)       :      2.28252
Magnitude (Debye)      :      5.80171

Rotational constants in cm-1:     0.054338     0.044625     0.033302
Rotational constants in MHz :  1629.019439  1337.834653   998.365435

                             ****ORCA TERMINATED NORMALLY****
TOTAL RUN TIME: 0 days 0 hours 1 minutes 18 seconds 838 msec
