                         Program Version 4.2.0 -  RELEASE  -
|  1> # 12mecn.remya.etal.2.mol4,8
|  2> ! MP2 def2-TZVP EnGrad TightSCF
|  3>
|  4> %pal
|  5>     nprocs 6
|  6> end
|  7>
|  8> %maxcore 8000
|  9>
| 10> %scf
| 11>     ConvForced true
| 12> end
| 13>
| 14> *xyz 0 1
| 15> C  -1.509690000  -0.693960000  -1.610140000
| 16> H  -1.327010000  -1.692700000  -2.017370000
| 17> H  -0.742170000  -0.000650000  -1.964400000
| 18> H  -2.491920000  -0.334310000  -1.929350000
| 19> C  -1.473570000  -0.748120000  -0.167200000
| 20> N  -1.447490000  -0.793720000   0.998938000
| 21> C   1.912641000  -2.468050000  -1.750510000
| 22> H   2.876947000  -2.793500000  -2.151200000
| 23> H   1.688016000  -1.463720000  -2.122170000
| 24> H   1.123460000  -3.154780000  -2.069590000
| 25> C   1.977850000  -2.444240000  -0.306900000
| 26> N   2.036566000  -2.426130000   0.858249000
| 27> *
| 28>
| 29>                          ****END OF INPUT****

CARTESIAN COORDINATES (ANGSTROEM)
---------------------------------
  C     -1.509690   -0.693960   -1.610140
  H     -1.327010   -1.692700   -2.017370
  H     -0.742170   -0.000650   -1.964400
  H     -2.491920   -0.334310   -1.929350
  C     -1.473570   -0.748120   -0.167200
  N     -1.447490   -0.793720    0.998938
  C      1.912641   -2.468050   -1.750510
  H      2.876947   -2.793500   -2.151200
  H      1.688016   -1.463720   -2.122170
  H      1.123460   -3.154780   -2.069590
  C      1.977850   -2.444240   -0.306900
  N      2.036566   -2.426130    0.858249

 Total Charge           Charge          ....    0
 Multiplicity           Mult            ....    1
 Number of Electrons    NEL             ....   44
 Basis Dimension        Dim             ....  222

ORBITAL ENERGIES
----------------

  NO   OCC          E(Eh)            E(eV)
   0   2.0000     -15.572822      -423.7580
   1   2.0000     -15.572753      -423.7562
   2   2.0000     -11.290988      -307.2434
   3   2.0000     -11.290905      -307.2411
   4   2.0000     -11.277753      -306.8833
   5   2.0000     -11.277705      -306.8820
   6   2.0000      -1.213402       -33.0184
   7   2.0000      -1.212346       -32.9896
   8   2.0000      -1.049860       -28.5681
   9   2.0000      -1.046922       -28.4882
  10   2.0000      -0.704663       -19.1749
  11   2.0000      -0.701591       -19.0913
  12   2.0000      -0.644548       -17.5390
  13   2.0000      -0.640591       -17.4314
  14   2.0000      -0.635119       -17.2825
  15   2.0000      -0.630803       -17.1650
  16   2.0000      -0.554532       -15.0896
  17   2.0000      -0.552615       -15.0374
  18   2.0000      -0.462760       -12.5923
  19   2.0000      -0.457735       -12.4556
  20   2.0000      -0.455113       -12.3843
  21   2.0000      -0.449097       -12.2205
  22   0.0000       0.094978         2.5845
  23   0.0000       0.141003         3.8369
  24   0.0000       0.148279         4.0349
  25   0.0000       0.154949         4.2164
  26   0.0000       0.183687         4.9984

MULLIKEN ATOMIC CHARGES
-----------------------
   0 C :   -0.288137
   1 H :    0.163238
   2 H :    0.168499
   3 H :    0.182468
   4 C :   -0.151503
   5 N :   -0.074581
   6 C :   -0.288750
   7 H :    0.182674
   8 H :    0.162847
   9 H :    0.168607
  10 C :   -0.151668
  11 N :   -0.073694
Sum of atomic charges:   -0.0000000

LOEWDIN ATOMIC CHARGES
----------------------
   0 C :   -0.288092
   1 H :    0.148437
   2 H :    0.150061
   3 H :    0.154036
   4 C :   -0.224647
   5 N :    0.060183
   6 C :   -0.288202
   7 H :    0.153762
   8 H :    0.148262
   9 H :    0.149906
  10 C :   -0.224217
  11 N :    0.060510

  Mayer bond orders larger than 0.100000
B(  0-C ,  1-H ) :   0.9196 B(  0-C ,  2-H ) :   0.9232 B(  0-C ,  3-H ) :   0.9114
B(  0-C ,  4-C ) :   0.8957 B(  4-C ,  5-N ) :   2.8269 B(  6-C ,  7-H ) :   0.9113
B(  6-C ,  8-H ) :   0.9200 B(  6-C ,  9-H ) :   0.9228 B(  6-C , 10-C ) :   0.8965
B( 10-C , 11-N ) :   2.8272

MP2 TOTAL ENERGY:     -264.964084106 Eh
FINAL SINGLE POINT ENERGY      -264.964084106473

DIPOLE MOMENT
-------------
                                X             Y             Z
Electronic contribution:      0.22849      -0.08412       6.37547
Nuclear contribution   :     -0.33251       0.12067      -9.26078
                        -----------------------------------------
Total Dipole Moment    :     -0.10401       0.03654      -2.88531
                        -----------------------------------------
Magnitude (a.u.)       :      2.88742
Magnitude (Debye)      :      7.33923

Rotational constants in cm-1:     0.154323     0.054188     0.040747
Rotational constants in MHz :  4626.474086  1624.521115  1221.573038

                             ****ORCA TERMINATED NORMALLY****
TOTAL RUN TIME: 0 days 0 hours 1 minutes 4 seconds 11 msec
