                         Program Version 4.2.0 -  RELEASE  -
|  1> # 12mecn.remya.etal.2.mol0,5
|  2> ! MP2 def2-TZVP EnGrad TightSCF
|  3>
|  4> %pal
|  5>     nprocs 6
|  6> end
|  7>
|  8> %maxcore 8000
|  9>
| 10> %scf
| 11>     ConvForced true
| 12> end
| 13>
| 14> *xyz 0 1
| 15> C  -0.869520000  -3.929380000   1.700199000
| 16> H  -0.057420000  -3.268850000   2.015352000
| 17> H  -0.697530000  -4.930670000   2.101524000
| 18> H  -1.821490000  -3.546590000   2.077146000
| 19> C  -0.916080000  -3.969960000   0.256749000
| 20> N  -0.955390000  -3.995980000  -0.909290000
| 21> C  -1.955700000   2.515080000   1.698463000
| 22> H  -2.923830000   2.883163000   2.049269000
| 23> H  -1.154850000   3.171830000   2.050990000
| 24> H  -1.790380000   1.506115000   2.087896000
| 25> C  -1.948230000   2.482156000   0.253672000
| 26> N  -1.937550000   2.462523000  -0.913150000
| 27> *
| 28>
| 29>                          ****END OF INPUT****

CARTESIAN COORDINATES (ANGSTROEM)
---------------------------------
  C     -0.869520   -3.929380    1.700199
  H     -0.057420   -3.268850    2.015352
  H     -0.697530   -4.930670    2.101524
  H     -1.821490   -3.546590    2.077146
  C     -0.916080   -3.969960    0.256749
  N     -0.955390   -3.995980   -0.909290
  C     -1.955700    2.515080    1.698463
  H     -2.923830    2.883163    2.049269
  H     -1.154850    3.171830    2.050990
  H     -1.790380    1.506115    2.087896
  C     -1.948230    2.482156    0.253672
  N     -1.937550    2.462523   -0.913150

 Total Charge           Charge          ....    0
 Multiplicity           Mult            ....    1
 Number of Electrons    NEL             ....   44
 Basis Dimension        Dim             ....  222

ORBITAL ENERGIES
----------------

  NO   OCC          E(Eh)            E(eV)
   0   2.0000     -15.573701      -423.7819
   1   2.0000     -15.573483      -423.7760
   2   2.0000     -11.287559      -307.1501
   3   2.0000     -11.287010      -307.1352
   4   2.0000     -11.280149      -306.9485
   5   2.0000     -11.279919      -306.9422
   6   2.0000      -1.214559       -33.0498
   7   2.0000      -1.214380       -33.0450
   8   2.0000      -1.045867       -28.4595
   9   2.0000      -1.045703       -28.4550
  10   2.0000      -0.701617       -19.0920
  11   2.0000      -0.701354       -19.0848
  12   2.0000      -0.634907       -17.2767
  13   2.0000      -0.634566       -17.2674
  14   2.0000      -0.633717       -17.2443
  15   2.0000      -0.633270       -17.2322
  16   2.0000      -0.555720       -15.1219
  17   2.0000      -0.555548       -15.1172
  18   2.0000      -0.457856       -12.4589
  19   2.0000      -0.457656       -12.4535
  20   2.0000      -0.457545       -12.4504
  21   2.0000      -0.457518       -12.4497
  22   0.0000       0.106254         2.8913
  23   0.0000       0.123721         3.3666
  24   0.0000       0.168438         4.5834
  25   0.0000       0.168951         4.5974
  26   0.0000       0.169891         4.6230

MULLIKEN ATOMIC CHARGES
-----------------------
   0 C :   -0.281176
   1 H :    0.170435
   2 H :    0.173080
   3 H :    0.170045
   4 C :   -0.145067
   5 N :   -0.087319
   6 C :   -0.278415
   7 H :    0.172709
   8 H :    0.172775
   9 H :    0.166267
  10 C :   -0.145893
  11 N :   -0.087440
Sum of atomic charges:   -0.0000000

LOEWDIN ATOMIC CHARGES
----------------------
   0 C :   -0.284832
   1 H :    0.151890
   2 H :    0.151769
   3 H :    0.151893
   4 C :   -0.220453
   5 N :    0.049731
   6 C :   -0.284796
   7 H :    0.152466
   8 H :    0.152703
   9 H :    0.150756
  10 C :   -0.220690
  11 N :    0.049563

  Mayer bond orders larger than 0.100000
B(  0-C ,  1-H ) :   0.9175 B(  0-C ,  2-H ) :   0.9165 B(  0-C ,  3-H ) :   0.9176
B(  0-C ,  4-C ) :   0.9010 B(  4-C ,  5-N ) :   2.8338 B(  6-C ,  7-H ) :   0.9166
B(  6-C ,  8-H ) :   0.9167 B(  6-C ,  9-H ) :   0.9181 B(  6-C , 10-C ) :   0.9014
B( 10-C , 11-N ) :   2.8336

MP2 TOTAL ENERGY:     -264.965217195 Eh
FINAL SINGLE POINT ENERGY      -264.965217194959

DIPOLE MOMENT
-------------
                                X             Y             Z
Electronic contribution:     -0.08390      -0.15636      -6.26717
Nuclear contribution   :      0.12324       0.22495       9.27752
                        -----------------------------------------
Total Dipole Moment    :      0.03934       0.06859       3.01035
                        -----------------------------------------
Magnitude (a.u.)       :      3.01139
Magnitude (Debye)      :      7.65434

Rotational constants in cm-1:     0.154305     0.019098     0.017107
Rotational constants in MHz :  4625.953811   572.530567   512.856250

                             ****ORCA TERMINATED NORMALLY****
TOTAL RUN TIME: 0 days 0 hours 0 minutes 41 seconds 675 msec
