                         Program Version 4.2.0 -  RELEASE  -
|  1> # 12h2o.su.etal.mol0,3,4,5,11
|  2> ! MP2 def2-TZVP EnGrad TightSCF
|  3>
|  4> %pal
|  5>     nprocs 6
|  6> end
|  7>
|  8> %maxcore 8000
|  9>
| 10> %scf
| 11>     ConvForced true
| 12> end
| 13>
| 14> *xyz 0 1
| 15> O   1.794470000   0.923410000   2.768350000
| 16> H   2.338250000   1.359750000   3.430940000
| 17> H   0.879480000   1.303000000   2.865760000
| 18> O  -1.752130000  -0.741530000  -2.896280000
| 19> H  -2.036450000  -0.920500000  -1.984040000
| 20> H  -0.921210000  -1.242140000  -2.984230000
| 21> O  -0.885520000   1.737840000   0.052730000
| 22> H  -1.032320000   2.090180000  -0.841890000
| 23> H  -1.284090000   0.839590000   0.017130000
| 24> O   0.885520000  -1.737840000   0.052730000
| 25> H   1.284090000  -0.839590000   0.017130000
| 26> H   1.032320000  -2.090180000  -0.841890000
| 27> O  -0.741530000   1.752130000   2.896280000
| 28> H  -0.920500000   2.036450000   1.984040000
| 29> H  -1.242140000   0.921210000   2.984230000
| 30> *
| 31>
| 32>                          ****END OF INPUT****

CARTESIAN COORDINATES (ANGSTROEM)
---------------------------------
  O      1.794470    0.923410    2.768350
  H      2.338250    1.359750    3.430940
  H      0.879480    1.303000    2.865760
  O     -1.752130   -0.741530   -2.896280
  H     -2.036450   -0.920500   -1.984040
  H     -0.921210   -1.242140   -2.984230
  O     -0.885520    1.737840    0.052730
  H     -1.032320    2.090180   -0.841890
  H     -1.284090    0.839590    0.017130
  O      0.885520   -1.737840    0.052730
  H      1.284090   -0.839590    0.017130
  H      1.032320   -2.090180   -0.841890
  O     -0.741530    1.752130    2.896280
  H     -0.920500    2.036450    1.984040
  H     -1.242140    0.921210    2.984230

 Total Charge           Charge          ....    0
 Multiplicity           Mult            ....    1
 Number of Electrons    NEL             ....   50
 Basis Dimension        Dim             ....  215

ORBITAL ENERGIES
----------------

  NO   OCC          E(Eh)            E(eV)
   0   2.0000     -20.598101      -560.5028
   1   2.0000     -20.584637      -560.1364
   2   2.0000     -20.569659      -559.7289
   3   2.0000     -20.569582      -559.7268
   4   2.0000     -20.508070      -558.0530
   5   2.0000      -1.377259       -37.4771
   6   2.0000      -1.363528       -37.1035
   7   2.0000      -1.356690       -36.9174
   8   2.0000      -1.345352       -36.6089
   9   2.0000      -1.290129       -35.1062
  10   2.0000      -0.740635       -20.1537
  11   2.0000      -0.726522       -19.7697
  12   2.0000      -0.717734       -19.5305
  13   2.0000      -0.706590       -19.2273
  14   2.0000      -0.678720       -18.4689
  15   2.0000      -0.624548       -16.9948
  16   2.0000      -0.600799       -16.3486
  17   2.0000      -0.588218       -16.0062
  18   2.0000      -0.584560       -15.9067
  19   2.0000      -0.542731       -14.7685
  20   2.0000      -0.540050       -14.6955
  21   2.0000      -0.528149       -14.3717
  22   2.0000      -0.512043       -13.9334
  23   2.0000      -0.497017       -13.5245
  24   2.0000      -0.458528       -12.4772
  25   0.0000       0.073805         2.0083
  26   0.0000       0.118902         3.2355
  27   0.0000       0.143170         3.8958
  28   0.0000       0.157796         4.2938
  29   0.0000       0.180599         4.9143

MULLIKEN ATOMIC CHARGES
-----------------------
   0 O :   -0.734761
   1 H :    0.321536
   2 H :    0.368996
   3 O :   -0.668373
   4 H :    0.332796
   5 H :    0.336771
   6 O :   -0.695067
   7 H :    0.361053
   8 H :    0.339981
   9 O :   -0.681543
  10 H :    0.359521
  11 H :    0.322238
  12 O :   -0.691620
  13 H :    0.384800
  14 H :    0.343671
Sum of atomic charges:   -0.0000000

LOEWDIN ATOMIC CHARGES
----------------------
   0 O :   -0.373913
   1 H :    0.147183
   2 H :    0.142587
   3 O :   -0.326342
   4 H :    0.160996
   5 H :    0.165887
   6 O :   -0.314648
   7 H :    0.175303
   8 H :    0.170110
   9 O :   -0.335771
  10 H :    0.178717
  11 H :    0.157425
  12 O :   -0.275975
  13 H :    0.159173
  14 H :    0.169268

  Mayer bond orders larger than 0.100000
B(  0-O ,  1-H ) :   0.8623 B(  0-O ,  2-H ) :   0.7802 B(  3-O ,  4-H ) :   0.8538
B(  3-O ,  5-H ) :   0.8518 B(  6-O ,  7-H ) :   0.8355 B(  6-O ,  8-H ) :   0.8396
B(  9-O , 10-H ) :   0.8318 B(  9-O , 11-H ) :   0.8591 B( 12-O , 13-H ) :   0.8035
B( 12-O , 14-H ) :   0.8458

MP2 TOTAL ENERGY:     -381.584202774 Eh
FINAL SINGLE POINT ENERGY      -381.584202773508

DIPOLE MOMENT
-------------
                                X             Y             Z
Electronic contribution:     -0.20678       0.18495      -0.02744
Nuclear contribution   :     -0.41967      -0.34148      -0.91596
                        -----------------------------------------
Total Dipole Moment    :     -0.62644      -0.15653      -0.94341
                        -----------------------------------------
Magnitude (a.u.)       :      1.14322
Magnitude (Debye)      :      2.90583

Rotational constants in cm-1:     0.081028     0.030400     0.023617
Rotational constants in MHz :  2429.145175   911.369155   708.007002

                             ****ORCA TERMINATED NORMALLY****
TOTAL RUN TIME: 0 days 0 hours 0 minutes 27 seconds 448 msec
