                         Program Version 4.2.0 -  RELEASE  -
|  1> # 12meoh.boyd.etal.mol2,4,8
|  2> ! MP2 def2-TZVP EnGrad TightSCF
|  3>
|  4> %pal
|  5>     nprocs 6
|  6> end
|  7>
|  8> %maxcore 8000
|  9>
| 10> %scf
| 11>     ConvForced true
| 12> end
| 13>
| 14> *xyz 0 1
| 15> O  -3.839777402   2.233595098   0.660436763
| 16> H  -2.958345897   1.907036203   0.973588449
| 17> C  -3.600368059   3.168790682  -0.390480452
| 18> H  -4.551709193   3.344148967  -0.901254863
| 19> H  -2.868237594   2.789240199  -1.113617525
| 20> H  -3.243594915   4.128998607   0.009549480
| 21> O  -1.358578914   1.232360421   1.189721000
| 22> H  -1.058250183   1.216459361   0.238591307
| 23> C  -0.389763452   1.957872567   1.943072362
| 24> H  -0.747220771   2.012806578   2.975200343
| 25> H  -0.260410585   2.982763209   1.565366540
| 26> H   0.585220638   1.453754179   1.934070793
| 27> O   3.570084754   2.361662577  -0.202416728
| 28> H   3.393280933   1.755669977   0.560634073
| 29> C   4.368082883   1.644741793  -1.143112807
| 30> H   4.552851717   2.311801738  -1.989632421
| 31> H   3.862427494   0.740851663  -1.508095690
| 32> H   5.333949674   1.357289092  -0.706288100
| 33> *
| 34>
| 35>                          ****END OF INPUT****

CARTESIAN COORDINATES (ANGSTROEM)
---------------------------------
  O     -3.839777    2.233595    0.660437
  H     -2.958346    1.907036    0.973588
  C     -3.600368    3.168791   -0.390480
  H     -4.551709    3.344149   -0.901255
  H     -2.868238    2.789240   -1.113618
  H     -3.243595    4.128999    0.009549
  O     -1.358579    1.232360    1.189721
  H     -1.058250    1.216459    0.238591
  C     -0.389763    1.957873    1.943072
  H     -0.747221    2.012807    2.975200
  H     -0.260411    2.982763    1.565367
  H      0.585221    1.453754    1.934071
  O      3.570085    2.361663   -0.202417
  H      3.393281    1.755670    0.560634
  C      4.368083    1.644742   -1.143113
  H      4.552852    2.311802   -1.989632
  H      3.862427    0.740852   -1.508096
  H      5.333950    1.357289   -0.706288

 Total Charge           Charge          ....    0
 Multiplicity           Mult            ....    1
 Number of Electrons    NEL             ....   54
 Basis Dimension        Dim             ....  258

ORBITAL ENERGIES
----------------

  NO   OCC          E(Eh)            E(eV)
   0   2.0000     -20.589583      -560.2710
   1   2.0000     -20.568461      -559.6963
   2   2.0000     -20.518563      -558.3385
   3   2.0000     -11.291204      -307.2493
   4   2.0000     -11.280947      -306.9702
   5   2.0000     -11.255882      -306.2881
   6   2.0000      -1.380674       -37.5701
   7   2.0000      -1.357738       -36.9459
   8   2.0000      -1.314884       -35.7798
   9   2.0000      -0.942321       -25.6419
  10   2.0000      -0.929403       -25.2903
  11   2.0000      -0.901504       -24.5312
  12   2.0000      -0.709915       -19.3178
  13   2.0000      -0.692325       -18.8391
  14   2.0000      -0.678024       -18.4500
  15   2.0000      -0.633487       -17.2381
  16   2.0000      -0.626863       -17.0578
  17   2.0000      -0.612079       -16.6555
  18   2.0000      -0.599852       -16.3228
  19   2.0000      -0.596362       -16.2278
  20   2.0000      -0.565675       -15.3928
  21   2.0000      -0.527270       -14.3478
  22   2.0000      -0.511648       -13.9227
  23   2.0000      -0.490937       -13.3591
  24   2.0000      -0.461028       -12.5452
  25   2.0000      -0.460130       -12.5208
  26   2.0000      -0.421787       -11.4774
  27   0.0000       0.101569         2.7638
  28   0.0000       0.129046         3.5115
  29   0.0000       0.154870         4.2142
  30   0.0000       0.170749         4.6463
  31   0.0000       0.185377         5.0444

MULLIKEN ATOMIC CHARGES
-----------------------
   0 O :   -0.520500
   1 H :    0.353651
   2 C :   -0.179506
   3 H :    0.126775
   4 H :    0.082152
   5 H :    0.102919
   6 O :   -0.515188
   7 H :    0.340403
   8 C :   -0.176991
   9 H :    0.144896
  10 H :    0.132473
  11 H :    0.107551
  12 O :   -0.498204
  13 H :    0.319010
  14 C :   -0.176506
  15 H :    0.132660
  16 H :    0.109975
  17 H :    0.114430
Sum of atomic charges:   -0.0000000

LOEWDIN ATOMIC CHARGES
----------------------
   0 O :   -0.120157
   1 H :    0.159076
   2 C :   -0.394279
   3 H :    0.107338
   4 H :    0.085843
   5 H :    0.092208
   6 O :   -0.077384
   7 H :    0.199904
   8 C :   -0.372084
   9 H :    0.115923
  10 H :    0.103769
  11 H :    0.099157
  12 O :   -0.111171
  13 H :    0.185438
  14 C :   -0.377487
  15 H :    0.111463
  16 H :    0.095405
  17 H :    0.097038

  Mayer bond orders larger than 0.100000
B(  0-O ,  1-H ) :   0.7966 B(  0-O ,  2-C ) :   0.9445 B(  2-C ,  3-H ) :   0.9428
B(  2-C ,  4-H ) :   0.9373 B(  2-C ,  5-H ) :   0.9385 B(  6-O ,  7-H ) :   0.8289
B(  6-O ,  8-C ) :   0.8753 B(  8-C ,  9-H ) :   0.9386 B(  8-C , 10-H ) :   0.9366
B(  8-C , 11-H ) :   0.9370 B( 12-O , 13-H ) :   0.8440 B( 12-O , 14-C ) :   0.9206
B( 14-C , 15-H ) :   0.9372 B( 14-C , 16-H ) :   0.9372 B( 14-C , 17-H ) :   0.9408

MP2 TOTAL ENERGY:     -346.528930782 Eh
FINAL SINGLE POINT ENERGY      -346.528930782293

DIPOLE MOMENT
-------------
                                X             Y             Z
Electronic contribution:     -2.43174      -1.19478       1.71341
Nuclear contribution   :      4.17726       0.87229      -1.98303
                        -----------------------------------------
Total Dipole Moment    :      1.74552      -0.32249      -0.26963
                        -----------------------------------------
Magnitude (a.u.)       :      1.79542
Magnitude (Debye)      :      4.56360

Rotational constants in cm-1:     0.137917     0.016395     0.015286
Rotational constants in MHz :  4134.635384   491.505781   458.270063

                             ****ORCA TERMINATED NORMALLY****
TOTAL RUN TIME: 0 days 0 hours 1 minutes 5 seconds 640 msec
