                         Program Version 4.2.0 -  RELEASE  -
|  1> # 12h2o.su.etal.mol0,3,4,8,10,11
|  2> ! MP2 def2-TZVP EnGrad TightSCF
|  3>
|  4> %pal
|  5>     nprocs 6
|  6> end
|  7>
|  8> %maxcore 8000
|  9>
| 10> %scf
| 11>     ConvForced true
| 12> end
| 13>
| 14> *xyz 0 1
| 15> O   1.794470000   0.923410000   2.768350000
| 16> H   2.338250000   1.359750000   3.430940000
| 17> H   0.879480000   1.303000000   2.865760000
| 18> O  -1.752130000  -0.741530000  -2.896280000
| 19> H  -2.036450000  -0.920500000  -1.984040000
| 20> H  -0.921210000  -1.242140000  -2.984230000
| 21> O  -0.885520000   1.737840000   0.052730000
| 22> H  -1.032320000   2.090180000  -0.841890000
| 23> H  -1.284090000   0.839590000   0.017130000
| 24> O   1.752130000   0.741530000  -2.896280000
| 25> H   2.036450000   0.920500000  -1.984040000
| 26> H   0.921210000   1.242140000  -2.984230000
| 27> O  -0.923410000   1.794470000  -2.768350000
| 28> H  -1.359750000   2.338250000  -3.430940000
| 29> H  -1.303000000   0.879480000  -2.865760000
| 30> O  -0.741530000   1.752130000   2.896280000
| 31> H  -0.920500000   2.036450000   1.984040000
| 32> H  -1.242140000   0.921210000   2.984230000
| 33> *
| 34>
| 35>                          ****END OF INPUT****

CARTESIAN COORDINATES (ANGSTROEM)
---------------------------------
  O      1.794470    0.923410    2.768350
  H      2.338250    1.359750    3.430940
  H      0.879480    1.303000    2.865760
  O     -1.752130   -0.741530   -2.896280
  H     -2.036450   -0.920500   -1.984040
  H     -0.921210   -1.242140   -2.984230
  O     -0.885520    1.737840    0.052730
  H     -1.032320    2.090180   -0.841890
  H     -1.284090    0.839590    0.017130
  O      1.752130    0.741530   -2.896280
  H      2.036450    0.920500   -1.984040
  H      0.921210    1.242140   -2.984230
  O     -0.923410    1.794470   -2.768350
  H     -1.359750    2.338250   -3.430940
  H     -1.303000    0.879480   -2.865760
  O     -0.741530    1.752130    2.896280
  H     -0.920500    2.036450    1.984040
  H     -1.242140    0.921210    2.984230

 Total Charge           Charge          ....    0
 Multiplicity           Mult            ....    1
 Number of Electrons    NEL             ....   60
 Basis Dimension        Dim             ....  258

ORBITAL ENERGIES
----------------

  NO   OCC          E(Eh)            E(eV)
   0   2.0000     -20.624404      -561.2186
   1   2.0000     -20.582909      -560.0894
   2   2.0000     -20.575782      -559.8955
   3   2.0000     -20.566726      -559.6491
   4   2.0000     -20.533664      -558.7494
   5   2.0000     -20.504327      -557.9511
   6   2.0000      -1.410636       -38.3853
   7   2.0000      -1.370739       -37.2997
   8   2.0000      -1.359780       -37.0015
   9   2.0000      -1.349885       -36.7322
  10   2.0000      -1.316003       -35.8103
  11   2.0000      -1.286515       -35.0078
  12   2.0000      -0.766531       -20.8584
  13   2.0000      -0.751333       -20.4448
  14   2.0000      -0.729152       -19.8412
  15   2.0000      -0.711981       -19.3740
  16   2.0000      -0.686852       -18.6902
  17   2.0000      -0.675219       -18.3736
  18   2.0000      -0.652349       -17.7513
  19   2.0000      -0.618970       -16.8430
  20   2.0000      -0.606428       -16.5018
  21   2.0000      -0.582838       -15.8598
  22   2.0000      -0.564146       -15.3512
  23   2.0000      -0.551725       -15.0132
  24   2.0000      -0.537283       -14.6202
  25   2.0000      -0.525225       -14.2921
  26   2.0000      -0.521428       -14.1888
  27   2.0000      -0.493708       -13.4345
  28   2.0000      -0.481544       -13.1035
  29   2.0000      -0.454856       -12.3773
  30   0.0000       0.071470         1.9448
  31   0.0000       0.128121         3.4863
  32   0.0000       0.136256         3.7077
  33   0.0000       0.160122         4.3571
  34   0.0000       0.177119         4.8197

MULLIKEN ATOMIC CHARGES
-----------------------
   0 O :   -0.736098
   1 H :    0.320778
   2 H :    0.368495
   3 O :   -0.680636
   4 H :    0.352158
   5 H :    0.379514
   6 O :   -0.699499
   7 H :    0.381353
   8 H :    0.312091
   9 O :   -0.717354
  10 H :    0.343056
  11 H :    0.357779
  12 O :   -0.749796
  13 H :    0.354694
  14 H :    0.381010
  15 O :   -0.691661
  16 H :    0.387313
  17 H :    0.336803
Sum of atomic charges:   -0.0000000

LOEWDIN ATOMIC CHARGES
----------------------
   0 O :   -0.374949
   1 H :    0.146207
   2 H :    0.142294
   3 O :   -0.264903
   4 H :    0.170752
   5 H :    0.184686
   6 O :   -0.320627
   7 H :    0.154908
   8 H :    0.159122
   9 O :   -0.350617
  10 H :    0.165571
  11 H :    0.144483
  12 O :   -0.311574
  13 H :    0.161467
  14 H :    0.145571
  15 O :   -0.277467
  16 H :    0.159023
  17 H :    0.166053

  Mayer bond orders larger than 0.100000
B(  0-O ,  1-H ) :   0.8631 B(  0-O ,  2-H ) :   0.7818 B(  3-O ,  4-H ) :   0.8404
B(  3-O ,  5-H ) :   0.8192 B(  6-O ,  7-H ) :   0.7982 B(  6-O ,  8-H ) :   0.8584
B(  9-O , 10-H ) :   0.8489 B(  9-O , 11-H ) :   0.8188 B( 12-O , 13-H ) :   0.8382
B( 12-O , 14-H ) :   0.7516 B( 15-O , 16-H ) :   0.7978 B( 15-O , 17-H ) :   0.8496

MP2 TOTAL ENERGY:     -457.920189434 Eh
FINAL SINGLE POINT ENERGY      -457.920189433897

DIPOLE MOMENT
-------------
                                X             Y             Z
Electronic contribution:     -0.19199      -0.00721      -0.45218
Nuclear contribution   :     -2.00773      -0.53919      -0.08817
                        -----------------------------------------
Total Dipole Moment    :     -2.19972      -0.54641      -0.54035
                        -----------------------------------------
Magnitude (a.u.)       :      2.33009
Magnitude (Debye)      :      5.92261

Rotational constants in cm-1:     0.063390     0.020804     0.018192
Rotational constants in MHz :  1900.399364   623.700310   545.372788

                             ****ORCA TERMINATED NORMALLY****
TOTAL RUN TIME: 0 days 0 hours 0 minutes 59 seconds 301 msec
