                         Program Version 4.2.0 -  RELEASE  -
|  1> # 12h2o.su.etal.mol0,1,5,7,10
|  2> ! MP2 def2-TZVP EnGrad TightSCF
|  3>
|  4> %pal
|  5>     nprocs 6
|  6> end
|  7>
|  8> %maxcore 8000
|  9>
| 10> %scf
| 11>     ConvForced true
| 12> end
| 13>
| 14> *xyz 0 1
| 15> O   1.794470000   0.923410000   2.768350000
| 16> H   2.338250000   1.359750000   3.430940000
| 17> H   0.879480000   1.303000000   2.865760000
| 18> O  -1.794470000  -0.923410000   2.768350000
| 19> H  -2.338250000  -1.359750000   3.430940000
| 20> H  -0.879480000  -1.303000000   2.865760000
| 21> O   0.885520000  -1.737840000   0.052730000
| 22> H   1.284090000  -0.839590000   0.017130000
| 23> H   1.032320000  -2.090180000  -0.841890000
| 24> O  -1.737840000  -0.885520000  -0.052730000
| 25> H  -2.090180000  -1.032320000   0.841890000
| 26> H  -0.839590000  -1.284090000  -0.017130000
| 27> O  -0.923410000   1.794470000  -2.768350000
| 28> H  -1.359750000   2.338250000  -3.430940000
| 29> H  -1.303000000   0.879480000  -2.865760000
| 30> *
| 31>
| 32>                          ****END OF INPUT****

CARTESIAN COORDINATES (ANGSTROEM)
---------------------------------
  O      1.794470    0.923410    2.768350
  H      2.338250    1.359750    3.430940
  H      0.879480    1.303000    2.865760
  O     -1.794470   -0.923410    2.768350
  H     -2.338250   -1.359750    3.430940
  H     -0.879480   -1.303000    2.865760
  O      0.885520   -1.737840    0.052730
  H      1.284090   -0.839590    0.017130
  H      1.032320   -2.090180   -0.841890
  O     -1.737840   -0.885520   -0.052730
  H     -2.090180   -1.032320    0.841890
  H     -0.839590   -1.284090   -0.017130
  O     -0.923410    1.794470   -2.768350
  H     -1.359750    2.338250   -3.430940
  H     -1.303000    0.879480   -2.865760

 Total Charge           Charge          ....    0
 Multiplicity           Mult            ....    1
 Number of Electrons    NEL             ....   50
 Basis Dimension        Dim             ....  215

ORBITAL ENERGIES
----------------

  NO   OCC          E(Eh)            E(eV)
   0   2.0000     -20.580026      -560.0110
   1   2.0000     -20.576593      -559.9176
   2   2.0000     -20.566122      -559.6326
   3   2.0000     -20.545280      -559.0655
   4   2.0000     -20.492818      -557.6379
   5   2.0000      -1.360695       -37.0264
   6   2.0000      -1.354366       -36.8542
   7   2.0000      -1.341410       -36.5016
   8   2.0000      -1.320688       -35.9378
   9   2.0000      -1.277377       -34.7592
  10   2.0000      -0.721629       -19.6365
  11   2.0000      -0.718285       -19.5455
  12   2.0000      -0.709348       -19.3023
  13   2.0000      -0.688864       -18.7449
  14   2.0000      -0.662372       -18.0241
  15   2.0000      -0.604118       -16.4389
  16   2.0000      -0.588564       -16.0156
  17   2.0000      -0.578348       -15.7376
  18   2.0000      -0.557087       -15.1591
  19   2.0000      -0.545587       -14.8462
  20   2.0000      -0.515473       -14.0267
  21   2.0000      -0.509442       -13.8626
  22   2.0000      -0.494008       -13.4426
  23   2.0000      -0.488315       -13.2877
  24   2.0000      -0.443712       -12.0740
  25   0.0000       0.103949         2.8286
  26   0.0000       0.131662         3.5827
  27   0.0000       0.140113         3.8127
  28   0.0000       0.151471         4.1217
  29   0.0000       0.199184         5.4201

MULLIKEN ATOMIC CHARGES
-----------------------
   0 O :   -0.693105
   1 H :    0.340841
   2 H :    0.354321
   3 O :   -0.697641
   4 H :    0.344694
   5 H :    0.361294
   6 O :   -0.688776
   7 H :    0.371139
   8 H :    0.352335
   9 O :   -0.734712
  10 H :    0.357336
  11 H :    0.334733
  12 O :   -0.686374
  13 H :    0.332217
  14 H :    0.351700
Sum of atomic charges:   -0.0000000

LOEWDIN ATOMIC CHARGES
----------------------
   0 O :   -0.341823
   1 H :    0.159199
   2 H :    0.184651
   3 O :   -0.312282
   4 H :    0.159970
   5 H :    0.186503
   6 O :   -0.293971
   7 H :    0.184728
   8 H :    0.171052
   9 O :   -0.372902
  10 H :    0.143492
  11 H :    0.133822
  12 O :   -0.340896
  13 H :    0.154882
  14 H :    0.183575

  Mayer bond orders larger than 0.100000
B(  0-O ,  1-H ) :   0.8516 B(  0-O ,  2-H ) :   0.8359 B(  3-O ,  4-H ) :   0.8455
B(  3-O ,  5-H ) :   0.8277 B(  6-O ,  7-H ) :   0.8245 B(  6-O ,  8-H ) :   0.8410
B(  9-O , 10-H ) :   0.8306 B(  9-O , 11-H ) :   0.8139 B( 12-O , 13-H ) :   0.8567
B( 12-O , 14-H ) :   0.8380

MP2 TOTAL ENERGY:     -381.580663509 Eh
FINAL SINGLE POINT ENERGY      -381.580663509435

DIPOLE MOMENT
-------------
                                X             Y             Z
Electronic contribution:      0.18678       0.01942       0.10651
Nuclear contribution   :      0.22919      -0.30853       0.63259
                        -----------------------------------------
Total Dipole Moment    :      0.41597      -0.28911       0.73910
                        -----------------------------------------
Magnitude (a.u.)       :      0.89604
Magnitude (Debye)      :      2.27756

Rotational constants in cm-1:     0.054226     0.030843     0.026230
Rotational constants in MHz :  1625.654626   924.651504   786.352439

                             ****ORCA TERMINATED NORMALLY****
TOTAL RUN TIME: 0 days 0 hours 0 minutes 46 seconds 24 msec
