                         Program Version 3.0.3 - RELEASE   -
|  1> ! B3LYP Def2-SVP def2-SVP/J RIJCOSX TightSCF Grid4 D3BJ OPT
|  2>
|  3> %pal nprocs 12 end
|  4>
|  5> %scf
|  6>         maxiter 400
|  7> end
|  8>
|  9> * xyz  0  1
| 10> O  1.16627538	-0.47604216	1.02649171
| 11> H  0.47373765	-0.19914488	0.42653235
| 12> H  1.97063501	-0.40863840	0.51200733
| 13> O  -0.89105588	0.26466071	-0.66713829
| 14> H  -1.16483300	1.01669070	-1.19223716
| 15> H  -1.70504590	-0.08209872	-0.30188496
| 16> **                         ****END OF INPUT****
 Total Charge           Charge          ....    0
 Multiplicity           Mult            ....    1
 Number of Electrons    NEL             ....   20
Dispersion correction           -0.002209574
FINAL SINGLE POINT ENERGY      -152.655433269091
Dispersion correction            ...
Dispersion correction           -0.002156337
FINAL SINGLE POINT ENERGY      -152.656181535017
Dispersion correction            ...
Dispersion correction           -0.002149787
FINAL SINGLE POINT ENERGY      -152.656232548487
Dispersion correction            ...
FINAL SINGLE POINT ENERGY      -152.656276796106
FINAL SINGLE POINT ENERGY      -152.656302724877
FINAL SINGLE POINT ENERGY      -152.656405050390
FINAL SINGLE POINT ENERGY      -152.656547451493
FINAL SINGLE POINT ENERGY      -152.656910204175
FINAL SINGLE POINT ENERGY      -152.657262276562
FINAL SINGLE POINT ENERGY      -152.657413368696
FINAL SINGLE POINT ENERGY      -152.657663558588
FINAL SINGLE POINT ENERGY      -152.657681829489
Dispersion correction            ...
Dispersion correction           -0.002243550
FINAL SINGLE POINT ENERGY      -152.657700612023
Dispersion correction            ...
Dispersion correction           -0.002246730
FINAL SINGLE POINT ENERGY      -152.657700211661
Dispersion correction            ...
                    ***********************HURRAY********************

CARTESIAN COORDINATES (ANGSTROEM)
---------------------------------
  O      1.171575   -0.281205    1.044558
  H      0.443848   -0.149509    0.409290
  H      1.906579   -0.523423    0.465880
  O     -0.925475    0.124486   -0.824605
  H     -1.030347    1.076329   -0.963014
  H     -1.716467   -0.131250   -0.328337

 Multiplicity           Mult            ....    1
 Number of Electrons    NEL             ....   20
 Basis Dimension        Dim             ....   48

ORBITAL ENERGIES
----------------

  NO   OCC          E(Eh)            E(eV)
   0   2.0000     -19.158213      -521.3215
   1   2.0000     -19.076871      -519.1080
   2   2.0000      -1.016186       -27.6518
   3   2.0000      -0.938038       -25.5253
   4   2.0000      -0.547166       -14.8891
   5   2.0000      -0.475877       -12.9493
   6   2.0000      -0.406244       -11.0545
   7   2.0000      -0.344283        -9.3684
   8   2.0000      -0.314902        -8.5689
   9   2.0000      -0.254272        -6.9191
  10   0.0000       0.023497         0.6394
  11   0.0000       0.098627         2.6838
  12   0.0000       0.105056         2.8587
  13   0.0000       0.236697         6.4409
  14   0.0000       0.526820        14.3355

MULLIKEN ATOMIC CHARGES
-----------------------
   0 O :   -0.331325
   1 H :    0.111266
   2 H :    0.137490
   3 O :   -0.259048
   4 H :    0.168894
   5 H :    0.172723
Sum of atomic charges:   -0.0000000

LOEWDIN ATOMIC CHARGES
----------------------
   0 O :   -0.181346
   1 H :    0.030793
   2 H :    0.065945
   3 O :   -0.092144
   4 H :    0.087384
   5 H :    0.089368

  Mayer bond orders larger than 0.1
B(  0-O ,  1-H ) :   0.9596 B(  0-O ,  2-H ) :   1.0104 B(  1-H ,  3-O ) :   0.1524
B(  3-O ,  4-H ) :   0.9926 B(  3-O ,  5-H ) :   0.9907

Dispersion correction           -0.002247345
FINAL SINGLE POINT ENERGY      -152.657700074807

DIPOLE MOMENT
-------------
                                X             Y             Z
Electronic contribution:     -0.10054      -0.04076      -0.02429
Nuclear contribution   :     -0.73963       0.48742      -0.71257
                        -----------------------------------------
Total Dipole Moment    :     -0.84016       0.44666      -0.73686
                        -----------------------------------------
Magnitude (a.u.)       :      1.20347
Magnitude (Debye)      :      3.05899

                             ****ORCA TERMINATED NORMALLY****
TOTAL RUN TIME: 0 days 0 hours 12 minutes 4 seconds 571 msec
