                         Program Version 3.0.3 - RELEASE   -
|  1> ! BP86 Def2-SVP TightSCF Opt D3BJ
|  2>
|  3> %pal nprocs 12 end
|  4>
|  5> %scf
|  6>         maxiter 800
|  7> end
|  8>
|  9> * xyz  0  1
| 10> O  1.16627538	-0.47604216	1.02649171
| 11> H  0.47373765	-0.19914488	0.42653235
| 12> H  1.97063501	-0.40863840	0.51200733
| 13> O  -0.89105588	0.26466071	-0.66713829
| 14> H  -1.16483300	1.01669070	-1.19223716
| 15> H  -1.70504590	-0.08209872	-0.30188496
| 16> **                         ****END OF INPUT****
 Total Charge           Charge          ....    0
 Multiplicity           Mult            ....    1
 Number of Electrons    NEL             ....   20
Dispersion correction           -0.001888694
FINAL SINGLE POINT ENERGY      -152.732419776934
Dispersion correction            ...
Dispersion correction           -0.001849153
FINAL SINGLE POINT ENERGY      -152.734033185415
Dispersion correction            ...
Dispersion correction           -0.001844865
FINAL SINGLE POINT ENERGY      -152.734122931659
Dispersion correction            ...
FINAL SINGLE POINT ENERGY      -152.734196084914
FINAL SINGLE POINT ENERGY      -152.734223107236
FINAL SINGLE POINT ENERGY      -152.734413702132
FINAL SINGLE POINT ENERGY      -152.734609607357
FINAL SINGLE POINT ENERGY      -152.734913665620
FINAL SINGLE POINT ENERGY      -152.735400039965
FINAL SINGLE POINT ENERGY      -152.735714671544
FINAL SINGLE POINT ENERGY      -152.736374808560
FINAL SINGLE POINT ENERGY      -152.736382825031
FINAL SINGLE POINT ENERGY      -152.736392155727
FINAL SINGLE POINT ENERGY      -152.736426142906
FINAL SINGLE POINT ENERGY      -152.736475360354
FINAL SINGLE POINT ENERGY      -152.736535047756
FINAL SINGLE POINT ENERGY      -152.736570617028
Dispersion correction            ...
Dispersion correction           -0.001954563
FINAL SINGLE POINT ENERGY      -152.736576519334
Dispersion correction            ...
Dispersion correction           -0.001955334
FINAL SINGLE POINT ENERGY      -152.736578107385
Dispersion correction            ...
                    ***********************HURRAY********************

CARTESIAN COORDINATES (ANGSTROEM)
---------------------------------
  O      1.119114   -0.133853    0.975252
  H      0.482644   -0.131862    0.221763
  H      1.867213   -0.640830    0.611010
  O     -0.988983    0.115575   -0.927867
  H     -0.993867    1.086528   -0.818014
  H     -1.636408   -0.180130   -0.258373

 Multiplicity           Mult            ....    1
 Number of Electrons    NEL             ....   20
 Basis Dimension        Dim             ....   48

ORBITAL ENERGIES
----------------

  NO   OCC          E(Eh)            E(eV)
   0   2.0000     -18.803136      -511.6593
   1   2.0000     -18.730149      -509.6733
   2   2.0000      -0.930286       -25.3144
   3   2.0000      -0.858801       -23.3692
   4   2.0000      -0.491442       -13.3728
   5   2.0000      -0.429137       -11.6774
   6   2.0000      -0.353641        -9.6231
   7   2.0000      -0.296548        -8.0695
   8   2.0000      -0.265932        -7.2364
   9   2.0000      -0.206936        -5.6310
  10   0.0000       0.006063         0.1650
  11   0.0000       0.073304         1.9947
  12   0.0000       0.086258         2.3472
  13   0.0000       0.195689         5.3250
  14   0.0000       0.477791        13.0013

MULLIKEN ATOMIC CHARGES
-----------------------
   0 O :   -0.337329
   1 H :    0.095780
   2 H :    0.146105
   3 O :   -0.253320
   4 H :    0.174182
   5 H :    0.174581
Sum of atomic charges:   -0.0000000

LOEWDIN ATOMIC CHARGES
----------------------
   0 O :   -0.187907
   1 H :    0.028997
   2 H :    0.070873
   3 O :   -0.095118
   4 H :    0.091443
   5 H :    0.091711

  Mayer bond orders larger than 0.1
B(  0-O ,  1-H ) :   0.9452 B(  0-O ,  2-H ) :   1.0073 B(  1-H ,  3-O ) :   0.1779
B(  3-O ,  4-H ) :   0.9906 B(  3-O ,  5-H ) :   0.9898

Dispersion correction           -0.001955655
FINAL SINGLE POINT ENERGY      -152.736577795576

DIPOLE MOMENT
-------------
                                X             Y             Z
Electronic contribution:     -0.14913       0.02083      -0.11066
Nuclear contribution   :     -0.45004       0.14172      -0.28166
                        -----------------------------------------
Total Dipole Moment    :     -0.59917       0.16255      -0.39231
                        -----------------------------------------
Magnitude (a.u.)       :      0.73440
Magnitude (Debye)      :      1.86669

                             ****ORCA TERMINATED NORMALLY****
TOTAL RUN TIME: 0 days 0 hours 19 minutes 46 seconds 401 msec
