                         Program Version 4.2.0 -  RELEASE  -
|  1> # 12mecn.remya.etal.2.mol6,7,10
|  2> ! MP2 def2-TZVP EnGrad TightSCF
|  3>
|  4> %pal
|  5>     nprocs 6
|  6> end
|  7>
|  8> %maxcore 8000
|  9>
| 10> %scf
| 11>     ConvForced true
| 12> end
| 13>
| 14> *xyz 0 1
| 15> C   5.300864000  -2.920090000   1.401103000
| 16> H   5.986071000  -2.139770000   1.737487000
| 17> H   5.636642000  -3.888750000   1.778233000
| 18> H   4.307359000  -2.697240000   1.799307000
| 19> C   5.234791000  -2.933140000  -0.043290000
| 20> N   5.170868000  -2.941760000  -1.207750000
| 21> C   1.502241000   0.651296000   1.710523000
| 22> H   1.309219000   1.637164000   2.143202000
| 23> H   2.493408000   0.297996000   2.009069000
| 24> H   0.746597000  -0.059850000   2.055508000
| 25> C   1.447974000   0.738517000   0.269805000
| 26> N   1.405612000   0.808047000  -0.894380000
| 27> C   4.602033000   0.321019000  -1.784800000
| 28> H   4.827650000  -0.662160000  -2.207910000
| 29> H   5.320558000   1.057980000  -2.148500000
| 30> H   3.601982000   0.643751000  -2.087520000
| 31> C   4.654967000   0.244048000  -0.343060000
| 32> N   4.691648000   0.166590000   0.820757000
| 33> *
| 34>
| 35>                          ****END OF INPUT****

CARTESIAN COORDINATES (ANGSTROEM)
---------------------------------
  C      5.300864   -2.920090    1.401103
  H      5.986071   -2.139770    1.737487
  H      5.636642   -3.888750    1.778233
  H      4.307359   -2.697240    1.799307
  C      5.234791   -2.933140   -0.043290
  N      5.170868   -2.941760   -1.207750
  C      1.502241    0.651296    1.710523
  H      1.309219    1.637164    2.143202
  H      2.493408    0.297996    2.009069
  H      0.746597   -0.059850    2.055508
  C      1.447974    0.738517    0.269805
  N      1.405612    0.808047   -0.894380
  C      4.602033    0.321019   -1.784800
  H      4.827650   -0.662160   -2.207910
  H      5.320558    1.057980   -2.148500
  H      3.601982    0.643751   -2.087520
  C      4.654967    0.244048   -0.343060
  N      4.691648    0.166590    0.820757

 Total Charge           Charge          ....    0
 Multiplicity           Mult            ....    1
 Number of Electrons    NEL             ....   66
 Basis Dimension        Dim             ....  333

ORBITAL ENERGIES
----------------

  NO   OCC          E(Eh)            E(eV)
   0   2.0000     -15.571049      -423.7098
   1   2.0000     -15.570468      -423.6940
   2   2.0000     -15.569105      -423.6569
   3   2.0000     -11.285426      -307.0921
   4   2.0000     -11.282202      -307.0043
   5   2.0000     -11.281901      -306.9961
   6   2.0000     -11.274901      -306.8056
   7   2.0000     -11.274867      -306.8047
   8   2.0000     -11.259242      -306.3796
   9   2.0000      -1.219682       -33.1892
  10   2.0000      -1.215361       -33.0716
  11   2.0000      -1.213033       -33.0083
  12   2.0000      -1.037892       -28.2425
  13   2.0000      -1.036658       -28.2089
  14   2.0000      -1.026623       -27.9358
  15   2.0000      -0.695897       -18.9363
  16   2.0000      -0.693950       -18.8833
  17   2.0000      -0.684961       -18.6387
  18   2.0000      -0.630479       -17.1562
  19   2.0000      -0.629965       -17.1422
  20   2.0000      -0.625837       -17.0299
  21   2.0000      -0.621383       -16.9087
  22   2.0000      -0.611757       -16.6468
  23   2.0000      -0.608445       -16.5566
  24   2.0000      -0.560631       -15.2556
  25   2.0000      -0.555600       -15.1187
  26   2.0000      -0.555504       -15.1160
  27   2.0000      -0.463127       -12.6023
  28   2.0000      -0.459315       -12.4986
  29   2.0000      -0.458167       -12.4673
  30   2.0000      -0.457156       -12.4399
  31   2.0000      -0.455366       -12.3911
  32   2.0000      -0.452889       -12.3237
  33   0.0000       0.116089         3.1589
  34   0.0000       0.143330         3.9002
  35   0.0000       0.155909         4.2425
  36   0.0000       0.165797         4.5116
  37   0.0000       0.173201         4.7130

MULLIKEN ATOMIC CHARGES
-----------------------
   0 C :   -0.261045
   1 H :    0.183824
   2 H :    0.173412
   3 H :    0.163042
   4 C :   -0.119594
   5 N :   -0.139608
   6 C :   -0.286703
   7 H :    0.168922
   8 H :    0.197421
   9 H :    0.166744
  10 C :   -0.102711
  11 N :   -0.143951
  12 C :   -0.293369
  13 H :    0.200462
  14 H :    0.160350
  15 H :    0.200898
  16 C :   -0.062840
  17 N :   -0.205253
Sum of atomic charges:   -0.0000000

LOEWDIN ATOMIC CHARGES
----------------------
   0 C :   -0.286178
   1 H :    0.155381
   2 H :    0.148690
   3 H :    0.153438
   4 C :   -0.210333
   5 N :    0.034676
   6 C :   -0.283841
   7 H :    0.153023
   8 H :    0.154374
   9 H :    0.150910
  10 C :   -0.210028
  11 N :    0.034661
  12 C :   -0.280032
  13 H :    0.157309
  14 H :    0.149340
  15 H :    0.157213
  16 C :   -0.198420
  17 N :    0.019814

  Mayer bond orders larger than 0.100000
B(  0-C ,  1-H ) :   0.9116 B(  0-C ,  2-H ) :   0.9102 B(  0-C ,  3-H ) :   0.9167
B(  0-C ,  4-C ) :   0.9120 B(  4-C ,  5-N ) :   2.7741 B(  6-C ,  7-H ) :   0.9145
B(  6-C ,  8-H ) :   0.9046 B(  6-C ,  9-H ) :   0.9174 B(  6-C , 10-C ) :   0.8993
B( 10-C , 11-N ) :   2.7709 B( 12-C , 13-H ) :   0.9016 B( 12-C , 14-H ) :   0.9141
B( 12-C , 15-H ) :   0.9019 B( 12-C , 16-C ) :   0.8977 B( 16-C , 17-N ) :   2.7152

MP2 TOTAL ENERGY:     -397.467326509 Eh
FINAL SINGLE POINT ENERGY      -397.467326509187

DIPOLE MOMENT
-------------
                                X             Y             Z
Electronic contribution:     -0.11889      -0.02679      -3.18079
Nuclear contribution   :      0.19892       0.04901       4.64050
                        -----------------------------------------
Total Dipole Moment    :      0.08003       0.02222       1.45971
                        -----------------------------------------
Magnitude (a.u.)       :      1.46207
Magnitude (Debye)      :      3.71628

Rotational constants in cm-1:     0.061048     0.025558     0.021959
Rotational constants in MHz :  1830.168941   766.201107   658.327730

                             ****ORCA TERMINATED NORMALLY****
TOTAL RUN TIME: 0 days 0 hours 4 minutes 4 seconds 365 msec
