                         Program Version 4.2.0 -  RELEASE  -
|  1> # 12h2o.su.etal.mol0,2,5,6,8,9,10
|  2> ! MP2 def2-TZVP EnGrad TightSCF
|  3>
|  4> %pal
|  5>     nprocs 6
|  6> end
|  7>
|  8> %maxcore 8000
|  9>
| 10> %scf
| 11>     ConvForced true
| 12> end
| 13>
| 14> *xyz 0 1
| 15> O   1.794470000   0.923410000   2.768350000
| 16> H   2.338250000   1.359750000   3.430940000
| 17> H   0.879480000   1.303000000   2.865760000
| 18> O   0.923410000  -1.794470000  -2.768350000
| 19> H   1.359750000  -2.338250000  -3.430940000
| 20> H   1.303000000  -0.879480000  -2.865760000
| 21> O   0.885520000  -1.737840000   0.052730000
| 22> H   1.284090000  -0.839590000   0.017130000
| 23> H   1.032320000  -2.090180000  -0.841890000
| 24> O   1.737840000   0.885520000  -0.052730000
| 25> H   2.090180000   1.032320000   0.841890000
| 26> H   0.839590000   1.284090000  -0.017130000
| 27> O   1.752130000   0.741530000  -2.896280000
| 28> H   2.036450000   0.920500000  -1.984040000
| 29> H   0.921210000   1.242140000  -2.984230000
| 30> O   0.741530000  -1.752130000   2.896280000
| 31> H   0.920500000  -2.036450000   1.984040000
| 32> H   1.242140000  -0.921210000   2.984230000
| 33> O  -0.923410000   1.794470000  -2.768350000
| 34> H  -1.359750000   2.338250000  -3.430940000
| 35> H  -1.303000000   0.879480000  -2.865760000
| 36> *
| 37>
| 38>                          ****END OF INPUT****

CARTESIAN COORDINATES (ANGSTROEM)
---------------------------------
  O      1.794470    0.923410    2.768350
  H      2.338250    1.359750    3.430940
  H      0.879480    1.303000    2.865760
  O      0.923410   -1.794470   -2.768350
  H      1.359750   -2.338250   -3.430940
  H      1.303000   -0.879480   -2.865760
  O      0.885520   -1.737840    0.052730
  H      1.284090   -0.839590    0.017130
  H      1.032320   -2.090180   -0.841890
  O      1.737840    0.885520   -0.052730
  H      2.090180    1.032320    0.841890
  H      0.839590    1.284090   -0.017130
  O      1.752130    0.741530   -2.896280
  H      2.036450    0.920500   -1.984040
  H      0.921210    1.242140   -2.984230
  O      0.741530   -1.752130    2.896280
  H      0.920500   -2.036450    1.984040
  H      1.242140   -0.921210    2.984230
  O     -0.923410    1.794470   -2.768350
  H     -1.359750    2.338250   -3.430940
  H     -1.303000    0.879480   -2.865760

 Total Charge           Charge          ....    0
 Multiplicity           Mult            ....    1
 Number of Electrons    NEL             ....   70
 Basis Dimension        Dim             ....  301

ORBITAL ENERGIES
----------------

  NO   OCC          E(Eh)            E(eV)
   0   2.0000     -20.620032      -561.0996
   1   2.0000     -20.601069      -560.5836
   2   2.0000     -20.592713      -560.3562
   3   2.0000     -20.553693      -559.2944
   4   2.0000     -20.530980      -558.6764
   5   2.0000     -20.504920      -557.9672
   6   2.0000     -20.493752      -557.6633
   7   2.0000      -1.401023       -38.1238
   8   2.0000      -1.379725       -37.5442
   9   2.0000      -1.377540       -37.4848
  10   2.0000      -1.346050       -36.6279
  11   2.0000      -1.314765       -35.7766
  12   2.0000      -1.292622       -35.1740
  13   2.0000      -1.277521       -34.7631
  14   2.0000      -0.766156       -20.8482
  15   2.0000      -0.746251       -20.3065
  16   2.0000      -0.743221       -20.2241
  17   2.0000      -0.711364       -19.3572
  18   2.0000      -0.697878       -18.9902
  19   2.0000      -0.675320       -18.3764
  20   2.0000      -0.662412       -18.0251
  21   2.0000      -0.644911       -17.5489
  22   2.0000      -0.625081       -17.0093
  23   2.0000      -0.609010       -16.5720
  24   2.0000      -0.586857       -15.9692
  25   2.0000      -0.575142       -15.6504
  26   2.0000      -0.563501       -15.3336
  27   2.0000      -0.545310       -14.8386
  28   2.0000      -0.534967       -14.5572
  29   2.0000      -0.520382       -14.1603
  30   2.0000      -0.506183       -13.7740
  31   2.0000      -0.495253       -13.4765
  32   2.0000      -0.477707       -12.9991
  33   2.0000      -0.456821       -12.4307
  34   2.0000      -0.443204       -12.0602
  35   0.0000       0.086574         2.3558
  36   0.0000       0.104932         2.8553
  37   0.0000       0.149175         4.0593
  38   0.0000       0.158780         4.3206
  39   0.0000       0.180399         4.9089

MULLIKEN ATOMIC CHARGES
-----------------------
   0 O :   -0.712290
   1 H :    0.367366
   2 H :    0.369569
   3 O :   -0.741434
   4 H :    0.332142
   5 H :    0.369256
   6 O :   -0.743870
   7 H :    0.337823
   8 H :    0.368105
   9 O :   -0.721614
  10 H :    0.387364
  11 H :    0.355964
  12 O :   -0.716505
  13 H :    0.383547
  14 H :    0.363476
  15 O :   -0.727141
  16 H :    0.374621
  17 H :    0.330718
  18 O :   -0.709133
  19 H :    0.358086
  20 H :    0.373950
Sum of atomic charges:    0.0000000

LOEWDIN ATOMIC CHARGES
----------------------
   0 O :   -0.286004
   1 H :    0.169348
   2 H :    0.191784
   3 O :   -0.344957
   4 H :    0.151228
   5 H :    0.142531
   6 O :   -0.349895
   7 H :    0.135176
   8 H :    0.148395
   9 O :   -0.283169
  10 H :    0.156514
  11 H :    0.176801
  12 O :   -0.286573
  13 H :    0.154963
  14 H :    0.148546
  15 O :   -0.357884
  16 H :    0.152106
  17 H :    0.135041
  18 O :   -0.313838
  19 H :    0.166358
  20 H :    0.193527

  Mayer bond orders larger than 0.100000
B(  0-O ,  1-H ) :   0.8303 B(  0-O ,  2-H ) :   0.8213 B(  3-O ,  4-H ) :   0.8530
B(  3-O ,  5-H ) :   0.7542 B(  5-H , 12-O ) :   0.1080 B(  6-O ,  7-H ) :   0.8038
B(  6-O ,  8-H ) :   0.8088 B(  9-O , 10-H ) :   0.7954 B(  9-O , 11-H ) :   0.8310
B( 12-O , 13-H ) :   0.8080 B( 12-O , 14-H ) :   0.8075 B( 15-O , 16-H ) :   0.8105
B( 15-O , 17-H ) :   0.8483 B( 18-O , 19-H ) :   0.8386 B( 18-O , 20-H ) :   0.8202

MP2 TOTAL ENERGY:     -534.251956499 Eh
FINAL SINGLE POINT ENERGY      -534.251956498516

DIPOLE MOMENT
-------------
                                X             Y             Z
Electronic contribution:      0.04090       0.29284       0.04419
Nuclear contribution   :     -0.19874       2.60811      -0.63259
                        -----------------------------------------
Total Dipole Moment    :     -0.15784       2.90095      -0.58841
                        -----------------------------------------
Magnitude (a.u.)       :      2.96423
Magnitude (Debye)      :      7.53447

Rotational constants in cm-1:     0.049602     0.020482     0.017147
Rotational constants in MHz :  1487.031074   614.023369   514.057946

                             ****ORCA TERMINATED NORMALLY****
TOTAL RUN TIME: 0 days 0 hours 1 minutes 57 seconds 80 msec
