                         Program Version 4.2.0 -  RELEASE  -
|  1> # 12h2o.su.etal.mol3,8,9,11
|  2> ! MP2 def2-TZVP EnGrad TightSCF
|  3>
|  4> %pal
|  5>     nprocs 6
|  6> end
|  7>
|  8> %maxcore 8000
|  9>
| 10> %scf
| 11>     ConvForced true
| 12> end
| 13>
| 14> *xyz 0 1
| 15> O  -1.752130000  -0.741530000  -2.896280000
| 16> H  -2.036450000  -0.920500000  -1.984040000
| 17> H  -0.921210000  -1.242140000  -2.984230000
| 18> O   1.752130000   0.741530000  -2.896280000
| 19> H   2.036450000   0.920500000  -1.984040000
| 20> H   0.921210000   1.242140000  -2.984230000
| 21> O   0.741530000  -1.752130000   2.896280000
| 22> H   0.920500000  -2.036450000   1.984040000
| 23> H   1.242140000  -0.921210000   2.984230000
| 24> O  -0.741530000   1.752130000   2.896280000
| 25> H  -0.920500000   2.036450000   1.984040000
| 26> H  -1.242140000   0.921210000   2.984230000
| 27> *
| 28>
| 29>                          ****END OF INPUT****

CARTESIAN COORDINATES (ANGSTROEM)
---------------------------------
  O     -1.752130   -0.741530   -2.896280
  H     -2.036450   -0.920500   -1.984040
  H     -0.921210   -1.242140   -2.984230
  O      1.752130    0.741530   -2.896280
  H      2.036450    0.920500   -1.984040
  H      0.921210    1.242140   -2.984230
  O      0.741530   -1.752130    2.896280
  H      0.920500   -2.036450    1.984040
  H      1.242140   -0.921210    2.984230
  O     -0.741530    1.752130    2.896280
  H     -0.920500    2.036450    1.984040
  H     -1.242140    0.921210    2.984230

 Total Charge           Charge          ....    0
 Multiplicity           Mult            ....    1
 Number of Electrons    NEL             ....   40
 Basis Dimension        Dim             ....  172

ORBITAL ENERGIES
----------------

  NO   OCC          E(Eh)            E(eV)
   0   2.0000     -20.572032      -559.7935
   1   2.0000     -20.572032      -559.7935
   2   2.0000     -20.572032      -559.7935
   3   2.0000     -20.572032      -559.7934
   4   2.0000      -1.351570       -36.7781
   5   2.0000      -1.351568       -36.7780
   6   2.0000      -1.350819       -36.7576
   7   2.0000      -1.350819       -36.7576
   8   2.0000      -0.714966       -19.4552
   9   2.0000      -0.714944       -19.4546
  10   2.0000      -0.712498       -19.3881
  11   2.0000      -0.712498       -19.3881
  12   2.0000      -0.589065       -16.0293
  13   2.0000      -0.589065       -16.0293
  14   2.0000      -0.588530       -16.0147
  15   2.0000      -0.588454       -16.0126
  16   2.0000      -0.519227       -14.1289
  17   2.0000      -0.519204       -14.1283
  18   2.0000      -0.513110       -13.9624
  19   2.0000      -0.513110       -13.9624
  20   0.0000       0.089347         2.4313
  21   0.0000       0.116110         3.1595
  22   0.0000       0.139068         3.7842
  23   0.0000       0.139068         3.7842
  24   0.0000       0.191560         5.2126

MULLIKEN ATOMIC CHARGES
-----------------------
   0 O :   -0.679109
   1 H :    0.333493
   2 H :    0.345617
   3 O :   -0.679109
   4 H :    0.333493
   5 H :    0.345617
   6 O :   -0.679109
   7 H :    0.333493
   8 H :    0.345617
   9 O :   -0.679109
  10 H :    0.333493
  11 H :    0.345617
Sum of atomic charges:   -0.0000000

LOEWDIN ATOMIC CHARGES
----------------------
   0 O :   -0.331778
   1 H :    0.163668
   2 H :    0.168110
   3 O :   -0.331778
   4 H :    0.163668
   5 H :    0.168110
   6 O :   -0.331778
   7 H :    0.163668
   8 H :    0.168110
   9 O :   -0.331778
  10 H :    0.163668
  11 H :    0.168110

  Mayer bond orders larger than 0.100000
B(  0-O ,  1-H ) :   0.8550 B(  0-O ,  2-H ) :   0.8446 B(  3-O ,  4-H ) :   0.8550
B(  3-O ,  5-H ) :   0.8446 B(  6-O ,  7-H ) :   0.8550 B(  6-O ,  8-H ) :   0.8446
B(  9-O , 10-H ) :   0.8550 B(  9-O , 11-H ) :   0.8446

MP2 TOTAL ENERGY:     -305.256731618 Eh
FINAL SINGLE POINT ENERGY      -305.256731618342

DIPOLE MOMENT
-------------
                                X             Y             Z
Electronic contribution:      0.00000      -0.00000      -0.00000
Nuclear contribution   :     -0.00000      -0.00000      -0.00000
                        -----------------------------------------
Total Dipole Moment    :      0.00000      -0.00000      -0.00000
                        -----------------------------------------
Magnitude (a.u.)       :      0.00000
Magnitude (Debye)      :      0.00000

Rotational constants in cm-1:     0.064481     0.023435     0.023435
Rotational constants in MHz :  1933.100174   702.576619   702.576619

                             ****ORCA TERMINATED NORMALLY****
TOTAL RUN TIME: 0 days 0 hours 0 minutes 17 seconds 949 msec
