                         Program Version 4.2.0 -  RELEASE  -
|  1> # 12meoh.boyd.etal.mol3,7,8
|  2> ! MP2 def2-TZVP EnGrad TightSCF
|  3>
|  4> %pal
|  5>     nprocs 6
|  6> end
|  7>
|  8> %maxcore 8000
|  9>
| 10> %scf
| 11>     ConvForced true
| 12> end
| 13>
| 14> *xyz 0 1
| 15> O  -3.821405976  -2.118091637   0.596795346
| 16> H  -4.342989117  -1.344303030   0.251966383
| 17> C  -3.443883586  -1.809641231   1.934889393
| 18> H  -2.831494349  -2.637429600   2.305201764
| 19> H  -4.325601146  -1.719364371   2.585074667
| 20> H  -2.858527126  -0.882644791   1.996110694
| 21> O   4.310535586  -1.588322800   0.656128299
| 22> H   3.804372199  -1.630404735  -0.196849819
| 23> C   4.312298137  -2.894980854   1.222112691
| 24> H   4.713177833  -2.819907076   2.237066773
| 25> H   4.957796734  -3.574699304   0.648211180
| 26> H   3.302735989  -3.324433205   1.269756773
| 27> O   3.570084754   2.361662577  -0.202416728
| 28> H   3.393280933   1.755669977   0.560634073
| 29> C   4.368082883   1.644741793  -1.143112807
| 30> H   4.552851717   2.311801738  -1.989632421
| 31> H   3.862427494   0.740851663  -1.508095690
| 32> H   5.333949674   1.357289092  -0.706288100
| 33> *
| 34>
| 35>                          ****END OF INPUT****

CARTESIAN COORDINATES (ANGSTROEM)
---------------------------------
  O     -3.821406   -2.118092    0.596795
  H     -4.342989   -1.344303    0.251966
  C     -3.443884   -1.809641    1.934889
  H     -2.831494   -2.637430    2.305202
  H     -4.325601   -1.719364    2.585075
  H     -2.858527   -0.882645    1.996111
  O      4.310536   -1.588323    0.656128
  H      3.804372   -1.630405   -0.196850
  C      4.312298   -2.894981    1.222113
  H      4.713178   -2.819907    2.237067
  H      4.957797   -3.574699    0.648211
  H      3.302736   -3.324433    1.269757
  O      3.570085    2.361663   -0.202417
  H      3.393281    1.755670    0.560634
  C      4.368083    1.644742   -1.143113
  H      4.552852    2.311802   -1.989632
  H      3.862427    0.740852   -1.508096
  H      5.333950    1.357289   -0.706288

 Total Charge           Charge          ....    0
 Multiplicity           Mult            ....    1
 Number of Electrons    NEL             ....   54
 Basis Dimension        Dim             ....  258

ORBITAL ENERGIES
----------------

  NO   OCC          E(Eh)            E(eV)
   0   2.0000     -20.566801      -559.6511
   1   2.0000     -20.559381      -559.4492
   2   2.0000     -20.549598      -559.1830
   3   2.0000     -11.278202      -306.8955
   4   2.0000     -11.273308      -306.7623
   5   2.0000     -11.265631      -306.5534
   6   2.0000      -1.356253       -36.9055
   7   2.0000      -1.348469       -36.6937
   8   2.0000      -1.339155       -36.4403
   9   2.0000      -0.926764       -25.2185
  10   2.0000      -0.920828       -25.0570
  11   2.0000      -0.913280       -24.8516
  12   2.0000      -0.690461       -18.7884
  13   2.0000      -0.682848       -18.5812
  14   2.0000      -0.674474       -18.3534
  15   2.0000      -0.624341       -16.9892
  16   2.0000      -0.619174       -16.8486
  17   2.0000      -0.610396       -16.6097
  18   2.0000      -0.599152       -16.3038
  19   2.0000      -0.591829       -16.1045
  20   2.0000      -0.582806       -15.8589
  21   2.0000      -0.508989       -13.8503
  22   2.0000      -0.502455       -13.6725
  23   2.0000      -0.494847       -13.4655
  24   2.0000      -0.457462       -12.4482
  25   2.0000      -0.451158       -12.2766
  26   2.0000      -0.442793       -12.0490
  27   0.0000       0.117759         3.2044
  28   0.0000       0.133739         3.6392
  29   0.0000       0.153310         4.1718
  30   0.0000       0.174366         4.7447
  31   0.0000       0.175715         4.7814

MULLIKEN ATOMIC CHARGES
-----------------------
   0 O :   -0.495926
   1 H :    0.321833
   2 C :   -0.175135
   3 H :    0.127624
   4 H :    0.110335
   5 H :    0.111269
   6 O :   -0.499009
   7 H :    0.324397
   8 C :   -0.180280
   9 H :    0.131330
  10 H :    0.113068
  11 H :    0.114988
  12 O :   -0.504005
  13 H :    0.326331
  14 C :   -0.159467
  15 H :    0.129186
  16 H :    0.082848
  17 H :    0.120612
Sum of atomic charges:   -0.0000000

LOEWDIN ATOMIC CHARGES
----------------------
   0 O :   -0.110198
   1 H :    0.191005
   2 C :   -0.382134
   3 H :    0.109914
   4 H :    0.095810
   5 H :    0.095602
   6 O :   -0.111194
   7 H :    0.189103
   8 C :   -0.378598
   9 H :    0.110735
  10 H :    0.096986
  11 H :    0.097335
  12 O :   -0.111373
  13 H :    0.189232
  14 C :   -0.379042
  15 H :    0.108950
  16 H :    0.088592
  17 H :    0.099273

  Mayer bond orders larger than 0.100000
B(  0-O ,  1-H ) :   0.8425 B(  0-O ,  2-C ) :   0.9262 B(  2-C ,  3-H ) :   0.9377
B(  2-C ,  4-H ) :   0.9393 B(  2-C ,  5-H ) :   0.9384 B(  6-O ,  7-H ) :   0.8392
B(  6-O ,  8-C ) :   0.9187 B(  8-C ,  9-H ) :   0.9384 B(  8-C , 10-H ) :   0.9382
B(  8-C , 11-H ) :   0.9398 B( 12-O , 13-H ) :   0.8400 B( 12-O , 14-C ) :   0.9281
B( 14-C , 15-H ) :   0.9365 B( 14-C , 16-H ) :   0.9400 B( 14-C , 17-H ) :   0.9407

MP2 TOTAL ENERGY:     -346.522722286 Eh
FINAL SINGLE POINT ENERGY      -346.522722286236

DIPOLE MOMENT
-------------
                                X             Y             Z
Electronic contribution:     -1.30330       2.14819      -1.12756
Nuclear contribution   :      1.06284      -2.81423       1.30427
                        -----------------------------------------
Total Dipole Moment    :     -0.24046      -0.66605       0.17671
                        -----------------------------------------
Magnitude (a.u.)       :      0.72984
Magnitude (Debye)      :      1.85510

Rotational constants in cm-1:     0.045684     0.011642     0.009615
Rotational constants in MHz :  1369.584900   349.006064   288.254785

                             ****ORCA TERMINATED NORMALLY****
TOTAL RUN TIME: 0 days 0 hours 0 minutes 48 seconds 870 msec
