                         Program Version 4.2.0 -  RELEASE  -
|  1> # 12mecn.remya.etal.2.mol0,2,5
|  2> ! MP2 def2-TZVP EnGrad TightSCF
|  3>
|  4> %pal
|  5>     nprocs 6
|  6> end
|  7>
|  8> %maxcore 8000
|  9>
| 10> %scf
| 11>     ConvForced true
| 12> end
| 13>
| 14> *xyz 0 1
| 15> C  -0.869520000  -3.929380000   1.700199000
| 16> H  -0.057420000  -3.268850000   2.015352000
| 17> H  -0.697530000  -4.930670000   2.101524000
| 18> H  -1.821490000  -3.546590000   2.077146000
| 19> C  -0.916080000  -3.969960000   0.256749000
| 20> N  -0.955390000  -3.995980000  -0.909290000
| 21> C  -4.219070000  -3.477410000  -1.501740000
| 22> H  -3.251530000  -3.803540000  -1.893830000
| 23> H  -4.452920000  -2.481700000  -1.890840000
| 24> H  -4.992170000  -4.178130000  -1.824640000
| 25> C  -4.154550000  -3.418790000  -0.058340000
| 26> N  -4.091140000  -3.354840000   1.104432000
| 27> C  -1.955700000   2.515080000   1.698463000
| 28> H  -2.923830000   2.883163000   2.049269000
| 29> H  -1.154850000   3.171830000   2.050990000
| 30> H  -1.790380000   1.506115000   2.087896000
| 31> C  -1.948230000   2.482156000   0.253672000
| 32> N  -1.937550000   2.462523000  -0.913150000
| 33> *
| 34>
| 35>                          ****END OF INPUT****

CARTESIAN COORDINATES (ANGSTROEM)
---------------------------------
  C     -0.869520   -3.929380    1.700199
  H     -0.057420   -3.268850    2.015352
  H     -0.697530   -4.930670    2.101524
  H     -1.821490   -3.546590    2.077146
  C     -0.916080   -3.969960    0.256749
  N     -0.955390   -3.995980   -0.909290
  C     -4.219070   -3.477410   -1.501740
  H     -3.251530   -3.803540   -1.893830
  H     -4.452920   -2.481700   -1.890840
  H     -4.992170   -4.178130   -1.824640
  C     -4.154550   -3.418790   -0.058340
  N     -4.091140   -3.354840    1.104432
  C     -1.955700    2.515080    1.698463
  H     -2.923830    2.883163    2.049269
  H     -1.154850    3.171830    2.050990
  H     -1.790380    1.506115    2.087896
  C     -1.948230    2.482156    0.253672
  N     -1.937550    2.462523   -0.913150

 Total Charge           Charge          ....    0
 Multiplicity           Mult            ....    1
 Number of Electrons    NEL             ....   66
 Basis Dimension        Dim             ....  333

ORBITAL ENERGIES
----------------

  NO   OCC          E(Eh)            E(eV)
   0   2.0000     -15.572844      -423.7586
   1   2.0000     -15.571181      -423.7134
   2   2.0000     -15.570953      -423.7072
   3   2.0000     -11.284921      -307.0783
   4   2.0000     -11.283721      -307.0456
   5   2.0000     -11.282439      -307.0108
   6   2.0000     -11.279891      -306.9414
   7   2.0000     -11.272745      -306.7470
   8   2.0000     -11.270230      -306.6785
   9   2.0000      -1.218323       -33.1522
  10   2.0000      -1.214046       -33.0359
  11   2.0000      -1.213861       -33.0308
  12   2.0000      -1.043579       -28.3972
  13   2.0000      -1.036824       -28.2134
  14   2.0000      -1.032996       -28.1093
  15   2.0000      -0.699370       -19.0308
  16   2.0000      -0.695192       -18.9171
  17   2.0000      -0.690636       -18.7932
  18   2.0000      -0.632582       -17.2134
  19   2.0000      -0.631094       -17.1729
  20   2.0000      -0.630655       -17.1610
  21   2.0000      -0.623693       -16.9716
  22   2.0000      -0.619987       -16.8707
  23   2.0000      -0.614132       -16.7114
  24   2.0000      -0.559392       -15.2218
  25   2.0000      -0.555819       -15.1246
  26   2.0000      -0.555533       -15.1168
  27   2.0000      -0.460155       -12.5215
  28   2.0000      -0.459544       -12.5048
  29   2.0000      -0.457307       -12.4439
  30   2.0000      -0.457030       -12.4364
  31   2.0000      -0.456677       -12.4268
  32   2.0000      -0.455561       -12.3964
  33   0.0000       0.112260         3.0547
  34   0.0000       0.132032         3.5928
  35   0.0000       0.141879         3.8607
  36   0.0000       0.169651         4.6164
  37   0.0000       0.171446         4.6653

MULLIKEN ATOMIC CHARGES
-----------------------
   0 C :   -0.286356
   1 H :    0.164540
   2 H :    0.167312
   3 H :    0.203322
   4 C :   -0.102461
   5 N :   -0.147431
   6 C :   -0.286231
   7 H :    0.205981
   8 H :    0.171554
   9 H :    0.165883
  10 C :   -0.099987
  11 N :   -0.156113
  12 C :   -0.277890
  13 H :    0.172628
  14 H :    0.171667
  15 H :    0.171850
  16 C :   -0.145474
  17 N :   -0.092794
Sum of atomic charges:    0.0000000

LOEWDIN ATOMIC CHARGES
----------------------
   0 C :   -0.283471
   1 H :    0.150351
   2 H :    0.151909
   3 H :    0.156167
   4 C :   -0.208600
   5 N :    0.032303
   6 C :   -0.281138
   7 H :    0.157536
   8 H :    0.154875
   9 H :    0.149778
  10 C :   -0.205954
  11 N :    0.026248
  12 C :   -0.283751
  13 H :    0.152852
  14 H :    0.152520
  15 H :    0.152660
  16 C :   -0.219750
  17 N :    0.045464

  Mayer bond orders larger than 0.100000
B(  0-C ,  1-H ) :   0.9174 B(  0-C ,  2-H ) :   0.9146 B(  0-C ,  3-H ) :   0.9020
B(  0-C ,  4-C ) :   0.9011 B(  4-C ,  5-N ) :   2.7699 B(  6-C ,  7-H ) :   0.9010
B(  6-C ,  8-H ) :   0.9128 B(  6-C ,  9-H ) :   0.9162 B(  6-C , 10-C ) :   0.9029
B( 10-C , 11-N ) :   2.7721 B( 12-C , 13-H ) :   0.9160 B( 12-C , 14-H ) :   0.9166
B( 12-C , 15-H ) :   0.9164 B( 12-C , 16-C ) :   0.9019 B( 16-C , 17-N ) :   2.8367

MP2 TOTAL ENERGY:     -397.459685396 Eh
FINAL SINGLE POINT ENERGY      -397.459685395742

DIPOLE MOMENT
-------------
                                X             Y             Z
Electronic contribution:      0.04318      -0.03506      -3.15006
Nuclear contribution   :     -0.08662       0.03227       4.63399
                        -----------------------------------------
Total Dipole Moment    :     -0.04345      -0.00280       1.48393
                        -----------------------------------------
Magnitude (a.u.)       :      1.48457
Magnitude (Debye)      :      3.77348

Rotational constants in cm-1:     0.042976     0.013993     0.012812
Rotational constants in MHz :  1288.386178   419.509895   384.099547

                             ****ORCA TERMINATED NORMALLY****
TOTAL RUN TIME: 0 days 0 hours 3 minutes 3 seconds 318 msec
