                         Program Version 4.2.0 -  RELEASE  -
|  1> # 12h2o.su.etal.mol0,1,2,3,4,8,9,11
|  2> ! MP2 def2-TZVP EnGrad TightSCF
|  3>
|  4> %pal
|  5>     nprocs 6
|  6> end
|  7>
|  8> %maxcore 8000
|  9>
| 10> %scf
| 11>     ConvForced true
| 12> end
| 13>
| 14> *xyz 0 1
| 15> O   1.794470000   0.923410000   2.768350000
| 16> H   2.338250000   1.359750000   3.430940000
| 17> H   0.879480000   1.303000000   2.865760000
| 18> O  -1.794470000  -0.923410000   2.768350000
| 19> H  -2.338250000  -1.359750000   3.430940000
| 20> H  -0.879480000  -1.303000000   2.865760000
| 21> O   0.923410000  -1.794470000  -2.768350000
| 22> H   1.359750000  -2.338250000  -3.430940000
| 23> H   1.303000000  -0.879480000  -2.865760000
| 24> O  -1.752130000  -0.741530000  -2.896280000
| 25> H  -2.036450000  -0.920500000  -1.984040000
| 26> H  -0.921210000  -1.242140000  -2.984230000
| 27> O  -0.885520000   1.737840000   0.052730000
| 28> H  -1.032320000   2.090180000  -0.841890000
| 29> H  -1.284090000   0.839590000   0.017130000
| 30> O   1.752130000   0.741530000  -2.896280000
| 31> H   2.036450000   0.920500000  -1.984040000
| 32> H   0.921210000   1.242140000  -2.984230000
| 33> O   0.741530000  -1.752130000   2.896280000
| 34> H   0.920500000  -2.036450000   1.984040000
| 35> H   1.242140000  -0.921210000   2.984230000
| 36> O  -0.741530000   1.752130000   2.896280000
| 37> H  -0.920500000   2.036450000   1.984040000
| 38> H  -1.242140000   0.921210000   2.984230000
| 39> *
| 40>
| 41>                          ****END OF INPUT****

CARTESIAN COORDINATES (ANGSTROEM)
---------------------------------
  O      1.794470    0.923410    2.768350
  H      2.338250    1.359750    3.430940
  H      0.879480    1.303000    2.865760
  O     -1.794470   -0.923410    2.768350
  H     -2.338250   -1.359750    3.430940
  H     -0.879480   -1.303000    2.865760
  O      0.923410   -1.794470   -2.768350
  H      1.359750   -2.338250   -3.430940
  H      1.303000   -0.879480   -2.865760
  O     -1.752130   -0.741530   -2.896280
  H     -2.036450   -0.920500   -1.984040
  H     -0.921210   -1.242140   -2.984230
  O     -0.885520    1.737840    0.052730
  H     -1.032320    2.090180   -0.841890
  H     -1.284090    0.839590    0.017130
  O      1.752130    0.741530   -2.896280
  H      2.036450    0.920500   -1.984040
  H      0.921210    1.242140   -2.984230
  O      0.741530   -1.752130    2.896280
  H      0.920500   -2.036450    1.984040
  H      1.242140   -0.921210    2.984230
  O     -0.741530    1.752130    2.896280
  H     -0.920500    2.036450    1.984040
  H     -1.242140    0.921210    2.984230

 Total Charge           Charge          ....    0
 Multiplicity           Mult            ....    1
 Number of Electrons    NEL             ....   80
 Basis Dimension        Dim             ....  344

ORBITAL ENERGIES
----------------

  NO   OCC          E(Eh)            E(eV)
   0   2.0000     -20.607141      -560.7488
   1   2.0000     -20.595292      -560.4264
   2   2.0000     -20.568559      -559.6989
   3   2.0000     -20.554344      -559.3121
   4   2.0000     -20.549663      -559.1848
   5   2.0000     -20.546008      -559.0853
   6   2.0000     -20.545445      -559.0700
   7   2.0000     -20.541896      -558.9734
   8   2.0000      -1.392925       -37.9034
   9   2.0000      -1.373836       -37.3840
  10   2.0000      -1.361395       -37.0454
  11   2.0000      -1.341734       -36.5104
  12   2.0000      -1.340135       -36.4669
  13   2.0000      -1.331548       -36.2333
  14   2.0000      -1.326124       -36.0857
  15   2.0000      -1.318571       -35.8801
  16   2.0000      -0.749481       -20.3944
  17   2.0000      -0.736499       -20.0411
  18   2.0000      -0.723945       -19.6995
  19   2.0000      -0.720897       -19.6166
  20   2.0000      -0.717193       -19.5158
  21   2.0000      -0.704192       -19.1621
  22   2.0000      -0.700482       -19.0611
  23   2.0000      -0.695569       -18.9274
  24   2.0000      -0.632695       -17.2165
  25   2.0000      -0.625136       -17.0108
  26   2.0000      -0.609881       -16.5957
  27   2.0000      -0.591272       -16.0893
  28   2.0000      -0.582359       -15.8468
  29   2.0000      -0.577305       -15.7093
  30   2.0000      -0.564943       -15.3729
  31   2.0000      -0.549408       -14.9502
  32   2.0000      -0.537835       -14.6352
  33   2.0000      -0.535643       -14.5756
  34   2.0000      -0.509400       -13.8615
  35   2.0000      -0.503757       -13.7079
  36   2.0000      -0.499325       -13.5873
  37   2.0000      -0.492863       -13.4115
  38   2.0000      -0.492600       -13.4043
  39   2.0000      -0.490169       -13.3382
  40   0.0000       0.078108         2.1254
  41   0.0000       0.122204         3.3253
  42   0.0000       0.137925         3.7531
  43   0.0000       0.144274         3.9259
  44   0.0000       0.160839         4.3766

MULLIKEN ATOMIC CHARGES
-----------------------
   0 O :   -0.748617
   1 H :    0.338600
   2 H :    0.383707
   3 O :   -0.748912
   4 H :    0.343305
   5 H :    0.379551
   6 O :   -0.740409
   7 H :    0.343168
   8 H :    0.378894
   9 O :   -0.711933
  10 H :    0.323188
  11 H :    0.365605
  12 O :   -0.699140
  13 H :    0.348285
  14 H :    0.353964
  15 O :   -0.683785
  16 H :    0.368505
  17 H :    0.359542
  18 O :   -0.709503
  19 H :    0.353333
  20 H :    0.378734
  21 O :   -0.724696
  22 H :    0.382294
  23 H :    0.366319
Sum of atomic charges:   -0.0000000

LOEWDIN ATOMIC CHARGES
----------------------
   0 O :   -0.344177
   1 H :    0.154217
   2 H :    0.145638
   3 O :   -0.344977
   4 H :    0.156608
   5 H :    0.144843
   6 O :   -0.340266
   7 H :    0.156669
   8 H :    0.144987
   9 O :   -0.348625
  10 H :    0.155246
  11 H :    0.148733
  12 O :   -0.316398
  13 H :    0.168071
  14 H :    0.176715
  15 O :   -0.267998
  16 H :    0.178619
  17 H :    0.174550
  18 O :   -0.284656
  19 H :    0.170841
  20 H :    0.154555
  21 O :   -0.288645
  22 H :    0.156406
  23 H :    0.149045

  Mayer bond orders larger than 0.100000
B(  0-O ,  1-H ) :   0.8497 B(  0-O ,  2-H ) :   0.7401 B(  2-H , 21-O ) :   0.1173
B(  3-O ,  4-H ) :   0.8475 B(  3-O ,  5-H ) :   0.7480 B(  5-H , 18-O ) :   0.1105
B(  6-O ,  7-H ) :   0.8473 B(  6-O ,  8-H ) :   0.7649 B(  9-O , 10-H ) :   0.8599
B(  9-O , 11-H ) :   0.8005 B( 12-O , 13-H ) :   0.8420 B( 12-O , 14-H ) :   0.8314
B( 15-O , 16-H ) :   0.8299 B( 15-O , 17-H ) :   0.8323 B( 18-O , 19-H ) :   0.8402
B( 18-O , 20-H ) :   0.7790 B( 21-O , 22-H ) :   0.8096 B( 21-O , 23-H ) :   0.7943

MP2 TOTAL ENERGY:     -610.582091740 Eh
FINAL SINGLE POINT ENERGY      -610.582091740243

DIPOLE MOMENT
-------------
                                X             Y             Z
Electronic contribution:      0.25117       0.26784      -0.14727
Nuclear contribution   :      0.22520      -0.14541      -0.14168
                        -----------------------------------------
Total Dipole Moment    :      0.47637       0.12242      -0.28896
                        -----------------------------------------
Magnitude (a.u.)       :      0.57045
Magnitude (Debye)      :      1.44997

Rotational constants in cm-1:     0.031167     0.013230     0.013018
Rotational constants in MHz :   934.361813   396.612672   390.262990

                             ****ORCA TERMINATED NORMALLY****
TOTAL RUN TIME: 0 days 0 hours 2 minutes 36 seconds 161 msec
