                         Program Version 4.2.0 -  RELEASE  -
|  1> # 12h2o.su.etal.mol0,1,4,9
|  2> ! MP2 def2-TZVP EnGrad TightSCF
|  3>
|  4> %pal
|  5>     nprocs 6
|  6> end
|  7>
|  8> %maxcore 8000
|  9>
| 10> %scf
| 11>     ConvForced true
| 12> end
| 13>
| 14> *xyz 0 1
| 15> O   1.794470000   0.923410000   2.768350000
| 16> H   2.338250000   1.359750000   3.430940000
| 17> H   0.879480000   1.303000000   2.865760000
| 18> O  -1.794470000  -0.923410000   2.768350000
| 19> H  -2.338250000  -1.359750000   3.430940000
| 20> H  -0.879480000  -1.303000000   2.865760000
| 21> O  -0.885520000   1.737840000   0.052730000
| 22> H  -1.032320000   2.090180000  -0.841890000
| 23> H  -1.284090000   0.839590000   0.017130000
| 24> O   0.741530000  -1.752130000   2.896280000
| 25> H   0.920500000  -2.036450000   1.984040000
| 26> H   1.242140000  -0.921210000   2.984230000
| 27> *
| 28>
| 29>                          ****END OF INPUT****

CARTESIAN COORDINATES (ANGSTROEM)
---------------------------------
  O      1.794470    0.923410    2.768350
  H      2.338250    1.359750    3.430940
  H      0.879480    1.303000    2.865760
  O     -1.794470   -0.923410    2.768350
  H     -2.338250   -1.359750    3.430940
  H     -0.879480   -1.303000    2.865760
  O     -0.885520    1.737840    0.052730
  H     -1.032320    2.090180   -0.841890
  H     -1.284090    0.839590    0.017130
  O      0.741530   -1.752130    2.896280
  H      0.920500   -2.036450    1.984040
  H      1.242140   -0.921210    2.984230

 Total Charge           Charge          ....    0
 Multiplicity           Mult            ....    1
 Number of Electrons    NEL             ....   40
 Basis Dimension        Dim             ....  172

ORBITAL ENERGIES
----------------

  NO   OCC          E(Eh)            E(eV)
   0   2.0000     -20.584132      -560.1227
   1   2.0000     -20.566061      -559.6310
   2   2.0000     -20.555078      -559.3321
   3   2.0000     -20.516183      -558.2737
   4   2.0000      -1.364368       -37.1264
   5   2.0000      -1.352269       -36.7971
   6   2.0000      -1.331099       -36.2210
   7   2.0000      -1.297983       -35.3199
   8   2.0000      -0.731056       -19.8930
   9   2.0000      -0.713761       -19.4224
  10   2.0000      -0.692929       -18.8556
  11   2.0000      -0.685336       -18.6490
  12   2.0000      -0.611329       -16.6351
  13   2.0000      -0.585474       -15.9316
  14   2.0000      -0.571351       -15.5473
  15   2.0000      -0.546527       -14.8718
  16   2.0000      -0.524895       -14.2831
  17   2.0000      -0.498760       -13.5720
  18   2.0000      -0.497991       -13.5510
  19   2.0000      -0.466923       -12.7056
  20   0.0000       0.110206         2.9988
  21   0.0000       0.140653         3.8274
  22   0.0000       0.155641         4.2352
  23   0.0000       0.179675         4.8892
  24   0.0000       0.211562         5.7569

MULLIKEN ATOMIC CHARGES
-----------------------
   0 O :   -0.703408
   1 H :    0.350970
   2 H :    0.377646
   3 O :   -0.737576
   4 H :    0.324736
   5 H :    0.364273
   6 O :   -0.683480
   7 H :    0.332615
   8 H :    0.349488
   9 O :   -0.701014
  10 H :    0.351250
  11 H :    0.374501
Sum of atomic charges:   -0.0000000

LOEWDIN ATOMIC CHARGES
----------------------
   0 O :   -0.310687
   1 H :    0.163322
   2 H :    0.194442
   3 O :   -0.375770
   4 H :    0.148508
   5 H :    0.140892
   6 O :   -0.340255
   7 H :    0.163451
   8 H :    0.175914
   9 O :   -0.284011
  10 H :    0.170348
  11 H :    0.153846

  Mayer bond orders larger than 0.100000
B(  0-O ,  1-H ) :   0.8423 B(  0-O ,  2-H ) :   0.8165 B(  3-O ,  4-H ) :   0.8606
B(  3-O ,  5-H ) :   0.7755 B(  6-O ,  7-H ) :   0.8552 B(  6-O ,  8-H ) :   0.8409
B(  9-O , 10-H ) :   0.8420 B(  9-O , 11-H ) :   0.7946

MP2 TOTAL ENERGY:     -305.274184311 Eh
FINAL SINGLE POINT ENERGY      -305.274184311362

DIPOLE MOMENT
-------------
                                X             Y             Z
Electronic contribution:      0.35818       0.12636       0.04820
Nuclear contribution   :      0.11171       0.00057      -0.19520
                        -----------------------------------------
Total Dipole Moment    :      0.46990       0.12693      -0.14700
                        -----------------------------------------
Magnitude (a.u.)       :      0.50845
Magnitude (Debye)      :      1.29238

Rotational constants in cm-1:     0.097760     0.069053     0.045345
Rotational constants in MHz :  2930.762091  2070.143778  1359.416306

                             ****ORCA TERMINATED NORMALLY****
TOTAL RUN TIME: 0 days 0 hours 0 minutes 20 seconds 697 msec
