                         Program Version 4.2.0 -  RELEASE  -
|  1> ! MP2 def2-TZVP EnGrad TightSCF FrozenCore
|  2>
|  3> %pal
|  4>     nprocs 12
|  5> end
|  6>
|  7> %maxcore 8000
|  8>
|  9> %scf
| 10>     ConvForced true
| 11> end
| 12>
| 13> *xyz 0 1
| 14> O    -0.1543230764    -0.7123211522     1.2235629535
| 15> H    -0.6917529546    -1.5236374677     1.0325167776
| 16> C     0.0000000000     0.0000000000     0.0000000000
| 17> H     0.6539407951     0.8545432154     0.1948422083
| 18> H    -0.9649263831     0.378182504     -0.363679536
| 19> H     0.4531545789    -0.6187059815    -0.7866620955
| 20> O     2.02492047      -1.9901106361     2.1637801365
| 21> H     1.2809411491    -1.4288374475     1.8143017364
| 22> C     2.4297843952    -1.4691072229     3.4229351269
| 23> H     3.2423010885    -2.0980396487     3.7979904332
| 24> H     1.6140377963    -1.471263057      4.1607191615
| 25> H     2.8065564809    -0.4420988885     3.3254978606
| 26> O     0.8422831004    -4.3822032832     1.9031706104
| 27> H     1.386910581     -3.5536195026     2.0200232978
| 28> C     0.5174594934    -4.9048614131     3.1924051252
| 29> H     0.1040452675    -5.9037953349     3.0390909777
| 30> H    -0.2201027097    -4.277253482      3.7112499853
| 31> H     1.4127415979    -4.9912279135     3.821002875
| 32> O    -1.2318310845    -3.1108281161     0.6011132493
| 33> H    -0.5390148099    -3.6907862142     0.999942414
| 34> C    -2.5143094491    -3.6390109296     0.9134917151
| 35> H    -3.259655162     -2.9905948038     0.4449159423
| 36> H    -2.7067496666    -3.6624248459     1.9964071625
| 37> H    -2.6363179174    -4.6538535839     0.5124829663
| 38> O     1.2168828706    -6.9173292067     0.7422509289
| 39> H     1.2118937012    -5.9605353177     0.9375730695
| 40> C     2.5596011206    -7.3553234234     0.7723916112
| 41> H     2.5570240849    -8.4349151563     0.5902971586
| 42> H     3.047801072     -7.1793816749     1.7457627767
| 43> H     3.180862996     -6.8838958921    -0.0069674705
| 44> *
| 45>
| 46>                          ****END OF INPUT****

CARTESIAN COORDINATES (ANGSTROEM)
---------------------------------
  O     -0.154323   -0.712321    1.223563
  H     -0.691753   -1.523637    1.032517
  C      0.000000    0.000000    0.000000
  H      0.653941    0.854543    0.194842
  H     -0.964926    0.378183   -0.363680
  H      0.453155   -0.618706   -0.786662
  O      2.024920   -1.990111    2.163780
  H      1.280941   -1.428837    1.814302
  C      2.429784   -1.469107    3.422935
  H      3.242301   -2.098040    3.797990
  H      1.614038   -1.471263    4.160719
  H      2.806556   -0.442099    3.325498
  O      0.842283   -4.382203    1.903171
  H      1.386911   -3.553620    2.020023
  C      0.517459   -4.904861    3.192405
  H      0.104045   -5.903795    3.039091
  H     -0.220103   -4.277253    3.711250
  H      1.412742   -4.991228    3.821003
  O     -1.231831   -3.110828    0.601113
  H     -0.539015   -3.690786    0.999942
  C     -2.514309   -3.639011    0.913492
  H     -3.259655   -2.990595    0.444916
  H     -2.706750   -3.662425    1.996407
  H     -2.636318   -4.653854    0.512483
  O      1.216883   -6.917329    0.742251
  H      1.211894   -5.960535    0.937573
  C      2.559601   -7.355323    0.772392
  H      2.557024   -8.434915    0.590297
  H      3.047801   -7.179382    1.745763
  H      3.180863   -6.883896   -0.006967

 Total Charge           Charge          ....    0
 Multiplicity           Mult            ....    1
 Number of Electrons    NEL             ....   90
 Basis Dimension        Dim             ....  430

ORBITAL ENERGIES
----------------

  NO   OCC          E(Eh)            E(eV)
   0   2.0000     -20.565231      -559.6084
   1   2.0000     -20.558265      -559.4188
   2   2.0000     -20.556643      -559.3747
   3   2.0000     -20.554644      -559.3203
   4   2.0000     -20.526852      -558.5640
   5   2.0000     -11.279243      -306.9238
   6   2.0000     -11.276670      -306.8538
   7   2.0000     -11.275514      -306.8223
   8   2.0000     -11.271656      -306.7173
   9   2.0000     -11.254724      -306.2566
  10   2.0000      -1.376047       -37.4441
  11   2.0000      -1.360274       -37.0149
  12   2.0000      -1.357837       -36.9486
  13   2.0000      -1.342323       -36.5265
  14   2.0000      -1.328409       -36.1478
  15   2.0000      -0.936848       -25.4929
  16   2.0000      -0.927410       -25.2361
  17   2.0000      -0.926081       -25.1999
  18   2.0000      -0.918101       -24.9828
  19   2.0000      -0.902176       -24.5495
  20   2.0000      -0.723382       -19.6842
  21   2.0000      -0.706849       -19.2343
  22   2.0000      -0.698933       -19.0189
  23   2.0000      -0.691364       -18.8130
  24   2.0000      -0.668396       -18.1880
  25   2.0000      -0.626836       -17.0571
  26   2.0000      -0.621397       -16.9091
  27   2.0000      -0.619279       -16.8514
  28   2.0000      -0.617745       -16.8097
  29   2.0000      -0.606240       -16.4966
  30   2.0000      -0.598594       -16.2886
  31   2.0000      -0.596078       -16.2201
  32   2.0000      -0.594548       -16.1785
  33   2.0000      -0.590520       -16.0689
  34   2.0000      -0.570753       -15.5310
  35   2.0000      -0.531779       -14.4704
  36   2.0000      -0.515310       -14.0223
  37   2.0000      -0.509210       -13.8563
  38   2.0000      -0.494912       -13.4672
  39   2.0000      -0.478885       -13.0311
  40   2.0000      -0.459737       -12.5101
  41   2.0000      -0.453268       -12.3340
  42   2.0000      -0.450290       -12.2530
  43   2.0000      -0.448302       -12.1989
  44   2.0000      -0.425425       -11.5764
  45   0.0000       0.119497         3.2517
  46   0.0000       0.148768         4.0482
  47   0.0000       0.151430         4.1206
  48   0.0000       0.161134         4.3847
  49   0.0000       0.183431         4.9914

MULLIKEN ATOMIC CHARGES
-----------------------
   0 O :   -0.555787
   1 H :    0.360181
   2 C :   -0.173264
   3 H :    0.126689
   4 H :    0.120426
   5 H :    0.128033
   6 O :   -0.566079
   7 H :    0.365952
   8 C :   -0.172614
   9 H :    0.127983
  10 H :    0.118523
  11 H :    0.125113
  12 O :   -0.605599
  13 H :    0.388387
  14 C :   -0.211972
  15 H :    0.163471
  16 H :    0.122233
  17 H :    0.129849
  18 O :   -0.555783
  19 H :    0.373560
  20 C :   -0.179123
  21 H :    0.130848
  22 H :    0.113455
  23 H :    0.134112
  24 O :   -0.513986
  25 H :    0.354022
  26 C :   -0.172166
  27 H :    0.120600
  28 H :    0.095333
  29 H :    0.107601
Sum of atomic charges:   -0.0000000

LOEWDIN ATOMIC CHARGES
----------------------
   0 O :   -0.089818
   1 H :    0.164029
   2 C :   -0.382645
   3 H :    0.108420
   4 H :    0.103177
   5 H :    0.102329
   6 O :   -0.087228
   7 H :    0.165858
   8 C :   -0.384894
   9 H :    0.108775
  10 H :    0.099009
  11 H :    0.104590
  12 O :   -0.094444
  13 H :    0.166396
  14 C :   -0.385165
  15 H :    0.115423
  16 H :    0.100416
  17 H :    0.105203
  18 O :   -0.085033
  19 H :    0.166694
  20 C :   -0.379982
  21 H :    0.109996
  22 H :    0.097337
  23 H :    0.106755
  24 O :   -0.094706
  25 H :    0.164897
  26 C :   -0.398207
  27 H :    0.106656
  28 H :    0.091473
  29 H :    0.094689

  Mayer bond orders larger than 0.100000
B(  0-O ,  1-H ) :   0.7533 B(  0-O ,  2-C ) :   0.8812 B(  0-O ,  7-H ) :   0.1290
B(  1-H , 18-O ) :   0.1189 B(  2-C ,  3-H ) :   0.9414 B(  2-C ,  4-H ) :   0.9392
B(  2-C ,  5-H ) :   0.9381 B(  6-O ,  7-H ) :   0.7356 B(  6-O ,  8-C ) :   0.8835
B(  6-O , 13-H ) :   0.1164 B(  8-C ,  9-H ) :   0.9413 B(  8-C , 10-H ) :   0.9389
B(  8-C , 11-H ) :   0.9392 B( 12-O , 13-H ) :   0.7267 B( 12-O , 14-C ) :   0.8446
B( 14-C , 15-H ) :   0.9368 B( 14-C , 16-H ) :   0.9330 B( 14-C , 17-H ) :   0.9404
B( 18-O , 19-H ) :   0.7623 B( 18-O , 20-C ) :   0.8866 B( 20-C , 21-H ) :   0.9419
B( 20-C , 22-H ) :   0.9371 B( 20-C , 23-H ) :   0.9378 B( 24-O , 25-H ) :   0.8083
B( 24-O , 26-C ) :   0.9462 B( 26-C , 27-H ) :   0.9408 B( 26-C , 28-H ) :   0.9330
B( 26-C , 29-H ) :   0.9438

MP2 TOTAL ENERGY:     -577.599647210 Eh
FINAL SINGLE POINT ENERGY      -577.599647210384

DIPOLE MOMENT
-------------
                                X             Y             Z
Electronic contribution:     -0.59621       0.45893      -2.11791
Nuclear contribution   :      0.51996       0.29448       2.93354
                        -----------------------------------------
Total Dipole Moment    :     -0.07625       0.75340       0.81563
                        -----------------------------------------
Magnitude (a.u.)       :      1.11296
Magnitude (Debye)      :      2.82893

Rotational constants in cm-1:     0.030850     0.015882     0.012599
Rotational constants in MHz :   924.851437   476.131182   377.708143

                             ****ORCA TERMINATED NORMALLY****
TOTAL RUN TIME: 0 days 0 hours 9 minutes 58 seconds 438 msec
