                         Program Version 4.2.0 -  RELEASE  -
|  1> # 12mecn.remya.etal.2.mol0,4,8
|  2> ! MP2 def2-TZVP EnGrad TightSCF
|  3>
|  4> %pal
|  5>     nprocs 6
|  6> end
|  7>
|  8> %maxcore 8000
|  9>
| 10> %scf
| 11>     ConvForced true
| 12> end
| 13>
| 14> *xyz 0 1
| 15> C  -0.869520000  -3.929380000   1.700199000
| 16> H  -0.057420000  -3.268850000   2.015352000
| 17> H  -0.697530000  -4.930670000   2.101524000
| 18> H  -1.821490000  -3.546590000   2.077146000
| 19> C  -0.916080000  -3.969960000   0.256749000
| 20> N  -0.955390000  -3.995980000  -0.909290000
| 21> C  -1.509690000  -0.693960000  -1.610140000
| 22> H  -1.327010000  -1.692700000  -2.017370000
| 23> H  -0.742170000  -0.000650000  -1.964400000
| 24> H  -2.491920000  -0.334310000  -1.929350000
| 25> C  -1.473570000  -0.748120000  -0.167200000
| 26> N  -1.447490000  -0.793720000   0.998938000
| 27> C   1.912641000  -2.468050000  -1.750510000
| 28> H   2.876947000  -2.793500000  -2.151200000
| 29> H   1.688016000  -1.463720000  -2.122170000
| 30> H   1.123460000  -3.154780000  -2.069590000
| 31> C   1.977850000  -2.444240000  -0.306900000
| 32> N   2.036566000  -2.426130000   0.858249000
| 33> *
| 34>
| 35>                          ****END OF INPUT****

CARTESIAN COORDINATES (ANGSTROEM)
---------------------------------
  C     -0.869520   -3.929380    1.700199
  H     -0.057420   -3.268850    2.015352
  H     -0.697530   -4.930670    2.101524
  H     -1.821490   -3.546590    2.077146
  C     -0.916080   -3.969960    0.256749
  N     -0.955390   -3.995980   -0.909290
  C     -1.509690   -0.693960   -1.610140
  H     -1.327010   -1.692700   -2.017370
  H     -0.742170   -0.000650   -1.964400
  H     -2.491920   -0.334310   -1.929350
  C     -1.473570   -0.748120   -0.167200
  N     -1.447490   -0.793720    0.998938
  C      1.912641   -2.468050   -1.750510
  H      2.876947   -2.793500   -2.151200
  H      1.688016   -1.463720   -2.122170
  H      1.123460   -3.154780   -2.069590
  C      1.977850   -2.444240   -0.306900
  N      2.036566   -2.426130    0.858249

 Total Charge           Charge          ....    0
 Multiplicity           Mult            ....    1
 Number of Electrons    NEL             ....   66
 Basis Dimension        Dim             ....  333

ORBITAL ENERGIES
----------------

  NO   OCC          E(Eh)            E(eV)
   0   2.0000     -15.570872      -423.7050
   1   2.0000     -15.570661      -423.6992
   2   2.0000     -15.568617      -423.6436
   3   2.0000     -11.284858      -307.0766
   4   2.0000     -11.280797      -306.9661
   5   2.0000     -11.280319      -306.9531
   6   2.0000     -11.278500      -306.9036
   7   2.0000     -11.277700      -306.8818
   8   2.0000     -11.261234      -306.4338
   9   2.0000      -1.218622       -33.1604
  10   2.0000      -1.213763       -33.0282
  11   2.0000      -1.212456       -32.9926
  12   2.0000      -1.041479       -28.3401
  13   2.0000      -1.038307       -28.2538
  14   2.0000      -1.027153       -27.9503
  15   2.0000      -0.698044       -18.9947
  16   2.0000      -0.694340       -18.8939
  17   2.0000      -0.685716       -18.6593
  18   2.0000      -0.637761       -17.3544
  19   2.0000      -0.632118       -17.2008
  20   2.0000      -0.627371       -17.0716
  21   2.0000      -0.621598       -16.9145
  22   2.0000      -0.611687       -16.6448
  23   2.0000      -0.610237       -16.6054
  24   2.0000      -0.559557       -15.2263
  25   2.0000      -0.555137       -15.1060
  26   2.0000      -0.554683       -15.0937
  27   2.0000      -0.464760       -12.6468
  28   2.0000      -0.460874       -12.5410
  29   2.0000      -0.458571       -12.4783
  30   2.0000      -0.455205       -12.3867
  31   2.0000      -0.452275       -12.3070
  32   2.0000      -0.450168       -12.2497
  33   0.0000       0.112254         3.0546
  34   0.0000       0.148687         4.0460
  35   0.0000       0.154072         4.1925
  36   0.0000       0.158866         4.3230
  37   0.0000       0.165382         4.5003

MULLIKEN ATOMIC CHARGES
-----------------------
   0 C :   -0.267635
   1 H :    0.209227
   2 H :    0.167267
   3 H :    0.173076
   4 C :   -0.088390
   5 N :   -0.193540
   6 C :   -0.296650
   7 H :    0.198138
   8 H :    0.162834
   9 H :    0.177584
  10 C :   -0.123667
  11 N :   -0.118009
  12 C :   -0.295620
  13 H :    0.177407
  14 H :    0.157434
  15 H :    0.203340
  16 C :   -0.113422
  17 N :   -0.129374
Sum of atomic charges:    0.0000000

LOEWDIN ATOMIC CHARGES
----------------------
   0 C :   -0.282113
   1 H :    0.160467
   2 H :    0.149518
   3 H :    0.155601
   4 C :   -0.201551
   5 N :    0.015351
   6 C :   -0.286252
   7 H :    0.153821
   8 H :    0.148944
   9 H :    0.153595
  10 C :   -0.214829
  11 N :    0.047900
  12 C :   -0.286631
  13 H :    0.152274
  14 H :    0.148386
  15 H :    0.155409
  16 C :   -0.212991
  17 N :    0.043104

  Mayer bond orders larger than 0.100000
B(  0-C ,  1-H ) :   0.8994 B(  0-C ,  2-H ) :   0.9086 B(  0-C ,  3-H ) :   0.9122
B(  0-C ,  4-C ) :   0.9112 B(  4-C ,  5-N ) :   2.7236 B(  6-C ,  7-H ) :   0.9060
B(  6-C ,  8-H ) :   0.9234 B(  6-C ,  9-H ) :   0.9095 B(  6-C , 10-C ) :   0.8941
B( 10-C , 11-N ) :   2.7926 B( 12-C , 13-H ) :   0.9111 B( 12-C , 14-H ) :   0.9188
B( 12-C , 15-H ) :   0.9075 B( 12-C , 16-C ) :   0.8959 B( 16-C , 17-N ) :   2.7741

MP2 TOTAL ENERGY:     -397.466754841 Eh
FINAL SINGLE POINT ENERGY      -397.466754841381

DIPOLE MOMENT
-------------
                                X             Y             Z
Electronic contribution:      0.12283      -0.19417       3.26279
Nuclear contribution   :     -0.18403       0.25438      -4.62331
                        -----------------------------------------
Total Dipole Moment    :     -0.06120       0.06022      -1.36051
                        -----------------------------------------
Magnitude (a.u.)       :      1.36322
Magnitude (Debye)      :      3.46503

Rotational constants in cm-1:     0.045324     0.038413     0.030538
Rotational constants in MHz :  1358.791621  1151.584406   915.498453

                             ****ORCA TERMINATED NORMALLY****
TOTAL RUN TIME: 0 days 0 hours 4 minutes 55 seconds 433 msec
