                         Program Version 4.2.0 -  RELEASE  -
|  1> # 12h2o.su.etal.mol0,1,7,9
|  2> ! MP2 def2-TZVP EnGrad TightSCF
|  3>
|  4> %pal
|  5>     nprocs 6
|  6> end
|  7>
|  8> %maxcore 8000
|  9>
| 10> %scf
| 11>     ConvForced true
| 12> end
| 13>
| 14> *xyz 0 1
| 15> O   1.794470000   0.923410000   2.768350000
| 16> H   2.338250000   1.359750000   3.430940000
| 17> H   0.879480000   1.303000000   2.865760000
| 18> O  -1.794470000  -0.923410000   2.768350000
| 19> H  -2.338250000  -1.359750000   3.430940000
| 20> H  -0.879480000  -1.303000000   2.865760000
| 21> O  -1.737840000  -0.885520000  -0.052730000
| 22> H  -2.090180000  -1.032320000   0.841890000
| 23> H  -0.839590000  -1.284090000  -0.017130000
| 24> O   0.741530000  -1.752130000   2.896280000
| 25> H   0.920500000  -2.036450000   1.984040000
| 26> H   1.242140000  -0.921210000   2.984230000
| 27> *
| 28>
| 29>                          ****END OF INPUT****

CARTESIAN COORDINATES (ANGSTROEM)
---------------------------------
  O      1.794470    0.923410    2.768350
  H      2.338250    1.359750    3.430940
  H      0.879480    1.303000    2.865760
  O     -1.794470   -0.923410    2.768350
  H     -2.338250   -1.359750    3.430940
  H     -0.879480   -1.303000    2.865760
  O     -1.737840   -0.885520   -0.052730
  H     -2.090180   -1.032320    0.841890
  H     -0.839590   -1.284090   -0.017130
  O      0.741530   -1.752130    2.896280
  H      0.920500   -2.036450    1.984040
  H      1.242140   -0.921210    2.984230

 Total Charge           Charge          ....    0
 Multiplicity           Mult            ....    1
 Number of Electrons    NEL             ....   40
 Basis Dimension        Dim             ....  172

ORBITAL ENERGIES
----------------

  NO   OCC          E(Eh)            E(eV)
   0   2.0000     -20.601393      -560.5924
   1   2.0000     -20.583971      -560.1183
   2   2.0000     -20.544142      -559.0345
   3   2.0000     -20.525617      -558.5304
   4   2.0000      -1.381843       -37.6019
   5   2.0000      -1.370281       -37.2872
   6   2.0000      -1.328776       -36.1578
   7   2.0000      -1.303741       -35.4766
   8   2.0000      -0.748492       -20.3675
   9   2.0000      -0.731427       -19.9031
  10   2.0000      -0.712513       -19.3885
  11   2.0000      -0.673154       -18.3174
  12   2.0000      -0.629738       -17.1360
  13   2.0000      -0.604972       -16.4621
  14   2.0000      -0.574716       -15.6388
  15   2.0000      -0.547570       -14.9001
  16   2.0000      -0.542009       -14.7488
  17   2.0000      -0.518815       -14.1177
  18   2.0000      -0.491211       -13.3665
  19   2.0000      -0.471150       -12.8206
  20   0.0000       0.095378         2.5954
  21   0.0000       0.127244         3.4625
  22   0.0000       0.158813         4.3215
  23   0.0000       0.186801         5.0831
  24   0.0000       0.213137         5.7997

MULLIKEN ATOMIC CHARGES
-----------------------
   0 O :   -0.703415
   1 H :    0.357446
   2 H :    0.371829
   3 O :   -0.738978
   4 H :    0.336214
   5 H :    0.364920
   6 O :   -0.690019
   7 H :    0.368678
   8 H :    0.303477
   9 O :   -0.696460
  10 H :    0.347544
  11 H :    0.378764
Sum of atomic charges:    0.0000000

LOEWDIN ATOMIC CHARGES
----------------------
   0 O :   -0.310626
   1 H :    0.166238
   2 H :    0.192895
   3 O :   -0.342936
   4 H :    0.153136
   5 H :    0.141534
   6 O :   -0.347517
   7 H :    0.149316
   8 H :    0.154408
   9 O :   -0.279233
  10 H :    0.167433
  11 H :    0.155351

  Mayer bond orders larger than 0.100000
B(  0-O ,  1-H ) :   0.8387 B(  0-O ,  2-H ) :   0.8218 B(  3-O ,  4-H ) :   0.8509
B(  3-O ,  5-H ) :   0.7617 B(  6-O ,  7-H ) :   0.8116 B(  6-O ,  8-H ) :   0.8693
B(  9-O , 10-H ) :   0.8431 B(  9-O , 11-H ) :   0.7924

MP2 TOTAL ENERGY:     -305.278322232 Eh
FINAL SINGLE POINT ENERGY      -305.278322231829

DIPOLE MOMENT
-------------
                                X             Y             Z
Electronic contribution:      0.20265       0.17047       0.02204
Nuclear contribution   :      1.02005       0.00102       1.35336
                        -----------------------------------------
Total Dipole Moment    :      1.22270       0.17149       1.37540
                        -----------------------------------------
Magnitude (a.u.)       :      1.84828
Magnitude (Debye)      :      4.69794

Rotational constants in cm-1:     0.143801     0.059822     0.052802
Rotational constants in MHz :  4311.039583  1793.406811  1582.957724

                             ****ORCA TERMINATED NORMALLY****
TOTAL RUN TIME: 0 days 0 hours 0 minutes 19 seconds 149 msec
