                         Program Version 4.2.0 -  RELEASE  -
|  1> # 12mecn.remya.etal.2.mol7,10
|  2> ! MP2 def2-TZVP EnGrad TightSCF
|  3>
|  4> %pal
|  5>     nprocs 6
|  6> end
|  7>
|  8> %maxcore 8000
|  9>
| 10> %scf
| 11>     ConvForced true
| 12> end
| 13>
| 14> *xyz 0 1
| 15> C   1.502241000   0.651296000   1.710523000
| 16> H   1.309219000   1.637164000   2.143202000
| 17> H   2.493408000   0.297996000   2.009069000
| 18> H   0.746597000  -0.059850000   2.055508000
| 19> C   1.447974000   0.738517000   0.269805000
| 20> N   1.405612000   0.808047000  -0.894380000
| 21> C   4.602033000   0.321019000  -1.784800000
| 22> H   4.827650000  -0.662160000  -2.207910000
| 23> H   5.320558000   1.057980000  -2.148500000
| 24> H   3.601982000   0.643751000  -2.087520000
| 25> C   4.654967000   0.244048000  -0.343060000
| 26> N   4.691648000   0.166590000   0.820757000
| 27> *
| 28>
| 29>                          ****END OF INPUT****

CARTESIAN COORDINATES (ANGSTROEM)
---------------------------------
  C      1.502241    0.651296    1.710523
  H      1.309219    1.637164    2.143202
  H      2.493408    0.297996    2.009069
  H      0.746597   -0.059850    2.055508
  C      1.447974    0.738517    0.269805
  N      1.405612    0.808047   -0.894380
  C      4.602033    0.321019   -1.784800
  H      4.827650   -0.662160   -2.207910
  H      5.320558    1.057980   -2.148500
  H      3.601982    0.643751   -2.087520
  C      4.654967    0.244048   -0.343060
  N      4.691648    0.166590    0.820757

 Total Charge           Charge          ....    0
 Multiplicity           Mult            ....    1
 Number of Electrons    NEL             ....   44
 Basis Dimension        Dim             ....  222

ORBITAL ENERGIES
----------------

  NO   OCC          E(Eh)            E(eV)
   0   2.0000     -15.570981      -423.7079
   1   2.0000     -15.570657      -423.6991
   2   2.0000     -11.283001      -307.0261
   3   2.0000     -11.282649      -307.0165
   4   2.0000     -11.271782      -306.7208
   5   2.0000     -11.271649      -306.7172
   6   2.0000      -1.217801       -33.1380
   7   2.0000      -1.213489       -33.0207
   8   2.0000      -1.036738       -28.2111
   9   2.0000      -1.033922       -28.1345
  10   2.0000      -0.694302       -18.8929
  11   2.0000      -0.689906       -18.7733
  12   2.0000      -0.630340       -17.1524
  13   2.0000      -0.624739       -17.0000
  14   2.0000      -0.622664       -16.9435
  15   2.0000      -0.613773       -16.7016
  16   2.0000      -0.558840       -15.2068
  17   2.0000      -0.555658       -15.1202
  18   2.0000      -0.460082       -12.5195
  19   2.0000      -0.459389       -12.5006
  20   2.0000      -0.456480       -12.4214
  21   2.0000      -0.454510       -12.3678
  22   0.0000       0.128409         3.4942
  23   0.0000       0.142311         3.8725
  24   0.0000       0.170568         4.6414
  25   0.0000       0.172832         4.7030
  26   0.0000       0.179495         4.8843

MULLIKEN ATOMIC CHARGES
-----------------------
   0 C :   -0.283452
   1 H :    0.166390
   2 H :    0.205603
   3 H :    0.166179
   4 C :   -0.102790
   5 N :   -0.151978
   6 C :   -0.284960
   7 H :    0.166500
   8 H :    0.166243
   9 H :    0.205814
  10 C :   -0.101662
  11 N :   -0.151889
Sum of atomic charges:   -0.0000000

LOEWDIN ATOMIC CHARGES
----------------------
   0 C :   -0.281923
   1 H :    0.152664
   2 H :    0.157310
   3 H :    0.151468
   4 C :   -0.208631
   5 N :    0.028859
   6 C :   -0.281968
   7 H :    0.152822
   8 H :    0.150345
   9 H :    0.157388
  10 C :   -0.207629
  11 N :    0.029296

  Mayer bond orders larger than 0.100000
B(  0-C ,  1-H ) :   0.9144 B(  0-C ,  2-H ) :   0.9016 B(  0-C ,  3-H ) :   0.9164
B(  0-C ,  4-C ) :   0.9007 B(  4-C ,  5-N ) :   2.7725 B(  6-C ,  7-H ) :   0.9140
B(  6-C ,  8-H ) :   0.9165 B(  6-C ,  9-H ) :   0.9017 B(  6-C , 10-C ) :   0.9018
B( 10-C , 11-N ) :   2.7717

MP2 TOTAL ENERGY:     -264.976088652 Eh
FINAL SINGLE POINT ENERGY      -264.976088651833

DIPOLE MOMENT
-------------
                                X             Y             Z
Electronic contribution:      0.00713       0.01388       0.01145
Nuclear contribution   :     -0.00384      -0.01247      -0.01304
                        -----------------------------------------
Total Dipole Moment    :      0.00329       0.00141      -0.00159
                        -----------------------------------------
Magnitude (a.u.)       :      0.00392
Magnitude (Debye)      :      0.00996

Rotational constants in cm-1:     0.168771     0.068153     0.049471
Rotational constants in MHz :  5059.633146  2043.163247  1483.111108

                             ****ORCA TERMINATED NORMALLY****
TOTAL RUN TIME: 0 days 0 hours 1 minutes 17 seconds 629 msec
