                         Program Version 4.2.0 -  RELEASE  -
|  1> # 12mecn.remya.etal.2.mol6,8
|  2> ! MP2 def2-TZVP EnGrad TightSCF
|  3>
|  4> %pal
|  5>     nprocs 6
|  6> end
|  7>
|  8> %maxcore 8000
|  9>
| 10> %scf
| 11>     ConvForced true
| 12> end
| 13>
| 14> *xyz 0 1
| 15> C   5.300864000  -2.920090000   1.401103000
| 16> H   5.986071000  -2.139770000   1.737487000
| 17> H   5.636642000  -3.888750000   1.778233000
| 18> H   4.307359000  -2.697240000   1.799307000
| 19> C   5.234791000  -2.933140000  -0.043290000
| 20> N   5.170868000  -2.941760000  -1.207750000
| 21> C   1.912641000  -2.468050000  -1.750510000
| 22> H   2.876947000  -2.793500000  -2.151200000
| 23> H   1.688016000  -1.463720000  -2.122170000
| 24> H   1.123460000  -3.154780000  -2.069590000
| 25> C   1.977850000  -2.444240000  -0.306900000
| 26> N   2.036566000  -2.426130000   0.858249000
| 27> *
| 28>
| 29>                          ****END OF INPUT****

CARTESIAN COORDINATES (ANGSTROEM)
---------------------------------
  C      5.300864   -2.920090    1.401103
  H      5.986071   -2.139770    1.737487
  H      5.636642   -3.888750    1.778233
  H      4.307359   -2.697240    1.799307
  C      5.234791   -2.933140   -0.043290
  N      5.170868   -2.941760   -1.207750
  C      1.912641   -2.468050   -1.750510
  H      2.876947   -2.793500   -2.151200
  H      1.688016   -1.463720   -2.122170
  H      1.123460   -3.154780   -2.069590
  C      1.977850   -2.444240   -0.306900
  N      2.036566   -2.426130    0.858249

 Total Charge           Charge          ....    0
 Multiplicity           Mult            ....    1
 Number of Electrons    NEL             ....   44
 Basis Dimension        Dim             ....  222

ORBITAL ENERGIES
----------------

  NO   OCC          E(Eh)            E(eV)
   0   2.0000     -15.571497      -423.7220
   1   2.0000     -15.571282      -423.7161
   2   2.0000     -11.283454      -307.0384
   3   2.0000     -11.283260      -307.0331
   4   2.0000     -11.271959      -306.7256
   5   2.0000     -11.271343      -306.7088
   6   2.0000      -1.218603       -33.1599
   7   2.0000      -1.214356       -33.0443
   8   2.0000      -1.036487       -28.2042
   9   2.0000      -1.033625       -28.1264
  10   2.0000      -0.695637       -18.9292
  11   2.0000      -0.690865       -18.7994
  12   2.0000      -0.630979       -17.1698
  13   2.0000      -0.623361       -16.9625
  14   2.0000      -0.621409       -16.9094
  15   2.0000      -0.613791       -16.7021
  16   2.0000      -0.559551       -15.2261
  17   2.0000      -0.556195       -15.1348
  18   2.0000      -0.460807       -12.5392
  19   2.0000      -0.458952       -12.4887
  20   2.0000      -0.457266       -12.4428
  21   2.0000      -0.456286       -12.4162
  22   0.0000       0.128374         3.4932
  23   0.0000       0.142388         3.8746
  24   0.0000       0.169112         4.6018
  25   0.0000       0.172156         4.6846
  26   0.0000       0.178971         4.8700

MULLIKEN ATOMIC CHARGES
-----------------------
   0 C :   -0.287188
   1 H :    0.166135
   2 H :    0.166489
   3 H :    0.206697
   4 C :   -0.101306
   5 N :   -0.150932
   6 C :   -0.285155
   7 H :    0.206000
   8 H :    0.166538
   9 H :    0.166542
  10 C :   -0.101370
  11 N :   -0.152450
Sum of atomic charges:   -0.0000000

LOEWDIN ATOMIC CHARGES
----------------------
   0 C :   -0.282233
   1 H :    0.150761
   2 H :    0.151001
   3 H :    0.157358
   4 C :   -0.206572
   5 N :    0.029882
   6 C :   -0.282357
   7 H :    0.157043
   8 H :    0.152862
   9 H :    0.151086
  10 C :   -0.207765
  11 N :    0.028934

  Mayer bond orders larger than 0.100000
B(  0-C ,  1-H ) :   0.9160 B(  0-C ,  2-H ) :   0.9147 B(  0-C ,  3-H ) :   0.9012
B(  0-C ,  4-C ) :   0.9026 B(  4-C ,  5-N ) :   2.7707 B(  6-C ,  7-H ) :   0.9010
B(  6-C ,  8-H ) :   0.9147 B(  6-C ,  9-H ) :   0.9161 B(  6-C , 10-C ) :   0.9013
B( 10-C , 11-N ) :   2.7696

MP2 TOTAL ENERGY:     -264.976206535 Eh
FINAL SINGLE POINT ENERGY      -264.976206534673

DIPOLE MOMENT
-------------
                                X             Y             Z
Electronic contribution:      0.01257      -0.00075      -0.01699
Nuclear contribution   :     -0.01261      -0.00508       0.01836
                        -----------------------------------------
Total Dipole Moment    :     -0.00005      -0.00584       0.00137
                        -----------------------------------------
Magnitude (a.u.)       :      0.00600
Magnitude (Debye)      :      0.01525

Rotational constants in cm-1:     0.166865     0.068730     0.049598
Rotational constants in MHz :  5002.484752  2060.474487  1486.918689

                             ****ORCA TERMINATED NORMALLY****
TOTAL RUN TIME: 0 days 0 hours 1 minutes 20 seconds 987 msec
