                         Program Version 4.2.0 -  RELEASE  -
|  1> # 12h2o.su.etal.mol1,2,3,5,7,8,9,11
|  2> ! MP2 def2-TZVP EnGrad TightSCF
|  3>
|  4> %pal
|  5>     nprocs 6
|  6> end
|  7>
|  8> %maxcore 8000
|  9>
| 10> %scf
| 11>     ConvForced true
| 12> end
| 13>
| 14> *xyz 0 1
| 15> O  -1.794470000  -0.923410000   2.768350000
| 16> H  -2.338250000  -1.359750000   3.430940000
| 17> H  -0.879480000  -1.303000000   2.865760000
| 18> O   0.923410000  -1.794470000  -2.768350000
| 19> H   1.359750000  -2.338250000  -3.430940000
| 20> H   1.303000000  -0.879480000  -2.865760000
| 21> O  -1.752130000  -0.741530000  -2.896280000
| 22> H  -2.036450000  -0.920500000  -1.984040000
| 23> H  -0.921210000  -1.242140000  -2.984230000
| 24> O   0.885520000  -1.737840000   0.052730000
| 25> H   1.284090000  -0.839590000   0.017130000
| 26> H   1.032320000  -2.090180000  -0.841890000
| 27> O  -1.737840000  -0.885520000  -0.052730000
| 28> H  -2.090180000  -1.032320000   0.841890000
| 29> H  -0.839590000  -1.284090000  -0.017130000
| 30> O   1.752130000   0.741530000  -2.896280000
| 31> H   2.036450000   0.920500000  -1.984040000
| 32> H   0.921210000   1.242140000  -2.984230000
| 33> O   0.741530000  -1.752130000   2.896280000
| 34> H   0.920500000  -2.036450000   1.984040000
| 35> H   1.242140000  -0.921210000   2.984230000
| 36> O  -0.741530000   1.752130000   2.896280000
| 37> H  -0.920500000   2.036450000   1.984040000
| 38> H  -1.242140000   0.921210000   2.984230000
| 39> *
| 40>
| 41>                          ****END OF INPUT****

CARTESIAN COORDINATES (ANGSTROEM)
---------------------------------
  O     -1.794470   -0.923410    2.768350
  H     -2.338250   -1.359750    3.430940
  H     -0.879480   -1.303000    2.865760
  O      0.923410   -1.794470   -2.768350
  H      1.359750   -2.338250   -3.430940
  H      1.303000   -0.879480   -2.865760
  O     -1.752130   -0.741530   -2.896280
  H     -2.036450   -0.920500   -1.984040
  H     -0.921210   -1.242140   -2.984230
  O      0.885520   -1.737840    0.052730
  H      1.284090   -0.839590    0.017130
  H      1.032320   -2.090180   -0.841890
  O     -1.737840   -0.885520   -0.052730
  H     -2.090180   -1.032320    0.841890
  H     -0.839590   -1.284090   -0.017130
  O      1.752130    0.741530   -2.896280
  H      2.036450    0.920500   -1.984040
  H      0.921210    1.242140   -2.984230
  O      0.741530   -1.752130    2.896280
  H      0.920500   -2.036450    1.984040
  H      1.242140   -0.921210    2.984230
  O     -0.741530    1.752130    2.896280
  H     -0.920500    2.036450    1.984040
  H     -1.242140    0.921210    2.984230

 Total Charge           Charge          ....    0
 Multiplicity           Mult            ....    1
 Number of Electrons    NEL             ....   80
 Basis Dimension        Dim             ....  344

ORBITAL ENERGIES
----------------

  NO   OCC          E(Eh)            E(eV)
   0   2.0000     -20.623784      -561.2017
   1   2.0000     -20.608623      -560.7891
   2   2.0000     -20.588805      -560.2499
   3   2.0000     -20.584972      -560.1456
   4   2.0000     -20.563291      -559.5556
   5   2.0000     -20.534962      -558.7847
   6   2.0000     -20.524590      -558.5025
   7   2.0000     -20.502488      -557.9011
   8   2.0000      -1.410287       -38.3759
   9   2.0000      -1.397122       -38.0176
  10   2.0000      -1.378054       -37.4987
  11   2.0000      -1.368496       -37.2387
  12   2.0000      -1.348831       -36.7036
  13   2.0000      -1.316984       -35.8369
  14   2.0000      -1.311672       -35.6924
  15   2.0000      -1.287047       -35.0223
  16   2.0000      -0.765862       -20.8402
  17   2.0000      -0.760818       -20.7029
  18   2.0000      -0.751775       -20.4568
  19   2.0000      -0.736316       -20.0362
  20   2.0000      -0.730495       -19.8778
  21   2.0000      -0.694585       -18.9006
  22   2.0000      -0.686134       -18.6707
  23   2.0000      -0.668544       -18.1920
  24   2.0000      -0.658141       -17.9089
  25   2.0000      -0.641285       -17.4503
  26   2.0000      -0.618946       -16.8424
  27   2.0000      -0.605648       -16.4805
  28   2.0000      -0.595918       -16.2158
  29   2.0000      -0.577252       -15.7078
  30   2.0000      -0.559326       -15.2200
  31   2.0000      -0.556067       -15.1314
  32   2.0000      -0.544125       -14.8064
  33   2.0000      -0.529288       -14.4027
  34   2.0000      -0.526514       -14.3272
  35   2.0000      -0.515819       -14.0361
  36   2.0000      -0.504201       -13.7200
  37   2.0000      -0.482975       -13.1424
  38   2.0000      -0.475659       -12.9433
  39   2.0000      -0.452387       -12.3101
  40   0.0000       0.065206         1.7743
  41   0.0000       0.118191         3.2161
  42   0.0000       0.134093         3.6488
  43   0.0000       0.148498         4.0408
  44   0.0000       0.167567         4.5597

MULLIKEN ATOMIC CHARGES
-----------------------
   0 O :   -0.750316
   1 H :    0.348558
   2 H :    0.384730
   3 O :   -0.751090
   4 H :    0.356282
   5 H :    0.381883
   6 O :   -0.735250
   7 H :    0.373981
   8 H :    0.340303
   9 O :   -0.719551
  10 H :    0.334596
  11 H :    0.396805
  12 O :   -0.744597
  13 H :    0.368164
  14 H :    0.341322
  15 O :   -0.681227
  16 H :    0.349539
  17 H :    0.383080
  18 O :   -0.699135
  19 H :    0.389811
  20 H :    0.354665
  21 O :   -0.716995
  22 H :    0.330615
  23 H :    0.363825
Sum of atomic charges:   -0.0000000

LOEWDIN ATOMIC CHARGES
----------------------
   0 O :   -0.313000
   1 H :    0.158449
   2 H :    0.146591
   3 O :   -0.311723
   4 H :    0.162223
   5 H :    0.145829
   6 O :   -0.359695
   7 H :    0.151412
   8 H :    0.136887
   9 O :   -0.283067
  10 H :    0.167704
  11 H :    0.159581
  12 O :   -0.348144
  13 H :    0.147293
  14 H :    0.135998
  15 O :   -0.264754
  16 H :    0.169565
  17 H :    0.186356
  18 O :   -0.273266
  19 H :    0.158337
  20 H :    0.172551
  21 O :   -0.351935
  22 H :    0.159811
  23 H :    0.146996

  Mayer bond orders larger than 0.100000
B(  0-O ,  1-H ) :   0.8414 B(  0-O ,  2-H ) :   0.7443 B(  3-O ,  4-H ) :   0.8374
B(  3-O ,  5-H ) :   0.7499 B(  6-O ,  7-H ) :   0.8132 B(  6-O ,  8-H ) :   0.8348
B(  9-O , 10-H ) :   0.8421 B(  9-O , 11-H ) :   0.7789 B( 12-O , 13-H ) :   0.8120
B( 12-O , 14-H ) :   0.8007 B( 15-O , 16-H ) :   0.8423 B( 15-O , 17-H ) :   0.8158
B( 18-O , 19-H ) :   0.8002 B( 18-O , 20-H ) :   0.8355 B( 21-O , 22-H ) :   0.8558
B( 21-O , 23-H ) :   0.8096

MP2 TOTAL ENERGY:     -610.581404209 Eh
FINAL SINGLE POINT ENERGY      -610.581404208582

DIPOLE MOMENT
-------------
                                X             Y             Z
Electronic contribution:      0.30386      -0.06571      -0.10545
Nuclear contribution   :      1.89647      -0.36972       0.00000
                        -----------------------------------------
Total Dipole Moment    :      2.20033      -0.43542      -0.10545
                        -----------------------------------------
Magnitude (a.u.)       :      2.24547
Magnitude (Debye)      :      5.70754

Rotational constants in cm-1:     0.037893     0.015146     0.014658
Rotational constants in MHz :  1136.006365   454.076903   439.423531

                             ****ORCA TERMINATED NORMALLY****
TOTAL RUN TIME: 0 days 0 hours 3 minutes 1 seconds 291 msec
