                         Program Version 4.2.0 -  RELEASE  -
|  1> # 12meoh.boyd.etal.mol0,8,9
|  2> ! MP2 def2-TZVP EnGrad TightSCF
|  3>
|  4> %pal
|  5>     nprocs 6
|  6> end
|  7>
|  8> %maxcore 8000
|  9>
| 10> %scf
| 11>     ConvForced true
| 12> end
| 13>
| 14> *xyz 0 1
| 15> O  -1.776108874  -2.741384797  -1.019308298
| 16> H  -2.520094035  -2.452295987  -0.420778302
| 17> C  -2.174025166  -3.952700964  -1.647004581
| 18> H  -1.359803895  -4.272673416  -2.304149236
| 19> H  -3.075973971  -3.808692420  -2.256751112
| 20> H  -2.370225393  -4.752784761  -0.918966137
| 21> O   3.570084754   2.361662577  -0.202416728
| 22> H   3.393280933   1.755669977   0.560634073
| 23> C   4.368082883   1.644741793  -1.143112807
| 24> H   4.552851717   2.311801738  -1.989632421
| 25> H   3.862427494   0.740851663  -1.508095690
| 26> H   5.333949674   1.357289092  -0.706288100
| 27> O   1.390610024   3.194080770  -1.536658882
| 28> H   2.162932299   2.881562730  -0.993525056
| 29> C   1.202977189   4.580367182  -1.302880219
| 30> H   0.374773115   4.915764831  -1.934164643
| 31> H   2.098649340   5.157710875  -1.570472348
| 32> H   0.950320401   4.800436015  -0.254328827
| 33> *
| 34>
| 35>                          ****END OF INPUT****

CARTESIAN COORDINATES (ANGSTROEM)
---------------------------------
  O     -1.776109   -2.741385   -1.019308
  H     -2.520094   -2.452296   -0.420778
  C     -2.174025   -3.952701   -1.647005
  H     -1.359804   -4.272673   -2.304149
  H     -3.075974   -3.808692   -2.256751
  H     -2.370225   -4.752785   -0.918966
  O      3.570085    2.361663   -0.202417
  H      3.393281    1.755670    0.560634
  C      4.368083    1.644742   -1.143113
  H      4.552852    2.311802   -1.989632
  H      3.862427    0.740852   -1.508096
  H      5.333950    1.357289   -0.706288
  O      1.390610    3.194081   -1.536659
  H      2.162932    2.881563   -0.993525
  C      1.202977    4.580367   -1.302880
  H      0.374773    4.915765   -1.934165
  H      2.098649    5.157711   -1.570472
  H      0.950320    4.800436   -0.254329

 Total Charge           Charge          ....    0
 Multiplicity           Mult            ....    1
 Number of Electrons    NEL             ....   54
 Basis Dimension        Dim             ....  258

ORBITAL ENERGIES
----------------

  NO   OCC          E(Eh)            E(eV)
   0   2.0000     -20.586569      -560.1890
   1   2.0000     -20.556124      -559.3606
   2   2.0000     -20.510624      -558.1225
   3   2.0000     -11.285807      -307.1024
   4   2.0000     -11.270045      -306.6735
   5   2.0000     -11.245274      -305.9995
   6   2.0000      -1.380169       -37.5563
   7   2.0000      -1.345260       -36.6064
   8   2.0000      -1.308785       -35.6138
   9   2.0000      -0.937759       -25.5177
  10   2.0000      -0.917538       -24.9675
  11   2.0000      -0.892018       -24.2730
  12   2.0000      -0.714166       -19.4334
  13   2.0000      -0.679827       -18.4990
  14   2.0000      -0.669120       -18.2077
  15   2.0000      -0.628959       -17.1148
  16   2.0000      -0.615663       -16.7530
  17   2.0000      -0.606492       -16.5035
  18   2.0000      -0.589494       -16.0409
  19   2.0000      -0.586850       -15.9690
  20   2.0000      -0.559163       -15.2156
  21   2.0000      -0.525811       -14.3080
  22   2.0000      -0.498586       -13.5672
  23   2.0000      -0.484790       -13.1918
  24   2.0000      -0.452279       -12.3071
  25   2.0000      -0.447183       -12.1685
  26   2.0000      -0.412893       -11.2354
  27   0.0000       0.123156         3.3512
  28   0.0000       0.136434         3.7125
  29   0.0000       0.167034         4.5452
  30   0.0000       0.174197         4.7402
  31   0.0000       0.177253         4.8233

MULLIKEN ATOMIC CHARGES
-----------------------
   0 O :   -0.494303
   1 H :    0.321798
   2 C :   -0.173296
   3 H :    0.128423
   4 H :    0.109889
   5 H :    0.107490
   6 O :   -0.515066
   7 H :    0.341300
   8 C :   -0.193679
   9 H :    0.144757
  10 H :    0.136376
  11 H :    0.124014
  12 O :   -0.533360
  13 H :    0.343739
  14 C :   -0.156584
  15 H :    0.118218
  16 H :    0.095251
  17 H :    0.095034
Sum of atomic charges:   -0.0000000

LOEWDIN ATOMIC CHARGES
----------------------
   0 O :   -0.108187
   1 H :    0.192694
   2 C :   -0.384661
   3 H :    0.110170
   4 H :    0.095387
   5 H :    0.094597
   6 O :   -0.077596
   7 H :    0.196781
   8 C :   -0.371081
   9 H :    0.116761
  10 H :    0.104888
  11 H :    0.102911
  12 O :   -0.120889
  13 H :    0.157952
  14 C :   -0.396990
  15 H :    0.104944
  16 H :    0.091291
  17 H :    0.091029

  Mayer bond orders larger than 0.100000
B(  0-O ,  1-H ) :   0.8416 B(  0-O ,  2-C ) :   0.9282 B(  2-C ,  3-H ) :   0.9376
B(  2-C ,  4-H ) :   0.9398 B(  2-C ,  5-H ) :   0.9379 B(  6-O ,  7-H ) :   0.8292
B(  6-O ,  8-C ) :   0.8675 B(  8-C ,  9-H ) :   0.9383 B(  8-C , 10-H ) :   0.9396
B(  8-C , 11-H ) :   0.9334 B( 12-O , 13-H ) :   0.7879 B( 12-O , 14-C ) :   0.9465
B( 14-C , 15-H ) :   0.9409 B( 14-C , 16-H ) :   0.9364 B( 14-C , 17-H ) :   0.9423

MP2 TOTAL ENERGY:     -346.529684609 Eh
FINAL SINGLE POINT ENERGY      -346.529684608779

DIPOLE MOMENT
-------------
                                X             Y             Z
Electronic contribution:      0.08048       0.53151       1.50309
Nuclear contribution   :      0.24483      -1.38442      -0.78971
                        -----------------------------------------
Total Dipole Moment    :      0.32531      -0.85291       0.71338
                        -----------------------------------------
Magnitude (a.u.)       :      1.15853
Magnitude (Debye)      :      2.94475

Rotational constants in cm-1:     0.076615     0.012520     0.011075
Rotational constants in MHz :  2296.863686   375.350246   332.009439

                             ****ORCA TERMINATED NORMALLY****
TOTAL RUN TIME: 0 days 0 hours 0 minutes 55 seconds 741 msec
