                         Program Version 4.2.0 -  RELEASE  -
|  1> # 12meoh.boyd.etal.mol0,7,11
|  2> ! MP2 def2-TZVP EnGrad TightSCF
|  3>
|  4> %pal
|  5>     nprocs 6
|  6> end
|  7>
|  8> %maxcore 8000
|  9>
| 10> %scf
| 11>     ConvForced true
| 12> end
| 13>
| 14> *xyz 0 1
| 15> O  -1.776108874  -2.741384797  -1.019308298
| 16> H  -2.520094035  -2.452295987  -0.420778302
| 17> C  -2.174025166  -3.952700964  -1.647004581
| 18> H  -1.359803895  -4.272673416  -2.304149236
| 19> H  -3.075973971  -3.808692420  -2.256751112
| 20> H  -2.370225393  -4.752784761  -0.918966137
| 21> O   4.310535586  -1.588322800   0.656128299
| 22> H   3.804372199  -1.630404735  -0.196849819
| 23> C   4.312298137  -2.894980854   1.222112691
| 24> H   4.713177833  -2.819907076   2.237066773
| 25> H   4.957796734  -3.574699304   0.648211180
| 26> H   3.302735989  -3.324433205   1.269756773
| 27> O   3.252955559   0.588596242   1.858934315
| 28> H   3.621209177  -0.251605199   1.476063364
| 29> C   4.040824528   0.944288422   2.989639460
| 30> H   3.670521436   1.902573549   3.363847391
| 31> H   5.103749934   1.055868619   2.734277559
| 32> H   3.948540682   0.200279590   3.792908518
| 33> *
| 34>
| 35>                          ****END OF INPUT****

CARTESIAN COORDINATES (ANGSTROEM)
---------------------------------
  O     -1.776109   -2.741385   -1.019308
  H     -2.520094   -2.452296   -0.420778
  C     -2.174025   -3.952701   -1.647005
  H     -1.359804   -4.272673   -2.304149
  H     -3.075974   -3.808692   -2.256751
  H     -2.370225   -4.752785   -0.918966
  O      4.310536   -1.588323    0.656128
  H      3.804372   -1.630405   -0.196850
  C      4.312298   -2.894981    1.222113
  H      4.713178   -2.819907    2.237067
  H      4.957797   -3.574699    0.648211
  H      3.302736   -3.324433    1.269757
  O      3.252956    0.588596    1.858934
  H      3.621209   -0.251605    1.476063
  C      4.040825    0.944288    2.989639
  H      3.670521    1.902574    3.363847
  H      5.103750    1.055869    2.734278
  H      3.948541    0.200280    3.792909

 Total Charge           Charge          ....    0
 Multiplicity           Mult            ....    1
 Number of Electrons    NEL             ....   54
 Basis Dimension        Dim             ....  258

ORBITAL ENERGIES
----------------

  NO   OCC          E(Eh)            E(eV)
   0   2.0000     -20.585478      -560.1593
   1   2.0000     -20.560015      -559.4664
   2   2.0000     -20.510680      -558.1240
   3   2.0000     -11.288014      -307.1625
   4   2.0000     -11.274042      -306.7823
   5   2.0000     -11.246195      -306.0245
   6   2.0000      -1.379056       -37.5260
   7   2.0000      -1.349193       -36.7134
   8   2.0000      -1.307373       -35.5754
   9   2.0000      -0.939795       -25.5731
  10   2.0000      -0.921520       -25.0758
  11   2.0000      -0.892478       -24.2856
  12   2.0000      -0.710150       -19.3242
  13   2.0000      -0.683794       -18.6070
  14   2.0000      -0.670273       -18.2391
  15   2.0000      -0.632190       -17.2028
  16   2.0000      -0.619634       -16.8611
  17   2.0000      -0.606883       -16.5141
  18   2.0000      -0.593550       -16.1513
  19   2.0000      -0.587463       -15.9857
  20   2.0000      -0.558636       -15.2013
  21   2.0000      -0.525854       -14.3092
  22   2.0000      -0.502674       -13.6785
  23   2.0000      -0.483558       -13.1583
  24   2.0000      -0.453836       -12.3495
  25   2.0000      -0.451110       -12.2753
  26   2.0000      -0.413634       -11.2556
  27   0.0000       0.123825         3.3695
  28   0.0000       0.133716         3.6386
  29   0.0000       0.159631         4.3438
  30   0.0000       0.173636         4.7249
  31   0.0000       0.176180         4.7941

MULLIKEN ATOMIC CHARGES
-----------------------
   0 O :   -0.496085
   1 H :    0.323850
   2 C :   -0.173793
   3 H :    0.126251
   4 H :    0.110791
   5 H :    0.109002
   6 O :   -0.514080
   7 H :    0.346359
   8 C :   -0.184677
   9 H :    0.138815
  10 H :    0.123096
  11 H :    0.131713
  12 O :   -0.531055
  13 H :    0.340003
  14 C :   -0.164079
  15 H :    0.120274
  16 H :    0.101892
  17 H :    0.091723
Sum of atomic charges:   -0.0000000

LOEWDIN ATOMIC CHARGES
----------------------
   0 O :   -0.108899
   1 H :    0.193659
   2 C :   -0.384935
   3 H :    0.109449
   4 H :    0.095686
   5 H :    0.095049
   6 O :   -0.074810
   7 H :    0.201199
   8 C :   -0.372818
   9 H :    0.113716
  10 H :    0.103546
  11 H :    0.103264
  12 O :   -0.125296
  13 H :    0.157315
  14 C :   -0.393692
  15 H :    0.105362
  16 H :    0.092821
  17 H :    0.089384

  Mayer bond orders larger than 0.100000
B(  0-O ,  1-H ) :   0.8405 B(  0-O ,  2-C ) :   0.9283 B(  2-C ,  3-H ) :   0.9377
B(  2-C ,  4-H ) :   0.9399 B(  2-C ,  5-H ) :   0.9379 B(  6-O ,  7-H ) :   0.8267
B(  6-O ,  8-C ) :   0.8737 B(  8-C ,  9-H ) :   0.9400 B(  8-C , 10-H ) :   0.9330
B(  8-C , 11-H ) :   0.9397 B( 12-O , 13-H ) :   0.7920 B( 12-O , 14-C ) :   0.9425
B( 14-C , 15-H ) :   0.9421 B( 14-C , 16-H ) :   0.9380 B( 14-C , 17-H ) :   0.9388

MP2 TOTAL ENERGY:     -346.529099456 Eh
FINAL SINGLE POINT ENERGY      -346.529099456309

DIPOLE MOMENT
-------------
                                X             Y             Z
Electronic contribution:     -0.30801       2.54023      -1.48599
Nuclear contribution   :     -0.02331      -4.13005       1.31126
                        -----------------------------------------
Total Dipole Moment    :     -0.33133      -1.58982      -0.17474
                        -----------------------------------------
Magnitude (a.u.)       :      1.63335
Magnitude (Debye)      :      4.15165

Rotational constants in cm-1:     0.084921     0.014459     0.012710
Rotational constants in MHz :  2545.878276   433.480826   381.050157

                             ****ORCA TERMINATED NORMALLY****
TOTAL RUN TIME: 0 days 0 hours 0 minutes 59 seconds 357 msec
