                         Program Version 4.2.0 -  RELEASE  -
|  1> # 12h2o.su.etal.mol2,3,4,5,6,7,8,11
|  2> ! MP2 def2-TZVP EnGrad TightSCF
|  3>
|  4> %pal
|  5>     nprocs 6
|  6> end
|  7>
|  8> %maxcore 8000
|  9>
| 10> %scf
| 11>     ConvForced true
| 12> end
| 13>
| 14> *xyz 0 1
| 15> O   0.923410000  -1.794470000  -2.768350000
| 16> H   1.359750000  -2.338250000  -3.430940000
| 17> H   1.303000000  -0.879480000  -2.865760000
| 18> O  -1.752130000  -0.741530000  -2.896280000
| 19> H  -2.036450000  -0.920500000  -1.984040000
| 20> H  -0.921210000  -1.242140000  -2.984230000
| 21> O  -0.885520000   1.737840000   0.052730000
| 22> H  -1.032320000   2.090180000  -0.841890000
| 23> H  -1.284090000   0.839590000   0.017130000
| 24> O   0.885520000  -1.737840000   0.052730000
| 25> H   1.284090000  -0.839590000   0.017130000
| 26> H   1.032320000  -2.090180000  -0.841890000
| 27> O   1.737840000   0.885520000  -0.052730000
| 28> H   2.090180000   1.032320000   0.841890000
| 29> H   0.839590000   1.284090000  -0.017130000
| 30> O  -1.737840000  -0.885520000  -0.052730000
| 31> H  -2.090180000  -1.032320000   0.841890000
| 32> H  -0.839590000  -1.284090000  -0.017130000
| 33> O   1.752130000   0.741530000  -2.896280000
| 34> H   2.036450000   0.920500000  -1.984040000
| 35> H   0.921210000   1.242140000  -2.984230000
| 36> O  -0.741530000   1.752130000   2.896280000
| 37> H  -0.920500000   2.036450000   1.984040000
| 38> H  -1.242140000   0.921210000   2.984230000
| 39> *
| 40>
| 41>                          ****END OF INPUT****

CARTESIAN COORDINATES (ANGSTROEM)
---------------------------------
  O      0.923410   -1.794470   -2.768350
  H      1.359750   -2.338250   -3.430940
  H      1.303000   -0.879480   -2.865760
  O     -1.752130   -0.741530   -2.896280
  H     -2.036450   -0.920500   -1.984040
  H     -0.921210   -1.242140   -2.984230
  O     -0.885520    1.737840    0.052730
  H     -1.032320    2.090180   -0.841890
  H     -1.284090    0.839590    0.017130
  O      0.885520   -1.737840    0.052730
  H      1.284090   -0.839590    0.017130
  H      1.032320   -2.090180   -0.841890
  O      1.737840    0.885520   -0.052730
  H      2.090180    1.032320    0.841890
  H      0.839590    1.284090   -0.017130
  O     -1.737840   -0.885520   -0.052730
  H     -2.090180   -1.032320    0.841890
  H     -0.839590   -1.284090   -0.017130
  O      1.752130    0.741530   -2.896280
  H      2.036450    0.920500   -1.984040
  H      0.921210    1.242140   -2.984230
  O     -0.741530    1.752130    2.896280
  H     -0.920500    2.036450    1.984040
  H     -1.242140    0.921210    2.984230

 Total Charge           Charge          ....    0
 Multiplicity           Mult            ....    1
 Number of Electrons    NEL             ....   80
 Basis Dimension        Dim             ....  344

ORBITAL ENERGIES
----------------

  NO   OCC          E(Eh)            E(eV)
   0   2.0000     -20.600645      -560.5720
   1   2.0000     -20.596684      -560.4643
   2   2.0000     -20.591252      -560.3165
   3   2.0000     -20.590142      -560.2862
   4   2.0000     -20.569647      -559.7286
   5   2.0000     -20.553636      -559.2929
   6   2.0000     -20.551959      -559.2472
   7   2.0000     -20.521619      -558.4216
   8   2.0000      -1.398764       -38.0623
   9   2.0000      -1.385726       -37.7075
  10   2.0000      -1.378339       -37.5065
  11   2.0000      -1.373815       -37.3834
  12   2.0000      -1.355171       -36.8761
  13   2.0000      -1.335984       -36.3540
  14   2.0000      -1.335209       -36.3329
  15   2.0000      -1.306483       -35.5512
  16   2.0000      -0.755390       -20.5552
  17   2.0000      -0.754237       -20.5238
  18   2.0000      -0.742654       -20.2086
  19   2.0000      -0.738485       -20.0952
  20   2.0000      -0.736432       -20.0393
  21   2.0000      -0.714867       -19.4525
  22   2.0000      -0.706225       -19.2173
  23   2.0000      -0.685545       -18.6546
  24   2.0000      -0.656980       -17.8773
  25   2.0000      -0.633391       -17.2354
  26   2.0000      -0.625892       -17.0314
  27   2.0000      -0.611169       -16.6307
  28   2.0000      -0.601829       -16.3766
  29   2.0000      -0.580907       -15.8073
  30   2.0000      -0.571338       -15.5469
  31   2.0000      -0.549501       -14.9527
  32   2.0000      -0.544810       -14.8250
  33   2.0000      -0.535165       -14.5626
  34   2.0000      -0.533403       -14.5146
  35   2.0000      -0.528475       -14.3805
  36   2.0000      -0.512830       -13.9548
  37   2.0000      -0.501331       -13.6419
  38   2.0000      -0.499771       -13.5995
  39   2.0000      -0.471503       -12.8303
  40   0.0000       0.083547         2.2734
  41   0.0000       0.113364         3.0848
  42   0.0000       0.138961         3.7813
  43   0.0000       0.143026         3.8919
  44   0.0000       0.186606         5.0778

MULLIKEN ATOMIC CHARGES
-----------------------
   0 O :   -0.755432
   1 H :    0.351800
   2 H :    0.385063
   3 O :   -0.733372
   4 H :    0.366444
   5 H :    0.352145
   6 O :   -0.740850
   7 H :    0.362422
   8 H :    0.372115
   9 O :   -0.730934
  10 H :    0.357698
  11 H :    0.380226
  12 O :   -0.747621
  13 H :    0.374261
  14 H :    0.369354
  15 O :   -0.738727
  16 H :    0.351657
  17 H :    0.377877
  18 O :   -0.696989
  19 H :    0.391867
  20 H :    0.350387
  21 O :   -0.690264
  22 H :    0.372483
  23 H :    0.318388
Sum of atomic charges:    0.0000000

LOEWDIN ATOMIC CHARGES
----------------------
   0 O :   -0.314683
   1 H :    0.159876
   2 H :    0.146793
   3 O :   -0.355740
   4 H :    0.147415
   5 H :    0.142224
   6 O :   -0.293460
   7 H :    0.170978
   8 H :    0.146141
   9 O :   -0.314796
  10 H :    0.138620
  11 H :    0.150343
  12 O :   -0.297412
  13 H :    0.178089
  14 H :    0.144665
  15 O :   -0.293973
  16 H :    0.166486
  17 H :    0.147832
  18 O :   -0.271706
  19 H :    0.159511
  20 H :    0.170308
  21 O :   -0.336096
  22 H :    0.151285
  23 H :    0.157300

  Mayer bond orders larger than 0.100000
B(  0-O ,  1-H ) :   0.8395 B(  0-O ,  2-H ) :   0.7413 B(  3-O ,  4-H ) :   0.8276
B(  3-O ,  5-H ) :   0.8191 B(  6-O ,  7-H ) :   0.8313 B(  6-O ,  8-H ) :   0.7484
B(  8-H , 15-O ) :   0.1079 B(  9-O , 10-H ) :   0.7881 B(  9-O , 11-H ) :   0.7998
B(  9-O , 17-H ) :   0.1293 B( 12-O , 13-H ) :   0.8252 B( 12-O , 14-H ) :   0.7585
B( 15-O , 16-H ) :   0.8377 B( 15-O , 17-H ) :   0.7348 B( 18-O , 19-H ) :   0.7977
B( 18-O , 20-H ) :   0.8374 B( 21-O , 22-H ) :   0.8208 B( 21-O , 23-H ) :   0.8625

MP2 TOTAL ENERGY:     -610.599359539 Eh
FINAL SINGLE POINT ENERGY      -610.599359538762

DIPOLE MOMENT
-------------
                                X             Y             Z
Electronic contribution:      0.29354       0.20306      -0.05552
Nuclear contribution   :      0.11349      -0.14599       0.05351
                        -----------------------------------------
Total Dipole Moment    :      0.40703       0.05707      -0.00201
                        -----------------------------------------
Magnitude (a.u.)       :      0.41102
Magnitude (Debye)      :      1.04473

Rotational constants in cm-1:     0.038841     0.021267     0.018831
Rotational constants in MHz :  1164.419428   637.557243   564.536873

                             ****ORCA TERMINATED NORMALLY****
TOTAL RUN TIME: 0 days 0 hours 3 minutes 33 seconds 333 msec
