                         Program Version 4.2.0 -  RELEASE  -
|  1> # 12h2o.su.etal.mol0,1,2,5,6,7,9,10,11
|  2> ! MP2 def2-TZVP EnGrad TightSCF
|  3>
|  4> %pal
|  5>     nprocs 6
|  6> end
|  7>
|  8> %maxcore 8000
|  9>
| 10> %scf
| 11>     ConvForced true
| 12> end
| 13>
| 14> *xyz 0 1
| 15> O   1.794470000   0.923410000   2.768350000
| 16> H   2.338250000   1.359750000   3.430940000
| 17> H   0.879480000   1.303000000   2.865760000
| 18> O  -1.794470000  -0.923410000   2.768350000
| 19> H  -2.338250000  -1.359750000   3.430940000
| 20> H  -0.879480000  -1.303000000   2.865760000
| 21> O   0.923410000  -1.794470000  -2.768350000
| 22> H   1.359750000  -2.338250000  -3.430940000
| 23> H   1.303000000  -0.879480000  -2.865760000
| 24> O   0.885520000  -1.737840000   0.052730000
| 25> H   1.284090000  -0.839590000   0.017130000
| 26> H   1.032320000  -2.090180000  -0.841890000
| 27> O   1.737840000   0.885520000  -0.052730000
| 28> H   2.090180000   1.032320000   0.841890000
| 29> H   0.839590000   1.284090000  -0.017130000
| 30> O  -1.737840000  -0.885520000  -0.052730000
| 31> H  -2.090180000  -1.032320000   0.841890000
| 32> H  -0.839590000  -1.284090000  -0.017130000
| 33> O   0.741530000  -1.752130000   2.896280000
| 34> H   0.920500000  -2.036450000   1.984040000
| 35> H   1.242140000  -0.921210000   2.984230000
| 36> O  -0.923410000   1.794470000  -2.768350000
| 37> H  -1.359750000   2.338250000  -3.430940000
| 38> H  -1.303000000   0.879480000  -2.865760000
| 39> O  -0.741530000   1.752130000   2.896280000
| 40> H  -0.920500000   2.036450000   1.984040000
| 41> H  -1.242140000   0.921210000   2.984230000
| 42> *
| 43>
| 44>                          ****END OF INPUT****

CARTESIAN COORDINATES (ANGSTROEM)
---------------------------------
  O      1.794470    0.923410    2.768350
  H      2.338250    1.359750    3.430940
  H      0.879480    1.303000    2.865760
  O     -1.794470   -0.923410    2.768350
  H     -2.338250   -1.359750    3.430940
  H     -0.879480   -1.303000    2.865760
  O      0.923410   -1.794470   -2.768350
  H      1.359750   -2.338250   -3.430940
  H      1.303000   -0.879480   -2.865760
  O      0.885520   -1.737840    0.052730
  H      1.284090   -0.839590    0.017130
  H      1.032320   -2.090180   -0.841890
  O      1.737840    0.885520   -0.052730
  H      2.090180    1.032320    0.841890
  H      0.839590    1.284090   -0.017130
  O     -1.737840   -0.885520   -0.052730
  H     -2.090180   -1.032320    0.841890
  H     -0.839590   -1.284090   -0.017130
  O      0.741530   -1.752130    2.896280
  H      0.920500   -2.036450    1.984040
  H      1.242140   -0.921210    2.984230
  O     -0.923410    1.794470   -2.768350
  H     -1.359750    2.338250   -3.430940
  H     -1.303000    0.879480   -2.865760
  O     -0.741530    1.752130    2.896280
  H     -0.920500    2.036450    1.984040
  H     -1.242140    0.921210    2.984230

 Total Charge           Charge          ....    0
 Multiplicity           Mult            ....    1
 Number of Electrons    NEL             ....   90
 Basis Dimension        Dim             ....  387

ORBITAL ENERGIES
----------------

  NO   OCC          E(Eh)            E(eV)
   0   2.0000     -20.584609      -560.1357
   1   2.0000     -20.577779      -559.9498
   2   2.0000     -20.574024      -559.8476
   3   2.0000     -20.566494      -559.6428
   4   2.0000     -20.556837      -559.3800
   5   2.0000     -20.556095      -559.3598
   6   2.0000     -20.547127      -559.1158
   7   2.0000     -20.542566      -558.9916
   8   2.0000     -20.492986      -557.6425
   9   2.0000      -1.375391       -37.4263
  10   2.0000      -1.363313       -37.0976
  11   2.0000      -1.357447       -36.9380
  12   2.0000      -1.350868       -36.7590
  13   2.0000      -1.348558       -36.6961
  14   2.0000      -1.333322       -36.2815
  15   2.0000      -1.332177       -36.2504
  16   2.0000      -1.325919       -36.0801
  17   2.0000      -1.276950       -34.7476
  18   2.0000      -0.739865       -20.1328
  19   2.0000      -0.730934       -19.8897
  20   2.0000      -0.729574       -19.8527
  21   2.0000      -0.717115       -19.5137
  22   2.0000      -0.713059       -19.4033
  23   2.0000      -0.710962       -19.3463
  24   2.0000      -0.700021       -19.0485
  25   2.0000      -0.699585       -19.0367
  26   2.0000      -0.659817       -17.9545
  27   2.0000      -0.636476       -17.3194
  28   2.0000      -0.613069       -16.6825
  29   2.0000      -0.603428       -16.4201
  30   2.0000      -0.596173       -16.2227
  31   2.0000      -0.587074       -15.9751
  32   2.0000      -0.574361       -15.6292
  33   2.0000      -0.569540       -15.4980
  34   2.0000      -0.560050       -15.2397
  35   2.0000      -0.536275       -14.5928
  36   2.0000      -0.523371       -14.2416
  37   2.0000      -0.520740       -14.1701
  38   2.0000      -0.519941       -14.1483
  39   2.0000      -0.506402       -13.7799
  40   2.0000      -0.500710       -13.6250
  41   2.0000      -0.499227       -13.5847
  42   2.0000      -0.492585       -13.4039
  43   2.0000      -0.480861       -13.0849
  44   2.0000      -0.444164       -12.0863
  45   0.0000       0.102465         2.7882
  46   0.0000       0.120759         3.2860
  47   0.0000       0.141478         3.8498
  48   0.0000       0.149414         4.0658
  49   0.0000       0.158028         4.3002

MULLIKEN ATOMIC CHARGES
-----------------------
   0 O :   -0.758997
   1 H :    0.354075
   2 H :    0.382184
   3 O :   -0.755619
   4 H :    0.346642
   5 H :    0.383535
   6 O :   -0.700296
   7 H :    0.349235
   8 H :    0.367811
   9 O :   -0.754506
  10 H :    0.358732
  11 H :    0.379739
  12 O :   -0.704779
  13 H :    0.379049
  14 H :    0.352369
  15 O :   -0.746072
  16 H :    0.354766
  17 H :    0.349830
  18 O :   -0.725830
  19 H :    0.389853
  20 H :    0.366701
  21 O :   -0.697894
  22 H :    0.336342
  23 H :    0.361964
  24 O :   -0.709397
  25 H :    0.355419
  26 H :    0.385143
Sum of atomic charges:    0.0000000

LOEWDIN ATOMIC CHARGES
----------------------
   0 O :   -0.315845
   1 H :    0.160724
   2 H :    0.145698
   3 O :   -0.315847
   4 H :    0.157108
   5 H :    0.146220
   6 O :   -0.310399
   7 H :    0.162424
   8 H :    0.189641
   9 O :   -0.305135
  10 H :    0.141400
  11 H :    0.152589
  12 O :   -0.297931
  13 H :    0.152053
  14 H :    0.172988
  15 O :   -0.375193
  16 H :    0.140619
  17 H :    0.135124
  18 O :   -0.288041
  19 H :    0.157037
  20 H :    0.148271
  21 O :   -0.343880
  22 H :    0.157140
  23 H :    0.186798
  24 O :   -0.280176
  25 H :    0.169979
  26 H :    0.156636

  Mayer bond orders larger than 0.100000
B(  0-O ,  1-H ) :   0.8386 B(  0-O ,  2-H ) :   0.7318 B(  2-H , 24-O ) :   0.1156
B(  3-O ,  4-H ) :   0.8420 B(  3-O ,  5-H ) :   0.7261 B(  5-H , 18-O ) :   0.1228
B(  6-O ,  7-H ) :   0.8434 B(  6-O ,  8-H ) :   0.8234 B(  9-O , 10-H ) :   0.7654
B(  9-O , 11-H ) :   0.8022 B( 10-H , 12-O ) :   0.1006 B( 12-O , 13-H ) :   0.7990
B( 12-O , 14-H ) :   0.8318 B( 15-O , 16-H ) :   0.8279 B( 15-O , 17-H ) :   0.7992
B( 18-O , 19-H ) :   0.7955 B( 18-O , 20-H ) :   0.8030 B( 21-O , 22-H ) :   0.8538
B( 21-O , 23-H ) :   0.8293 B( 24-O , 25-H ) :   0.8371 B( 24-O , 26-H ) :   0.7785

MP2 TOTAL ENERGY:     -686.918920828 Eh
FINAL SINGLE POINT ENERGY      -686.918920828151

DIPOLE MOMENT
-------------
                                X             Y             Z
Electronic contribution:      0.21053       0.03181       0.04445
Nuclear contribution   :      0.45394       0.45439      -0.59793
                        -----------------------------------------
Total Dipole Moment    :      0.66448       0.48620      -0.55349
                        -----------------------------------------
Magnitude (a.u.)       :      0.99211
Magnitude (Debye)      :      2.52173

Rotational constants in cm-1:     0.026828     0.015452     0.014726
Rotational constants in MHz :   804.272314   463.250171   441.473349

                             ****ORCA TERMINATED NORMALLY****
TOTAL RUN TIME: 0 days 0 hours 4 minutes 42 seconds 735 msec
