                         Program Version 4.2.0 -  RELEASE  -
|  1> # 12mecn.remya.etal.2.mol2,4,7
|  2> ! MP2 def2-TZVP EnGrad TightSCF
|  3>
|  4> %pal
|  5>     nprocs 6
|  6> end
|  7>
|  8> %maxcore 8000
|  9>
| 10> %scf
| 11>     ConvForced true
| 12> end
| 13>
| 14> *xyz 0 1
| 15> C  -4.219070000  -3.477410000  -1.501740000
| 16> H  -3.251530000  -3.803540000  -1.893830000
| 17> H  -4.452920000  -2.481700000  -1.890840000
| 18> H  -4.992170000  -4.178130000  -1.824640000
| 19> C  -4.154550000  -3.418790000  -0.058340000
| 20> N  -4.091140000  -3.354840000   1.104432000
| 21> C  -1.509690000  -0.693960000  -1.610140000
| 22> H  -1.327010000  -1.692700000  -2.017370000
| 23> H  -0.742170000  -0.000650000  -1.964400000
| 24> H  -2.491920000  -0.334310000  -1.929350000
| 25> C  -1.473570000  -0.748120000  -0.167200000
| 26> N  -1.447490000  -0.793720000   0.998938000
| 27> C   1.502241000   0.651296000   1.710523000
| 28> H   1.309219000   1.637164000   2.143202000
| 29> H   2.493408000   0.297996000   2.009069000
| 30> H   0.746597000  -0.059850000   2.055508000
| 31> C   1.447974000   0.738517000   0.269805000
| 32> N   1.405612000   0.808047000  -0.894380000
| 33> *
| 34>
| 35>                          ****END OF INPUT****

CARTESIAN COORDINATES (ANGSTROEM)
---------------------------------
  C     -4.219070   -3.477410   -1.501740
  H     -3.251530   -3.803540   -1.893830
  H     -4.452920   -2.481700   -1.890840
  H     -4.992170   -4.178130   -1.824640
  C     -4.154550   -3.418790   -0.058340
  N     -4.091140   -3.354840    1.104432
  C     -1.509690   -0.693960   -1.610140
  H     -1.327010   -1.692700   -2.017370
  H     -0.742170   -0.000650   -1.964400
  H     -2.491920   -0.334310   -1.929350
  C     -1.473570   -0.748120   -0.167200
  N     -1.447490   -0.793720    0.998938
  C      1.502241    0.651296    1.710523
  H      1.309219    1.637164    2.143202
  H      2.493408    0.297996    2.009069
  H      0.746597   -0.059850    2.055508
  C      1.447974    0.738517    0.269805
  N      1.405612    0.808047   -0.894380

 Total Charge           Charge          ....    0
 Multiplicity           Mult            ....    1
 Number of Electrons    NEL             ....   66
 Basis Dimension        Dim             ....  333

ORBITAL ENERGIES
----------------

  NO   OCC          E(Eh)            E(eV)
   0   2.0000     -15.571117      -423.7116
   1   2.0000     -15.570169      -423.6858
   2   2.0000     -15.569099      -423.6567
   3   2.0000     -11.288205      -307.1677
   4   2.0000     -11.282381      -307.0092
   5   2.0000     -11.278970      -306.9164
   6   2.0000     -11.276553      -306.8506
   7   2.0000     -11.276292      -306.8435
   8   2.0000     -11.270709      -306.6916
   9   2.0000      -1.216297       -33.0971
  10   2.0000      -1.212192       -32.9854
  11   2.0000      -1.210941       -32.9514
  12   2.0000      -1.045789       -28.4574
  13   2.0000      -1.038630       -28.2626
  14   2.0000      -1.033890       -28.1336
  15   2.0000      -0.702057       -19.1039
  16   2.0000      -0.694820       -18.9070
  17   2.0000      -0.689585       -18.7646
  18   2.0000      -0.638344       -17.3702
  19   2.0000      -0.635894       -17.3036
  20   2.0000      -0.628465       -17.1014
  21   2.0000      -0.626575       -17.0500
  22   2.0000      -0.622327       -16.9344
  23   2.0000      -0.614832       -16.7304
  24   2.0000      -0.557658       -15.1746
  25   2.0000      -0.554207       -15.0807
  26   2.0000      -0.551435       -15.0053
  27   2.0000      -0.463166       -12.6034
  28   2.0000      -0.458602       -12.4792
  29   2.0000      -0.457028       -12.4364
  30   2.0000      -0.455973       -12.4077
  31   2.0000      -0.453500       -12.3404
  32   2.0000      -0.445943       -12.1347
  33   0.0000       0.101602         2.7647
  34   0.0000       0.135640         3.6910
  35   0.0000       0.147690         4.0188
  36   0.0000       0.154666         4.2087
  37   0.0000       0.165900         4.5144

MULLIKEN ATOMIC CHARGES
-----------------------
   0 C :   -0.283573
   1 H :    0.166823
   2 H :    0.165151
   3 H :    0.181795
   4 C :   -0.155399
   5 N :   -0.074713
   6 C :   -0.291704
   7 H :    0.157481
   8 H :    0.215027
   9 H :    0.161600
  10 C :   -0.109362
  11 N :   -0.133651
  12 C :   -0.282567
  13 H :    0.167168
  14 H :    0.166513
  15 H :    0.206194
  16 C :   -0.103577
  17 N :   -0.153207
Sum of atomic charges:    0.0000000

LOEWDIN ATOMIC CHARGES
----------------------
   0 C :   -0.287749
   1 H :    0.150158
   2 H :    0.150010
   3 H :    0.151837
   4 C :   -0.223819
   5 N :    0.059140
   6 C :   -0.286231
   7 H :    0.148893
   8 H :    0.158070
   9 H :    0.148615
  10 C :   -0.214067
  11 N :    0.044485
  12 C :   -0.281195
  13 H :    0.153431
  14 H :    0.151422
  15 H :    0.158170
  16 C :   -0.208505
  17 N :    0.027338

  Mayer bond orders larger than 0.100000
B(  0-C ,  1-H ) :   0.9221 B(  0-C ,  2-H ) :   0.9200 B(  0-C ,  3-H ) :   0.9112
B(  0-C ,  4-C ) :   0.8992 B(  4-C ,  5-N ) :   2.8278 B(  6-C ,  7-H ) :   0.9193
B(  6-C ,  8-H ) :   0.8951 B(  6-C ,  9-H ) :   0.9233 B(  6-C , 10-C ) :   0.8949
B( 10-C , 11-N ) :   2.7585 B( 12-C , 13-H ) :   0.9139 B( 12-C , 14-H ) :   0.9164
B( 12-C , 15-H ) :   0.9016 B( 12-C , 16-C ) :   0.9007 B( 16-C , 17-N ) :   2.7745

MP2 TOTAL ENERGY:     -397.457884381 Eh
FINAL SINGLE POINT ENERGY      -397.457884380699

DIPOLE MOMENT
-------------
                                X             Y             Z
Electronic contribution:      0.10589       0.19666       3.30171
Nuclear contribution   :     -0.15286      -0.29565      -4.65326
                        -----------------------------------------
Total Dipole Moment    :     -0.04697      -0.09899      -1.35155
                        -----------------------------------------
Magnitude (a.u.)       :      1.35599
Magnitude (Debye)      :      3.44664

Rotational constants in cm-1:     0.095933     0.016379     0.014293
Rotational constants in MHz :  2875.997730   491.026772   428.495833

                             ****ORCA TERMINATED NORMALLY****
TOTAL RUN TIME: 0 days 0 hours 3 minutes 38 seconds 622 msec
