                         Program Version 4.2.0 -  RELEASE  -
|  1> ! MP2 def2-TZVP EnGrad TightSCF FrozenCore
|  2>
|  3> %pal
|  4>     nprocs 8
|  5> end
|  6>
|  7> %maxcore 8000
|  8>
|  9> %scf
| 10>     ConvForced true
| 11> end
| 12>
| 13> *xyz 0 1
| 14> O   1.842633852  -0.214450291  -0.134871974
| 15> H   1.341333852  -0.880850291  -0.658371974
| 16> H   2.760533852  -0.303550291  -0.418871974
| 17> O   0.054533852  -1.911950291  -1.369671974
| 18> H  -0.733766148  -1.422550291  -1.048371974
| 19> H  -0.032466148  -2.789650291  -0.976771974
| 20> O  -1.806966148  -0.274650291  -0.128171974
| 21> H  -2.729166148  -0.419850291   0.115528026
| 22> H  -1.316066148  -0.165650291   0.724128026
| 23> O  -0.143466148   0.348849709   1.939928026
| 24> H  -0.085466148   1.237649709   1.539128026
| 25> H   0.692033852  -0.044050291   1.633128026
| 26> O   0.054433852   2.152449709  -0.295871974
| 27> H  -0.710266148   1.654249709  -0.625171974
| 28> H   0.794733852   1.542849709  -0.464371974
| 29> *
| 30>
| 31>
| 32>                          ****END OF INPUT****

CARTESIAN COORDINATES (ANGSTROEM)
---------------------------------
  O      1.842634   -0.214450   -0.134872
  H      1.341334   -0.880850   -0.658372
  H      2.760534   -0.303550   -0.418872
  O      0.054534   -1.911950   -1.369672
  H     -0.733766   -1.422550   -1.048372
  H     -0.032466   -2.789650   -0.976772
  O     -1.806966   -0.274650   -0.128172
  H     -2.729166   -0.419850    0.115528
  H     -1.316066   -0.165650    0.724128
  O     -0.143466    0.348850    1.939928
  H     -0.085466    1.237650    1.539128
  H      0.692034   -0.044050    1.633128
  O      0.054434    2.152450   -0.295872
  H     -0.710266    1.654250   -0.625172
  H      0.794734    1.542850   -0.464372

 Total Charge           Charge          ....    0
 Multiplicity           Mult            ....    1
 Number of Electrons    NEL             ....   50
 Basis Dimension        Dim             ....  215

ORBITAL ENERGIES
----------------

  NO   OCC          E(Eh)            E(eV)
   0   2.0000     -20.574518      -559.8611
   1   2.0000     -20.570134      -559.7418
   2   2.0000     -20.569627      -559.7280
   3   2.0000     -20.557495      -559.3979
   4   2.0000     -20.545001      -559.0579
   5   2.0000      -1.371227       -37.3130
   6   2.0000      -1.358564       -36.9684
   7   2.0000      -1.351581       -36.7784
   8   2.0000      -1.339482       -36.4492
   9   2.0000      -1.328685       -36.1554
  10   2.0000      -0.740645       -20.1540
  11   2.0000      -0.730314       -19.8729
  12   2.0000      -0.719474       -19.5779
  13   2.0000      -0.699973       -19.0472
  14   2.0000      -0.693260       -18.8646
  15   2.0000      -0.629252       -17.1228
  16   2.0000      -0.603668       -16.4266
  17   2.0000      -0.595609       -16.2073
  18   2.0000      -0.582617       -15.8538
  19   2.0000      -0.560970       -15.2648
  20   2.0000      -0.523539       -14.2462
  21   2.0000      -0.520366       -14.1599
  22   2.0000      -0.513858       -13.9828
  23   2.0000      -0.506079       -13.7711
  24   2.0000      -0.487054       -13.2534
  25   0.0000       0.110912         3.0181
  26   0.0000       0.143142         3.8951
  27   0.0000       0.158137         4.3031
  28   0.0000       0.197093         5.3632
  29   0.0000       0.217284         5.9126

MULLIKEN ATOMIC CHARGES
-----------------------
   0 O :   -0.746775
   1 H :    0.380510
   2 H :    0.348973
   3 O :   -0.719528
   4 H :    0.388713
   5 H :    0.344486
   6 O :   -0.749593
   7 H :    0.351211
   8 H :    0.377497
   9 O :   -0.714388
  10 H :    0.371009
  11 H :    0.368313
  12 O :   -0.715346
  13 H :    0.355572
  14 H :    0.359344
Sum of atomic charges:    0.0000000

LOEWDIN ATOMIC CHARGES
----------------------
   0 O :   -0.326548
   1 H :    0.151320
   2 H :    0.162524
   3 O :   -0.306035
   4 H :    0.154043
   5 H :    0.161749
   6 O :   -0.317708
   7 H :    0.163352
   8 H :    0.150300
   9 O :   -0.297419
  10 H :    0.158321
  11 H :    0.158116
  12 O :   -0.316817
  13 H :    0.154344
  14 H :    0.150456

  Mayer bond orders larger than 0.100000
B(  0-O ,  1-H ) :   0.7643 B(  0-O ,  2-H ) :   0.8429 B(  3-O ,  4-H ) :   0.7774
B(  3-O ,  5-H ) :   0.8452 B(  6-O ,  7-H ) :   0.8405 B(  6-O ,  8-H ) :   0.7437
B(  8-H ,  9-O ) :   0.1114 B(  9-O , 10-H ) :   0.8019 B(  9-O , 11-H ) :   0.8169
B( 12-O , 13-H ) :   0.8312 B( 12-O , 14-H ) :   0.8179

MP2 TOTAL ENERGY:     -381.626227665 Eh
FINAL SINGLE POINT ENERGY      -381.626227664920

DIPOLE MOMENT
-------------
                                X             Y             Z
Electronic contribution:     -0.02827       0.18182       0.05502
Nuclear contribution   :     -0.01740      -1.49151      -0.16872
                        -----------------------------------------
Total Dipole Moment    :     -0.04566      -1.30969      -0.11370
                        -----------------------------------------
Magnitude (a.u.)       :      1.31541
Magnitude (Debye)      :      3.34350

Rotational constants in cm-1:     0.084212     0.066252     0.054081
Rotational constants in MHz :  2524.614358  1986.179851  1621.300482

                             ****ORCA TERMINATED NORMALLY****
TOTAL RUN TIME: 0 days 0 hours 0 minutes 39 seconds 710 msec
