                         Program Version 4.2.0 -  RELEASE  -
|  1> # 12meoh.boyd.etal.mol2,3,8
|  2> ! MP2 def2-TZVP EnGrad TightSCF
|  3>
|  4> %pal
|  5>     nprocs 6
|  6> end
|  7>
|  8> %maxcore 8000
|  9>
| 10> %scf
| 11>     ConvForced true
| 12> end
| 13>
| 14> *xyz 0 1
| 15> O  -3.839777402   2.233595098   0.660436763
| 16> H  -2.958345897   1.907036203   0.973588449
| 17> C  -3.600368059   3.168790682  -0.390480452
| 18> H  -4.551709193   3.344148967  -0.901254863
| 19> H  -2.868237594   2.789240199  -1.113617525
| 20> H  -3.243594915   4.128998607   0.009549480
| 21> O  -3.821405976  -2.118091637   0.596795346
| 22> H  -4.342989117  -1.344303030   0.251966383
| 23> C  -3.443883586  -1.809641231   1.934889393
| 24> H  -2.831494349  -2.637429600   2.305201764
| 25> H  -4.325601146  -1.719364371   2.585074667
| 26> H  -2.858527126  -0.882644791   1.996110694
| 27> O   3.570084754   2.361662577  -0.202416728
| 28> H   3.393280933   1.755669977   0.560634073
| 29> C   4.368082883   1.644741793  -1.143112807
| 30> H   4.552851717   2.311801738  -1.989632421
| 31> H   3.862427494   0.740851663  -1.508095690
| 32> H   5.333949674   1.357289092  -0.706288100
| 33> *
| 34>
| 35>                          ****END OF INPUT****

CARTESIAN COORDINATES (ANGSTROEM)
---------------------------------
  O     -3.839777    2.233595    0.660437
  H     -2.958346    1.907036    0.973588
  C     -3.600368    3.168791   -0.390480
  H     -4.551709    3.344149   -0.901255
  H     -2.868238    2.789240   -1.113618
  H     -3.243595    4.128999    0.009549
  O     -3.821406   -2.118092    0.596795
  H     -4.342989   -1.344303    0.251966
  C     -3.443884   -1.809641    1.934889
  H     -2.831494   -2.637430    2.305202
  H     -4.325601   -1.719364    2.585075
  H     -2.858527   -0.882645    1.996111
  O      3.570085    2.361663   -0.202417
  H      3.393281    1.755670    0.560634
  C      4.368083    1.644742   -1.143113
  H      4.552852    2.311802   -1.989632
  H      3.862427    0.740852   -1.508096
  H      5.333950    1.357289   -0.706288

 Total Charge           Charge          ....    0
 Multiplicity           Mult            ....    1
 Number of Electrons    NEL             ....   54
 Basis Dimension        Dim             ....  258

ORBITAL ENERGIES
----------------

  NO   OCC          E(Eh)            E(eV)
   0   2.0000     -20.563996      -559.5748
   1   2.0000     -20.560541      -559.4808
   2   2.0000     -20.553936      -559.3010
   3   2.0000     -11.275892      -306.8326
   4   2.0000     -11.274578      -306.7969
   5   2.0000     -11.269891      -306.6693
   6   2.0000      -1.353131       -36.8206
   7   2.0000      -1.350008       -36.7356
   8   2.0000      -1.343188       -36.5500
   9   2.0000      -0.924285       -25.1511
  10   2.0000      -0.922774       -25.1100
  11   2.0000      -0.916874       -24.9494
  12   2.0000      -0.687645       -18.7118
  13   2.0000      -0.685001       -18.6398
  14   2.0000      -0.677852       -18.4453
  15   2.0000      -0.621664       -16.9163
  16   2.0000      -0.620008       -16.8713
  17   2.0000      -0.615169       -16.7396
  18   2.0000      -0.595714       -16.2102
  19   2.0000      -0.592753       -16.1296
  20   2.0000      -0.587314       -15.9816
  21   2.0000      -0.507182       -13.8011
  22   2.0000      -0.504670       -13.7328
  23   2.0000      -0.498067       -13.5531
  24   2.0000      -0.455135       -12.3849
  25   2.0000      -0.452942       -12.3252
  26   2.0000      -0.446566       -12.1517
  27   0.0000       0.114486         3.1153
  28   0.0000       0.131962         3.5909
  29   0.0000       0.156822         4.2673
  30   0.0000       0.169850         4.6219
  31   0.0000       0.173632         4.7248

MULLIKEN ATOMIC CHARGES
-----------------------
   0 O :   -0.503216
   1 H :    0.323789
   2 C :   -0.177914
   3 H :    0.129897
   4 H :    0.116677
   5 H :    0.114549
   6 O :   -0.501773
   7 H :    0.327588
   8 C :   -0.159816
   9 H :    0.127378
  10 H :    0.113647
  11 H :    0.089195
  12 O :   -0.497481
  13 H :    0.320200
  14 C :   -0.174731
  15 H :    0.130146
  16 H :    0.110969
  17 H :    0.110898
Sum of atomic charges:    0.0000000

LOEWDIN ATOMIC CHARGES
----------------------
   0 O :   -0.113431
   1 H :    0.187465
   2 C :   -0.376627
   3 H :    0.110009
   4 H :    0.097587
   5 H :    0.097581
   6 O :   -0.110639
   7 H :    0.192668
   8 C :   -0.381220
   9 H :    0.109207
  10 H :    0.097474
  11 H :    0.089926
  12 O :   -0.110846
  13 H :    0.187281
  14 C :   -0.378618
  15 H :    0.110638
  16 H :    0.095636
  17 H :    0.095909

  Mayer bond orders larger than 0.100000
B(  0-O ,  1-H ) :   0.8415 B(  0-O ,  2-C ) :   0.9184 B(  2-C ,  3-H ) :   0.9377
B(  2-C ,  4-H ) :   0.9409 B(  2-C ,  5-H ) :   0.9383 B(  6-O ,  7-H ) :   0.8380
B(  6-O ,  8-C ) :   0.9310 B(  8-C ,  9-H ) :   0.9381 B(  8-C , 10-H ) :   0.9417
B(  8-C , 11-H ) :   0.9377 B( 12-O , 13-H ) :   0.8443 B( 12-O , 14-C ) :   0.9234
B( 14-C , 15-H ) :   0.9377 B( 14-C , 16-H ) :   0.9381 B( 14-C , 17-H ) :   0.9395

MP2 TOTAL ENERGY:     -346.522385953 Eh
FINAL SINGLE POINT ENERGY      -346.522385952952

DIPOLE MOMENT
-------------
                                X             Y             Z
Electronic contribution:     -1.85139      -0.61612       0.65766
Nuclear contribution   :      2.53151       0.76645      -0.51640
                        -----------------------------------------
Total Dipole Moment    :      0.68012       0.15033       0.14125
                        -----------------------------------------
Magnitude (a.u.)       :      0.71072
Magnitude (Debye)      :      1.80650

Rotational constants in cm-1:     0.042999     0.011925     0.009717
Rotational constants in MHz :  1289.091177   357.500637   291.309010

                             ****ORCA TERMINATED NORMALLY****
TOTAL RUN TIME: 0 days 0 hours 0 minutes 45 seconds 770 msec
