                         Program Version 4.2.0 -  RELEASE  -
|  1> # 12mecn.remya.etal.2.mol0,6,7
|  2> ! MP2 def2-TZVP EnGrad TightSCF
|  3>
|  4> %pal
|  5>     nprocs 6
|  6> end
|  7>
|  8> %maxcore 8000
|  9>
| 10> %scf
| 11>     ConvForced true
| 12> end
| 13>
| 14> *xyz 0 1
| 15> C  -0.869520000  -3.929380000   1.700199000
| 16> H  -0.057420000  -3.268850000   2.015352000
| 17> H  -0.697530000  -4.930670000   2.101524000
| 18> H  -1.821490000  -3.546590000   2.077146000
| 19> C  -0.916080000  -3.969960000   0.256749000
| 20> N  -0.955390000  -3.995980000  -0.909290000
| 21> C   5.300864000  -2.920090000   1.401103000
| 22> H   5.986071000  -2.139770000   1.737487000
| 23> H   5.636642000  -3.888750000   1.778233000
| 24> H   4.307359000  -2.697240000   1.799307000
| 25> C   5.234791000  -2.933140000  -0.043290000
| 26> N   5.170868000  -2.941760000  -1.207750000
| 27> C   1.502241000   0.651296000   1.710523000
| 28> H   1.309219000   1.637164000   2.143202000
| 29> H   2.493408000   0.297996000   2.009069000
| 30> H   0.746597000  -0.059850000   2.055508000
| 31> C   1.447974000   0.738517000   0.269805000
| 32> N   1.405612000   0.808047000  -0.894380000
| 33> *
| 34>
| 35>                          ****END OF INPUT****

CARTESIAN COORDINATES (ANGSTROEM)
---------------------------------
  C     -0.869520   -3.929380    1.700199
  H     -0.057420   -3.268850    2.015352
  H     -0.697530   -4.930670    2.101524
  H     -1.821490   -3.546590    2.077146
  C     -0.916080   -3.969960    0.256749
  N     -0.955390   -3.995980   -0.909290
  C      5.300864   -2.920090    1.401103
  H      5.986071   -2.139770    1.737487
  H      5.636642   -3.888750    1.778233
  H      4.307359   -2.697240    1.799307
  C      5.234791   -2.933140   -0.043290
  N      5.170868   -2.941760   -1.207750
  C      1.502241    0.651296    1.710523
  H      1.309219    1.637164    2.143202
  H      2.493408    0.297996    2.009069
  H      0.746597   -0.059850    2.055508
  C      1.447974    0.738517    0.269805
  N      1.405612    0.808047   -0.894380

 Total Charge           Charge          ....    0
 Multiplicity           Mult            ....    1
 Number of Electrons    NEL             ....   66
 Basis Dimension        Dim             ....  333

ORBITAL ENERGIES
----------------

  NO   OCC          E(Eh)            E(eV)
   0   2.0000     -15.574682      -423.8087
   1   2.0000     -15.574417      -423.8014
   2   2.0000     -15.573941      -423.7885
   3   2.0000     -11.292843      -307.2939
   4   2.0000     -11.291050      -307.2451
   5   2.0000     -11.290373      -307.2267
   6   2.0000     -11.279912      -306.9420
   7   2.0000     -11.279828      -306.9397
   8   2.0000     -11.279482      -306.9303
   9   2.0000      -1.214889       -33.0588
  10   2.0000      -1.214734       -33.0546
  11   2.0000      -1.214669       -33.0528
  12   2.0000      -1.050293       -28.5799
  13   2.0000      -1.048978       -28.5441
  14   2.0000      -1.048060       -28.5192
  15   2.0000      -0.705074       -19.1860
  16   2.0000      -0.704619       -19.1737
  17   2.0000      -0.704276       -19.1643
  18   2.0000      -0.640793       -17.4369
  19   2.0000      -0.640063       -17.4170
  20   2.0000      -0.637934       -17.3591
  21   2.0000      -0.637502       -17.3473
  22   2.0000      -0.636913       -17.3313
  23   2.0000      -0.635256       -17.2862
  24   2.0000      -0.555503       -15.1160
  25   2.0000      -0.555365       -15.1123
  26   2.0000      -0.555204       -15.1079
  27   2.0000      -0.458832       -12.4855
  28   2.0000      -0.458642       -12.4803
  29   2.0000      -0.458020       -12.4633
  30   2.0000      -0.457857       -12.4589
  31   2.0000      -0.457376       -12.4458
  32   2.0000      -0.457328       -12.4445
  33   0.0000       0.073910         2.0112
  34   0.0000       0.113656         3.0927
  35   0.0000       0.133216         3.6250
  36   0.0000       0.153006         4.1635
  37   0.0000       0.159288         4.3345

MULLIKEN ATOMIC CHARGES
-----------------------
   0 C :   -0.281433
   1 H :    0.155387
   2 H :    0.175394
   3 H :    0.174186
   4 C :   -0.143937
   5 N :   -0.079665
   6 C :   -0.284439
   7 H :    0.173401
   8 H :    0.175662
   9 H :    0.157454
  10 C :   -0.143724
  11 N :   -0.078408
  12 C :   -0.281586
  13 H :    0.177617
  14 H :    0.163723
  15 H :    0.161732
  16 C :   -0.143613
  17 N :   -0.077752
Sum of atomic charges:    0.0000000

LOEWDIN ATOMIC CHARGES
----------------------
   0 C :   -0.286089
   1 H :    0.146827
   2 H :    0.151675
   3 H :    0.152813
   4 C :   -0.221628
   5 N :    0.056398
   6 C :   -0.286469
   7 H :    0.151058
   8 H :    0.151524
   9 H :    0.147729
  10 C :   -0.220707
  11 N :    0.056858
  12 C :   -0.286456
  13 H :    0.153409
  14 H :    0.149318
  15 H :    0.148410
  16 C :   -0.223048
  17 N :    0.058379

  Mayer bond orders larger than 0.100000
B(  0-C ,  1-H ) :   0.9209 B(  0-C ,  2-H ) :   0.9173 B(  0-C ,  3-H ) :   0.9174
B(  0-C ,  4-C ) :   0.9003 B(  4-C ,  5-N ) :   2.8272 B(  6-C ,  7-H ) :   0.9180
B(  6-C ,  8-H ) :   0.9162 B(  6-C ,  9-H ) :   0.9211 B(  6-C , 10-C ) :   0.9016
B( 10-C , 11-N ) :   2.8277 B( 12-C , 13-H ) :   0.9165 B( 12-C , 14-H ) :   0.9200
B( 12-C , 15-H ) :   0.9205 B( 12-C , 16-C ) :   0.8986 B( 16-C , 17-N ) :   2.8246

MP2 TOTAL ENERGY:     -397.445206392 Eh
FINAL SINGLE POINT ENERGY      -397.445206391725

DIPOLE MOMENT
-------------
                                X             Y             Z
Electronic contribution:     -0.35457       0.05815      -9.54710
Nuclear contribution   :      0.52538      -0.09500      13.90690
                        -----------------------------------------
Total Dipole Moment    :      0.17081      -0.03684       4.35980
                        -----------------------------------------
Magnitude (a.u.)       :      4.36330
Magnitude (Debye)      :     11.09062

Rotational constants in cm-1:     0.025721     0.017496     0.012953
Rotational constants in MHz :   771.091130   524.506201   388.315617

                             ****ORCA TERMINATED NORMALLY****
TOTAL RUN TIME: 0 days 0 hours 2 minutes 38 seconds 458 msec
