                         Program Version 3.0.3 - RELEASE   -
|  1> ! BP86 Def2-SVP TightSCF Opt D3BJ COSMO
|  2>
|  3> %pal nprocs 12 end
|  4>
|  5> %scf
|  6>         maxiter 800
|  7> end
|  8>
|  9> %cosmo
| 10> 	SMD true
| 11>         solvent "WATER"
| 12> end
| 13>
| 14> * xyz  0  1
| 15> O  3.68673883	1.23187706	-2.60294835
| 16> H  4.26054145	1.76864888	-3.14962779
| 17> H  3.09727029	0.80256744	-3.22299022
| 18> O  -2.20151805	0.88369353	-0.45467850
| 19> H  -1.56982527	1.37346851	0.07193003
| 20> H  -3.04777350	1.06783422	-0.04703187
| 21> O  -0.15539746	0.41381230	-2.29646286
| 22> H  -1.00769856	0.63757502	-1.92263814
| 23> H  0.47368100	0.91273602	-1.77534169
| 24> O  1.91331924	-0.13577592	-4.09986580
| 25> H  2.06315791	-1.05469775	-3.87768819
| 26> H  1.06394884	0.07010273	-3.70946120
| 27> O  2.47741640	-2.62209188	-2.97857589
| 28> H  3.14043070	-2.20937069	-2.42512751
| 29> H  2.91683995	-3.38737272	-3.34936429
| 30> O  -4.32680824	1.23272157	1.28219881
| 31> H  -4.18160980	0.39744924	1.72657411
| 32> H  -5.27891643	1.32716732	1.25388218
| 33> O  0.07498870	-0.40409481	2.38020900
| 34> H  -0.42248592	-0.28517767	3.18928846
| 35> H  -0.50924095	-0.90457512	1.81062404
| 36> O  -3.60967238	-1.04895038	2.52153071
| 37> H  -3.04802975	-0.76851772	3.24412805
| 38> H  -3.01378836	-1.47642432	1.90637211
| 39> O  -1.83734003	0.15750353	4.29932996
| 40> H  -2.05608420	1.00936325	3.92154980
| 41> H  -1.89846967	0.29157868	5.24512004
| 42> O  1.72325711	1.55006278	-0.67969251
| 43> H  2.44981091	1.66073510	-1.29296493
| 44> H  1.93693308	0.75220733	-0.19595588
| 45> O  -2.43737461	2.41276562	2.95396474
| 46> H  -1.69764546	2.53901294	2.35974740
| 47> H  -3.16569223	2.16992517	2.38228842
| 48> O  -1.63120004	-1.56116791	0.60915585
| 49> H  -1.89945602	-0.75831546	0.16227945
| 50> H  -1.05418979	-2.00173839	-0.01469403
| 51> O  -0.32595277	2.00256596	1.16300680
| 52> H  -0.10547212	1.21048837	1.65314272
| 53> H  0.42404410	2.14384994	0.58527383
| 54> O  4.13373609	-1.22803013	-1.37562426
| 55> H  4.15057702	-0.34669909	-1.74872456
| 56> H  3.64748784	-1.13268650	-0.55665901
| 57> O  2.11254402	-0.85522214	0.52429446
| 58> H  1.63783794	-0.77969805	1.35205174
| 59> H  1.53123998	-1.36492053	-0.04008573
| 60> O  0.40326619	-2.02967275	-1.24584320
| 61> H  1.02044639	-2.44339771	-1.84929337
| 62> H  0.14212599	-1.22111291	-1.68660235
| 63> **                         ****END OF INPUT****
 Total Charge           Charge          ....    0
 Multiplicity           Mult            ....    1
 Number of Electrons    NEL             ....  160
Dispersion correction           -0.054933193
FINAL SINGLE POINT ENERGY     -1222.246611493023
Dispersion correction            ...
Dispersion correction           -0.054241637
FINAL SINGLE POINT ENERGY     -1222.277401153183
Dispersion correction            ...
Dispersion correction           -0.054473995
FINAL SINGLE POINT ENERGY     -1222.286546526095
Dispersion correction            ...
FINAL SINGLE POINT ENERGY     -1222.290150809093
FINAL SINGLE POINT ENERGY     -1222.292895644099
FINAL SINGLE POINT ENERGY     -1222.295153345491
FINAL SINGLE POINT ENERGY     -1222.296867038561
FINAL SINGLE POINT ENERGY     -1222.311231315784
FINAL SINGLE POINT ENERGY     -1222.298746748281
FINAL SINGLE POINT ENERGY     -1222.299038146463
FINAL SINGLE POINT ENERGY     -1222.300911053207
FINAL SINGLE POINT ENERGY     -1222.300936717836
FINAL SINGLE POINT ENERGY     -1222.300980609305
FINAL SINGLE POINT ENERGY     -1222.301049537342
FINAL SINGLE POINT ENERGY     -1222.301077721333
FINAL SINGLE POINT ENERGY     -1222.301104134191
FINAL SINGLE POINT ENERGY     -1222.301117896853
Dispersion correction            ...
Dispersion correction           -0.058747428
FINAL SINGLE POINT ENERGY     -1222.301121266599
Dispersion correction            ...
Dispersion correction           -0.058767885
FINAL SINGLE POINT ENERGY     -1222.301117286039
Dispersion correction            ...
                    ***********************HURRAY********************

CARTESIAN COORDINATES (ANGSTROEM)
---------------------------------
  O      3.477378    1.075883   -2.483664
  H      4.121695    1.646874   -2.946578
  H      2.872092    0.680186   -3.214160
  O     -2.121496    0.837051   -0.480122
  H     -1.463747    1.348456    0.100194
  H     -2.998581    1.013048   -0.017044
  O     -0.162781    0.421939   -2.272704
  H     -1.050020    0.635243   -1.872049
  H      0.495028    0.921053   -1.677919
  O      1.807513   -0.103142   -4.108020
  H      1.996188   -1.027731   -3.765610
  H      0.954551    0.129218   -3.654873
  O      2.364954   -2.402864   -2.805589
  H      3.125835   -2.050715   -2.211056
  H      2.699331   -3.223339   -3.217907
  O     -4.049147    1.127977    1.291489
  H     -3.976654    0.205108    1.738511
  H     -5.005120    1.306092    1.190852
  O      0.111710   -0.376031    2.280052
  H     -0.429651   -0.246760    3.119746
  H     -0.534521   -0.882809    1.680816
  O     -3.565868   -1.159955    2.458555
  H     -2.954638   -0.769771    3.152313
  H     -2.929173   -1.536068    1.794302
  O     -1.794811    0.164993    4.015157
  H     -2.008340    1.116586    3.689692
  H     -1.823778    0.199443    4.991762
  O      1.628449    1.514347   -0.654640
  H      2.390556    1.603206   -1.307047
  H      1.863938    0.660485   -0.158988
  O     -2.344902    2.464788    2.908407
  H     -1.574109    2.543840    2.285737
  H     -3.072628    2.105633    2.318022
  O     -1.597422   -1.527324    0.605039
  H     -1.846953   -0.663998    0.129563
  H     -0.974331   -1.970155   -0.036087
  O     -0.329218    1.973544    1.120899
  H     -0.094381    1.111920    1.607057
  H      0.446871    2.115711    0.511479
  O      4.119701   -1.248580   -1.254673
  H      4.033232   -0.346639   -1.687592
  H      3.568622   -1.150762   -0.433251
  O      2.088955   -0.826484    0.530553
  H      1.586714   -0.726437    1.386673
  H      1.432896   -1.321354   -0.069599
  O      0.368258   -1.932502   -1.153548
  H      1.028916   -2.353815   -1.786600
  H      0.118881   -1.075388   -1.637553

 Multiplicity           Mult            ....    1
 Number of Electrons    NEL             ....  160
 Basis Dimension        Dim             ....  384

ORBITAL ENERGIES
----------------

  NO   OCC          E(Eh)            E(eV)
   0   2.0000     -18.783645      -511.1290
   1   2.0000     -18.783223      -511.1175
   2   2.0000     -18.783191      -511.1166
   3   2.0000     -18.783051      -511.1128
   4   2.0000     -18.776676      -510.9393
   5   2.0000     -18.776516      -510.9350
   6   2.0000     -18.776486      -510.9342
   7   2.0000     -18.775884      -510.9178
   8   2.0000     -18.773429      -510.8510
   9   2.0000     -18.773356      -510.8490
  10   2.0000     -18.773324      -510.8481
  11   2.0000     -18.772992      -510.8391
  12   2.0000     -18.767981      -510.7027
  13   2.0000     -18.767821      -510.6984
  14   2.0000     -18.767686      -510.6947
  15   2.0000     -18.767299      -510.6842
  16   2.0000      -0.930207       -25.3122
  17   2.0000      -0.922188       -25.0940
  18   2.0000      -0.912172       -24.8215
  19   2.0000      -0.910775       -24.7834
  20   2.0000      -0.910555       -24.7775
  21   2.0000      -0.903699       -24.5909
  22   2.0000      -0.902716       -24.5642
  23   2.0000      -0.902627       -24.5617
  24   2.0000      -0.890809       -24.2401
  25   2.0000      -0.890614       -24.2348
  26   2.0000      -0.888117       -24.1669
  27   2.0000      -0.882889       -24.0246
  28   2.0000      -0.882771       -24.0214
  29   2.0000      -0.881876       -23.9971
  30   2.0000      -0.872973       -23.7548
  31   2.0000      -0.863791       -23.5050
  32   2.0000      -0.484448       -13.1825
  33   2.0000      -0.482763       -13.1366
  34   2.0000      -0.482461       -13.1284
  35   2.0000      -0.482167       -13.1204
  36   2.0000      -0.478167       -13.0116
  37   2.0000      -0.474576       -12.9139
  38   2.0000      -0.471040       -12.8177
  39   2.0000      -0.470960       -12.8155
  40   2.0000      -0.464291       -12.6340
  41   2.0000      -0.460654       -12.5350
  42   2.0000      -0.457014       -12.4360
  43   2.0000      -0.456600       -12.4247
  44   2.0000      -0.452671       -12.3178
  45   2.0000      -0.451414       -12.2836
  46   2.0000      -0.450309       -12.2535
  47   2.0000      -0.449446       -12.2300
  48   2.0000      -0.411720       -11.2035
  49   2.0000      -0.397779       -10.8241
  50   2.0000      -0.376787       -10.2529
  51   2.0000      -0.375700       -10.2233
  52   2.0000      -0.362193        -9.8558
  53   2.0000      -0.359659        -9.7868
  54   2.0000      -0.359071        -9.7708
  55   2.0000      -0.353192        -9.6109
  56   2.0000      -0.336391        -9.1537
  57   2.0000      -0.334782        -9.1099
  58   2.0000      -0.333578        -9.0771
  59   2.0000      -0.333196        -9.0667
  60   2.0000      -0.315942        -8.5972
  61   2.0000      -0.315373        -8.5817
  62   2.0000      -0.305344        -8.3088
  63   2.0000      -0.288512        -7.8508
  64   2.0000      -0.272353        -7.4111
  65   2.0000      -0.271841        -7.3972
  66   2.0000      -0.271559        -7.3895
  67   2.0000      -0.268202        -7.2981
  68   2.0000      -0.265601        -7.2274
  69   2.0000      -0.265378        -7.2213
  70   2.0000      -0.264245        -7.1905
  71   2.0000      -0.262316        -7.1380
  72   2.0000      -0.261816        -7.1244
  73   2.0000      -0.261756        -7.1227
  74   2.0000      -0.259646        -7.0653
  75   2.0000      -0.256833        -6.9888
  76   2.0000      -0.256757        -6.9867
  77   2.0000      -0.256714        -6.9856
  78   2.0000      -0.255490        -6.9522
  79   2.0000      -0.255278        -6.9465
  80   0.0000       0.014179         0.3858
  81   0.0000       0.036521         0.9938
  82   0.0000       0.061832         1.6825
  83   0.0000       0.062211         1.6928
  84   0.0000       0.070863         1.9283

MULLIKEN ATOMIC CHARGES
-----------------------
   0 O :   -0.329752
   1 H :    0.228302
   2 H :    0.167553
   3 O :   -0.347486
   4 H :    0.141780
   5 H :    0.180575
   6 O :   -0.337434
   7 H :    0.185348
   8 H :    0.143334
   9 O :   -0.357572
  10 H :    0.161913
  11 H :    0.171379
  12 O :   -0.331457
  13 H :    0.167466
  14 H :    0.229562
  15 O :   -0.333179
  16 H :    0.165112
  17 H :    0.229625
  18 O :   -0.346247
  19 H :    0.178898
  20 H :    0.140202
  21 O :   -0.355257
  22 H :    0.159934
  23 H :    0.173004
  24 O :   -0.330148
  25 H :    0.164130
  26 H :    0.229023
  27 O :   -0.347181
  28 H :    0.180073
  29 H :    0.135132
  30 O :   -0.354281
  31 H :    0.172921
  32 H :    0.161956
  33 O :   -0.339048
  34 H :    0.137427
  35 H :    0.187858
  36 O :   -0.338418
  37 H :    0.134576
  38 H :    0.188419
  39 O :   -0.357433
  40 H :    0.157907
  41 H :    0.173512
  42 O :   -0.337584
  43 H :    0.186786
  44 H :    0.139831
  45 O :   -0.346439
  46 H :    0.179334
  47 H :    0.136044
Sum of atomic charges:   -0.0000000

LOEWDIN ATOMIC CHARGES
----------------------
   0 O :   -0.073452
   1 H :    0.116501
   2 H :    0.040121
   3 O :   -0.108903
   4 H :    0.029752
   5 H :    0.045084
   6 O :   -0.102137
   7 H :    0.056464
   8 H :    0.030546
   9 O :   -0.128019
  10 H :    0.040692
  11 H :    0.051948
  12 O :   -0.071925
  13 H :    0.039929
  14 H :    0.116952
  15 O :   -0.073352
  16 H :    0.039513
  17 H :    0.116868
  18 O :   -0.108178
  19 H :    0.044830
  20 H :    0.029503
  21 O :   -0.128142
  22 H :    0.040434
  23 H :    0.051037
  24 O :   -0.073481
  25 H :    0.038966
  26 H :    0.116598
  27 O :   -0.106608
  28 H :    0.045856
  29 H :    0.028960
  30 O :   -0.125985
  31 H :    0.052395
  32 H :    0.041047
  33 O :   -0.099940
  34 H :    0.029487
  35 H :    0.055424
  36 O :   -0.101071
  37 H :    0.029053
  38 H :    0.057661
  39 O :   -0.128537
  40 H :    0.040077
  41 H :    0.052167
  42 O :   -0.103390
  43 H :    0.056182
  44 H :    0.029691
  45 O :   -0.104208
  46 H :    0.044509
  47 H :    0.029077

  Mayer bond orders larger than 0.1
B(  0-O ,  1-H ) :   0.9543 B(  0-O ,  2-H ) :   0.8036 B(  0-O , 28-H ) :   0.2027
B(  0-O , 40-H ) :   0.2037 B(  2-H ,  9-O ) :   0.2732 B(  3-O ,  4-H ) :   0.8324
B(  3-O ,  5-H ) :   0.8585 B(  3-O ,  7-H ) :   0.1591 B(  3-O , 34-H ) :   0.2609
B(  4-H , 36-O ) :   0.2489 B(  5-H , 15-O ) :   0.2053 B(  6-O ,  7-H ) :   0.8904
B(  6-O ,  8-H ) :   0.8256 B(  6-O , 11-H ) :   0.1493 B(  6-O , 47-H ) :   0.2553
B(  8-H , 27-O ) :   0.2558 B(  9-O , 10-H ) :   0.8827 B(  9-O , 11-H ) :   0.9153
B( 10-H , 12-O ) :   0.2004 B( 12-O , 13-H ) :   0.8024 B( 12-O , 14-H ) :   0.9538
B( 12-O , 46-H ) :   0.2068 B( 13-H , 39-O ) :   0.2751 B( 15-O , 16-H ) :   0.8016
B( 15-O , 17-H ) :   0.9542 B( 15-O , 32-H ) :   0.1984 B( 16-H , 21-O ) :   0.2784
B( 18-O , 19-H ) :   0.8582 B( 18-O , 20-H ) :   0.8305 B( 18-O , 37-H ) :   0.2606
B( 18-O , 43-H ) :   0.1602 B( 19-H , 24-O ) :   0.2067 B( 20-H , 33-O ) :   0.2502
B( 21-O , 22-H ) :   0.8842 B( 21-O , 23-H ) :   0.9142 B( 22-H , 24-O ) :   0.1999
B( 23-H , 33-O ) :   0.1499 B( 24-O , 25-H ) :   0.8015 B( 24-O , 26-H ) :   0.9548
B( 25-H , 30-O ) :   0.2768 B( 27-O , 28-H ) :   0.8606 B( 27-O , 29-H ) :   0.8302
B( 27-O , 38-H ) :   0.1565 B( 29-H , 42-O ) :   0.2544 B( 30-O , 31-H ) :   0.9148
B( 30-O , 32-H ) :   0.8839 B( 31-H , 36-O ) :   0.1484 B( 33-O , 34-H ) :   0.8252
B( 33-O , 35-H ) :   0.8886 B( 35-H , 45-O ) :   0.1606 B( 36-O , 37-H ) :   0.8248
B( 36-O , 38-H ) :   0.8908 B( 39-O , 40-H ) :   0.8818 B( 39-O , 41-H ) :   0.9133
B( 41-H , 42-O ) :   0.1501 B( 42-O , 43-H ) :   0.8881 B( 42-O , 44-H ) :   0.8264
B( 44-H , 45-O ) :   0.2550 B( 45-O , 46-H ) :   0.8587 B( 45-O , 47-H ) :   0.8300

Dispersion correction           -0.058784753
FINAL SINGLE POINT ENERGY     -1222.301114894452

DIPOLE MOMENT
-------------
                                X             Y             Z
Electronic contribution:     -0.00205       0.00487      -0.00793
Nuclear contribution   :     -0.00318      -0.00909       0.00701
                        -----------------------------------------
Total Dipole Moment    :     -0.00523      -0.00422      -0.00092
                        -----------------------------------------
Magnitude (a.u.)       :      0.00678
Magnitude (Debye)      :      0.01724

                             ****ORCA TERMINATED NORMALLY****
TOTAL RUN TIME: 0 days 0 hours 36 minutes 42 seconds 665 msec
