                         Program Version 4.2.0 -  RELEASE  -
|  1> # 12h2o.su.etal.mol2,3,4
|  2> ! MP2 def2-TZVP EnGrad TightSCF
|  3>
|  4> %pal
|  5>     nprocs 6
|  6> end
|  7>
|  8> %maxcore 8000
|  9>
| 10> %scf
| 11>     ConvForced true
| 12> end
| 13>
| 14> *xyz 0 1
| 15> O   0.923410000  -1.794470000  -2.768350000
| 16> H   1.359750000  -2.338250000  -3.430940000
| 17> H   1.303000000  -0.879480000  -2.865760000
| 18> O  -1.752130000  -0.741530000  -2.896280000
| 19> H  -2.036450000  -0.920500000  -1.984040000
| 20> H  -0.921210000  -1.242140000  -2.984230000
| 21> O  -0.885520000   1.737840000   0.052730000
| 22> H  -1.032320000   2.090180000  -0.841890000
| 23> H  -1.284090000   0.839590000   0.017130000
| 24> *
| 25>
| 26>                          ****END OF INPUT****

CARTESIAN COORDINATES (ANGSTROEM)
---------------------------------
  O      0.923410   -1.794470   -2.768350
  H      1.359750   -2.338250   -3.430940
  H      1.303000   -0.879480   -2.865760
  O     -1.752130   -0.741530   -2.896280
  H     -2.036450   -0.920500   -1.984040
  H     -0.921210   -1.242140   -2.984230
  O     -0.885520    1.737840    0.052730
  H     -1.032320    2.090180   -0.841890
  H     -1.284090    0.839590    0.017130

 Total Charge           Charge          ....    0
 Multiplicity           Mult            ....    1
 Number of Electrons    NEL             ....   30
 Basis Dimension        Dim             ....  129

ORBITAL ENERGIES
----------------

  NO   OCC          E(Eh)            E(eV)
   0   2.0000     -20.596462      -560.4582
   1   2.0000     -20.560719      -559.4856
   2   2.0000     -20.545769      -559.0788
   3   2.0000      -1.374167       -37.3930
   4   2.0000      -1.336616       -36.3712
   5   2.0000      -1.327774       -36.1306
   6   2.0000      -0.741411       -20.1748
   7   2.0000      -0.699301       -19.0290
   8   2.0000      -0.696318       -18.9478
   9   2.0000      -0.614299       -16.7159
  10   2.0000      -0.576177       -15.6786
  11   2.0000      -0.568722       -15.4757
  12   2.0000      -0.534067       -14.5327
  13   2.0000      -0.503744       -13.7076
  14   2.0000      -0.492700       -13.4070
  15   0.0000       0.096033         2.6132
  16   0.0000       0.126986         3.4555
  17   0.0000       0.171000         4.6532
  18   0.0000       0.189787         5.1644
  19   0.0000       0.226795         6.1714

MULLIKEN ATOMIC CHARGES
-----------------------
   0 O :   -0.695757
   1 H :    0.355507
   2 H :    0.361866
   3 O :   -0.700174
   4 H :    0.321337
   5 H :    0.360007
   6 O :   -0.674798
   7 H :    0.341834
   8 H :    0.330179
Sum of atomic charges:   -0.0000000

LOEWDIN ATOMIC CHARGES
----------------------
   0 O :   -0.310453
   1 H :    0.164962
   2 H :    0.188952
   3 O :   -0.344555
   4 H :    0.155341
   5 H :    0.148301
   6 O :   -0.336144
   7 H :    0.166340
   8 H :    0.167255

  Mayer bond orders larger than 0.100000
B(  0-O ,  1-H ) :   0.8400 B(  0-O ,  2-H ) :   0.8298 B(  3-O ,  4-H ) :   0.8609
B(  3-O ,  5-H ) :   0.8145 B(  6-O ,  7-H ) :   0.8495 B(  6-O ,  8-H ) :   0.8541

MP2 TOTAL ENERGY:     -228.947835756 Eh
FINAL SINGLE POINT ENERGY      -228.947835755701

DIPOLE MOMENT
-------------
                                X             Y             Z
Electronic contribution:      0.10470       0.03172       0.06197
Nuclear contribution   :      0.68017      -0.71107      -0.72077
                        -----------------------------------------
Total Dipole Moment    :      0.78488      -0.67935      -0.65880
                        -----------------------------------------
Magnitude (a.u.)       :      1.22946
Magnitude (Debye)      :      3.12503

Rotational constants in cm-1:     0.264384     0.074925     0.059367
Rotational constants in MHz :  7926.034518  2246.207818  1779.792314

                             ****ORCA TERMINATED NORMALLY****
TOTAL RUN TIME: 0 days 0 hours 0 minutes 13 seconds 288 msec
