                         Program Version 4.2.0 -  RELEASE  -
|  1> # 12h2o.su.etal.mol4,5,6,7,8,9,11
|  2> ! MP2 def2-TZVP EnGrad TightSCF
|  3>
|  4> %pal
|  5>     nprocs 6
|  6> end
|  7>
|  8> %maxcore 8000
|  9>
| 10> %scf
| 11>     ConvForced true
| 12> end
| 13>
| 14> *xyz 0 1
| 15> O  -0.885520000   1.737840000   0.052730000
| 16> H  -1.032320000   2.090180000  -0.841890000
| 17> H  -1.284090000   0.839590000   0.017130000
| 18> O   0.885520000  -1.737840000   0.052730000
| 19> H   1.284090000  -0.839590000   0.017130000
| 20> H   1.032320000  -2.090180000  -0.841890000
| 21> O   1.737840000   0.885520000  -0.052730000
| 22> H   2.090180000   1.032320000   0.841890000
| 23> H   0.839590000   1.284090000  -0.017130000
| 24> O  -1.737840000  -0.885520000  -0.052730000
| 25> H  -2.090180000  -1.032320000   0.841890000
| 26> H  -0.839590000  -1.284090000  -0.017130000
| 27> O   1.752130000   0.741530000  -2.896280000
| 28> H   2.036450000   0.920500000  -1.984040000
| 29> H   0.921210000   1.242140000  -2.984230000
| 30> O   0.741530000  -1.752130000   2.896280000
| 31> H   0.920500000  -2.036450000   1.984040000
| 32> H   1.242140000  -0.921210000   2.984230000
| 33> O  -0.741530000   1.752130000   2.896280000
| 34> H  -0.920500000   2.036450000   1.984040000
| 35> H  -1.242140000   0.921210000   2.984230000
| 36> *
| 37>
| 38>                          ****END OF INPUT****

CARTESIAN COORDINATES (ANGSTROEM)
---------------------------------
  O     -0.885520    1.737840    0.052730
  H     -1.032320    2.090180   -0.841890
  H     -1.284090    0.839590    0.017130
  O      0.885520   -1.737840    0.052730
  H      1.284090   -0.839590    0.017130
  H      1.032320   -2.090180   -0.841890
  O      1.737840    0.885520   -0.052730
  H      2.090180    1.032320    0.841890
  H      0.839590    1.284090   -0.017130
  O     -1.737840   -0.885520   -0.052730
  H     -2.090180   -1.032320    0.841890
  H     -0.839590   -1.284090   -0.017130
  O      1.752130    0.741530   -2.896280
  H      2.036450    0.920500   -1.984040
  H      0.921210    1.242140   -2.984230
  O      0.741530   -1.752130    2.896280
  H      0.920500   -2.036450    1.984040
  H      1.242140   -0.921210    2.984230
  O     -0.741530    1.752130    2.896280
  H     -0.920500    2.036450    1.984040
  H     -1.242140    0.921210    2.984230

 Total Charge           Charge          ....    0
 Multiplicity           Mult            ....    1
 Number of Electrons    NEL             ....   70
 Basis Dimension        Dim             ....  301

ORBITAL ENERGIES
----------------

  NO   OCC          E(Eh)            E(eV)
   0   2.0000     -20.605160      -560.6949
   1   2.0000     -20.603939      -560.6617
   2   2.0000     -20.595762      -560.4392
   3   2.0000     -20.584630      -560.1363
   4   2.0000     -20.557241      -559.3910
   5   2.0000     -20.553280      -559.2832
   6   2.0000     -20.550725      -559.2137
   7   2.0000      -1.404373       -38.2149
   8   2.0000      -1.389025       -37.7973
   9   2.0000      -1.382178       -37.6110
  10   2.0000      -1.363171       -37.0938
  11   2.0000      -1.338866       -36.4324
  12   2.0000      -1.334966       -36.3263
  13   2.0000      -1.332251       -36.2524
  14   2.0000      -0.759815       -20.6756
  15   2.0000      -0.758269       -20.6336
  16   2.0000      -0.750625       -20.4255
  17   2.0000      -0.737093       -20.0573
  18   2.0000      -0.710973       -19.3466
  19   2.0000      -0.706122       -19.2145
  20   2.0000      -0.702130       -19.1059
  21   2.0000      -0.656088       -17.8531
  22   2.0000      -0.633922       -17.2499
  23   2.0000      -0.628875       -17.1126
  24   2.0000      -0.606780       -16.5113
  25   2.0000      -0.576314       -15.6823
  26   2.0000      -0.572277       -15.5724
  27   2.0000      -0.567282       -15.4365
  28   2.0000      -0.549996       -14.9661
  29   2.0000      -0.545692       -14.8490
  30   2.0000      -0.538528       -14.6541
  31   2.0000      -0.529425       -14.4064
  32   2.0000      -0.503322       -13.6961
  33   2.0000      -0.501577       -13.6486
  34   2.0000      -0.494864       -13.4659
  35   0.0000       0.076917         2.0930
  36   0.0000       0.112367         3.0577
  37   0.0000       0.126357         3.4384
  38   0.0000       0.141364         3.8467
  39   0.0000       0.189057         5.1445

MULLIKEN ATOMIC CHARGES
-----------------------
   0 O :   -0.738075
   1 H :    0.357683
   2 H :    0.370875
   3 O :   -0.743072
   4 H :    0.369123
   5 H :    0.370776
   6 O :   -0.740152
   7 H :    0.365830
   8 H :    0.370842
   9 O :   -0.715055
  10 H :    0.353853
  11 H :    0.375893
  12 O :   -0.688702
  13 H :    0.373267
  14 H :    0.316295
  15 O :   -0.696545
  16 H :    0.371990
  17 H :    0.324295
  18 O :   -0.697498
  19 H :    0.370723
  20 H :    0.327656
Sum of atomic charges:   -0.0000000

LOEWDIN ATOMIC CHARGES
----------------------
   0 O :   -0.294116
   1 H :    0.169472
   2 H :    0.146316
   3 O :   -0.294265
   4 H :    0.144801
   5 H :    0.176032
   6 O :   -0.292745
   7 H :    0.172770
   8 H :    0.145441
   9 O :   -0.305327
  10 H :    0.167960
  11 H :    0.145999
  12 O :   -0.335309
  13 H :    0.151540
  14 H :    0.156374
  15 O :   -0.336716
  16 H :    0.151055
  17 H :    0.157676
  18 O :   -0.336712
  19 H :    0.150522
  20 H :    0.159230

  Mayer bond orders larger than 0.100000
B(  0-O ,  1-H ) :   0.8348 B(  0-O ,  2-H ) :   0.7436 B(  2-H ,  9-O ) :   0.1220
B(  3-O ,  4-H ) :   0.7599 B(  3-O ,  5-H ) :   0.8265 B(  6-O ,  7-H ) :   0.8292
B(  6-O ,  8-H ) :   0.7555 B(  9-O , 10-H ) :   0.8384 B(  9-O , 11-H ) :   0.7680
B( 12-O , 13-H ) :   0.8202 B( 12-O , 14-H ) :   0.8637 B( 15-O , 16-H ) :   0.8198
B( 15-O , 17-H ) :   0.8562 B( 18-O , 19-H ) :   0.8222 B( 18-O , 20-H ) :   0.8541

MP2 TOTAL ENERGY:     -534.258423031 Eh
FINAL SINGLE POINT ENERGY      -534.258423031314

DIPOLE MOMENT
-------------
                                X             Y             Z
Electronic contribution:      0.08222      -0.14976      -0.03305
Nuclear contribution   :     -0.45497       0.56566      -0.68611
                        -----------------------------------------
Total Dipole Moment    :     -0.37275       0.41589      -0.71915
                        -----------------------------------------
Magnitude (a.u.)       :      0.91054
Magnitude (Debye)      :      2.31442

Rotational constants in cm-1:     0.040411     0.027287     0.022913
Rotational constants in MHz :  1211.503226   818.049896   686.918666

                             ****ORCA TERMINATED NORMALLY****
TOTAL RUN TIME: 0 days 0 hours 2 minutes 12 seconds 404 msec
