                         Program Version 4.2.0 -  RELEASE  -
|  1> # 12mecn.remya.etal.2.mol1,5,9
|  2> ! MP2 def2-TZVP EnGrad TightSCF
|  3>
|  4> %pal
|  5>     nprocs 6
|  6> end
|  7>
|  8> %maxcore 8000
|  9>
| 10> %scf
| 11>     ConvForced true
| 12> end
| 13>
| 14> *xyz 0 1
| 15> C  -4.697980000  -0.249690000   1.746215000
| 16> H  -4.927570000   0.755530000   2.111799000
| 17> H  -3.709180000  -0.561560000   2.093253000
| 18> H  -5.432280000  -0.961520000   2.128066000
| 19> C  -4.714100000  -0.247110000   0.301670000
| 20> N  -4.729750000  -0.234960000  -0.865260000
| 21> C  -1.955700000   2.515080000   1.698463000
| 22> H  -2.923830000   2.883163000   2.049269000
| 23> H  -1.154850000   3.171830000   2.050990000
| 24> H  -1.790380000   1.506115000   2.087896000
| 25> C  -1.948230000   2.482156000   0.253672000
| 26> N  -1.937550000   2.462523000  -0.913150000
| 27> C   0.923766000   4.000693000  -1.575910000
| 28> H   0.011949000   4.478423000  -1.939550000
| 29> H   0.947903000   2.966558000  -1.929960000
| 30> H   1.805950000   4.519548000  -1.956520000
| 31> C   0.942834000   3.994846000  -0.131200000
| 32> N   0.960035000   3.982544000   1.035639000
| 33> *
| 34>
| 35>                          ****END OF INPUT****

CARTESIAN COORDINATES (ANGSTROEM)
---------------------------------
  C     -4.697980   -0.249690    1.746215
  H     -4.927570    0.755530    2.111799
  H     -3.709180   -0.561560    2.093253
  H     -5.432280   -0.961520    2.128066
  C     -4.714100   -0.247110    0.301670
  N     -4.729750   -0.234960   -0.865260
  C     -1.955700    2.515080    1.698463
  H     -2.923830    2.883163    2.049269
  H     -1.154850    3.171830    2.050990
  H     -1.790380    1.506115    2.087896
  C     -1.948230    2.482156    0.253672
  N     -1.937550    2.462523   -0.913150
  C      0.923766    4.000693   -1.575910
  H      0.011949    4.478423   -1.939550
  H      0.947903    2.966558   -1.929960
  H      1.805950    4.519548   -1.956520
  C      0.942834    3.994846   -0.131200
  N      0.960035    3.982544    1.035639

 Total Charge           Charge          ....    0
 Multiplicity           Mult            ....    1
 Number of Electrons    NEL             ....   66
 Basis Dimension        Dim             ....  333

ORBITAL ENERGIES
----------------

  NO   OCC          E(Eh)            E(eV)
   0   2.0000     -15.572070      -423.7376
   1   2.0000     -15.571773      -423.7295
   2   2.0000     -15.569878      -423.6779
   3   2.0000     -11.288447      -307.1743
   4   2.0000     -11.284203      -307.0588
   5   2.0000     -11.279304      -306.9255
   6   2.0000     -11.277399      -306.8736
   7   2.0000     -11.276585      -306.8515
   8   2.0000     -11.272989      -306.7536
   9   2.0000      -1.217741       -33.1364
  10   2.0000      -1.212639       -32.9976
  11   2.0000      -1.211772       -32.9740
  12   2.0000      -1.046883       -28.4871
  13   2.0000      -1.038618       -28.2622
  14   2.0000      -1.035305       -28.1721
  15   2.0000      -0.702342       -19.1117
  16   2.0000      -0.696038       -18.9402
  17   2.0000      -0.692146       -18.8343
  18   2.0000      -0.639616       -17.4048
  19   2.0000      -0.636609       -17.3230
  20   2.0000      -0.630129       -17.1467
  21   2.0000      -0.625604       -17.0235
  22   2.0000      -0.620207       -16.8767
  23   2.0000      -0.617181       -16.7944
  24   2.0000      -0.559071       -15.2131
  25   2.0000      -0.554680       -15.0936
  26   2.0000      -0.552748       -15.0410
  27   2.0000      -0.463631       -12.6161
  28   2.0000      -0.459094       -12.4926
  29   2.0000      -0.458801       -12.4846
  30   2.0000      -0.456497       -12.4219
  31   2.0000      -0.454073       -12.3559
  32   2.0000      -0.447998       -12.1906
  33   0.0000       0.101182         2.7533
  34   0.0000       0.133505         3.6329
  35   0.0000       0.147225         4.0062
  36   0.0000       0.154363         4.2004
  37   0.0000       0.168189         4.5767

MULLIKEN ATOMIC CHARGES
-----------------------
   0 C :   -0.281912
   1 H :    0.165682
   2 H :    0.166373
   3 H :    0.181927
   4 C :   -0.154127
   5 N :   -0.077926
   6 C :   -0.291744
   7 H :    0.161313
   8 H :    0.215235
   9 H :    0.156643
  10 C :   -0.123673
  11 N :   -0.120569
  12 C :   -0.261103
  13 H :    0.181112
  14 H :    0.177696
  15 H :    0.171638
  16 C :   -0.113711
  17 N :   -0.152853
Sum of atomic charges:    0.0000000

LOEWDIN ATOMIC CHARGES
----------------------
   0 C :   -0.287367
   1 H :    0.150167
   2 H :    0.150174
   3 H :    0.152448
   4 C :   -0.223401
   5 N :    0.057493
   6 C :   -0.286759
   7 H :    0.148046
   8 H :    0.157887
   9 H :    0.148612
  10 C :   -0.215729
  11 N :    0.046940
  12 C :   -0.282307
  13 H :    0.156448
  14 H :    0.158276
  15 H :    0.149704
  16 C :   -0.208143
  17 N :    0.027511

  Mayer bond orders larger than 0.100000
B(  0-C ,  1-H ) :   0.9194 B(  0-C ,  2-H ) :   0.9222 B(  0-C ,  3-H ) :   0.9111
B(  0-C ,  4-C ) :   0.8990 B(  4-C ,  5-N ) :   2.8288 B(  6-C ,  7-H ) :   0.9231
B(  6-C ,  8-H ) :   0.8941 B(  6-C ,  9-H ) :   0.9199 B(  6-C , 10-C ) :   0.8948
B( 10-C , 11-N ) :   2.7858 B( 12-C , 13-H ) :   0.9108 B( 12-C , 14-H ) :   0.9131
B( 12-C , 15-H ) :   0.9105 B( 12-C , 16-C ) :   0.9120 B( 16-C , 17-N ) :   2.7701

MP2 TOTAL ENERGY:     -397.457805543 Eh
FINAL SINGLE POINT ENERGY      -397.457805543146

DIPOLE MOMENT
-------------
                                X             Y             Z
Electronic contribution:      0.03005      -0.01604      -3.28619
Nuclear contribution   :     -0.01510       0.04851       4.63651
                        -----------------------------------------
Total Dipole Moment    :      0.01495       0.03247       1.35032
                        -----------------------------------------
Magnitude (a.u.)       :      1.35080
Magnitude (Debye)      :      3.43345

Rotational constants in cm-1:     0.097218     0.015946     0.013979
Rotational constants in MHz :  2914.524086   478.046645   419.081784

                             ****ORCA TERMINATED NORMALLY****
TOTAL RUN TIME: 0 days 0 hours 3 minutes 23 seconds 128 msec
