                         Program Version 4.2.0 -  RELEASE  -
|  1> # 12mecn.remya.etal.2.mol3,4,8
|  2> ! MP2 def2-TZVP EnGrad TightSCF
|  3>
|  4> %pal
|  5>     nprocs 6
|  6> end
|  7>
|  8> %maxcore 8000
|  9>
| 10> %scf
| 11>     ConvForced true
| 12> end
| 13>
| 14> *xyz 0 1
| 15> C  -5.181310000   2.853865000  -1.626100000
| 16> H  -5.488260000   3.811434000  -2.053310000
| 17> H  -5.857590000   2.068112000  -1.968630000
| 18> H  -4.170750000   2.611402000  -1.966640000
| 19> C  -5.187260000   2.919160000  -0.181450000
| 20> N  -5.181700000   2.970641000   0.983640000
| 21> C  -1.509690000  -0.693960000  -1.610140000
| 22> H  -1.327010000  -1.692700000  -2.017370000
| 23> H  -0.742170000  -0.000650000  -1.964400000
| 24> H  -2.491920000  -0.334310000  -1.929350000
| 25> C  -1.473570000  -0.748120000  -0.167200000
| 26> N  -1.447490000  -0.793720000   0.998938000
| 27> C   1.912641000  -2.468050000  -1.750510000
| 28> H   2.876947000  -2.793500000  -2.151200000
| 29> H   1.688016000  -1.463720000  -2.122170000
| 30> H   1.123460000  -3.154780000  -2.069590000
| 31> C   1.977850000  -2.444240000  -0.306900000
| 32> N   2.036566000  -2.426130000   0.858249000
| 33> *
| 34>
| 35>                          ****END OF INPUT****

CARTESIAN COORDINATES (ANGSTROEM)
---------------------------------
  C     -5.181310    2.853865   -1.626100
  H     -5.488260    3.811434   -2.053310
  H     -5.857590    2.068112   -1.968630
  H     -4.170750    2.611402   -1.966640
  C     -5.187260    2.919160   -0.181450
  N     -5.181700    2.970641    0.983640
  C     -1.509690   -0.693960   -1.610140
  H     -1.327010   -1.692700   -2.017370
  H     -0.742170   -0.000650   -1.964400
  H     -2.491920   -0.334310   -1.929350
  C     -1.473570   -0.748120   -0.167200
  N     -1.447490   -0.793720    0.998938
  C      1.912641   -2.468050   -1.750510
  H      2.876947   -2.793500   -2.151200
  H      1.688016   -1.463720   -2.122170
  H      1.123460   -3.154780   -2.069590
  C      1.977850   -2.444240   -0.306900
  N      2.036566   -2.426130    0.858249

 Total Charge           Charge          ....    0
 Multiplicity           Mult            ....    1
 Number of Electrons    NEL             ....   66
 Basis Dimension        Dim             ....  333

ORBITAL ENERGIES
----------------

  NO   OCC          E(Eh)            E(eV)
   0   2.0000     -15.574690      -423.8089
   1   2.0000     -15.573477      -423.7759
   2   2.0000     -15.573176      -423.7677
   3   2.0000     -11.294574      -307.3410
   4   2.0000     -11.291959      -307.2698
   5   2.0000     -11.290060      -307.2181
   6   2.0000     -11.280562      -306.9597
   7   2.0000     -11.277970      -306.8892
   8   2.0000     -11.277506      -306.8765
   9   2.0000      -1.215615       -33.0786
  10   2.0000      -1.213659       -33.0254
  11   2.0000      -1.212526       -32.9945
  12   2.0000      -1.052086       -28.6287
  13   2.0000      -1.048305       -28.5258
  14   2.0000      -1.047884       -28.5144
  15   2.0000      -0.706470       -19.2240
  16   2.0000      -0.704999       -19.1840
  17   2.0000      -0.703144       -19.1335
  18   2.0000      -0.647096       -17.6084
  19   2.0000      -0.642998       -17.4969
  20   2.0000      -0.637318       -17.3423
  21   2.0000      -0.636733       -17.3264
  22   2.0000      -0.635220       -17.2852
  23   2.0000      -0.632776       -17.2187
  24   2.0000      -0.556330       -15.1385
  25   2.0000      -0.554540       -15.0898
  26   2.0000      -0.552527       -15.0350
  27   2.0000      -0.463086       -12.6012
  28   2.0000      -0.459016       -12.4905
  29   2.0000      -0.458646       -12.4804
  30   2.0000      -0.457978       -12.4622
  31   2.0000      -0.455361       -12.3910
  32   2.0000      -0.449321       -12.2266
  33   0.0000       0.084476         2.2987
  34   0.0000       0.108185         2.9439
  35   0.0000       0.139889         3.8066
  36   0.0000       0.148562         4.0426
  37   0.0000       0.154608         4.2071

MULLIKEN ATOMIC CHARGES
-----------------------
   0 C :   -0.286283
   1 H :    0.176436
   2 H :    0.172788
   3 H :    0.161962
   4 C :   -0.143685
   5 N :   -0.081286
   6 C :   -0.290910
   7 H :    0.166216
   8 H :    0.169184
   9 H :    0.172315
  10 C :   -0.148752
  11 N :   -0.067989
  12 C :   -0.289144
  13 H :    0.182986
  14 H :    0.161819
  15 H :    0.168281
  16 C :   -0.151789
  17 N :   -0.072151
Sum of atomic charges:   -0.0000000

LOEWDIN ATOMIC CHARGES
----------------------
   0 C :   -0.286126
   1 H :    0.151979
   2 H :    0.150923
   3 H :    0.148968
   4 C :   -0.220300
   5 N :    0.054543
   6 C :   -0.289792
   7 H :    0.148875
   8 H :    0.149749
   9 H :    0.150185
  10 C :   -0.225627
  11 N :    0.066512
  12 C :   -0.288496
  13 H :    0.153797
  14 H :    0.147858
  15 H :    0.149703
  16 C :   -0.224469
  17 N :    0.061719

  Mayer bond orders larger than 0.100000
B(  0-C ,  1-H ) :   0.9156 B(  0-C ,  2-H ) :   0.9181 B(  0-C ,  3-H ) :   0.9200
B(  0-C ,  4-C ) :   0.9013 B(  4-C ,  5-N ) :   2.8296 B(  6-C ,  7-H ) :   0.9195
B(  6-C ,  8-H ) :   0.9240 B(  6-C ,  9-H ) :   0.9148 B(  6-C , 10-C ) :   0.8948
B( 10-C , 11-N ) :   2.8197 B( 12-C , 13-H ) :   0.9113 B( 12-C , 14-H ) :   0.9202
B( 12-C , 15-H ) :   0.9229 B( 12-C , 16-C ) :   0.8966 B( 16-C , 17-N ) :   2.8262

MP2 TOTAL ENERGY:     -397.445365278 Eh
FINAL SINGLE POINT ENERGY      -397.445365277597

DIPOLE MOMENT
-------------
                                X             Y             Z
Electronic contribution:      0.20347       0.07216       9.60367
Nuclear contribution   :     -0.30348      -0.10631     -13.91414
                        -----------------------------------------
Total Dipole Moment    :     -0.10001      -0.03414      -4.31047
                        -----------------------------------------
Magnitude (a.u.)       :      4.31176
Magnitude (Debye)      :     10.95963

Rotational constants in cm-1:     0.094981     0.010053     0.009275
Rotational constants in MHz :  2847.444757   301.386942   278.069871

                             ****ORCA TERMINATED NORMALLY****
TOTAL RUN TIME: 0 days 0 hours 2 minutes 49 seconds 750 msec
