                         Program Version 4.2.0 -  RELEASE  -
|  1> # 12h2o.su.etal.mol6,9,11
|  2> ! MP2 def2-TZVP EnGrad TightSCF
|  3>
|  4> %pal
|  5>     nprocs 6
|  6> end
|  7>
|  8> %maxcore 8000
|  9>
| 10> %scf
| 11>     ConvForced true
| 12> end
| 13>
| 14> *xyz 0 1
| 15> O   1.737840000   0.885520000  -0.052730000
| 16> H   2.090180000   1.032320000   0.841890000
| 17> H   0.839590000   1.284090000  -0.017130000
| 18> O   0.741530000  -1.752130000   2.896280000
| 19> H   0.920500000  -2.036450000   1.984040000
| 20> H   1.242140000  -0.921210000   2.984230000
| 21> O  -0.741530000   1.752130000   2.896280000
| 22> H  -0.920500000   2.036450000   1.984040000
| 23> H  -1.242140000   0.921210000   2.984230000
| 24> *
| 25>
| 26>                          ****END OF INPUT****

CARTESIAN COORDINATES (ANGSTROEM)
---------------------------------
  O      1.737840    0.885520   -0.052730
  H      2.090180    1.032320    0.841890
  H      0.839590    1.284090   -0.017130
  O      0.741530   -1.752130    2.896280
  H      0.920500   -2.036450    1.984040
  H      1.242140   -0.921210    2.984230
  O     -0.741530    1.752130    2.896280
  H     -0.920500    2.036450    1.984040
  H     -1.242140    0.921210    2.984230

 Total Charge           Charge          ....    0
 Multiplicity           Mult            ....    1
 Number of Electrons    NEL             ....   30
 Basis Dimension        Dim             ....  129

ORBITAL ENERGIES
----------------

  NO   OCC          E(Eh)            E(eV)
   0   2.0000     -20.578571      -559.9714
   1   2.0000     -20.577792      -559.9502
   2   2.0000     -20.566385      -559.6398
   3   2.0000      -1.357594       -36.9420
   4   2.0000      -1.353426       -36.8286
   5   2.0000      -1.345432       -36.6111
   6   2.0000      -0.720505       -19.6059
   7   2.0000      -0.715495       -19.4696
   8   2.0000      -0.707965       -19.2647
   9   2.0000      -0.595373       -16.2009
  10   2.0000      -0.592346       -16.1185
  11   2.0000      -0.583251       -15.8711
  12   2.0000      -0.523578       -14.2473
  13   2.0000      -0.519650       -14.1404
  14   2.0000      -0.509729       -13.8704
  15   0.0000       0.081606         2.2206
  16   0.0000       0.132408         3.6030
  17   0.0000       0.158053         4.3009
  18   0.0000       0.180330         4.9070
  19   0.0000       0.221509         6.0276

MULLIKEN ATOMIC CHARGES
-----------------------
   0 O :   -0.668439
   1 H :    0.337714
   2 H :    0.330276
   3 O :   -0.679662
   4 H :    0.342165
   5 H :    0.336655
   6 O :   -0.676956
   7 H :    0.326625
   8 H :    0.351621
Sum of atomic charges:    0.0000000

LOEWDIN ATOMIC CHARGES
----------------------
   0 O :   -0.331783
   1 H :    0.163679
   2 H :    0.167626
   3 O :   -0.331054
   4 H :    0.166689
   5 H :    0.163266
   6 O :   -0.328679
   7 H :    0.159117
   8 H :    0.171139

  Mayer bond orders larger than 0.100000
B(  0-O ,  1-H ) :   0.8512 B(  0-O ,  2-H ) :   0.8537 B(  3-O ,  4-H ) :   0.8492
B(  3-O ,  5-H ) :   0.8499 B(  6-O ,  7-H ) :   0.8570 B(  6-O ,  8-H ) :   0.8406

MP2 TOTAL ENERGY:     -228.942606452 Eh
FINAL SINGLE POINT ENERGY      -228.942606452488

DIPOLE MOMENT
-------------
                                X             Y             Z
Electronic contribution:      0.07143      -0.08637       0.11216
Nuclear contribution   :     -0.45439       0.45394      -0.59793
                        -----------------------------------------
Total Dipole Moment    :     -0.38296       0.36758      -0.48578
                        -----------------------------------------
Magnitude (a.u.)       :      0.71955
Magnitude (Debye)      :      1.82895

Rotational constants in cm-1:     0.129125     0.113443     0.061391
Rotational constants in MHz :  3871.077891  3400.924614  1840.457908

                             ****ORCA TERMINATED NORMALLY****
TOTAL RUN TIME: 0 days 0 hours 0 minutes 28 seconds 147 msec
