                         Program Version 4.2.0 -  RELEASE  -
|  1> ! MP2 def2-TZVP EnGrad TightSCF FrozenCore
|  2>
|  3> %pal
|  4>     nprocs 8
|  5> end
|  6>
|  7> %maxcore 8000
|  8>
|  9> %scf
| 10>     ConvForced true
| 11> end
| 12>
| 13> *xyz 0 1
| 14> O      1.794470    0.923410    2.768350
| 15> H      2.338250    1.359750    3.430940
| 16> H      0.879480    1.303000    2.865760
| 17> O     -1.794470   -0.923410    2.768350
| 18> H     -2.338250   -1.359750    3.430940
| 19> H     -0.879480   -1.303000    2.865760
| 20> O      0.923410   -1.794470   -2.768350
| 21> H      1.359750   -2.338250   -3.430940
| 22> H      1.303000   -0.879480   -2.865760
| 23> O     -1.752130   -0.741530   -2.896280
| 24> H     -2.036450   -0.920500   -1.984040
| 25> H     -0.921210   -1.242140   -2.984230
| 26> O     -0.885520    1.737840    0.052730
| 27> H     -1.032320    2.090180   -0.841890
| 28> H     -1.284090    0.839590    0.017130
| 29> O      0.885520   -1.737840    0.052730
| 30> H      1.284090   -0.839590    0.017130
| 31> H      1.032320   -2.090180   -0.841890
| 32> O      1.737840    0.885520   -0.052730
| 33> H      2.090180    1.032320    0.841890
| 34> H      0.839590    1.284090   -0.017130
| 35> O     -1.737840   -0.885520   -0.052730
| 36> H     -2.090180   -1.032320    0.841890
| 37> H     -0.839590   -1.284090   -0.017130
| 38> O      1.752130    0.741530   -2.896280
| 39> H      2.036450    0.920500   -1.984040
| 40> H      0.921210    1.242140   -2.984230
| 41> O      0.741530   -1.752130    2.896280
| 42> H      0.920500   -2.036450    1.984040
| 43> H      1.242140   -0.921210    2.984230
| 44> O     -0.923410    1.794470   -2.768350
| 45> H     -1.359750    2.338250   -3.430940
| 46> H     -1.303000    0.879480   -2.865760
| 47> O     -0.741530    1.752130    2.896280
| 48> H     -0.920500    2.036450    1.984040
| 49> H     -1.242140    0.921210    2.984230
| 50> **                         ****END OF INPUT****

CARTESIAN COORDINATES (ANGSTROEM)
---------------------------------
  O      1.794470    0.923410    2.768350
  H      2.338250    1.359750    3.430940
  H      0.879480    1.303000    2.865760
  O     -1.794470   -0.923410    2.768350
  H     -2.338250   -1.359750    3.430940
  H     -0.879480   -1.303000    2.865760
  O      0.923410   -1.794470   -2.768350
  H      1.359750   -2.338250   -3.430940
  H      1.303000   -0.879480   -2.865760
  O     -1.752130   -0.741530   -2.896280
  H     -2.036450   -0.920500   -1.984040
  H     -0.921210   -1.242140   -2.984230
  O     -0.885520    1.737840    0.052730
  H     -1.032320    2.090180   -0.841890
  H     -1.284090    0.839590    0.017130
  O      0.885520   -1.737840    0.052730
  H      1.284090   -0.839590    0.017130
  H      1.032320   -2.090180   -0.841890
  O      1.737840    0.885520   -0.052730
  H      2.090180    1.032320    0.841890
  H      0.839590    1.284090   -0.017130
  O     -1.737840   -0.885520   -0.052730
  H     -2.090180   -1.032320    0.841890
  H     -0.839590   -1.284090   -0.017130
  O      1.752130    0.741530   -2.896280
  H      2.036450    0.920500   -1.984040
  H      0.921210    1.242140   -2.984230
  O      0.741530   -1.752130    2.896280
  H      0.920500   -2.036450    1.984040
  H      1.242140   -0.921210    2.984230
  O     -0.923410    1.794470   -2.768350
  H     -1.359750    2.338250   -3.430940
  H     -1.303000    0.879480   -2.865760
  O     -0.741530    1.752130    2.896280
  H     -0.920500    2.036450    1.984040
  H     -1.242140    0.921210    2.984230

 Total Charge           Charge          ....    0
 Multiplicity           Mult            ....    1
 Number of Electrons    NEL             ....  120
 Basis Dimension        Dim             ....  516

ORBITAL ENERGIES
----------------

  NO   OCC          E(Eh)            E(eV)
   0   2.0000     -20.569314      -559.7195
   1   2.0000     -20.569314      -559.7195
   2   2.0000     -20.569314      -559.7195
   3   2.0000     -20.569313      -559.7195
   4   2.0000     -20.559693      -559.4577
   5   2.0000     -20.559682      -559.4574
   6   2.0000     -20.559682      -559.4574
   7   2.0000     -20.559672      -559.4571
   8   2.0000     -20.554436      -559.3146
   9   2.0000     -20.554436      -559.3146
  10   2.0000     -20.554436      -559.3146
  11   2.0000     -20.554436      -559.3146
  12   2.0000      -1.375496       -37.4291
  13   2.0000      -1.367584       -37.2139
  14   2.0000      -1.361721       -37.0543
  15   2.0000      -1.361721       -37.0543
  16   2.0000      -1.359248       -36.9870
  17   2.0000      -1.350660       -36.7533
  18   2.0000      -1.350660       -36.7533
  19   2.0000      -1.342063       -36.5194
  20   2.0000      -1.340024       -36.4639
  21   2.0000      -1.340024       -36.4639
  22   2.0000      -1.334589       -36.3160
  23   2.0000      -1.326875       -36.1061
  24   2.0000      -0.736344       -20.0369
  25   2.0000      -0.734579       -19.9889
  26   2.0000      -0.734579       -19.9889
  27   2.0000      -0.734279       -19.9807
  28   2.0000      -0.725949       -19.7541
  29   2.0000      -0.725577       -19.7440
  30   2.0000      -0.722679       -19.6651
  31   2.0000      -0.722679       -19.6651
  32   2.0000      -0.714093       -19.4314
  33   2.0000      -0.710434       -19.3319
  34   2.0000      -0.705393       -19.1947
  35   2.0000      -0.705393       -19.1947
  36   2.0000      -0.651256       -17.7216
  37   2.0000      -0.629296       -17.1240
  38   2.0000      -0.620737       -16.8911
  39   2.0000      -0.620737       -16.8911
  40   2.0000      -0.601051       -16.3554
  41   2.0000      -0.598307       -16.2808
  42   2.0000      -0.597685       -16.2638
  43   2.0000      -0.597685       -16.2638
  44   2.0000      -0.573893       -15.6164
  45   2.0000      -0.573893       -15.6164
  46   2.0000      -0.566298       -15.4098
  47   2.0000      -0.543639       -14.7932
  48   2.0000      -0.518455       -14.1079
  49   2.0000      -0.518455       -14.1079
  50   2.0000      -0.517072       -14.0702
  51   2.0000      -0.516434       -14.0529
  52   2.0000      -0.513083       -13.9617
  53   2.0000      -0.509490       -13.8639
  54   2.0000      -0.509490       -13.8639
  55   2.0000      -0.503680       -13.7058
  56   2.0000      -0.501232       -13.6392
  57   2.0000      -0.500771       -13.6267
  58   2.0000      -0.500646       -13.6233
  59   2.0000      -0.500646       -13.6233
  60   0.0000       0.115544         3.1441
  61   0.0000       0.132078         3.5940
  62   0.0000       0.143837         3.9140
  63   0.0000       0.143837         3.9140
  64   0.0000       0.187508         5.1024

MULLIKEN ATOMIC CHARGES
-----------------------
   0 O :   -0.762765
   1 H :    0.352633
   2 H :    0.386898
   3 O :   -0.762765
   4 H :    0.352633
   5 H :    0.386898
   6 O :   -0.762765
   7 H :    0.352633
   8 H :    0.386898
   9 O :   -0.725854
  10 H :    0.389071
  11 H :    0.370606
  12 O :   -0.762586
  13 H :    0.384864
  14 H :    0.367133
  15 O :   -0.762586
  16 H :    0.367133
  17 H :    0.384864
  18 O :   -0.762586
  19 H :    0.384864
  20 H :    0.367133
  21 O :   -0.762586
  22 H :    0.384864
  23 H :    0.367133
  24 O :   -0.725854
  25 H :    0.389071
  26 H :    0.370606
  27 O :   -0.725854
  28 H :    0.389071
  29 H :    0.370606
  30 O :   -0.762765
  31 H :    0.352633
  32 H :    0.386898
  33 O :   -0.725854
  34 H :    0.389071
  35 H :    0.370606
Sum of atomic charges:   -0.0000000

LOEWDIN ATOMIC CHARGES
----------------------
   0 O :   -0.317205
   1 H :    0.160125
   2 H :    0.146786
   3 O :   -0.317205
   4 H :    0.160125
   5 H :    0.146786
   6 O :   -0.317205
   7 H :    0.160125
   8 H :    0.146786
   9 O :   -0.287113
  10 H :    0.156130
  11 H :    0.149843
  12 O :   -0.303406
  13 H :    0.152727
  14 H :    0.142113
  15 O :   -0.303406
  16 H :    0.142113
  17 H :    0.152727
  18 O :   -0.303406
  19 H :    0.152727
  20 H :    0.142113
  21 O :   -0.303406
  22 H :    0.152727
  23 H :    0.142113
  24 O :   -0.287113
  25 H :    0.156130
  26 H :    0.149843
  27 O :   -0.287113
  28 H :    0.156130
  29 H :    0.149843
  30 O :   -0.317205
  31 H :    0.160125
  32 H :    0.146786
  33 O :   -0.287113
  34 H :    0.156130
  35 H :    0.149843

  Mayer bond orders larger than 0.100000
B(  0-O ,  1-H ) :   0.8395 B(  0-O ,  2-H ) :   0.7221 B(  2-H , 33-O ) :   0.1271
B(  3-O ,  4-H ) :   0.8395 B(  3-O ,  5-H ) :   0.7221 B(  5-H , 27-O ) :   0.1271
B(  6-O ,  7-H ) :   0.8395 B(  6-O ,  8-H ) :   0.7221 B(  8-H , 24-O ) :   0.1271
B(  9-O , 10-H ) :   0.7988 B(  9-O , 11-H ) :   0.7971 B(  9-O , 32-H ) :   0.1271
B( 12-O , 13-H ) :   0.7934 B( 12-O , 14-H ) :   0.7552 B( 12-O , 20-H ) :   0.1062
B( 14-H , 21-O ) :   0.1062 B( 15-O , 16-H ) :   0.7552 B( 15-O , 17-H ) :   0.7934
B( 15-O , 23-H ) :   0.1062 B( 16-H , 18-O ) :   0.1062 B( 18-O , 19-H ) :   0.7934
B( 18-O , 20-H ) :   0.7552 B( 21-O , 22-H ) :   0.7934 B( 21-O , 23-H ) :   0.7552
B( 24-O , 25-H ) :   0.7988 B( 24-O , 26-H ) :   0.7971 B( 27-O , 28-H ) :   0.7988
B( 27-O , 29-H ) :   0.7971 B( 30-O , 31-H ) :   0.8395 B( 30-O , 32-H ) :   0.7221
B( 33-O , 34-H ) :   0.7988 B( 33-O , 35-H ) :   0.7971

MP2 TOTAL ENERGY:     -915.963620086 Eh
FINAL SINGLE POINT ENERGY      -915.963620086070

DIPOLE MOMENT
-------------
                                X             Y             Z
Electronic contribution:     -0.00000      -0.00000       0.00000
Nuclear contribution   :      0.00000      -0.00000       0.00000
                        -----------------------------------------
Total Dipole Moment    :     -0.00000      -0.00000       0.00000
                        -----------------------------------------
Magnitude (a.u.)       :      0.00000
Magnitude (Debye)      :      0.00000

Rotational constants in cm-1:     0.020155     0.010664     0.010664
Rotational constants in MHz :   604.231673   319.684828   319.684828

                             ****ORCA TERMINATED NORMALLY****
TOTAL RUN TIME: 0 days 0 hours 12 minutes 41 seconds 957 msec
