                         Program Version 4.2.0 -  RELEASE  -
|  1> # 12h2o.su.etal.mol0,1,2,3,4,5,6,9,10,11
|  2> ! MP2 def2-TZVP EnGrad TightSCF
|  3>
|  4> %pal
|  5>     nprocs 6
|  6> end
|  7>
|  8> %maxcore 8000
|  9>
| 10> %scf
| 11>     ConvForced true
| 12> end
| 13>
| 14> *xyz 0 1
| 15> O   1.794470000   0.923410000   2.768350000
| 16> H   2.338250000   1.359750000   3.430940000
| 17> H   0.879480000   1.303000000   2.865760000
| 18> O  -1.794470000  -0.923410000   2.768350000
| 19> H  -2.338250000  -1.359750000   3.430940000
| 20> H  -0.879480000  -1.303000000   2.865760000
| 21> O   0.923410000  -1.794470000  -2.768350000
| 22> H   1.359750000  -2.338250000  -3.430940000
| 23> H   1.303000000  -0.879480000  -2.865760000
| 24> O  -1.752130000  -0.741530000  -2.896280000
| 25> H  -2.036450000  -0.920500000  -1.984040000
| 26> H  -0.921210000  -1.242140000  -2.984230000
| 27> O  -0.885520000   1.737840000   0.052730000
| 28> H  -1.032320000   2.090180000  -0.841890000
| 29> H  -1.284090000   0.839590000   0.017130000
| 30> O   0.885520000  -1.737840000   0.052730000
| 31> H   1.284090000  -0.839590000   0.017130000
| 32> H   1.032320000  -2.090180000  -0.841890000
| 33> O   1.737840000   0.885520000  -0.052730000
| 34> H   2.090180000   1.032320000   0.841890000
| 35> H   0.839590000   1.284090000  -0.017130000
| 36> O   0.741530000  -1.752130000   2.896280000
| 37> H   0.920500000  -2.036450000   1.984040000
| 38> H   1.242140000  -0.921210000   2.984230000
| 39> O  -0.923410000   1.794470000  -2.768350000
| 40> H  -1.359750000   2.338250000  -3.430940000
| 41> H  -1.303000000   0.879480000  -2.865760000
| 42> O  -0.741530000   1.752130000   2.896280000
| 43> H  -0.920500000   2.036450000   1.984040000
| 44> H  -1.242140000   0.921210000   2.984230000
| 45> *
| 46>
| 47>                          ****END OF INPUT****

CARTESIAN COORDINATES (ANGSTROEM)
---------------------------------
  O      1.794470    0.923410    2.768350
  H      2.338250    1.359750    3.430940
  H      0.879480    1.303000    2.865760
  O     -1.794470   -0.923410    2.768350
  H     -2.338250   -1.359750    3.430940
  H     -0.879480   -1.303000    2.865760
  O      0.923410   -1.794470   -2.768350
  H      1.359750   -2.338250   -3.430940
  H      1.303000   -0.879480   -2.865760
  O     -1.752130   -0.741530   -2.896280
  H     -2.036450   -0.920500   -1.984040
  H     -0.921210   -1.242140   -2.984230
  O     -0.885520    1.737840    0.052730
  H     -1.032320    2.090180   -0.841890
  H     -1.284090    0.839590    0.017130
  O      0.885520   -1.737840    0.052730
  H      1.284090   -0.839590    0.017130
  H      1.032320   -2.090180   -0.841890
  O      1.737840    0.885520   -0.052730
  H      2.090180    1.032320    0.841890
  H      0.839590    1.284090   -0.017130
  O      0.741530   -1.752130    2.896280
  H      0.920500   -2.036450    1.984040
  H      1.242140   -0.921210    2.984230
  O     -0.923410    1.794470   -2.768350
  H     -1.359750    2.338250   -3.430940
  H     -1.303000    0.879480   -2.865760
  O     -0.741530    1.752130    2.896280
  H     -0.920500    2.036450    1.984040
  H     -1.242140    0.921210    2.984230

 Total Charge           Charge          ....    0
 Multiplicity           Mult            ....    1
 Number of Electrons    NEL             ....  100
 Basis Dimension        Dim             ....  430

ORBITAL ENERGIES
----------------

  NO   OCC          E(Eh)            E(eV)
   0   2.0000     -20.617854      -561.0403
   1   2.0000     -20.589289      -560.2630
   2   2.0000     -20.581474      -560.0504
   3   2.0000     -20.558699      -559.4306
   4   2.0000     -20.554503      -559.3165
   5   2.0000     -20.543742      -559.0236
   6   2.0000     -20.534158      -558.7628
   7   2.0000     -20.531168      -558.6815
   8   2.0000     -20.530891      -558.6739
   9   2.0000     -20.526113      -558.5439
  10   2.0000      -1.398931       -38.0669
  11   2.0000      -1.378441       -37.5093
  12   2.0000      -1.369914       -37.2772
  13   2.0000      -1.350470       -36.7482
  14   2.0000      -1.340048       -36.4646
  15   2.0000      -1.330836       -36.2139
  16   2.0000      -1.330001       -36.1912
  17   2.0000      -1.321616       -35.9630
  18   2.0000      -1.311202       -35.6796
  19   2.0000      -1.304348       -35.4931
  20   2.0000      -0.764573       -20.8051
  21   2.0000      -0.738748       -20.1023
  22   2.0000      -0.732289       -19.9266
  23   2.0000      -0.724589       -19.7171
  24   2.0000      -0.719550       -19.5799
  25   2.0000      -0.705316       -19.1926
  26   2.0000      -0.697190       -18.9715
  27   2.0000      -0.695235       -18.9183
  28   2.0000      -0.692853       -18.8535
  29   2.0000      -0.683570       -18.6009
  30   2.0000      -0.643358       -17.5067
  31   2.0000      -0.628087       -17.0911
  32   2.0000      -0.620472       -16.8839
  33   2.0000      -0.600769       -16.3478
  34   2.0000      -0.588597       -16.0166
  35   2.0000      -0.585902       -15.9432
  36   2.0000      -0.576323       -15.6825
  37   2.0000      -0.565832       -15.3971
  38   2.0000      -0.561253       -15.2725
  39   2.0000      -0.547042       -14.8858
  40   2.0000      -0.529907       -14.4195
  41   2.0000      -0.526494       -14.3266
  42   2.0000      -0.516298       -14.0492
  43   2.0000      -0.508714       -13.8428
  44   2.0000      -0.500192       -13.6109
  45   2.0000      -0.491257       -13.3678
  46   2.0000      -0.484793       -13.1919
  47   2.0000      -0.482244       -13.1225
  48   2.0000      -0.476073       -12.9546
  49   2.0000      -0.474386       -12.9087
  50   0.0000       0.090407         2.4601
  51   0.0000       0.119949         3.2640
  52   0.0000       0.142772         3.8850
  53   0.0000       0.150179         4.0866
  54   0.0000       0.165315         4.4984

MULLIKEN ATOMIC CHARGES
-----------------------
   0 O :   -0.757505
   1 H :    0.347266
   2 H :    0.383513
   3 O :   -0.750806
   4 H :    0.336844
   5 H :    0.385438
   6 O :   -0.724774
   7 H :    0.365872
   8 H :    0.386251
   9 O :   -0.700414
  10 H :    0.356232
  11 H :    0.380523
  12 O :   -0.734472
  13 H :    0.391604
  14 H :    0.352677
  15 O :   -0.753781
  16 H :    0.349993
  17 H :    0.359257
  18 O :   -0.736057
  19 H :    0.374630
  20 H :    0.366889
  21 O :   -0.728296
  22 H :    0.387030
  23 H :    0.364403
  24 O :   -0.742565
  25 H :    0.342629
  26 H :    0.370404
  27 O :   -0.726429
  28 H :    0.383405
  29 H :    0.370237
Sum of atomic charges:   -0.0000000

LOEWDIN ATOMIC CHARGES
----------------------
   0 O :   -0.316660
   1 H :    0.157401
   2 H :    0.146432
   3 O :   -0.345952
   4 H :    0.153545
   5 H :    0.146102
   6 O :   -0.288105
   7 H :    0.169032
   8 H :    0.197562
   9 O :   -0.277936
  10 H :    0.170639
  11 H :    0.155492
  12 O :   -0.284633
  13 H :    0.158092
  14 H :    0.173132
  15 O :   -0.352097
  16 H :    0.138459
  17 H :    0.143967
  18 O :   -0.320563
  19 H :    0.148402
  20 H :    0.140838
  21 O :   -0.291497
  22 H :    0.157088
  23 H :    0.147624
  24 O :   -0.341671
  25 H :    0.156705
  26 H :    0.142684
  27 O :   -0.288805
  28 H :    0.154252
  29 H :    0.150471

  Mayer bond orders larger than 0.100000
B(  0-O ,  1-H ) :   0.8422 B(  0-O ,  2-H ) :   0.7252 B(  2-H , 27-O ) :   0.1251
B(  3-O ,  4-H ) :   0.8506 B(  3-O ,  5-H ) :   0.7359 B(  5-H , 21-O ) :   0.1209
B(  6-O ,  7-H ) :   0.8309 B(  6-O ,  8-H ) :   0.8082 B(  9-O , 10-H ) :   0.8373
B(  9-O , 11-H ) :   0.7956 B(  9-O , 26-H ) :   0.1032 B( 12-O , 13-H ) :   0.7806
B( 12-O , 14-H ) :   0.8275 B( 15-O , 16-H ) :   0.7640 B( 15-O , 17-H ) :   0.8274
B( 16-H , 18-O ) :   0.1168 B( 18-O , 19-H ) :   0.8047 B( 18-O , 20-H ) :   0.7864
B( 21-O , 22-H ) :   0.7962 B( 21-O , 23-H ) :   0.8030 B( 24-O , 25-H ) :   0.8477
B( 24-O , 26-H ) :   0.7557 B( 27-O , 28-H ) :   0.8076 B( 27-O , 29-H ) :   0.7873

MP2 TOTAL ENERGY:     -763.260269649 Eh
FINAL SINGLE POINT ENERGY      -763.260269649243

DIPOLE MOMENT
-------------
                                X             Y             Z
Electronic contribution:     -0.03293      -0.05599      -0.34808
Nuclear contribution   :      0.00057      -0.11171      -1.46039
                        -----------------------------------------
Total Dipole Moment    :     -0.03236      -0.16770      -1.80847
                        -----------------------------------------
Magnitude (a.u.)       :      1.81652
Magnitude (Debye)      :      4.61721

Rotational constants in cm-1:     0.024452     0.013113     0.011790
Rotational constants in MHz :   733.049074   393.114501   353.457118

                             ****ORCA TERMINATED NORMALLY****
TOTAL RUN TIME: 0 days 0 hours 7 minutes 22 seconds 853 msec
