                         Program Version 4.2.0 -  RELEASE  -
|  1> # 12h2o.su.etal.mol1,2,5,7,8
|  2> ! MP2 def2-TZVP EnGrad TightSCF
|  3>
|  4> %pal
|  5>     nprocs 6
|  6> end
|  7>
|  8> %maxcore 8000
|  9>
| 10> %scf
| 11>     ConvForced true
| 12> end
| 13>
| 14> *xyz 0 1
| 15> O  -1.794470000  -0.923410000   2.768350000
| 16> H  -2.338250000  -1.359750000   3.430940000
| 17> H  -0.879480000  -1.303000000   2.865760000
| 18> O   0.923410000  -1.794470000  -2.768350000
| 19> H   1.359750000  -2.338250000  -3.430940000
| 20> H   1.303000000  -0.879480000  -2.865760000
| 21> O   0.885520000  -1.737840000   0.052730000
| 22> H   1.284090000  -0.839590000   0.017130000
| 23> H   1.032320000  -2.090180000  -0.841890000
| 24> O  -1.737840000  -0.885520000  -0.052730000
| 25> H  -2.090180000  -1.032320000   0.841890000
| 26> H  -0.839590000  -1.284090000  -0.017130000
| 27> O   1.752130000   0.741530000  -2.896280000
| 28> H   2.036450000   0.920500000  -1.984040000
| 29> H   0.921210000   1.242140000  -2.984230000
| 30> *
| 31>
| 32>                          ****END OF INPUT****

CARTESIAN COORDINATES (ANGSTROEM)
---------------------------------
  O     -1.794470   -0.923410    2.768350
  H     -2.338250   -1.359750    3.430940
  H     -0.879480   -1.303000    2.865760
  O      0.923410   -1.794470   -2.768350
  H      1.359750   -2.338250   -3.430940
  H      1.303000   -0.879480   -2.865760
  O      0.885520   -1.737840    0.052730
  H      1.284090   -0.839590    0.017130
  H      1.032320   -2.090180   -0.841890
  O     -1.737840   -0.885520   -0.052730
  H     -2.090180   -1.032320    0.841890
  H     -0.839590   -1.284090   -0.017130
  O      1.752130    0.741530   -2.896280
  H      2.036450    0.920500   -1.984040
  H      0.921210    1.242140   -2.984230

 Total Charge           Charge          ....    0
 Multiplicity           Mult            ....    1
 Number of Electrons    NEL             ....   50
 Basis Dimension        Dim             ....  215

ORBITAL ENERGIES
----------------

  NO   OCC          E(Eh)            E(eV)
   0   2.0000     -20.612136      -560.8847
   1   2.0000     -20.572554      -559.8076
   2   2.0000     -20.560894      -559.4904
   3   2.0000     -20.548872      -559.1632
   4   2.0000     -20.483633      -557.3880
   5   2.0000      -1.397573       -38.0299
   6   2.0000      -1.350538       -36.7500
   7   2.0000      -1.347092       -36.6563
   8   2.0000      -1.330237       -36.1976
   9   2.0000      -1.268234       -34.5104
  10   2.0000      -0.754733       -20.5373
  11   2.0000      -0.719709       -19.5843
  12   2.0000      -0.717354       -19.5202
  13   2.0000      -0.707259       -19.2455
  14   2.0000      -0.652701       -17.7609
  15   2.0000      -0.636147       -17.3104
  16   2.0000      -0.598490       -16.2858
  17   2.0000      -0.587195       -15.9784
  18   2.0000      -0.572956       -15.5909
  19   2.0000      -0.539662       -14.6850
  20   2.0000      -0.533490       -14.5170
  21   2.0000      -0.506399       -13.7798
  22   2.0000      -0.497864       -13.5476
  23   2.0000      -0.482618       -13.1327
  24   2.0000      -0.434898       -11.8342
  25   0.0000       0.086619         2.3570
  26   0.0000       0.125576         3.4171
  27   0.0000       0.154444         4.2026
  28   0.0000       0.159093         4.3291
  29   0.0000       0.193083         5.2540

MULLIKEN ATOMIC CHARGES
-----------------------
   0 O :   -0.691977
   1 H :    0.343966
   2 H :    0.355141
   3 O :   -0.728145
   4 H :    0.338046
   5 H :    0.367495
   6 O :   -0.694103
   7 H :    0.319610
   8 H :    0.383232
   9 O :   -0.740231
  10 H :    0.353864
  11 H :    0.343827
  12 O :   -0.676412
  13 H :    0.351292
  14 H :    0.374396
Sum of atomic charges:   -0.0000000

LOEWDIN ATOMIC CHARGES
----------------------
   0 O :   -0.311241
   1 H :    0.159365
   2 H :    0.184860
   3 O :   -0.334890
   4 H :    0.154774
   5 H :    0.143279
   6 O :   -0.301418
   7 H :    0.160913
   8 H :    0.154718
   9 O :   -0.375017
  10 H :    0.141664
  11 H :    0.135386
  12 O :   -0.266909
  13 H :    0.170570
  14 H :    0.183946

  Mayer bond orders larger than 0.100000
B(  0-O ,  1-H ) :   0.8461 B(  0-O ,  2-H ) :   0.8337 B(  3-O ,  4-H ) :   0.8501
B(  3-O ,  5-H ) :   0.7720 B(  6-O ,  7-H ) :   0.8562 B(  6-O ,  8-H ) :   0.7913
B(  9-O , 10-H ) :   0.8331 B(  9-O , 11-H ) :   0.8096 B( 12-O , 13-H ) :   0.8408
B( 12-O , 14-H ) :   0.8266

MP2 TOTAL ENERGY:     -381.592589537 Eh
FINAL SINGLE POINT ENERGY      -381.592589537492

DIPOLE MOMENT
-------------
                                X             Y             Z
Electronic contribution:      0.02667       0.17716      -0.26021
Nuclear contribution   :      1.44150       0.19594       0.68611
                        -----------------------------------------
Total Dipole Moment    :      1.46816       0.37310       0.42590
                        -----------------------------------------
Magnitude (a.u.)       :      1.57356
Magnitude (Debye)      :      3.99968

Rotational constants in cm-1:     0.134280     0.027720     0.026753
Rotational constants in MHz :  4025.610884   831.022235   802.029268

                             ****ORCA TERMINATED NORMALLY****
TOTAL RUN TIME: 0 days 0 hours 0 minutes 36 seconds 642 msec
