                         Program Version 4.2.0 -  RELEASE  -
|  1> # 12h2o.su.etal.mol0,10
|  2> ! MP2 def2-TZVP EnGrad TightSCF
|  3>
|  4> %pal
|  5>     nprocs 6
|  6> end
|  7>
|  8> %maxcore 8000
|  9>
| 10> %scf
| 11>     ConvForced true
| 12> end
| 13>
| 14> *xyz 0 1
| 15> O   1.794470000   0.923410000   2.768350000
| 16> H   2.338250000   1.359750000   3.430940000
| 17> H   0.879480000   1.303000000   2.865760000
| 18> O  -0.923410000   1.794470000  -2.768350000
| 19> H  -1.359750000   2.338250000  -3.430940000
| 20> H  -1.303000000   0.879480000  -2.865760000
| 21> *
| 22>
| 23>                          ****END OF INPUT****

CARTESIAN COORDINATES (ANGSTROEM)
---------------------------------
  O      1.794470    0.923410    2.768350
  H      2.338250    1.359750    3.430940
  H      0.879480    1.303000    2.865760
  O     -0.923410    1.794470   -2.768350
  H     -1.359750    2.338250   -3.430940
  H     -1.303000    0.879480   -2.865760

 Total Charge           Charge          ....    0
 Multiplicity           Mult            ....    1
 Number of Electrons    NEL             ....   20
 Basis Dimension        Dim             ....   86

ORBITAL ENERGIES
----------------

  NO   OCC          E(Eh)            E(eV)
   0   2.0000     -20.560832      -559.4887
   1   2.0000     -20.557832      -559.4071
   2   2.0000      -1.336165       -36.3589
   3   2.0000      -1.333170       -36.2774
   4   2.0000      -0.704567       -19.1722
   5   2.0000      -0.701584       -19.0911
   6   2.0000      -0.571879       -15.5616
   7   2.0000      -0.568961       -15.4822
   8   2.0000      -0.503958       -13.7134
   9   2.0000      -0.500931       -13.6310
  10   0.0000       0.126992         3.4556
  11   0.0000       0.130421         3.5489
  12   0.0000       0.196551         5.3484
  13   0.0000       0.199874         5.4388
  14   0.0000       0.522415        14.2156

MULLIKEN ATOMIC CHARGES
-----------------------
   0 O :   -0.680095
   1 H :    0.337281
   2 H :    0.342813
   3 O :   -0.680022
   4 H :    0.337547
   5 H :    0.342475
Sum of atomic charges:   -0.0000000

LOEWDIN ATOMIC CHARGES
----------------------
   0 O :   -0.338127
   1 H :    0.157129
   2 H :    0.180997
   3 O :   -0.338055
   4 H :    0.157233
   5 H :    0.180822

  Mayer bond orders larger than 0.100000
B(  0-O ,  1-H ) :   0.8540 B(  0-O ,  2-H ) :   0.8458 B(  3-O ,  4-H ) :   0.8538
B(  3-O ,  5-H ) :   0.8460

MP2 TOTAL ENERGY:     -152.623752184 Eh
FINAL SINGLE POINT ENERGY      -152.623752183717

DIPOLE MOMENT
-------------
                                X             Y             Z
Electronic contribution:      0.16297      -0.05036      -0.00365
Nuclear contribution   :     -0.98813       0.37017       0.00000
                        -----------------------------------------
Total Dipole Moment    :     -0.82516       0.31981      -0.00365
                        -----------------------------------------
Magnitude (a.u.)       :      0.88497
Magnitude (Debye)      :      2.24942

Rotational constants in cm-1:     7.350234     0.046758     0.046681
Rotational constants in MHz : 220354.479509  1401.770237  1399.464242

                             ****ORCA TERMINATED NORMALLY****
TOTAL RUN TIME: 0 days 0 hours 0 minutes 7 seconds 165 msec
