                         Program Version 4.2.0 -  RELEASE  -
|  1> # 12mecn.remya.etal.2.mol2,7,9
|  2> ! MP2 def2-TZVP EnGrad TightSCF
|  3>
|  4> %pal
|  5>     nprocs 6
|  6> end
|  7>
|  8> %maxcore 8000
|  9>
| 10> %scf
| 11>     ConvForced true
| 12> end
| 13>
| 14> *xyz 0 1
| 15> C  -4.219070000  -3.477410000  -1.501740000
| 16> H  -3.251530000  -3.803540000  -1.893830000
| 17> H  -4.452920000  -2.481700000  -1.890840000
| 18> H  -4.992170000  -4.178130000  -1.824640000
| 19> C  -4.154550000  -3.418790000  -0.058340000
| 20> N  -4.091140000  -3.354840000   1.104432000
| 21> C   1.502241000   0.651296000   1.710523000
| 22> H   1.309219000   1.637164000   2.143202000
| 23> H   2.493408000   0.297996000   2.009069000
| 24> H   0.746597000  -0.059850000   2.055508000
| 25> C   1.447974000   0.738517000   0.269805000
| 26> N   1.405612000   0.808047000  -0.894380000
| 27> C   0.923766000   4.000693000  -1.575910000
| 28> H   0.011949000   4.478423000  -1.939550000
| 29> H   0.947903000   2.966558000  -1.929960000
| 30> H   1.805950000   4.519548000  -1.956520000
| 31> C   0.942834000   3.994846000  -0.131200000
| 32> N   0.960035000   3.982544000   1.035639000
| 33> *
| 34>
| 35>                          ****END OF INPUT****

CARTESIAN COORDINATES (ANGSTROEM)
---------------------------------
  C     -4.219070   -3.477410   -1.501740
  H     -3.251530   -3.803540   -1.893830
  H     -4.452920   -2.481700   -1.890840
  H     -4.992170   -4.178130   -1.824640
  C     -4.154550   -3.418790   -0.058340
  N     -4.091140   -3.354840    1.104432
  C      1.502241    0.651296    1.710523
  H      1.309219    1.637164    2.143202
  H      2.493408    0.297996    2.009069
  H      0.746597   -0.059850    2.055508
  C      1.447974    0.738517    0.269805
  N      1.405612    0.808047   -0.894380
  C      0.923766    4.000693   -1.575910
  H      0.011949    4.478423   -1.939550
  H      0.947903    2.966558   -1.929960
  H      1.805950    4.519548   -1.956520
  C      0.942834    3.994846   -0.131200
  N      0.960035    3.982544    1.035639

 Total Charge           Charge          ....    0
 Multiplicity           Mult            ....    1
 Number of Electrons    NEL             ....   66
 Basis Dimension        Dim             ....  333

ORBITAL ENERGIES
----------------

  NO   OCC          E(Eh)            E(eV)
   0   2.0000     -15.573414      -423.7741
   1   2.0000     -15.570678      -423.6997
   2   2.0000     -15.568948      -423.6526
   3   2.0000     -11.284861      -307.0767
   4   2.0000     -11.283336      -307.0352
   5   2.0000     -11.280625      -306.9614
   6   2.0000     -11.280589      -306.9604
   7   2.0000     -11.271616      -306.7163
   8   2.0000     -11.269547      -306.6600
   9   2.0000      -1.217091       -33.1187
  10   2.0000      -1.215205       -33.0674
  11   2.0000      -1.212093       -32.9827
  12   2.0000      -1.043547       -28.3963
  13   2.0000      -1.035910       -28.1885
  14   2.0000      -1.032784       -28.1035
  15   2.0000      -0.700449       -19.0602
  16   2.0000      -0.693298       -18.8656
  17   2.0000      -0.689350       -18.7582
  18   2.0000      -0.631584       -17.1863
  19   2.0000      -0.630912       -17.1680
  20   2.0000      -0.629055       -17.1175
  21   2.0000      -0.623345       -16.9621
  22   2.0000      -0.621356       -16.9080
  23   2.0000      -0.613505       -16.6943
  24   2.0000      -0.558054       -15.1854
  25   2.0000      -0.556513       -15.1435
  26   2.0000      -0.554575       -15.0908
  27   2.0000      -0.459875       -12.5138
  28   2.0000      -0.458919       -12.4878
  29   2.0000      -0.458333       -12.4719
  30   2.0000      -0.458136       -12.4665
  31   2.0000      -0.455113       -12.3842
  32   2.0000      -0.452695       -12.3185
  33   0.0000       0.119182         3.2431
  34   0.0000       0.129954         3.5362
  35   0.0000       0.143247         3.8979
  36   0.0000       0.171172         4.6578
  37   0.0000       0.171915         4.6781

MULLIKEN ATOMIC CHARGES
-----------------------
   0 C :   -0.279540
   1 H :    0.173461
   2 H :    0.172726
   3 H :    0.171812
   4 C :   -0.145564
   5 N :   -0.092885
   6 C :   -0.285917
   7 H :    0.205192
   8 H :    0.166001
   9 H :    0.172184
  10 C :   -0.095825
  11 N :   -0.159129
  12 C :   -0.284651
  13 H :    0.165050
  14 H :    0.205366
  15 H :    0.165317
  16 C :   -0.107773
  17 N :   -0.145823
Sum of atomic charges:    0.0000000

LOEWDIN ATOMIC CHARGES
----------------------
   0 C :   -0.283554
   1 H :    0.153265
   2 H :    0.153423
   3 H :    0.150994
   4 C :   -0.218972
   5 N :    0.044847
   6 C :   -0.280084
   7 H :    0.157531
   8 H :    0.152657
   9 H :    0.153826
  10 C :   -0.206102
  11 N :    0.026735
  12 C :   -0.283458
  13 H :    0.149773
  14 H :    0.156850
  15 H :    0.151467
  16 C :   -0.209159
  17 N :    0.029961

  Mayer bond orders larger than 0.100000
B(  0-C ,  1-H ) :   0.9158 B(  0-C ,  2-H ) :   0.9161 B(  0-C ,  3-H ) :   0.9166
B(  0-C ,  4-C ) :   0.9027 B(  4-C ,  5-N ) :   2.8383 B(  6-C ,  7-H ) :   0.9025
B(  6-C ,  8-H ) :   0.9150 B(  6-C ,  9-H ) :   0.9143 B(  6-C , 10-C ) :   0.9004
B( 10-C , 11-N ) :   2.7674 B( 12-C , 13-H ) :   0.9162 B( 12-C , 14-H ) :   0.9011
B( 12-C , 15-H ) :   0.9148 B( 12-C , 16-C ) :   0.9029 B( 16-C , 17-N ) :   2.7816

MP2 TOTAL ENERGY:     -397.459829231 Eh
FINAL SINGLE POINT ENERGY      -397.459829231311

DIPOLE MOMENT
-------------
                                X             Y             Z
Electronic contribution:      0.05231       0.30233       3.16195
Nuclear contribution   :     -0.09092      -0.49333      -4.67238
                        -----------------------------------------
Total Dipole Moment    :     -0.03861      -0.19100      -1.51043
                        -----------------------------------------
Magnitude (a.u.)       :      1.52294
Magnitude (Debye)      :      3.87101

Rotational constants in cm-1:     0.054947     0.008857     0.008432
Rotational constants in MHz :  1647.262357   265.534487   252.796901

                             ****ORCA TERMINATED NORMALLY****
TOTAL RUN TIME: 0 days 0 hours 2 minutes 41 seconds 724 msec
