                         Program Version 4.2.0 -  RELEASE  -
|  1> # 12meoh.boyd.etal.mol0,2,9
|  2> ! MP2 def2-TZVP EnGrad TightSCF
|  3>
|  4> %pal
|  5>     nprocs 6
|  6> end
|  7>
|  8> %maxcore 8000
|  9>
| 10> %scf
| 11>     ConvForced true
| 12> end
| 13>
| 14> *xyz 0 1
| 15> O  -1.776108874  -2.741384797  -1.019308298
| 16> H  -2.520094035  -2.452295987  -0.420778302
| 17> C  -2.174025166  -3.952700964  -1.647004581
| 18> H  -1.359803895  -4.272673416  -2.304149236
| 19> H  -3.075973971  -3.808692420  -2.256751112
| 20> H  -2.370225393  -4.752784761  -0.918966137
| 21> O  -3.839777402   2.233595098   0.660436763
| 22> H  -2.958345897   1.907036203   0.973588449
| 23> C  -3.600368059   3.168790682  -0.390480452
| 24> H  -4.551709193   3.344148967  -0.901254863
| 25> H  -2.868237594   2.789240199  -1.113617525
| 26> H  -3.243594915   4.128998607   0.009549480
| 27> O   1.390610024   3.194080770  -1.536658882
| 28> H   2.162932299   2.881562730  -0.993525056
| 29> C   1.202977189   4.580367182  -1.302880219
| 30> H   0.374773115   4.915764831  -1.934164643
| 31> H   2.098649340   5.157710875  -1.570472348
| 32> H   0.950320401   4.800436015  -0.254328827
| 33> *
| 34>
| 35>                          ****END OF INPUT****

CARTESIAN COORDINATES (ANGSTROEM)
---------------------------------
  O     -1.776109   -2.741385   -1.019308
  H     -2.520094   -2.452296   -0.420778
  C     -2.174025   -3.952701   -1.647005
  H     -1.359804   -4.272673   -2.304149
  H     -3.075974   -3.808692   -2.256751
  H     -2.370225   -4.752785   -0.918966
  O     -3.839777    2.233595    0.660437
  H     -2.958346    1.907036    0.973588
  C     -3.600368    3.168791   -0.390480
  H     -4.551709    3.344149   -0.901255
  H     -2.868238    2.789240   -1.113618
  H     -3.243595    4.128999    0.009549
  O      1.390610    3.194081   -1.536659
  H      2.162932    2.881563   -0.993525
  C      1.202977    4.580367   -1.302880
  H      0.374773    4.915765   -1.934165
  H      2.098649    5.157711   -1.570472
  H      0.950320    4.800436   -0.254329

 Total Charge           Charge          ....    0
 Multiplicity           Mult            ....    1
 Number of Electrons    NEL             ....   54
 Basis Dimension        Dim             ....  258

ORBITAL ENERGIES
----------------

  NO   OCC          E(Eh)            E(eV)
   0   2.0000     -20.560049      -559.4674
   1   2.0000     -20.555446      -559.3421
   2   2.0000     -20.553506      -559.2893
   3   2.0000     -11.274355      -306.7908
   4   2.0000     -11.269097      -306.6477
   5   2.0000     -11.267385      -306.6011
   6   2.0000      -1.350749       -36.7557
   7   2.0000      -1.344584       -36.5880
   8   2.0000      -1.342908       -36.5424
   9   2.0000      -0.922283       -25.0966
  10   2.0000      -0.916650       -24.9433
  11   2.0000      -0.915499       -24.9120
  12   2.0000      -0.685435       -18.6516
  13   2.0000      -0.679044       -18.4777
  14   2.0000      -0.677749       -18.4425
  15   2.0000      -0.619883       -16.8679
  16   2.0000      -0.614787       -16.7292
  17   2.0000      -0.612677       -16.6718
  18   2.0000      -0.594976       -16.1901
  19   2.0000      -0.588791       -16.0218
  20   2.0000      -0.586336       -15.9550
  21   2.0000      -0.501959       -13.6590
  22   2.0000      -0.497822       -13.5464
  23   2.0000      -0.497690       -13.5428
  24   2.0000      -0.451238       -12.2788
  25   2.0000      -0.446449       -12.1485
  26   2.0000      -0.445552       -12.1241
  27   0.0000       0.119545         3.2530
  28   0.0000       0.133021         3.6197
  29   0.0000       0.149934         4.0799
  30   0.0000       0.162832         4.4309
  31   0.0000       0.180055         4.8995

MULLIKEN ATOMIC CHARGES
-----------------------
   0 O :   -0.496956
   1 H :    0.322811
   2 C :   -0.172840
   3 H :    0.128549
   4 H :    0.110211
   5 H :    0.108147
   6 O :   -0.501408
   7 H :    0.322759
   8 C :   -0.178118
   9 H :    0.126554
  10 H :    0.124635
  11 H :    0.105356
  12 O :   -0.497211
  13 H :    0.323324
  14 C :   -0.173604
  15 H :    0.128897
  16 H :    0.111793
  17 H :    0.107102
Sum of atomic charges:   -0.0000000

LOEWDIN ATOMIC CHARGES
----------------------
   0 O :   -0.109260
   1 H :    0.192946
   2 C :   -0.384290
   3 H :    0.110166
   4 H :    0.095491
   5 H :    0.094895
   6 O :   -0.113103
   7 H :    0.188542
   8 C :   -0.378508
   9 H :    0.108844
  10 H :    0.099510
  11 H :    0.094688
  12 O :   -0.105322
  13 H :    0.191414
  14 C :   -0.386869
  15 H :    0.110137
  16 H :    0.096057
  17 H :    0.094660

  Mayer bond orders larger than 0.100000
B(  0-O ,  1-H ) :   0.8410 B(  0-O ,  2-C ) :   0.9273 B(  2-C ,  3-H ) :   0.9375
B(  2-C ,  4-H ) :   0.9398 B(  2-C ,  5-H ) :   0.9381 B(  6-O ,  7-H ) :   0.8434
B(  6-O ,  8-C ) :   0.9242 B(  8-C ,  9-H ) :   0.9375 B(  8-C , 10-H ) :   0.9406
B(  8-C , 11-H ) :   0.9379 B( 12-O , 13-H ) :   0.8408 B( 12-O , 14-C ) :   0.9258
B( 14-C , 15-H ) :   0.9376 B( 14-C , 16-H ) :   0.9402 B( 14-C , 17-H ) :   0.9373

MP2 TOTAL ENERGY:     -346.520722162 Eh
FINAL SINGLE POINT ENERGY      -346.520722161593

DIPOLE MOMENT
-------------
                                X             Y             Z
Electronic contribution:      0.34534      -1.39820       1.59404
Nuclear contribution   :      0.11163       1.62332      -1.32237
                        -----------------------------------------
Total Dipole Moment    :      0.45697       0.22512       0.27167
                        -----------------------------------------
Magnitude (a.u.)       :      0.57733
Magnitude (Debye)      :      1.46746

Rotational constants in cm-1:     0.039859     0.015533     0.011450
Rotational constants in MHz :  1194.949751   465.665167   343.266855

                             ****ORCA TERMINATED NORMALLY****
TOTAL RUN TIME: 0 days 0 hours 1 minutes 4 seconds 878 msec
