                         Program Version 4.2.0 -  RELEASE  -
|  1> ! MP2 def2-TZVP EnGrad TightSCF FrozenCore
|  2>
|  3> %pal
|  4>     nprocs 12
|  5> end
|  6>
|  7> %maxcore 8000
|  8>
|  9> %scf
| 10>     ConvForced true
| 11> end
| 12>
| 13> *xyz 0 1
| 14> C     0.000022     0.528849    -1.837895
| 15> H    -0.000058    -0.552674    -2.009043
| 16> H     0.895150     0.974208    -2.282829
| 17> H    -0.895018     0.974349    -2.282864
| 18> C     0.000013     0.785230    -0.400807
| 19> N     0.000005     0.995125     0.743020
| 20> C     3.087950    -1.542969    -1.472693
| 21> H     2.178855    -2.100343    -1.717705
| 22> H     3.962796    -2.137927    -1.747595
| 23> H     3.108093    -0.597493    -2.023920
| 24> C     3.106700    -1.260416    -0.040234
| 25> N     3.123218    -1.029384     1.098799
| 26> C    -0.000020    -1.987824     2.156987
| 27> H     0.893716    -1.394902     2.371063
| 28> H    -0.000064    -2.893110     2.769506
| 29> H    -0.893719    -1.394836     2.371034
| 30> C    -0.000014    -2.345207     0.742413
| 31> N    -0.000011    -2.620969    -0.387714
| 32> C    -3.087973    -1.542955    -1.472677
| 33> H    -2.178880    -2.100352    -1.717643
| 34> H    -3.108082    -0.597493    -2.023930
| 35> H    -3.962821    -2.137905    -1.747588
| 36> C    -3.106753    -1.260370    -0.040223
| 37> N    -3.123291    -1.029323     1.098806
| 38> C    -3.162566     2.229396     1.317718
| 39> H    -3.992877     1.659748     1.741979
| 40> H    -3.274296     3.288797     1.562062
| 41> H    -2.227480     1.847300     1.737680
| 42> C    -3.134214     2.049415    -0.130963
| 43> N    -3.104336     1.897675    -1.283087
| 44> C     3.162606     2.229353     1.317749
| 45> H     3.992875     1.659646     1.742012
| 46> H     2.227491     1.847304     1.737687
| 47> H     3.274396     3.288743     1.562114
| 48> C     3.134266     2.049395    -0.130936
| 49> N     3.104391     1.897668    -1.283061
| 50> *
| 51>
| 52>                          ****END OF INPUT****

CARTESIAN COORDINATES (ANGSTROEM)
---------------------------------
  C      0.000022    0.528849   -1.837895
  H     -0.000058   -0.552674   -2.009043
  H      0.895150    0.974208   -2.282829
  H     -0.895018    0.974349   -2.282864
  C      0.000013    0.785230   -0.400807
  N      0.000005    0.995125    0.743020
  C      3.087950   -1.542969   -1.472693
  H      2.178855   -2.100343   -1.717705
  H      3.962796   -2.137927   -1.747595
  H      3.108093   -0.597493   -2.023920
  C      3.106700   -1.260416   -0.040234
  N      3.123218   -1.029384    1.098799
  C     -0.000020   -1.987824    2.156987
  H      0.893716   -1.394902    2.371063
  H     -0.000064   -2.893110    2.769506
  H     -0.893719   -1.394836    2.371034
  C     -0.000014   -2.345207    0.742413
  N     -0.000011   -2.620969   -0.387714
  C     -3.087973   -1.542955   -1.472677
  H     -2.178880   -2.100352   -1.717643
  H     -3.108082   -0.597493   -2.023930
  H     -3.962821   -2.137905   -1.747588
  C     -3.106753   -1.260370   -0.040223
  N     -3.123291   -1.029323    1.098806
  C     -3.162566    2.229396    1.317718
  H     -3.992877    1.659748    1.741979
  H     -3.274296    3.288797    1.562062
  H     -2.227480    1.847300    1.737680
  C     -3.134214    2.049415   -0.130963
  N     -3.104336    1.897675   -1.283087
  C      3.162606    2.229353    1.317749
  H      3.992875    1.659646    1.742012
  H      2.227491    1.847304    1.737687
  H      3.274396    3.288743    1.562114
  C      3.134266    2.049395   -0.130936
  N      3.104391    1.897668   -1.283061

 Total Charge           Charge          ....    0
 Multiplicity           Mult            ....    1
 Number of Electrons    NEL             ....  132
 Basis Dimension        Dim             ....  666

ORBITAL ENERGIES
----------------

  NO   OCC          E(Eh)            E(eV)
   0   2.0000     -15.567167      -423.6042
   1   2.0000     -15.567167      -423.6041
   2   2.0000     -15.566540      -423.5871
   3   2.0000     -15.566540      -423.5871
   4   2.0000     -15.565324      -423.5540
   5   2.0000     -15.565245      -423.5518
   6   2.0000     -11.283757      -307.0466
   7   2.0000     -11.281700      -306.9907
   8   2.0000     -11.281700      -306.9907
   9   2.0000     -11.281439      -306.9836
  10   2.0000     -11.281057      -306.9732
  11   2.0000     -11.281057      -306.9732
  12   2.0000     -11.268789      -306.6393
  13   2.0000     -11.268788      -306.6393
  14   2.0000     -11.265610      -306.5528
  15   2.0000     -11.265609      -306.5528
  16   2.0000     -11.263166      -306.4863
  17   2.0000     -11.257468      -306.3313
  18   2.0000      -1.221149       -33.2292
  19   2.0000      -1.218225       -33.1496
  20   2.0000      -1.216658       -33.1069
  21   2.0000      -1.214950       -33.0605
  22   2.0000      -1.214243       -33.0412
  23   2.0000      -1.212395       -32.9909
  24   2.0000      -1.030437       -28.0396
  25   2.0000      -1.028548       -27.9882
  26   2.0000      -1.024784       -27.8858
  27   2.0000      -1.024609       -27.8810
  28   2.0000      -1.022978       -27.8367
  29   2.0000      -1.019405       -27.7394
  30   2.0000      -0.690756       -18.7964
  31   2.0000      -0.688203       -18.7270
  32   2.0000      -0.684383       -18.6230
  33   2.0000      -0.683708       -18.6046
  34   2.0000      -0.681463       -18.5436
  35   2.0000      -0.678430       -18.4610
  36   2.0000      -0.632295       -17.2056
  37   2.0000      -0.629515       -17.1300
  38   2.0000      -0.625189       -17.0123
  39   2.0000      -0.624214       -16.9857
  40   2.0000      -0.615999       -16.7622
  41   2.0000      -0.614982       -16.7345
  42   2.0000      -0.611681       -16.6447
  43   2.0000      -0.611506       -16.6399
  44   2.0000      -0.609038       -16.5728
  45   2.0000      -0.603517       -16.4225
  46   2.0000      -0.602643       -16.3987
  47   2.0000      -0.601402       -16.3650
  48   2.0000      -0.561176       -15.2704
  49   2.0000      -0.556392       -15.1402
  50   2.0000      -0.556228       -15.1357
  51   2.0000      -0.554734       -15.0951
  52   2.0000      -0.553444       -15.0600
  53   2.0000      -0.553213       -15.0537
  54   2.0000      -0.467901       -12.7322
  55   2.0000      -0.467453       -12.7200
  56   2.0000      -0.462490       -12.5850
  57   2.0000      -0.461852       -12.5676
  58   2.0000      -0.458595       -12.4790
  59   2.0000      -0.458579       -12.4786
  60   2.0000      -0.457520       -12.4498
  61   2.0000      -0.455999       -12.4084
  62   2.0000      -0.453585       -12.3427
  63   2.0000      -0.452221       -12.3056
  64   2.0000      -0.450931       -12.2705
  65   2.0000      -0.449128       -12.2214
  66   0.0000       0.129499         3.5239
  67   0.0000       0.143469         3.9040
  68   0.0000       0.148361         4.0371
  69   0.0000       0.155414         4.2290
  70   0.0000       0.156255         4.2519

MULLIKEN ATOMIC CHARGES
-----------------------
   0 C :   -0.325855
   1 H :    0.175770
   2 H :    0.205287
   3 H :    0.205292
   4 C :   -0.033223
   5 N :   -0.226039
   6 C :   -0.298783
   7 H :    0.189892
   8 H :    0.173813
   9 H :    0.191708
  10 C :   -0.092350
  11 N :   -0.163670
  12 C :   -0.275828
  13 H :    0.194902
  14 H :    0.164953
  15 H :    0.194902
  16 C :   -0.062172
  17 N :   -0.217198
  18 C :   -0.298790
  19 H :    0.189893
  20 H :    0.191711
  21 H :    0.173813
  22 C :   -0.092352
  23 N :   -0.163667
  24 C :   -0.271775
  25 H :    0.176374
  26 H :    0.167855
  27 H :    0.193816
  28 C :   -0.095121
  29 N :   -0.172153
  30 C :   -0.271776
  31 H :    0.176375
  32 H :    0.193816
  33 H :    0.167855
  34 C :   -0.095122
  35 N :   -0.172152
Sum of atomic charges:   -0.0000000

LOEWDIN ATOMIC CHARGES
----------------------
   0 C :   -0.285222
   1 H :    0.148430
   2 H :    0.153451
   3 H :    0.153453
   4 C :   -0.197367
   5 N :    0.032742
   6 C :   -0.283464
   7 H :    0.151664
   8 H :    0.149925
   9 H :    0.152840
  10 C :   -0.201927
  11 N :    0.035513
  12 C :   -0.281368
  13 H :    0.154976
  14 H :    0.148605
  15 H :    0.154977
  16 C :   -0.194256
  17 N :    0.012117
  18 C :   -0.283464
  19 H :    0.151664
  20 H :    0.152840
  21 H :    0.149925
  22 C :   -0.201928
  23 N :    0.035512
  24 C :   -0.283365
  25 H :    0.153388
  26 H :    0.147310
  27 H :    0.155903
  28 C :   -0.200666
  29 N :    0.022610
  30 C :   -0.283364
  31 H :    0.153389
  32 H :    0.155903
  33 H :    0.147310
  34 C :   -0.200666
  35 N :    0.022609

  Mayer bond orders larger than 0.100000
B(  0-C ,  1-H ) :   0.9150 B(  0-C ,  2-H ) :   0.9016 B(  0-C ,  3-H ) :   0.9016
B(  0-C ,  4-C ) :   0.8779 B(  4-C ,  5-N ) :   2.6318 B(  6-C ,  7-H ) :   0.9113
B(  6-C ,  8-H ) :   0.9084 B(  6-C ,  9-H ) :   0.9083 B(  6-C , 10-C ) :   0.8938
B( 10-C , 11-N ) :   2.7385 B( 12-C , 13-H ) :   0.9053 B( 12-C , 14-H ) :   0.9076
B( 12-C , 15-H ) :   0.9053 B( 12-C , 16-C ) :   0.9059 B( 16-C , 17-N ) :   2.6838
B( 18-C , 19-H ) :   0.9113 B( 18-C , 20-H ) :   0.9083 B( 18-C , 21-H ) :   0.9084
B( 18-C , 22-C ) :   0.8938 B( 22-C , 23-N ) :   2.7386 B( 24-C , 25-H ) :   0.9132
B( 24-C , 26-H ) :   0.9105 B( 24-C , 27-H ) :   0.9054 B( 24-C , 28-C ) :   0.9067
B( 28-C , 29-N ) :   2.7388 B( 30-C , 31-H ) :   0.9132 B( 30-C , 32-H ) :   0.9054
B( 30-C , 33-H ) :   0.9105 B( 30-C , 34-C ) :   0.9067 B( 34-C , 35-N ) :   2.7388

MP2 TOTAL ENERGY:     -794.958629247 Eh
FINAL SINGLE POINT ENERGY      -794.958629246901

DIPOLE MOMENT
-------------
                                X             Y             Z
Electronic contribution:     -0.00004       0.28589       0.15606
Nuclear contribution   :      0.00008      -0.36865       0.04221
                        -----------------------------------------
Total Dipole Moment    :      0.00003      -0.08276       0.19827
                        -----------------------------------------
Magnitude (a.u.)       :      0.21485
Magnitude (Debye)      :      0.54610

Rotational constants in cm-1:     0.015209     0.008570     0.007151
Rotational constants in MHz :   455.954075   256.918187   214.370811

                             ****ORCA TERMINATED NORMALLY****
TOTAL RUN TIME: 0 days 0 hours 33 minutes 3 seconds 905 msec
