                         Program Version 4.2.0 -  RELEASE  -
|  1> # 12meoh.boyd.etal.mol3,6,9
|  2> ! MP2 def2-TZVP EnGrad TightSCF
|  3>
|  4> %pal
|  5>     nprocs 6
|  6> end
|  7>
|  8> %maxcore 8000
|  9>
| 10> %scf
| 11>     ConvForced true
| 12> end
| 13>
| 14> *xyz 0 1
| 15> O  -3.821405976  -2.118091637   0.596795346
| 16> H  -4.342989117  -1.344303030   0.251966383
| 17> C  -3.443883586  -1.809641231   1.934889393
| 18> H  -2.831494349  -2.637429600   2.305201764
| 19> H  -4.325601146  -1.719364371   2.585074667
| 20> H  -2.858527126  -0.882644791   1.996110694
| 21> O   2.622209273  -1.703002590  -1.445859723
| 22> H   1.828551432  -1.986513781  -0.909754968
| 23> C   2.781117675  -2.615822239  -2.525472890
| 24> H   3.691063626  -2.339003544  -3.065143454
| 25> H   1.934727323  -2.559520367  -3.223226661
| 26> H   2.879948338  -3.653846211  -2.177750170
| 27> O   1.390610024   3.194080770  -1.536658882
| 28> H   2.162932299   2.881562730  -0.993525056
| 29> C   1.202977189   4.580367182  -1.302880219
| 30> H   0.374773115   4.915764831  -1.934164643
| 31> H   2.098649340   5.157710875  -1.570472348
| 32> H   0.950320401   4.800436015  -0.254328827
| 33> *
| 34>
| 35>                          ****END OF INPUT****

CARTESIAN COORDINATES (ANGSTROEM)
---------------------------------
  O     -3.821406   -2.118092    0.596795
  H     -4.342989   -1.344303    0.251966
  C     -3.443884   -1.809641    1.934889
  H     -2.831494   -2.637430    2.305202
  H     -4.325601   -1.719364    2.585075
  H     -2.858527   -0.882645    1.996111
  O      2.622209   -1.703003   -1.445860
  H      1.828551   -1.986514   -0.909755
  C      2.781118   -2.615822   -2.525473
  H      3.691064   -2.339004   -3.065143
  H      1.934727   -2.559520   -3.223227
  H      2.879948   -3.653846   -2.177750
  O      1.390610    3.194081   -1.536659
  H      2.162932    2.881563   -0.993525
  C      1.202977    4.580367   -1.302880
  H      0.374773    4.915765   -1.934165
  H      2.098649    5.157711   -1.570472
  H      0.950320    4.800436   -0.254329

 Total Charge           Charge          ....    0
 Multiplicity           Mult            ....    1
 Number of Electrons    NEL             ....   54
 Basis Dimension        Dim             ....  258

ORBITAL ENERGIES
----------------

  NO   OCC          E(Eh)            E(eV)
   0   2.0000     -20.558535      -559.4262
   1   2.0000     -20.553505      -559.2893
   2   2.0000     -20.552794      -559.2700
   3   2.0000     -11.272617      -306.7435
   4   2.0000     -11.268471      -306.6307
   5   2.0000     -11.267282      -306.5983
   6   2.0000      -1.347635       -36.6710
   7   2.0000      -1.343599       -36.5612
   8   2.0000      -1.341596       -36.5067
   9   2.0000      -0.920123       -25.0378
  10   2.0000      -0.916113       -24.9287
  11   2.0000      -0.914999       -24.8984
  12   2.0000      -0.682067       -18.5600
  13   2.0000      -0.678643       -18.4668
  14   2.0000      -0.676581       -18.4107
  15   2.0000      -0.618436       -16.8285
  16   2.0000      -0.613544       -16.6954
  17   2.0000      -0.612532       -16.6678
  18   2.0000      -0.591076       -16.0840
  19   2.0000      -0.588345       -16.0097
  20   2.0000      -0.587022       -15.9737
  21   2.0000      -0.501726       -13.6527
  22   2.0000      -0.495669       -13.4878
  23   2.0000      -0.495454       -13.4820
  24   2.0000      -0.450369       -12.2552
  25   2.0000      -0.444591       -12.0979
  26   2.0000      -0.444476       -12.0948
  27   0.0000       0.132508         3.6057
  28   0.0000       0.136568         3.7162
  29   0.0000       0.144422         3.9299
  30   0.0000       0.174892         4.7590
  31   0.0000       0.176374         4.7994

MULLIKEN ATOMIC CHARGES
-----------------------
   0 O :   -0.496057
   1 H :    0.322430
   2 C :   -0.175945
   3 H :    0.127489
   4 H :    0.110079
   5 H :    0.112007
   6 O :   -0.501033
   7 H :    0.323880
   8 C :   -0.170662
   9 H :    0.127258
  10 H :    0.112450
  11 H :    0.108313
  12 O :   -0.495772
  13 H :    0.325517
  14 C :   -0.171406
  15 H :    0.127100
  16 H :    0.108510
  17 H :    0.105842
Sum of atomic charges:   -0.0000000

LOEWDIN ATOMIC CHARGES
----------------------
   0 O :   -0.110218
   1 H :    0.191319
   2 C :   -0.382377
   3 H :    0.109791
   4 H :    0.095741
   5 H :    0.095743
   6 O :   -0.112364
   7 H :    0.193548
   8 C :   -0.382077
   9 H :    0.109667
  10 H :    0.096294
  11 H :    0.095068
  12 O :   -0.104505
  13 H :    0.192463
  14 C :   -0.387075
  15 H :    0.109712
  16 H :    0.095003
  17 H :    0.094267

  Mayer bond orders larger than 0.100000
B(  0-O ,  1-H ) :   0.8422 B(  0-O ,  2-C ) :   0.9266 B(  2-C ,  3-H ) :   0.9377
B(  2-C ,  4-H ) :   0.9393 B(  2-C ,  5-H ) :   0.9383 B(  6-O ,  7-H ) :   0.8401
B(  6-O ,  8-C ) :   0.9257 B(  8-C ,  9-H ) :   0.9376 B(  8-C , 10-H ) :   0.9393
B(  8-C , 11-H ) :   0.9390 B( 12-O , 13-H ) :   0.8393 B( 12-O , 14-C ) :   0.9317
B( 14-C , 15-H ) :   0.9378 B( 14-C , 16-H ) :   0.9401 B( 14-C , 17-H ) :   0.9372

MP2 TOTAL ENERGY:     -346.520291242 Eh
FINAL SINGLE POINT ENERGY      -346.520291241808

DIPOLE MOMENT
-------------
                                X             Y             Z
Electronic contribution:     -0.35113      -1.06234      -0.75688
Nuclear contribution   :      0.16043       1.47020       1.39729
                        -----------------------------------------
Total Dipole Moment    :     -0.19070       0.40785       0.64041
                        -----------------------------------------
Magnitude (a.u.)       :      0.78284
Magnitude (Debye)      :      1.98982

Rotational constants in cm-1:     0.026564     0.015148     0.009974
Rotational constants in MHz :   796.380561   454.138912   299.011143

                             ****ORCA TERMINATED NORMALLY****
TOTAL RUN TIME: 0 days 0 hours 0 minutes 40 seconds 583 msec
