                         Program Version 4.2.0 -  RELEASE  -
|  1> # 12h2o.su.etal.mol1,2,4,6,8,11
|  2> ! MP2 def2-TZVP EnGrad TightSCF
|  3>
|  4> %pal
|  5>     nprocs 6
|  6> end
|  7>
|  8> %maxcore 8000
|  9>
| 10> %scf
| 11>     ConvForced true
| 12> end
| 13>
| 14> *xyz 0 1
| 15> O  -1.794470000  -0.923410000   2.768350000
| 16> H  -2.338250000  -1.359750000   3.430940000
| 17> H  -0.879480000  -1.303000000   2.865760000
| 18> O   0.923410000  -1.794470000  -2.768350000
| 19> H   1.359750000  -2.338250000  -3.430940000
| 20> H   1.303000000  -0.879480000  -2.865760000
| 21> O  -0.885520000   1.737840000   0.052730000
| 22> H  -1.032320000   2.090180000  -0.841890000
| 23> H  -1.284090000   0.839590000   0.017130000
| 24> O   1.737840000   0.885520000  -0.052730000
| 25> H   2.090180000   1.032320000   0.841890000
| 26> H   0.839590000   1.284090000  -0.017130000
| 27> O   1.752130000   0.741530000  -2.896280000
| 28> H   2.036450000   0.920500000  -1.984040000
| 29> H   0.921210000   1.242140000  -2.984230000
| 30> O  -0.741530000   1.752130000   2.896280000
| 31> H  -0.920500000   2.036450000   1.984040000
| 32> H  -1.242140000   0.921210000   2.984230000
| 33> *
| 34>
| 35>                          ****END OF INPUT****

CARTESIAN COORDINATES (ANGSTROEM)
---------------------------------
  O     -1.794470   -0.923410    2.768350
  H     -2.338250   -1.359750    3.430940
  H     -0.879480   -1.303000    2.865760
  O      0.923410   -1.794470   -2.768350
  H      1.359750   -2.338250   -3.430940
  H      1.303000   -0.879480   -2.865760
  O     -0.885520    1.737840    0.052730
  H     -1.032320    2.090180   -0.841890
  H     -1.284090    0.839590    0.017130
  O      1.737840    0.885520   -0.052730
  H      2.090180    1.032320    0.841890
  H      0.839590    1.284090   -0.017130
  O      1.752130    0.741530   -2.896280
  H      2.036450    0.920500   -1.984040
  H      0.921210    1.242140   -2.984230
  O     -0.741530    1.752130    2.896280
  H     -0.920500    2.036450    1.984040
  H     -1.242140    0.921210    2.984230

 Total Charge           Charge          ....    0
 Multiplicity           Mult            ....    1
 Number of Electrons    NEL             ....   60
 Basis Dimension        Dim             ....  258

ORBITAL ENERGIES
----------------

  NO   OCC          E(Eh)            E(eV)
   0   2.0000     -20.621925      -561.1511
   1   2.0000     -20.595883      -560.4425
   2   2.0000     -20.569172      -559.7156
   3   2.0000     -20.557369      -559.3945
   4   2.0000     -20.523035      -558.4602
   5   2.0000     -20.507596      -558.0401
   6   2.0000      -1.404887       -38.2289
   7   2.0000      -1.373515       -37.3752
   8   2.0000      -1.359200       -36.9857
   9   2.0000      -1.338654       -36.4266
  10   2.0000      -1.308261       -35.5996
  11   2.0000      -1.289779       -35.0967
  12   2.0000      -0.762525       -20.7494
  13   2.0000      -0.740746       -20.1567
  14   2.0000      -0.723094       -19.6764
  15   2.0000      -0.712394       -19.3852
  16   2.0000      -0.689312       -18.7571
  17   2.0000      -0.678379       -18.4596
  18   2.0000      -0.642431       -17.4814
  19   2.0000      -0.613354       -16.6902
  20   2.0000      -0.606317       -16.4987
  21   2.0000      -0.584383       -15.9019
  22   2.0000      -0.555831       -15.1249
  23   2.0000      -0.547803       -14.9065
  24   2.0000      -0.538641       -14.6572
  25   2.0000      -0.526845       -14.3362
  26   2.0000      -0.507545       -13.8110
  27   2.0000      -0.495891       -13.4939
  28   2.0000      -0.472583       -12.8596
  29   2.0000      -0.458156       -12.4671
  30   0.0000       0.079910         2.1745
  31   0.0000       0.108620         2.9557
  32   0.0000       0.155560         4.2330
  33   0.0000       0.160207         4.3594
  34   0.0000       0.175413         4.7732

MULLIKEN ATOMIC CHARGES
-----------------------
   0 O :   -0.701584
   1 H :    0.357346
   2 H :    0.364970
   3 O :   -0.737779
   4 H :    0.321661
   5 H :    0.368852
   6 O :   -0.708290
   7 H :    0.359497
   8 H :    0.382750
   9 O :   -0.726895
  10 H :    0.351336
  11 H :    0.352801
  12 O :   -0.687617
  13 H :    0.390844
  14 H :    0.326965
  15 O :   -0.722072
  16 H :    0.360938
  17 H :    0.346277
Sum of atomic charges:   -0.0000000

LOEWDIN ATOMIC CHARGES
----------------------
   0 O :   -0.313327
   1 H :    0.165737
   2 H :    0.190109
   3 O :   -0.375746
   4 H :    0.146622
   5 H :    0.142241
   6 O :   -0.274159
   7 H :    0.172532
   8 H :    0.189636
   9 O :   -0.338563
  10 H :    0.169438
  11 H :    0.141619
  12 O :   -0.275624
  13 H :    0.160964
  14 H :    0.161137
  15 O :   -0.351471
  16 H :    0.146392
  17 H :    0.142463

  Mayer bond orders larger than 0.100000
B(  0-O ,  1-H ) :   0.8391 B(  0-O ,  2-H ) :   0.8275 B(  3-O ,  4-H ) :   0.8627
B(  3-O ,  5-H ) :   0.7810 B(  6-O ,  7-H ) :   0.8332 B(  6-O ,  8-H ) :   0.8145
B(  9-O , 10-H ) :   0.8416 B(  9-O , 11-H ) :   0.7918 B( 12-O , 13-H ) :   0.7927
B( 12-O , 14-H ) :   0.8548 B( 15-O , 16-H ) :   0.8345 B( 15-O , 17-H ) :   0.8257

MP2 TOTAL ENERGY:     -457.915773014 Eh
FINAL SINGLE POINT ENERGY      -457.915773013619

DIPOLE MOMENT
-------------
                                X             Y             Z
Electronic contribution:     -0.04949       0.21175       0.19325
Nuclear contribution   :     -0.94083      -0.25993       0.00000
                        -----------------------------------------
Total Dipole Moment    :     -0.99032      -0.04818       0.19325
                        -----------------------------------------
Magnitude (a.u.)       :      1.01015
Magnitude (Debye)      :      2.56760

Rotational constants in cm-1:     0.068153     0.021329     0.018282
Rotational constants in MHz :  2043.168778   639.415770   548.074737

                             ****ORCA TERMINATED NORMALLY****
TOTAL RUN TIME: 0 days 0 hours 0 minutes 53 seconds 77 msec
