                         Program Version 4.2.0 -  RELEASE  -
|  1> # 12meoh.boyd.etal.mol6,7,11
|  2> ! MP2 def2-TZVP EnGrad TightSCF
|  3>
|  4> %pal
|  5>     nprocs 6
|  6> end
|  7>
|  8> %maxcore 8000
|  9>
| 10> %scf
| 11>     ConvForced true
| 12> end
| 13>
| 14> *xyz 0 1
| 15> O   2.622209273  -1.703002590  -1.445859723
| 16> H   1.828551432  -1.986513781  -0.909754968
| 17> C   2.781117675  -2.615822239  -2.525472890
| 18> H   3.691063626  -2.339003544  -3.065143454
| 19> H   1.934727323  -2.559520367  -3.223226661
| 20> H   2.879948338  -3.653846211  -2.177750170
| 21> O   4.310535586  -1.588322800   0.656128299
| 22> H   3.804372199  -1.630404735  -0.196849819
| 23> C   4.312298137  -2.894980854   1.222112691
| 24> H   4.713177833  -2.819907076   2.237066773
| 25> H   4.957796734  -3.574699304   0.648211180
| 26> H   3.302735989  -3.324433205   1.269756773
| 27> O   3.252955559   0.588596242   1.858934315
| 28> H   3.621209177  -0.251605199   1.476063364
| 29> C   4.040824528   0.944288422   2.989639460
| 30> H   3.670521436   1.902573549   3.363847391
| 31> H   5.103749934   1.055868619   2.734277559
| 32> H   3.948540682   0.200279590   3.792908518
| 33> *
| 34>
| 35>                          ****END OF INPUT****

CARTESIAN COORDINATES (ANGSTROEM)
---------------------------------
  O      2.622209   -1.703003   -1.445860
  H      1.828551   -1.986514   -0.909755
  C      2.781118   -2.615822   -2.525473
  H      3.691064   -2.339004   -3.065143
  H      1.934727   -2.559520   -3.223227
  H      2.879948   -3.653846   -2.177750
  O      4.310536   -1.588323    0.656128
  H      3.804372   -1.630405   -0.196850
  C      4.312298   -2.894981    1.222113
  H      4.713178   -2.819907    2.237067
  H      4.957797   -3.574699    0.648211
  H      3.302736   -3.324433    1.269757
  O      3.252956    0.588596    1.858934
  H      3.621209   -0.251605    1.476063
  C      4.040825    0.944288    2.989639
  H      3.670521    1.902574    3.363847
  H      5.103750    1.055869    2.734278
  H      3.948541    0.200280    3.792909

 Total Charge           Charge          ....    0
 Multiplicity           Mult            ....    1
 Number of Electrons    NEL             ....   54
 Basis Dimension        Dim             ....  258

ORBITAL ENERGIES
----------------

  NO   OCC          E(Eh)            E(eV)
   0   2.0000     -20.597821      -560.4952
   1   2.0000     -20.551405      -559.2321
   2   2.0000     -20.503368      -557.9250
   3   2.0000     -11.297414      -307.4183
   4   2.0000     -11.276530      -306.8500
   5   2.0000     -11.240853      -305.8792
   6   2.0000      -1.390478       -37.8368
   7   2.0000      -1.351667       -36.7807
   8   2.0000      -1.299966       -35.3739
   9   2.0000      -0.949812       -25.8457
  10   2.0000      -0.925522       -25.1847
  11   2.0000      -0.886677       -24.1277
  12   2.0000      -0.719511       -19.5789
  13   2.0000      -0.704395       -19.1676
  14   2.0000      -0.660007       -17.9597
  15   2.0000      -0.643028       -17.4977
  16   2.0000      -0.622515       -16.9395
  17   2.0000      -0.617013       -16.7898
  18   2.0000      -0.589667       -16.0456
  19   2.0000      -0.581475       -15.8227
  20   2.0000      -0.552417       -15.0320
  21   2.0000      -0.536067       -14.5871
  22   2.0000      -0.511289       -13.9129
  23   2.0000      -0.479568       -13.0497
  24   2.0000      -0.466764       -12.7013
  25   2.0000      -0.439705       -11.9650
  26   2.0000      -0.407132       -11.0786
  27   0.0000       0.106081         2.8866
  28   0.0000       0.151362         4.1188
  29   0.0000       0.156116         4.2481
  30   0.0000       0.178716         4.8631
  31   0.0000       0.198972         5.4143

MULLIKEN ATOMIC CHARGES
-----------------------
   0 O :   -0.514317
   1 H :    0.345572
   2 C :   -0.189869
   3 H :    0.146695
   4 H :    0.132005
   5 H :    0.124040
   6 O :   -0.539783
   7 H :    0.372352
   8 C :   -0.187194
   9 H :    0.137401
  10 H :    0.117193
  11 H :    0.101820
  12 O :   -0.536240
  13 H :    0.344443
  14 C :   -0.162589
  15 H :    0.117078
  16 H :    0.102180
  17 H :    0.089212
Sum of atomic charges:    0.0000000

LOEWDIN ATOMIC CHARGES
----------------------
   0 O :   -0.071385
   1 H :    0.203815
   2 C :   -0.374006
   3 H :    0.116642
   4 H :    0.106238
   5 H :    0.100297
   6 O :   -0.083541
   7 H :    0.164587
   8 C :   -0.388268
   9 H :    0.111495
  10 H :    0.100599
  11 H :    0.093064
  12 O :   -0.127796
  13 H :    0.157687
  14 C :   -0.394849
  15 H :    0.104012
  16 H :    0.092902
  17 H :    0.088506

  Mayer bond orders larger than 0.100000
B(  0-O ,  1-H ) :   0.8248 B(  0-O ,  2-C ) :   0.8709 B(  2-C ,  3-H ) :   0.9387
B(  2-C ,  4-H ) :   0.9352 B(  2-C ,  5-H ) :   0.9364 B(  6-O ,  7-H ) :   0.7655
B(  6-O ,  8-C ) :   0.8953 B(  8-C ,  9-H ) :   0.9428 B(  8-C , 10-H ) :   0.9370
B(  8-C , 11-H ) :   0.9374 B( 12-O , 13-H ) :   0.7856 B( 12-O , 14-C ) :   0.9462
B( 14-C , 15-H ) :   0.9419 B( 14-C , 16-H ) :   0.9385 B( 14-C , 17-H ) :   0.9394

MP2 TOTAL ENERGY:     -346.540157113 Eh
FINAL SINGLE POINT ENERGY      -346.540157112868

DIPOLE MOMENT
-------------
                                X             Y             Z
Electronic contribution:     -1.18631       2.25351      -1.29939
Nuclear contribution   :      0.88463      -4.06470       0.49948
                        -----------------------------------------
Total Dipole Moment    :     -0.30168      -1.81118      -0.79991
                        -----------------------------------------
Magnitude (a.u.)       :      2.00281
Magnitude (Debye)      :      5.09074

Rotational constants in cm-1:     0.140268     0.033489     0.028080
Rotational constants in MHz :  4205.133357  1003.965088   841.826541

                             ****ORCA TERMINATED NORMALLY****
TOTAL RUN TIME: 0 days 0 hours 1 minutes 28 seconds 465 msec
