                         Program Version 4.2.0 -  RELEASE  -
|  1> ! MP2 def2-TZVP EnGrad TightSCF FrozenCore
|  2>
|  3> %pal
|  4>     nprocs 12
|  5> end
|  6>
|  7> %maxcore 8000
|  8>
|  9> %scf
| 10>     ConvForced true
| 11> end
| 12>
| 13> *xyz 0 1
| 14> O    -0.3781673204    -1.4992483716    -1.1367631002
| 15> H     0.3472493123    -1.4212847536    -0.4632432279
| 16> C     0.2044218377    -1.8141209178    -2.3936657479
| 17> H    -0.6036151008    -1.8722604419    -3.1284468715
| 18> H     0.7151606235    -2.78674443      -2.3662255358
| 19> H     0.9223684543    -1.0506962195    -2.7286446626
| 20> O    -1.5076152804     0.927839999     -0.7352186275
| 21> H    -1.1388037803     0.0402235183    -0.9852662695
| 22> C    -2.8676121831     0.7480692801    -0.3654882174
| 23> H    -3.2650819627     1.7245115874    -0.0731219007
| 24> H    -2.9858234668     0.0538465343     0.4795565697
| 25> H    -3.4652252707     0.3720402614    -1.2074010211
| 26> O     0.3779633949     1.5009627423     1.1373425074
| 27> H    -0.3464504178     1.4235240477     0.4626630773
| 28> C    -0.2070147708     1.8107794175     2.3943929913
| 29> H     0.5998511701     1.8680266689     3.1305306321
| 30> H    -0.9240555903     1.0449908309     2.7258782196
| 31> H    -0.7194624797     2.7825670585     2.3693029894
| 32> O     1.5086682384    -0.9252432004     0.7342599002
| 33> H     1.1413341838    -0.0368675368     0.9838509341
| 34> C     2.8692387554    -0.7484560829     0.3652237739
| 35> H     3.2655058883    -1.726207741      0.0756075957
| 36> H     3.4667655997    -0.3712653969     1.2066813766
| 37> H     2.9892887416    -0.0565235225    -0.4814641436
| 38> *
| 39>
| 40>                          ****END OF INPUT****

CARTESIAN COORDINATES (ANGSTROEM)
---------------------------------
  O     -0.378167   -1.499248   -1.136763
  H      0.347249   -1.421285   -0.463243
  C      0.204422   -1.814121   -2.393666
  H     -0.603615   -1.872260   -3.128447
  H      0.715161   -2.786744   -2.366226
  H      0.922368   -1.050696   -2.728645
  O     -1.507615    0.927840   -0.735219
  H     -1.138804    0.040224   -0.985266
  C     -2.867612    0.748069   -0.365488
  H     -3.265082    1.724512   -0.073122
  H     -2.985823    0.053847    0.479557
  H     -3.465225    0.372040   -1.207401
  O      0.377963    1.500963    1.137343
  H     -0.346450    1.423524    0.462663
  C     -0.207015    1.810779    2.394393
  H      0.599851    1.868027    3.130531
  H     -0.924056    1.044991    2.725878
  H     -0.719462    2.782567    2.369303
  O      1.508668   -0.925243    0.734260
  H      1.141334   -0.036868    0.983851
  C      2.869239   -0.748456    0.365224
  H      3.265506   -1.726208    0.075608
  H      3.466766   -0.371265    1.206681
  H      2.989289   -0.056524   -0.481464

 Total Charge           Charge          ....    0
 Multiplicity           Mult            ....    1
 Number of Electrons    NEL             ....   72
 Basis Dimension        Dim             ....  344

ORBITAL ENERGIES
----------------

  NO   OCC          E(Eh)            E(eV)
   0   2.0000     -20.550947      -559.2197
   1   2.0000     -20.550923      -559.2190
   2   2.0000     -20.548754      -559.1600
   3   2.0000     -20.548728      -559.1593
   4   2.0000     -11.271582      -306.7153
   5   2.0000     -11.271553      -306.7145
   6   2.0000     -11.269809      -306.6671
   7   2.0000     -11.269768      -306.6660
   8   2.0000      -1.366891       -37.1950
   9   2.0000      -1.351707       -36.7818
  10   2.0000      -1.349615       -36.7249
  11   2.0000      -1.334830       -36.3226
  12   2.0000      -0.928788       -25.2736
  13   2.0000      -0.922418       -25.1003
  14   2.0000      -0.919154       -25.0115
  15   2.0000      -0.912577       -24.8325
  16   2.0000      -0.712115       -19.3776
  17   2.0000      -0.693476       -18.8704
  18   2.0000      -0.691512       -18.8170
  19   2.0000      -0.685502       -18.6534
  20   2.0000      -0.619819       -16.8661
  21   2.0000      -0.616553       -16.7773
  22   2.0000      -0.612016       -16.6538
  23   2.0000      -0.611695       -16.6451
  24   2.0000      -0.596951       -16.2439
  25   2.0000      -0.595994       -16.2178
  26   2.0000      -0.587798       -15.9948
  27   2.0000      -0.584173       -15.8961
  28   2.0000      -0.523703       -14.2507
  29   2.0000      -0.505364       -13.7517
  30   2.0000      -0.502149       -13.6642
  31   2.0000      -0.486394       -13.2354
  32   2.0000      -0.448842       -12.2136
  33   2.0000      -0.447990       -12.1904
  34   2.0000      -0.443212       -12.0604
  35   2.0000      -0.440689       -11.9918
  36   0.0000       0.129174         3.5150
  37   0.0000       0.140529         3.8240
  38   0.0000       0.166207         4.5227
  39   0.0000       0.186577         5.0770
  40   0.0000       0.189996         5.1701

MULLIKEN ATOMIC CHARGES
-----------------------
   0 O :   -0.556077
   1 H :    0.372966
   2 C :   -0.181023
   3 H :    0.130684
   4 H :    0.122133
   5 H :    0.118356
   6 O :   -0.564271
   7 H :    0.362337
   8 C :   -0.170178
   9 H :    0.125770
  10 H :    0.118146
  11 H :    0.121121
  12 O :   -0.556138
  13 H :    0.373030
  14 C :   -0.181074
  15 H :    0.130704
  16 H :    0.118388
  17 H :    0.122123
  18 O :   -0.564305
  19 H :    0.362531
  20 C :   -0.170213
  21 H :    0.125778
  22 H :    0.121156
  23 H :    0.118056
Sum of atomic charges:   -0.0000000

LOEWDIN ATOMIC CHARGES
----------------------
   0 O :   -0.086846
   1 H :    0.166053
   2 C :   -0.386832
   3 H :    0.109515
   4 H :    0.103054
   5 H :    0.098717
   6 O :   -0.090599
   7 H :    0.164758
   8 C :   -0.387821
   9 H :    0.107906
  10 H :    0.098898
  11 H :    0.103198
  12 O :   -0.086881
  13 H :    0.166052
  14 C :   -0.386840
  15 H :    0.109515
  16 H :    0.098728
  17 H :    0.103052
  18 O :   -0.090604
  19 H :    0.164804
  20 C :   -0.387826
  21 H :    0.107913
  22 H :    0.103211
  23 H :    0.098873

  Mayer bond orders larger than 0.100000
B(  0-O ,  1-H ) :   0.7499 B(  0-O ,  2-C ) :   0.8905 B(  0-O ,  7-H ) :   0.1242
B(  1-H , 18-O ) :   0.1037 B(  2-C ,  3-H ) :   0.9424 B(  2-C ,  4-H ) :   0.9384
B(  2-C ,  5-H ) :   0.9376 B(  6-O ,  7-H ) :   0.7447 B(  6-O ,  8-C ) :   0.8867
B(  6-O , 13-H ) :   0.1037 B(  8-C ,  9-H ) :   0.9412 B(  8-C , 10-H ) :   0.9381
B(  8-C , 11-H ) :   0.9397 B( 12-O , 13-H ) :   0.7499 B( 12-O , 14-C ) :   0.8905
B( 12-O , 19-H ) :   0.1241 B( 14-C , 15-H ) :   0.9424 B( 14-C , 16-H ) :   0.9376
B( 14-C , 17-H ) :   0.9384 B( 18-O , 19-H ) :   0.7446 B( 18-O , 20-C ) :   0.8868
B( 20-C , 21-H ) :   0.9412 B( 20-C , 22-H ) :   0.9397 B( 20-C , 23-H ) :   0.9381

MP2 TOTAL ENERGY:     -462.081696644 Eh
FINAL SINGLE POINT ENERGY      -462.081696643842

DIPOLE MOMENT
-------------
                                X             Y             Z
Electronic contribution:      0.00179       0.00998      -0.00071
Nuclear contribution   :     -0.00103      -0.01271       0.00027
                        -----------------------------------------
Total Dipole Moment    :      0.00076      -0.00274      -0.00045
                        -----------------------------------------
Magnitude (a.u.)       :      0.00288
Magnitude (Debye)      :      0.00731

Rotational constants in cm-1:     0.041683     0.037484     0.021206
Rotational constants in MHz :  1249.632272  1123.743720   635.742230

                             ****ORCA TERMINATED NORMALLY****
TOTAL RUN TIME: 0 days 0 hours 4 minutes 40 seconds 788 msec
