                         Program Version 4.2.0 -  RELEASE  -
|  1> # 12h2o.su.etal.mol4
|  2> ! MP2 def2-TZVP EnGrad TightSCF
|  3>
|  4> %pal
|  5>     nprocs 6
|  6> end
|  7>
|  8> %maxcore 8000
|  9>
| 10> %scf
| 11>     ConvForced true
| 12> end
| 13>
| 14> *xyz 0 1
| 15> O  -0.885520000   1.737840000   0.052730000
| 16> H  -1.032320000   2.090180000  -0.841890000
| 17> H  -1.284090000   0.839590000   0.017130000
| 18> *
| 19>
| 20>                          ****END OF INPUT****

CARTESIAN COORDINATES (ANGSTROEM)
---------------------------------
  O     -0.885520    1.737840    0.052730
  H     -1.032320    2.090180   -0.841890
  H     -1.284090    0.839590    0.017130

 Total Charge           Charge          ....    0
 Multiplicity           Mult            ....    1
 Number of Electrons    NEL             ....   10
 Basis Dimension        Dim             ....   43

ORBITAL ENERGIES
----------------

  NO   OCC          E(Eh)            E(eV)
   0   2.0000     -20.563872      -559.5714
   1   2.0000      -1.339894       -36.4604
   2   2.0000      -0.702033       -19.1033
   3   2.0000      -0.578978       -15.7548
   4   2.0000      -0.506678       -13.7874
   5   0.0000       0.125342         3.4107
   6   0.0000       0.195624         5.3232
   7   0.0000       0.516885        14.0651
   8   0.0000       0.565326        15.3833
   9   0.0000       0.597653        16.2630

MULLIKEN ATOMIC CHARGES
-----------------------
   0 O :   -0.673562
   1 H :    0.336237
   2 H :    0.337325
Sum of atomic charges:   -0.0000000

LOEWDIN ATOMIC CHARGES
----------------------
   0 O :   -0.337031
   1 H :    0.164867
   2 H :    0.172164

  Mayer bond orders larger than 0.100000
B(  0-O ,  1-H ) :   0.8537 B(  0-O ,  2-H ) :   0.8515

MP2 TOTAL ENERGY:      -76.312559100 Eh
FINAL SINGLE POINT ENERGY       -76.312559099505

DIPOLE MOMENT
-------------
                                X             Y             Z
Electronic contribution:      0.07522       0.07712       0.12595
Nuclear contribution   :     -0.45394      -0.45439      -0.77428
                        -----------------------------------------
Total Dipole Moment    :     -0.37872      -0.37727      -0.64833
                        -----------------------------------------
Magnitude (a.u.)       :      0.84030
Magnitude (Debye)      :      2.13586

Rotational constants in cm-1:    25.790058    14.138948     9.132316
Rotational constants in MHz : 773166.502082 423874.997883 273779.939495

                             ****ORCA TERMINATED NORMALLY****
TOTAL RUN TIME: 0 days 0 hours 0 minutes 5 seconds 588 msec
