                         Program Version 4.2.0 -  RELEASE  -
|  1> # 12mecn.remya.etal.2.mol1,2,5
|  2> ! MP2 def2-TZVP EnGrad TightSCF
|  3>
|  4> %pal
|  5>     nprocs 6
|  6> end
|  7>
|  8> %maxcore 8000
|  9>
| 10> %scf
| 11>     ConvForced true
| 12> end
| 13>
| 14> *xyz 0 1
| 15> C  -4.697980000  -0.249690000   1.746215000
| 16> H  -4.927570000   0.755530000   2.111799000
| 17> H  -3.709180000  -0.561560000   2.093253000
| 18> H  -5.432280000  -0.961520000   2.128066000
| 19> C  -4.714100000  -0.247110000   0.301670000
| 20> N  -4.729750000  -0.234960000  -0.865260000
| 21> C  -4.219070000  -3.477410000  -1.501740000
| 22> H  -3.251530000  -3.803540000  -1.893830000
| 23> H  -4.452920000  -2.481700000  -1.890840000
| 24> H  -4.992170000  -4.178130000  -1.824640000
| 25> C  -4.154550000  -3.418790000  -0.058340000
| 26> N  -4.091140000  -3.354840000   1.104432000
| 27> C  -1.955700000   2.515080000   1.698463000
| 28> H  -2.923830000   2.883163000   2.049269000
| 29> H  -1.154850000   3.171830000   2.050990000
| 30> H  -1.790380000   1.506115000   2.087896000
| 31> C  -1.948230000   2.482156000   0.253672000
| 32> N  -1.937550000   2.462523000  -0.913150000
| 33> *
| 34>
| 35>                          ****END OF INPUT****

CARTESIAN COORDINATES (ANGSTROEM)
---------------------------------
  C     -4.697980   -0.249690    1.746215
  H     -4.927570    0.755530    2.111799
  H     -3.709180   -0.561560    2.093253
  H     -5.432280   -0.961520    2.128066
  C     -4.714100   -0.247110    0.301670
  N     -4.729750   -0.234960   -0.865260
  C     -4.219070   -3.477410   -1.501740
  H     -3.251530   -3.803540   -1.893830
  H     -4.452920   -2.481700   -1.890840
  H     -4.992170   -4.178130   -1.824640
  C     -4.154550   -3.418790   -0.058340
  N     -4.091140   -3.354840    1.104432
  C     -1.955700    2.515080    1.698463
  H     -2.923830    2.883163    2.049269
  H     -1.154850    3.171830    2.050990
  H     -1.790380    1.506115    2.087896
  C     -1.948230    2.482156    0.253672
  N     -1.937550    2.462523   -0.913150

 Total Charge           Charge          ....    0
 Multiplicity           Mult            ....    1
 Number of Electrons    NEL             ....   66
 Basis Dimension        Dim             ....  333

ORBITAL ENERGIES
----------------

  NO   OCC          E(Eh)            E(eV)
   0   2.0000     -15.571621      -423.7254
   1   2.0000     -15.570824      -423.7037
   2   2.0000     -15.570074      -423.6833
   3   2.0000     -11.288044      -307.1633
   4   2.0000     -11.282863      -307.0223
   5   2.0000     -11.280575      -306.9600
   6   2.0000     -11.278096      -306.8926
   7   2.0000     -11.277169      -306.8674
   8   2.0000     -11.270373      -306.6824
   9   2.0000      -1.217687       -33.1349
  10   2.0000      -1.212655       -32.9980
  11   2.0000      -1.211744       -32.9732
  12   2.0000      -1.045964       -28.4621
  13   2.0000      -1.039337       -28.2818
  14   2.0000      -1.033279       -28.1169
  15   2.0000      -0.701416       -19.0865
  16   2.0000      -0.696560       -18.9544
  17   2.0000      -0.691191       -18.8083
  18   2.0000      -0.638872       -17.3846
  19   2.0000      -0.635408       -17.2903
  20   2.0000      -0.631792       -17.1919
  21   2.0000      -0.622714       -16.9449
  22   2.0000      -0.619759       -16.8645
  23   2.0000      -0.616597       -16.7785
  24   2.0000      -0.558757       -15.2046
  25   2.0000      -0.554822       -15.0975
  26   2.0000      -0.552637       -15.0380
  27   2.0000      -0.463475       -12.6118
  28   2.0000      -0.460903       -12.5418
  29   2.0000      -0.458442       -12.4748
  30   2.0000      -0.455644       -12.3987
  31   2.0000      -0.452442       -12.3116
  32   2.0000      -0.448593       -12.2068
  33   0.0000       0.102107         2.7785
  34   0.0000       0.134815         3.6685
  35   0.0000       0.149148         4.0585
  36   0.0000       0.156490         4.2583
  37   0.0000       0.161847         4.4041

MULLIKEN ATOMIC CHARGES
-----------------------
   0 C :   -0.264963
   1 H :    0.164211
   2 H :    0.170257
   3 H :    0.188517
   4 C :   -0.120164
   5 N :   -0.137179
   6 C :   -0.286707
   7 H :    0.166922
   8 H :    0.208316
   9 H :    0.165813
  10 C :   -0.112836
  11 N :   -0.142114
  12 C :   -0.281191
  13 H :    0.166503
  14 H :    0.181670
  15 H :    0.166063
  16 C :   -0.153521
  17 N :   -0.079597
Sum of atomic charges:    0.0000000

LOEWDIN ATOMIC CHARGES
----------------------
   0 C :   -0.288538
   1 H :    0.146813
   2 H :    0.153621
   3 H :    0.156849
   4 C :   -0.213691
   5 N :    0.042315
   6 C :   -0.281556
   7 H :    0.152810
   8 H :    0.158394
   9 H :    0.150074
  10 C :   -0.208646
  11 N :    0.031837
  12 C :   -0.287143
  13 H :    0.150186
  14 H :    0.153609
  15 H :    0.149939
  16 C :   -0.223115
  17 N :    0.056240

  Mayer bond orders larger than 0.100000
B(  0-C ,  1-H ) :   0.9142 B(  0-C ,  2-H ) :   0.9200 B(  0-C ,  3-H ) :   0.9055
B(  0-C ,  4-C ) :   0.9065 B(  4-C ,  5-N ) :   2.7536 B(  6-C ,  7-H ) :   0.9143
B(  6-C ,  8-H ) :   0.9007 B(  6-C ,  9-H ) :   0.9160 B(  6-C , 10-C ) :   0.9009
B( 10-C , 11-N ) :   2.7931 B( 12-C , 13-H ) :   0.9216 B( 12-C , 14-H ) :   0.9108
B( 12-C , 15-H ) :   0.9195 B( 12-C , 16-C ) :   0.8987 B( 16-C , 17-N ) :   2.8300

MP2 TOTAL ENERGY:     -397.458344421 Eh
FINAL SINGLE POINT ENERGY      -397.458344420977

DIPOLE MOMENT
-------------
                                X             Y             Z
Electronic contribution:      0.10208       0.08220      -3.25907
Nuclear contribution   :     -0.16976      -0.13373       4.63770
                        -----------------------------------------
Total Dipole Moment    :     -0.06768      -0.05153       1.37863
                        -----------------------------------------
Magnitude (a.u.)       :      1.38125
Magnitude (Debye)      :      3.51087

Rotational constants in cm-1:     0.070791     0.018524     0.016867
Rotational constants in MHz :  2122.256805   555.342606   505.655140

                             ****ORCA TERMINATED NORMALLY****
TOTAL RUN TIME: 0 days 0 hours 3 minutes 52 seconds 64 msec
