                         Program Version 4.2.0 -  RELEASE  -
|  1> # 12meoh.boyd.etal.mol1,11
|  2> ! MP2 def2-TZVP EnGrad TightSCF
|  3>
|  4> %pal
|  5>     nprocs 6
|  6> end
|  7>
|  8> %maxcore 8000
|  9>
| 10> %scf
| 11>     ConvForced true
| 12> end
| 13>
| 14> *xyz 0 1
| 15> O   0.666045193  -2.600503172   0.138317521
| 16> H  -0.227115049  -2.712051982  -0.281868004
| 17> C   0.490021232  -1.851247678   1.341189459
| 18> H   1.466500502  -1.466176022   1.645844415
| 19> H   0.097564527  -2.488364683   2.146902740
| 20> H  -0.187588112  -1.000787499   1.200739571
| 21> O   3.252955559   0.588596242   1.858934315
| 22> H   3.621209177  -0.251605199   1.476063364
| 23> C   4.040824528   0.944288422   2.989639460
| 24> H   3.670521436   1.902573549   3.363847391
| 25> H   5.103749934   1.055868619   2.734277559
| 26> H   3.948540682   0.200279590   3.792908518
| 27> *
| 28>
| 29>                          ****END OF INPUT****

CARTESIAN COORDINATES (ANGSTROEM)
---------------------------------
  O      0.666045   -2.600503    0.138318
  H     -0.227115   -2.712052   -0.281868
  C      0.490021   -1.851248    1.341189
  H      1.466501   -1.466176    1.645844
  H      0.097565   -2.488365    2.146903
  H     -0.187588   -1.000787    1.200740
  O      3.252956    0.588596    1.858934
  H      3.621209   -0.251605    1.476063
  C      4.040825    0.944288    2.989639
  H      3.670521    1.902574    3.363847
  H      5.103750    1.055869    2.734278
  H      3.948541    0.200280    3.792909

 Total Charge           Charge          ....    0
 Multiplicity           Mult            ....    1
 Number of Electrons    NEL             ....   36
 Basis Dimension        Dim             ....  172

ORBITAL ENERGIES
----------------

  NO   OCC          E(Eh)            E(eV)
   0   2.0000     -20.559726      -559.4586
   1   2.0000     -20.553291      -559.2835
   2   2.0000     -11.273017      -306.7544
   3   2.0000     -11.265169      -306.5408
   4   2.0000      -1.348927       -36.7062
   5   2.0000      -1.341385       -36.5009
   6   2.0000      -0.921559       -25.0769
   7   2.0000      -0.913830       -24.8666
   8   2.0000      -0.683776       -18.6065
   9   2.0000      -0.676481       -18.4080
  10   2.0000      -0.619350       -16.8534
  11   2.0000      -0.611211       -16.6319
  12   2.0000      -0.593909       -16.1611
  13   2.0000      -0.583511       -15.8781
  14   2.0000      -0.501941       -13.6585
  15   2.0000      -0.496372       -13.5070
  16   2.0000      -0.451217       -12.2782
  17   2.0000      -0.444005       -12.0820
  18   0.0000       0.129735         3.5303
  19   0.0000       0.144558         3.9336
  20   0.0000       0.174899         4.7592
  21   0.0000       0.188491         5.1291
  22   0.0000       0.223578         6.0839

MULLIKEN ATOMIC CHARGES
-----------------------
   0 O :   -0.502316
   1 H :    0.322010
   2 C :   -0.153783
   3 H :    0.100376
   4 H :    0.104260
   5 H :    0.113429
   6 O :   -0.487235
   7 H :    0.328507
   8 C :   -0.178644
   9 H :    0.129709
  10 H :    0.113681
  11 H :    0.110006
Sum of atomic charges:    0.0000000

LOEWDIN ATOMIC CHARGES
----------------------
   0 O :   -0.115048
   1 H :    0.189216
   2 C :   -0.378315
   3 H :    0.103439
   4 H :    0.094254
   5 H :    0.098523
   6 O :   -0.103522
   7 H :    0.190192
   8 C :   -0.381324
   9 H :    0.110418
  10 H :    0.096764
  11 H :    0.095401

  Mayer bond orders larger than 0.100000
B(  0-O ,  1-H ) :   0.8435 B(  0-O ,  2-C ) :   0.9288 B(  2-C ,  3-H ) :   0.9333
B(  2-C ,  4-H ) :   0.9383 B(  2-C ,  5-H ) :   0.9451 B(  6-O ,  7-H ) :   0.8364
B(  6-O ,  8-C ) :   0.9305 B(  8-C ,  9-H ) :   0.9379 B(  8-C , 10-H ) :   0.9394
B(  8-C , 11-H ) :   0.9369

MP2 TOTAL ENERGY:     -231.014814011 Eh
FINAL SINGLE POINT ENERGY      -231.014814011190

DIPOLE MOMENT
-------------
                                X             Y             Z
Electronic contribution:     -0.67341      -1.19068      -2.87726
Nuclear contribution   :      0.62555       1.13404       3.33518
                        -----------------------------------------
Total Dipole Moment    :     -0.04786      -0.05663       0.45792
                        -----------------------------------------
Magnitude (a.u.)       :      0.46389
Magnitude (Debye)      :      1.17910

Rotational constants in cm-1:     0.719310     0.045546     0.044282
Rotational constants in MHz : 21564.381445  1365.440387  1327.551623

                             ****ORCA TERMINATED NORMALLY****
TOTAL RUN TIME: 0 days 0 hours 0 minutes 22 seconds 739 msec
