                         Program Version 4.2.0 -  RELEASE  -
|  1> # 12h2o.su.etal.mol4,5,6,7,8,9,10,11
|  2> ! MP2 def2-TZVP EnGrad TightSCF
|  3>
|  4> %pal
|  5>     nprocs 6
|  6> end
|  7>
|  8> %maxcore 8000
|  9>
| 10> %scf
| 11>     ConvForced true
| 12> end
| 13>
| 14> *xyz 0 1
| 15> O  -0.885520000   1.737840000   0.052730000
| 16> H  -1.032320000   2.090180000  -0.841890000
| 17> H  -1.284090000   0.839590000   0.017130000
| 18> O   0.885520000  -1.737840000   0.052730000
| 19> H   1.284090000  -0.839590000   0.017130000
| 20> H   1.032320000  -2.090180000  -0.841890000
| 21> O   1.737840000   0.885520000  -0.052730000
| 22> H   2.090180000   1.032320000   0.841890000
| 23> H   0.839590000   1.284090000  -0.017130000
| 24> O  -1.737840000  -0.885520000  -0.052730000
| 25> H  -2.090180000  -1.032320000   0.841890000
| 26> H  -0.839590000  -1.284090000  -0.017130000
| 27> O   1.752130000   0.741530000  -2.896280000
| 28> H   2.036450000   0.920500000  -1.984040000
| 29> H   0.921210000   1.242140000  -2.984230000
| 30> O   0.741530000  -1.752130000   2.896280000
| 31> H   0.920500000  -2.036450000   1.984040000
| 32> H   1.242140000  -0.921210000   2.984230000
| 33> O  -0.923410000   1.794470000  -2.768350000
| 34> H  -1.359750000   2.338250000  -3.430940000
| 35> H  -1.303000000   0.879480000  -2.865760000
| 36> O  -0.741530000   1.752130000   2.896280000
| 37> H  -0.920500000   2.036450000   1.984040000
| 38> H  -1.242140000   0.921210000   2.984230000
| 39> *
| 40>
| 41>                          ****END OF INPUT****

CARTESIAN COORDINATES (ANGSTROEM)
---------------------------------
  O     -0.885520    1.737840    0.052730
  H     -1.032320    2.090180   -0.841890
  H     -1.284090    0.839590    0.017130
  O      0.885520   -1.737840    0.052730
  H      1.284090   -0.839590    0.017130
  H      1.032320   -2.090180   -0.841890
  O      1.737840    0.885520   -0.052730
  H      2.090180    1.032320    0.841890
  H      0.839590    1.284090   -0.017130
  O     -1.737840   -0.885520   -0.052730
  H     -2.090180   -1.032320    0.841890
  H     -0.839590   -1.284090   -0.017130
  O      1.752130    0.741530   -2.896280
  H      2.036450    0.920500   -1.984040
  H      0.921210    1.242140   -2.984230
  O      0.741530   -1.752130    2.896280
  H      0.920500   -2.036450    1.984040
  H      1.242140   -0.921210    2.984230
  O     -0.923410    1.794470   -2.768350
  H     -1.359750    2.338250   -3.430940
  H     -1.303000    0.879480   -2.865760
  O     -0.741530    1.752130    2.896280
  H     -0.920500    2.036450    1.984040
  H     -1.242140    0.921210    2.984230

 Total Charge           Charge          ....    0
 Multiplicity           Mult            ....    1
 Number of Electrons    NEL             ....   80
 Basis Dimension        Dim             ....  344

ORBITAL ENERGIES
----------------

  NO   OCC          E(Eh)            E(eV)
   0   2.0000     -20.623486      -561.1936
   1   2.0000     -20.590746      -560.3027
   2   2.0000     -20.589983      -560.2819
   3   2.0000     -20.581972      -560.0639
   4   2.0000     -20.575602      -559.8906
   5   2.0000     -20.546296      -559.0931
   6   2.0000     -20.544104      -559.0335
   7   2.0000     -20.528000      -558.5953
   8   2.0000      -1.404272       -38.2122
   9   2.0000      -1.390501       -37.8375
  10   2.0000      -1.374309       -37.3968
  11   2.0000      -1.370867       -37.3032
  12   2.0000      -1.354845       -36.8672
  13   2.0000      -1.327933       -36.1349
  14   2.0000      -1.325577       -36.0708
  15   2.0000      -1.313150       -35.7326
  16   2.0000      -0.769523       -20.9398
  17   2.0000      -0.746360       -20.3095
  18   2.0000      -0.743946       -20.2438
  19   2.0000      -0.738593       -20.0981
  20   2.0000      -0.734453       -19.9855
  21   2.0000      -0.699994       -19.0478
  22   2.0000      -0.694889       -18.9089
  23   2.0000      -0.692726       -18.8500
  24   2.0000      -0.654778       -17.8174
  25   2.0000      -0.635107       -17.2821
  26   2.0000      -0.623336       -16.9618
  27   2.0000      -0.614483       -16.7209
  28   2.0000      -0.601571       -16.3696
  29   2.0000      -0.572882       -15.5889
  30   2.0000      -0.564726       -15.3670
  31   2.0000      -0.556025       -15.1302
  32   2.0000      -0.544007       -14.8032
  33   2.0000      -0.535447       -14.5703
  34   2.0000      -0.531443       -14.4613
  35   2.0000      -0.527402       -14.3513
  36   2.0000      -0.520961       -14.1761
  37   2.0000      -0.494801       -13.4642
  38   2.0000      -0.488297       -13.2872
  39   2.0000      -0.477571       -12.9954
  40   0.0000       0.083635         2.2758
  41   0.0000       0.106592         2.9005
  42   0.0000       0.132421         3.6034
  43   0.0000       0.142924         3.8892
  44   0.0000       0.174973         4.7612

MULLIKEN ATOMIC CHARGES
-----------------------
   0 O :   -0.753320
   1 H :    0.384172
   2 H :    0.356321
   3 O :   -0.743634
   4 H :    0.370021
   5 H :    0.367984
   6 O :   -0.740851
   7 H :    0.360530
   8 H :    0.377783
   9 O :   -0.721179
  10 H :    0.355422
  11 H :    0.374780
  12 O :   -0.722942
  13 H :    0.368931
  14 H :    0.344190
  15 O :   -0.697921
  16 H :    0.371343
  17 H :    0.325687
  18 O :   -0.721254
  19 H :    0.368758
  20 H :    0.378027
  21 O :   -0.700402
  22 H :    0.372690
  23 H :    0.324866
Sum of atomic charges:   -0.0000000

LOEWDIN ATOMIC CHARGES
----------------------
   0 O :   -0.300223
   1 H :    0.152502
   2 H :    0.140357
   3 O :   -0.295063
   4 H :    0.145321
   5 H :    0.174580
   6 O :   -0.292729
   7 H :    0.170167
   8 H :    0.146970
   9 O :   -0.310363
  10 H :    0.168756
  11 H :    0.145476
  12 O :   -0.351824
  13 H :    0.148793
  14 H :    0.140702
  15 O :   -0.337491
  16 H :    0.150858
  17 H :    0.158284
  18 O :   -0.288408
  19 H :    0.170127
  20 H :    0.194658
  21 O :   -0.339497
  22 H :    0.150338
  23 H :    0.157708

  Mayer bond orders larger than 0.100000
B(  0-O ,  1-H ) :   0.8019 B(  0-O ,  2-H ) :   0.7577 B(  0-O ,  8-H ) :   0.1050
B(  2-H ,  9-O ) :   0.1131 B(  3-O ,  4-H ) :   0.7547 B(  3-O ,  5-H ) :   0.8279
B(  4-H ,  6-O ) :   0.1019 B(  6-O ,  7-H ) :   0.8319 B(  6-O ,  8-H ) :   0.7485
B(  9-O , 10-H ) :   0.8379 B(  9-O , 11-H ) :   0.7671 B( 12-O , 13-H ) :   0.8252
B( 12-O , 14-H ) :   0.8339 B( 15-O , 16-H ) :   0.8201 B( 15-O , 17-H ) :   0.8554
B( 18-O , 19-H ) :   0.8296 B( 18-O , 20-H ) :   0.8150 B( 21-O , 22-H ) :   0.8173
B( 21-O , 23-H ) :   0.8558

MP2 TOTAL ENERGY:     -610.587651619 Eh
FINAL SINGLE POINT ENERGY      -610.587651618895

DIPOLE MOMENT
-------------
                                X             Y             Z
Electronic contribution:      0.02270       0.04314      -0.17240
Nuclear contribution   :     -1.13412       0.25668      -1.31870
                        -----------------------------------------
Total Dipole Moment    :     -1.11141       0.29982      -1.49110
                        -----------------------------------------
Magnitude (a.u.)       :      1.88375
Magnitude (Debye)      :      4.78810

Rotational constants in cm-1:     0.035182     0.020865     0.017794
Rotational constants in MHz :  1054.721837   625.505663   533.445615

                             ****ORCA TERMINATED NORMALLY****
TOTAL RUN TIME: 0 days 0 hours 3 minutes 21 seconds 956 msec
