                         Program Version 4.2.0 -  RELEASE  -
|  1> # 12mecn.remya.etal.2.mol1,2
|  2> ! MP2 def2-TZVP EnGrad TightSCF
|  3>
|  4> %pal
|  5>     nprocs 6
|  6> end
|  7>
|  8> %maxcore 8000
|  9>
| 10> %scf
| 11>     ConvForced true
| 12> end
| 13>
| 14> *xyz 0 1
| 15> C  -4.697980000  -0.249690000   1.746215000
| 16> H  -4.927570000   0.755530000   2.111799000
| 17> H  -3.709180000  -0.561560000   2.093253000
| 18> H  -5.432280000  -0.961520000   2.128066000
| 19> C  -4.714100000  -0.247110000   0.301670000
| 20> N  -4.729750000  -0.234960000  -0.865260000
| 21> C  -4.219070000  -3.477410000  -1.501740000
| 22> H  -3.251530000  -3.803540000  -1.893830000
| 23> H  -4.452920000  -2.481700000  -1.890840000
| 24> H  -4.992170000  -4.178130000  -1.824640000
| 25> C  -4.154550000  -3.418790000  -0.058340000
| 26> N  -4.091140000  -3.354840000   1.104432000
| 27> *
| 28>
| 29>                          ****END OF INPUT****

CARTESIAN COORDINATES (ANGSTROEM)
---------------------------------
  C     -4.697980   -0.249690    1.746215
  H     -4.927570    0.755530    2.111799
  H     -3.709180   -0.561560    2.093253
  H     -5.432280   -0.961520    2.128066
  C     -4.714100   -0.247110    0.301670
  N     -4.729750   -0.234960   -0.865260
  C     -4.219070   -3.477410   -1.501740
  H     -3.251530   -3.803540   -1.893830
  H     -4.452920   -2.481700   -1.890840
  H     -4.992170   -4.178130   -1.824640
  C     -4.154550   -3.418790   -0.058340
  N     -4.091140   -3.354840    1.104432

 Total Charge           Charge          ....    0
 Multiplicity           Mult            ....    1
 Number of Electrons    NEL             ....   44
 Basis Dimension        Dim             ....  222

ORBITAL ENERGIES
----------------

  NO   OCC          E(Eh)            E(eV)
   0   2.0000     -15.570987      -423.7081
   1   2.0000     -15.570563      -423.6966
   2   2.0000     -11.282899      -307.0233
   3   2.0000     -11.282582      -307.0147
   4   2.0000     -11.272755      -306.7473
   5   2.0000     -11.271810      -306.7216
   6   2.0000      -1.218186       -33.1485
   7   2.0000      -1.213426       -33.0190
   8   2.0000      -1.036484       -28.2042
   9   2.0000      -1.033527       -28.1237
  10   2.0000      -0.694931       -18.9100
  11   2.0000      -0.690815       -18.7980
  12   2.0000      -0.631273       -17.1778
  13   2.0000      -0.622700       -16.9445
  14   2.0000      -0.618566       -16.8320
  15   2.0000      -0.616033       -16.7631
  16   2.0000      -0.558930       -15.2092
  17   2.0000      -0.555930       -15.1276
  18   2.0000      -0.462834       -12.5943
  19   2.0000      -0.458803       -12.4847
  20   2.0000      -0.457005       -12.4357
  21   2.0000      -0.452774       -12.3206
  22   0.0000       0.126252         3.4355
  23   0.0000       0.145091         3.9481
  24   0.0000       0.172961         4.7065
  25   0.0000       0.176625         4.8062
  26   0.0000       0.179382         4.8812

MULLIKEN ATOMIC CHARGES
-----------------------
   0 C :   -0.258301
   1 H :    0.171463
   2 H :    0.176739
   3 H :    0.178510
   4 C :   -0.116995
   5 N :   -0.150447
   6 C :   -0.287778
   7 H :    0.166241
   8 H :    0.205870
   9 H :    0.166248
  10 C :   -0.113863
  11 N :   -0.137688
Sum of atomic charges:   -0.0000000

LOEWDIN ATOMIC CHARGES
----------------------
   0 C :   -0.284259
   1 H :    0.150219
   2 H :    0.157099
   3 H :    0.155763
   4 C :   -0.209578
   5 N :    0.028363
   6 C :   -0.282553
   7 H :    0.152260
   8 H :    0.157348
   9 H :    0.150096
  10 C :   -0.209498
  11 N :    0.034740

  Mayer bond orders larger than 0.100000
B(  0-C ,  1-H ) :   0.9097 B(  0-C ,  2-H ) :   0.9126 B(  0-C ,  3-H ) :   0.9125
B(  0-C ,  4-C ) :   0.9120 B(  4-C ,  5-N ) :   2.7722 B(  6-C ,  7-H ) :   0.9150
B(  6-C ,  8-H ) :   0.9018 B(  6-C ,  9-H ) :   0.9161 B(  6-C , 10-C ) :   0.9005
B( 10-C , 11-N ) :   2.7935

MP2 TOTAL ENERGY:     -264.976003276 Eh
FINAL SINGLE POINT ENERGY      -264.976003276367

DIPOLE MOMENT
-------------
                                X             Y             Z
Electronic contribution:      0.09043       0.15275       0.01637
Nuclear contribution   :     -0.14453      -0.22496      -0.00234
                        -----------------------------------------
Total Dipole Moment    :     -0.05409      -0.07221       0.01403
                        -----------------------------------------
Magnitude (a.u.)       :      0.09131
Magnitude (Debye)      :      0.23210

Rotational constants in cm-1:     0.167494     0.070907     0.050787
Rotational constants in MHz :  5021.341229  2125.742247  1522.569632

                             ****ORCA TERMINATED NORMALLY****
TOTAL RUN TIME: 0 days 0 hours 1 minutes 36 seconds 575 msec
