                         Program Version 3.0.3 - RELEASE   -
|  1> ! wB97X-D3 Def2-TZVP def2-TZVP/J RIJCOSX TightSCF Grid4
|  2>
|  3> %pal nprocs 12 end
|  4>
|  5> %scf
|  6>         maxiter 400
|  7> end
|  8>
|  9> * xyz  0  1
| 10> O  1.193840	-1.405299	0.303535
| 11> H  0.931398	-2.326670	0.171088
| 12> H  0.487996	-1.031228	0.898777
| 13> O  -1.172771	1.453159	-0.259000
| 14> H  -2.011338	1.211346	-0.677342
| 15> H  -0.490458	1.093952	-0.887884
| 16> O  0.603253	0.157796	-1.778521
| 17> H  1.406183	0.632912	-2.030125
| 18> H  0.901719	-0.479489	-1.074138
| 19> O  -0.665675	-0.176646	1.793117
| 20> H  -0.928522	0.487544	1.098441
| 21> H  -0.214087	0.353681	2.464138
| 22> **                         ****END OF INPUT****

CARTESIAN COORDINATES (ANGSTROEM)
---------------------------------
  O      1.193840   -1.405299    0.303535
  H      0.931398   -2.326670    0.171088
  H      0.487996   -1.031228    0.898777
  O     -1.172771    1.453159   -0.259000
  H     -2.011338    1.211346   -0.677342
  H     -0.490458    1.093952   -0.887884
  O      0.603253    0.157796   -1.778521
  H      1.406183    0.632912   -2.030125
  H      0.901719   -0.479489   -1.074138
  O     -0.665675   -0.176646    1.793117
  H     -0.928522    0.487544    1.098441
  H     -0.214087    0.353681    2.464138

 Total Charge           Charge          ....    0
 Multiplicity           Mult            ....    1
 Number of Electrons    NEL             ....   40
 Basis Dimension        Dim             ....  172

ORBITAL ENERGIES
----------------

  NO   OCC          E(Eh)            E(eV)
   0   2.0000     -19.232337      -523.3385
   1   2.0000     -19.231688      -523.3208
   2   2.0000     -19.231454      -523.3145
   3   2.0000     -19.230616      -523.2917
   4   2.0000      -1.140597       -31.0372
   5   2.0000      -1.123081       -30.5606
   6   2.0000      -1.122377       -30.5414
   7   2.0000      -1.105337       -30.0778
   8   2.0000      -0.642617       -17.4865
   9   2.0000      -0.630090       -17.1456
  10   2.0000      -0.628372       -17.0989
  11   2.0000      -0.624059       -16.9815
  12   2.0000      -0.538668       -14.6579
  13   2.0000      -0.501481       -13.6460
  14   2.0000      -0.500673       -13.6240
  15   2.0000      -0.467535       -12.7223
  16   2.0000      -0.418843       -11.3973
  17   2.0000      -0.417607       -11.3637
  18   2.0000      -0.416576       -11.3356
  19   2.0000      -0.412619       -11.2279
  20   0.0000       0.096850         2.6354
  21   0.0000       0.137219         3.7339
  22   0.0000       0.137752         3.7484
  23   0.0000       0.156787         4.2664
  24   0.0000       0.264883         7.2078

MULLIKEN ATOMIC CHARGES
-----------------------
   0 O :   -0.700121
   1 H :    0.340767
   2 H :    0.356652
   3 O :   -0.700003
   4 H :    0.341695
   5 H :    0.360913
   6 O :   -0.703506
   7 H :    0.340285
   8 H :    0.359437
   9 O :   -0.700325
  10 H :    0.362672
  11 H :    0.341533
Sum of atomic charges:   -0.0000000

LOEWDIN ATOMIC CHARGES
----------------------
   0 O :   -0.298650
   1 H :    0.158723
   2 H :    0.139860
   3 O :   -0.296347
   4 H :    0.160009
   5 H :    0.140034
   6 O :   -0.300365
   7 H :    0.158125
   8 H :    0.139143
   9 O :   -0.298859
  10 H :    0.139378
  11 H :    0.158950

  Mayer bond orders larger than 0.1
B(  0-O ,  1-H ) :   0.8919 B(  0-O ,  2-H ) :   0.7888 B(  0-O ,  8-H ) :   0.1366
B(  2-H ,  9-O ) :   0.1376 B(  3-O ,  4-H ) :   0.8923 B(  3-O ,  5-H ) :   0.7909
B(  3-O , 10-H ) :   0.1336 B(  5-H ,  6-O ) :   0.1358 B(  6-O ,  7-H ) :   0.8923
B(  6-O ,  8-H ) :   0.7886 B(  9-O , 10-H ) :   0.7889 B(  9-O , 11-H ) :   0.8918

Dispersion correction           -0.003000988
FINAL SINGLE POINT ENERGY      -305.805090499211

DIPOLE MOMENT
-------------
                                X             Y             Z
Electronic contribution:     -0.02462       0.01862       0.02579
Nuclear contribution   :      0.13784      -0.09653      -0.12927
                        -----------------------------------------
Total Dipole Moment    :      0.11322      -0.07791      -0.10348
                        -----------------------------------------
Magnitude (a.u.)       :      0.17204
Magnitude (Debye)      :      0.43729

                             ****ORCA TERMINATED NORMALLY****
TOTAL RUN TIME: 0 days 0 hours 0 minutes 51 seconds 357 msec
