                         Program Version 4.2.0 -  RELEASE  -
|  1> # Functional Basis-set
|  2> ! MP2 def2-TZVP
|  3>
|  4> # Type of calculation
|  5> ! SP
|  6>
|  7> # Options
|  8> ! TightSCF Grid4
|  9> %maxcore 8000
| 10>
| 11> %pal nprocs 24 end
| 12>
| 13> *xyz  0  1
| 14> C    -0.86952    -3.92938    1.700199
| 15> H    -0.05742    -3.26885    2.015352
| 16> H    -0.69753    -4.93067    2.101524
| 17> H    -1.82149    -3.54659    2.077146
| 18> C    -0.91608    -3.96996    0.256749
| 19> N    -0.95539    -3.99598    -0.90929
| 20> C    -4.69798    -0.24969    1.746215
| 21> H    -4.92757    0.75553    2.111799
| 22> H    -3.70918    -0.56156    2.093253
| 23> H    -5.43228    -0.96152    2.128066
| 24> C    -4.7141    -0.24711    0.30167
| 25> N    -4.72975    -0.23496    -0.86526
| 26> C    -4.21907    -3.47741    -1.50174
| 27> H    -3.25153    -3.80354    -1.89383
| 28> H    -4.45292    -2.4817    -1.89084
| 29> H    -4.99217    -4.17813    -1.82464
| 30> C    -4.15455    -3.41879    -0.05834
| 31> N    -4.09114    -3.35484    1.104432
| 32> C    -5.18131    2.853865    -1.6261
| 33> H    -5.48826    3.811434    -2.05331
| 34> H    -5.85759    2.068112    -1.96863
| 35> H    -4.17075    2.611402    -1.96664
| 36> C    -5.18726    2.91916    -0.18145
| 37> N    -5.1817    2.970641    0.98364
| 38> C    -1.50969    -0.69396    -1.61014
| 39> H    -1.32701    -1.6927    -2.01737
| 40> H    -0.74217    -0.00065    -1.9644
| 41> H    -2.49192    -0.33431    -1.92935
| 42> C    -1.47357    -0.74812    -0.1672
| 43> N    -1.44749    -0.79372    0.998938
| 44> C    -1.9557    2.51508    1.698463
| 45> H    -2.92383    2.883163    2.049269
| 46> H    -1.15485    3.17183    2.05099
| 47> H    -1.79038    1.506115    2.087896
| 48> C    -1.94823    2.482156    0.253672
| 49> N    -1.93755    2.462523    -0.91315
| 50> C    5.300864    -2.92009    1.401103
| 51> H    5.986071    -2.13977    1.737487
| 52> H    5.636642    -3.88875    1.778233
| 53> H    4.307359    -2.69724    1.799307
| 54> C    5.234791    -2.93314    -0.04329
| 55> N    5.170868    -2.94176    -1.20775
| 56> C    1.502241    0.651296    1.710523
| 57> H    1.309219    1.637164    2.143202
| 58> H    2.493408    0.297996    2.009069
| 59> H    0.746597    -0.05985    2.055508
| 60> C    1.447974    0.738517    0.269805
| 61> N    1.405612    0.808047    -0.89438
| 62> C    1.912641    -2.46805    -1.75051
| 63> H    2.876947    -2.7935    -2.1512
| 64> H    1.688016    -1.46372    -2.12217
| 65> H    1.12346    -3.15478    -2.06959
| 66> C    1.97785    -2.44424    -0.3069
| 67> N    2.036566    -2.42613    0.858249
| 68> C    0.923766    4.000693    -1.57591
| 69> H    0.011949    4.478423    -1.93955
| 70> H    0.947903    2.966558    -1.92996
| 71> H    1.80595    4.519548    -1.95652
| 72> C    0.942834    3.994846    -0.1312
| 73> N    0.960035    3.982544    1.035639
| 74> C    4.602033    0.321019    -1.7848
| 75> H    4.82765    -0.66216    -2.20791
| 76> H    5.320558    1.05798    -2.1485
| 77> H    3.601982    0.643751    -2.08752
| 78> C    4.654967    0.244048    -0.34306
| 79> N    4.691648    0.16659    0.820757
| 80> C    4.214163    3.378139    1.593627
| 81> H    3.242643    3.657109    2.012358
| 82> H    4.969258    4.086643    1.94129
| 83> H    4.482966    2.372549    1.931698
| 84> C    4.130759    3.388436    0.150192
| 85> N    4.05018    3.381449    -1.01342
| 86> *
| 87>
| 88>                          ****END OF INPUT****

CARTESIAN COORDINATES (ANGSTROEM)
---------------------------------
  C     -0.869520   -3.929380    1.700199
  H     -0.057420   -3.268850    2.015352
  H     -0.697530   -4.930670    2.101524
  H     -1.821490   -3.546590    2.077146
  C     -0.916080   -3.969960    0.256749
  N     -0.955390   -3.995980   -0.909290
  C     -4.697980   -0.249690    1.746215
  H     -4.927570    0.755530    2.111799
  H     -3.709180   -0.561560    2.093253
  H     -5.432280   -0.961520    2.128066
  C     -4.714100   -0.247110    0.301670
  N     -4.729750   -0.234960   -0.865260
  C     -4.219070   -3.477410   -1.501740
  H     -3.251530   -3.803540   -1.893830
  H     -4.452920   -2.481700   -1.890840
  H     -4.992170   -4.178130   -1.824640
  C     -4.154550   -3.418790   -0.058340
  N     -4.091140   -3.354840    1.104432
  C     -5.181310    2.853865   -1.626100
  H     -5.488260    3.811434   -2.053310
  H     -5.857590    2.068112   -1.968630
  H     -4.170750    2.611402   -1.966640
  C     -5.187260    2.919160   -0.181450
  N     -5.181700    2.970641    0.983640
  C     -1.509690   -0.693960   -1.610140
  H     -1.327010   -1.692700   -2.017370
  H     -0.742170   -0.000650   -1.964400
  H     -2.491920   -0.334310   -1.929350
  C     -1.473570   -0.748120   -0.167200
  N     -1.447490   -0.793720    0.998938
  C     -1.955700    2.515080    1.698463
  H     -2.923830    2.883163    2.049269
  H     -1.154850    3.171830    2.050990
  H     -1.790380    1.506115    2.087896
  C     -1.948230    2.482156    0.253672
  N     -1.937550    2.462523   -0.913150
  C      5.300864   -2.920090    1.401103
  H      5.986071   -2.139770    1.737487
  H      5.636642   -3.888750    1.778233
  H      4.307359   -2.697240    1.799307
  C      5.234791   -2.933140   -0.043290
  N      5.170868   -2.941760   -1.207750
  C      1.502241    0.651296    1.710523
  H      1.309219    1.637164    2.143202
  H      2.493408    0.297996    2.009069
  H      0.746597   -0.059850    2.055508
  C      1.447974    0.738517    0.269805
  N      1.405612    0.808047   -0.894380
  C      1.912641   -2.468050   -1.750510
  H      2.876947   -2.793500   -2.151200
  H      1.688016   -1.463720   -2.122170
  H      1.123460   -3.154780   -2.069590
  C      1.977850   -2.444240   -0.306900
  N      2.036566   -2.426130    0.858249
  C      0.923766    4.000693   -1.575910
  H      0.011949    4.478423   -1.939550
  H      0.947903    2.966558   -1.929960
  H      1.805950    4.519548   -1.956520
  C      0.942834    3.994846   -0.131200
  N      0.960035    3.982544    1.035639
  C      4.602033    0.321019   -1.784800
  H      4.827650   -0.662160   -2.207910
  H      5.320558    1.057980   -2.148500
  H      3.601982    0.643751   -2.087520
  C      4.654967    0.244048   -0.343060
  N      4.691648    0.166590    0.820757
  C      4.214163    3.378139    1.593627
  H      3.242643    3.657109    2.012358
  H      4.969258    4.086643    1.941290
  H      4.482966    2.372549    1.931698
  C      4.130759    3.388436    0.150192
  N      4.050180    3.381449   -1.013420

 Total Charge           Charge          ....    0
 Multiplicity           Mult            ....    1
 Number of Electrons    NEL             ....  264
 Basis Dimension        Dim             .... 1332

ORBITAL ENERGIES
----------------

  NO   OCC          E(Eh)            E(eV)
   0   2.0000     -15.567067      -423.6014
   1   2.0000     -15.566885      -423.5965
   2   2.0000     -15.566631      -423.5896
   3   2.0000     -15.566511      -423.5863
   4   2.0000     -15.565797      -423.5669
   5   2.0000     -15.565365      -423.5551
   6   2.0000     -15.565102      -423.5480
   7   2.0000     -15.564633      -423.5352
   8   2.0000     -15.564632      -423.5352
   9   2.0000     -15.563826      -423.5132
  10   2.0000     -15.563115      -423.4939
  11   2.0000     -15.562789      -423.4850
  12   2.0000     -11.284161      -307.0576
  13   2.0000     -11.283927      -307.0513
  14   2.0000     -11.283467      -307.0388
  15   2.0000     -11.283344      -307.0354
  16   2.0000     -11.282820      -307.0212
  17   2.0000     -11.282369      -307.0089
  18   2.0000     -11.282239      -307.0053
  19   2.0000     -11.282168      -307.0034
  20   2.0000     -11.281513      -306.9856
  21   2.0000     -11.280570      -306.9599
  22   2.0000     -11.280212      -306.9502
  23   2.0000     -11.280015      -306.9448
  24   2.0000     -11.263128      -306.4853
  25   2.0000     -11.263076      -306.4839
  26   2.0000     -11.262316      -306.4632
  27   2.0000     -11.262187      -306.4597
  28   2.0000     -11.256216      -306.2972
  29   2.0000     -11.254977      -306.2635
  30   2.0000     -11.254588      -306.2529
  31   2.0000     -11.254518      -306.2510
  32   2.0000     -11.253708      -306.2290
  33   2.0000     -11.253258      -306.2167
  34   2.0000     -11.252434      -306.1943
  35   2.0000     -11.251801      -306.1771
  36   2.0000      -1.221641       -33.2425
  37   2.0000      -1.219755       -33.1912
  38   2.0000      -1.217868       -33.1399
  39   2.0000      -1.216848       -33.1121
  40   2.0000      -1.215345       -33.0712
  41   2.0000      -1.214334       -33.0437
  42   2.0000      -1.213611       -33.0240
  43   2.0000      -1.213126       -33.0108
  44   2.0000      -1.212086       -32.9825
  45   2.0000      -1.210716       -32.9453
  46   2.0000      -1.210370       -32.9358
  47   2.0000      -1.208743       -32.8916
  48   2.0000      -1.030344       -28.0371
  49   2.0000      -1.029740       -28.0206
  50   2.0000      -1.028577       -27.9890
  51   2.0000      -1.028350       -27.9828
  52   2.0000      -1.025781       -27.9129
  53   2.0000      -1.024174       -27.8692
  54   2.0000      -1.022864       -27.8335
  55   2.0000      -1.022592       -27.8262
  56   2.0000      -1.021264       -27.7900
  57   2.0000      -1.020616       -27.7724
  58   2.0000      -1.020606       -27.7721
  59   2.0000      -1.019249       -27.7352
  60   2.0000      -0.692392       -18.8409
  61   2.0000      -0.690955       -18.8018
  62   2.0000      -0.689526       -18.7630
  63   2.0000      -0.688802       -18.7433
  64   2.0000      -0.686032       -18.6679
  65   2.0000      -0.683968       -18.6117
  66   2.0000      -0.682633       -18.5754
  67   2.0000      -0.682111       -18.5612
  68   2.0000      -0.679939       -18.5021
  69   2.0000      -0.679100       -18.4792
  70   2.0000      -0.678678       -18.4678
  71   2.0000      -0.676256       -18.4018
  72   2.0000      -0.631934       -17.1958
  73   2.0000      -0.631010       -17.1707
  74   2.0000      -0.630567       -17.1586
  75   2.0000      -0.627559       -17.0768
  76   2.0000      -0.627063       -17.0632
  77   2.0000      -0.625229       -17.0133
  78   2.0000      -0.623070       -16.9546
  79   2.0000      -0.622191       -16.9307
  80   2.0000      -0.617499       -16.8030
  81   2.0000      -0.617204       -16.7950
  82   2.0000      -0.616106       -16.7651
  83   2.0000      -0.613338       -16.6898
  84   2.0000      -0.611410       -16.6373
  85   2.0000      -0.609103       -16.5745
  86   2.0000      -0.607465       -16.5300
  87   2.0000      -0.606104       -16.4929
  88   2.0000      -0.604664       -16.4537
  89   2.0000      -0.602109       -16.3842
  90   2.0000      -0.600749       -16.3472
  91   2.0000      -0.600380       -16.3372
  92   2.0000      -0.598641       -16.2899
  93   2.0000      -0.596908       -16.2427
  94   2.0000      -0.596435       -16.2298
  95   2.0000      -0.594484       -16.1767
  96   2.0000      -0.563668       -15.3382
  97   2.0000      -0.559454       -15.2235
  98   2.0000      -0.558327       -15.1929
  99   2.0000      -0.555957       -15.1284
 100   2.0000      -0.555105       -15.1052
 101   2.0000      -0.554183       -15.0801
 102   2.0000      -0.554113       -15.0782
 103   2.0000      -0.553533       -15.0624
 104   2.0000      -0.551269       -15.0008
 105   2.0000      -0.551180       -14.9984
 106   2.0000      -0.550567       -14.9817
 107   2.0000      -0.550118       -14.9695
 108   2.0000      -0.465282       -12.6610
 109   2.0000      -0.464372       -12.6362
 110   2.0000      -0.463394       -12.6096
 111   2.0000      -0.462289       -12.5795
 112   2.0000      -0.461624       -12.5614
 113   2.0000      -0.459780       -12.5113
 114   2.0000      -0.458102       -12.4656
 115   2.0000      -0.457487       -12.4488
 116   2.0000      -0.457300       -12.4438
 117   2.0000      -0.456287       -12.4162
 118   2.0000      -0.455947       -12.4070
 119   2.0000      -0.455653       -12.3989
 120   2.0000      -0.454672       -12.3722
 121   2.0000      -0.453794       -12.3484
 122   2.0000      -0.452795       -12.3212
 123   2.0000      -0.452111       -12.3026
 124   2.0000      -0.451544       -12.2871
 125   2.0000      -0.449721       -12.2375
 126   2.0000      -0.449473       -12.2308
 127   2.0000      -0.448819       -12.2130
 128   2.0000      -0.446861       -12.1597
 129   2.0000      -0.446441       -12.1483
 130   2.0000      -0.445878       -12.1329
 131   2.0000      -0.445378       -12.1193
 132   0.0000       0.129228         3.5165
 133   0.0000       0.140272         3.8170
 134   0.0000       0.146079         3.9750
 135   0.0000       0.147156         4.0043
 136   0.0000       0.150692         4.1005

MULLIKEN ATOMIC CHARGES
-----------------------
   0 C :   -0.167540
   1 H :    0.180667
   2 H :    0.147177
   3 H :    0.191211
   4 C :    0.003222
   5 N :   -0.356334
   6 C :   -0.176381
   7 H :    0.194072
   8 H :    0.178152
   9 H :    0.161919
  10 C :    0.008385
  11 N :   -0.366986
  12 C :   -0.203333
  13 H :    0.185659
  14 H :    0.184808
  15 H :    0.153970
  16 C :   -0.031633
  17 N :   -0.288630
  18 C :   -0.160674
  19 H :    0.151727
  20 H :    0.161115
  21 H :    0.186157
  22 C :   -0.039017
  23 N :   -0.301101
  24 C :   -0.232585
  25 H :    0.180302
  26 H :    0.195311
  27 H :    0.193691
  28 C :    0.066658
  29 N :   -0.402248
  30 C :   -0.243832
  31 H :    0.198159
  32 H :    0.197702
  33 H :    0.171375
  34 C :    0.023491
  35 N :   -0.344742
  36 C :   -0.155498
  37 H :    0.159083
  38 H :    0.151944
  39 H :    0.186020
  40 C :   -0.042215
  41 N :   -0.301308
  42 C :   -0.228674
  43 H :    0.178715
  44 H :    0.193287
  45 H :    0.192480
  46 C :    0.088406
  47 N :   -0.422097
  48 C :   -0.239101
  49 H :    0.201103
  50 H :    0.168060
  51 H :    0.195944
  52 C :    0.034874
  53 N :   -0.358998
  54 C :   -0.140158
  55 H :    0.155073
  56 H :    0.177671
  57 H :    0.174100
  58 C :   -0.013448
  59 N :   -0.356577
  60 C :   -0.174814
  61 H :    0.192935
  62 H :    0.162514
  63 H :    0.178463
  64 C :    0.005657
  65 N :   -0.365450
  66 C :   -0.204301
  67 H :    0.184560
  68 H :    0.154492
  69 H :    0.185124
  70 C :   -0.034147
  71 N :   -0.283614
Sum of atomic charges:    0.0000000

LOEWDIN ATOMIC CHARGES
----------------------
   0 C :   -0.245366
   1 H :    0.148176
   2 H :    0.139987
   3 H :    0.150056
   4 C :   -0.164695
   5 N :   -0.033877
   6 C :   -0.247561
   7 H :    0.146293
   8 H :    0.148465
   9 H :    0.145632
  10 C :   -0.165656
  11 N :   -0.025268
  12 C :   -0.247862
  13 H :    0.147248
  14 H :    0.147460
  15 H :    0.140355
  16 C :   -0.176677
  17 N :   -0.006461
  18 C :   -0.247233
  19 H :    0.139107
  20 H :    0.145392
  21 H :    0.150651
  22 C :   -0.173896
  23 N :   -0.019785
  24 C :   -0.251785
  25 H :    0.141751
  26 H :    0.147996
  27 H :    0.148090
  28 C :   -0.165600
  29 N :   -0.020823
  30 C :   -0.250114
  31 H :    0.147555
  32 H :    0.147179
  33 H :    0.143843
  34 C :   -0.170693
  35 N :   -0.011600
  36 C :   -0.247192
  37 H :    0.145374
  38 H :    0.138875
  39 H :    0.150892
  40 C :   -0.173970
  41 N :   -0.020238
  42 C :   -0.251008
  43 H :    0.141791
  44 H :    0.148275
  45 H :    0.148307
  46 C :   -0.162935
  47 N :   -0.025027
  48 C :   -0.249287
  49 H :    0.148071
  50 H :    0.143598
  51 H :    0.146965
  52 C :   -0.167832
  53 N :   -0.014810
  54 C :   -0.246905
  55 H :    0.141933
  56 H :    0.151559
  57 H :    0.145377
  58 C :   -0.165430
  59 N :   -0.034870
  60 C :   -0.247985
  61 H :    0.145778
  62 H :    0.145599
  63 H :    0.148609
  64 C :   -0.166701
  65 N :   -0.023919
  66 C :   -0.247981
  67 H :    0.147201
  68 H :    0.140354
  69 H :    0.147404
  70 C :   -0.177771
  71 N :   -0.002390

  Mayer bond orders larger than 0.100000
B(  0-C ,  1-H ) :   0.9572 B(  0-C ,  2-H ) :   0.9537 B(  0-C ,  3-H ) :   0.9541
B(  0-C ,  4-C ) :   0.9289 B(  4-C ,  5-N ) :   2.8515 B(  6-C ,  7-H ) :   0.9494
B(  6-C ,  8-H ) :   0.9611 B(  6-C ,  9-H ) :   0.9493 B(  6-C , 10-C ) :   0.9245
B( 10-C , 11-N ) :   2.8303 B( 12-C , 13-H ) :   0.9592 B( 12-C , 14-H ) :   0.9583
B( 12-C , 15-H ) :   0.9550 B( 12-C , 16-C ) :   0.9173 B( 16-C , 17-N ) :   2.9175
B( 18-C , 19-H ) :   0.9571 B( 18-C , 20-H ) :   0.9601 B( 18-C , 21-H ) :   0.9545
B( 18-C , 22-C ) :   0.9313 B( 22-C , 23-N ) :   2.9082 B( 24-C , 25-H ) :   0.9595
B( 24-C , 26-H ) :   0.9552 B( 24-C , 27-H ) :   0.9539 B( 24-C , 28-C ) :   0.8947
B( 28-C , 29-N ) :   2.7411 B( 30-C , 31-H ) :   0.9512 B( 30-C , 32-H ) :   0.9518
B( 30-C , 33-H ) :   0.9640 B( 30-C , 34-C ) :   0.8962 B( 34-C , 35-N ) :   2.8484
B( 36-C , 37-H ) :   0.9604 B( 36-C , 38-H ) :   0.9565 B( 36-C , 39-H ) :   0.9541
B( 36-C , 40-C ) :   0.9327 B( 40-C , 41-N ) :   2.9089 B( 42-C , 43-H ) :   0.9607
B( 42-C , 44-H ) :   0.9560 B( 42-C , 45-H ) :   0.9541 B( 42-C , 46-C ) :   0.8944
B( 46-C , 47-N ) :   2.7085 B( 48-C , 49-H ) :   0.9495 B( 48-C , 50-H ) :   0.9642
B( 48-C , 51-H ) :   0.9516 B( 48-C , 52-C ) :   0.8997 B( 52-C , 53-N ) :   2.8260
B( 54-C , 55-H ) :   0.9555 B( 54-C , 56-H ) :   0.9567 B( 54-C , 57-H ) :   0.9510
B( 54-C , 58-C ) :   0.9349 B( 58-C , 59-N ) :   2.8505 B( 60-C , 61-H ) :   0.9493
B( 60-C , 62-H ) :   0.9488 B( 60-C , 63-H ) :   0.9614 B( 60-C , 64-C ) :   0.9254
B( 64-C , 65-N ) :   2.8293 B( 66-C , 67-H ) :   0.9602 B( 66-C , 68-H ) :   0.9544
B( 66-C , 69-H ) :   0.9593 B( 66-C , 70-C ) :   0.9159 B( 70-C , 71-N ) :   2.9220

MP2 TOTAL ENERGY:    -1589.941916274 Eh
FINAL SINGLE POINT ENERGY     -1589.941916274117

DIPOLE MOMENT
-------------
                                X             Y             Z
Electronic contribution:     -0.04448       0.05482       0.00143
Nuclear contribution   :      0.09016      -0.09515       0.00154
                        -----------------------------------------
Total Dipole Moment    :      0.04568      -0.04033       0.00297
                        -----------------------------------------
Magnitude (a.u.)       :      0.06101
Magnitude (Debye)      :      0.15507

Rotational constants in cm-1:     0.003994     0.002507     0.001767
Rotational constants in MHz :   119.724893    75.154489    52.976463

                             ****ORCA TERMINATED NORMALLY****
TOTAL RUN TIME: 0 days 0 hours 32 minutes 59 seconds 732 msec
