                         Program Version 4.2.0 -  RELEASE  -
|  1> # 12h2o.su.etal.mol1,5,6,11
|  2> ! MP2 def2-TZVP EnGrad TightSCF
|  3>
|  4> %pal
|  5>     nprocs 6
|  6> end
|  7>
|  8> %maxcore 8000
|  9>
| 10> %scf
| 11>     ConvForced true
| 12> end
| 13>
| 14> *xyz 0 1
| 15> O  -1.794470000  -0.923410000   2.768350000
| 16> H  -2.338250000  -1.359750000   3.430940000
| 17> H  -0.879480000  -1.303000000   2.865760000
| 18> O   0.885520000  -1.737840000   0.052730000
| 19> H   1.284090000  -0.839590000   0.017130000
| 20> H   1.032320000  -2.090180000  -0.841890000
| 21> O   1.737840000   0.885520000  -0.052730000
| 22> H   2.090180000   1.032320000   0.841890000
| 23> H   0.839590000   1.284090000  -0.017130000
| 24> O  -0.741530000   1.752130000   2.896280000
| 25> H  -0.920500000   2.036450000   1.984040000
| 26> H  -1.242140000   0.921210000   2.984230000
| 27> *
| 28>
| 29>                          ****END OF INPUT****

CARTESIAN COORDINATES (ANGSTROEM)
---------------------------------
  O     -1.794470   -0.923410    2.768350
  H     -2.338250   -1.359750    3.430940
  H     -0.879480   -1.303000    2.865760
  O      0.885520   -1.737840    0.052730
  H      1.284090   -0.839590    0.017130
  H      1.032320   -2.090180   -0.841890
  O      1.737840    0.885520   -0.052730
  H      2.090180    1.032320    0.841890
  H      0.839590    1.284090   -0.017130
  O     -0.741530    1.752130    2.896280
  H     -0.920500    2.036450    1.984040
  H     -1.242140    0.921210    2.984230

 Total Charge           Charge          ....    0
 Multiplicity           Mult            ....    1
 Number of Electrons    NEL             ....   40
 Basis Dimension        Dim             ....  172

ORBITAL ENERGIES
----------------

  NO   OCC          E(Eh)            E(eV)
   0   2.0000     -20.594705      -560.4104
   1   2.0000     -20.583768      -560.1128
   2   2.0000     -20.544986      -559.0575
   3   2.0000     -20.531017      -558.6774
   4   2.0000      -1.375231       -37.4219
   5   2.0000      -1.361672       -37.0530
   6   2.0000      -1.326725       -36.1020
   7   2.0000      -1.312140       -35.7051
   8   2.0000      -0.733244       -19.9526
   9   2.0000      -0.728896       -19.8343
  10   2.0000      -0.694827       -18.9072
  11   2.0000      -0.688174       -18.7262
  12   2.0000      -0.614736       -16.7278
  13   2.0000      -0.603699       -16.4275
  14   2.0000      -0.566224       -15.4077
  15   2.0000      -0.564737       -15.3673
  16   2.0000      -0.523657       -14.2494
  17   2.0000      -0.521326       -14.1860
  18   2.0000      -0.492074       -13.3900
  19   2.0000      -0.479320       -13.0430
  20   0.0000       0.094693         2.5767
  21   0.0000       0.129686         3.5289
  22   0.0000       0.157883         4.2962
  23   0.0000       0.175635         4.7793
  24   0.0000       0.201414         5.4808

MULLIKEN ATOMIC CHARGES
-----------------------
   0 O :   -0.697241
   1 H :    0.350598
   2 H :    0.369069
   3 O :   -0.718723
   4 H :    0.352840
   5 H :    0.329894
   6 O :   -0.680027
   7 H :    0.362911
   8 H :    0.350696
   9 O :   -0.701541
  10 H :    0.318577
  11 H :    0.362946
Sum of atomic charges:    0.0000000

LOEWDIN ATOMIC CHARGES
----------------------
   0 O :   -0.310440
   1 H :    0.162986
   2 H :    0.191275
   3 O :   -0.365088
   4 H :    0.141023
   5 H :    0.159749
   6 O :   -0.288362
   7 H :    0.175113
   8 H :    0.175957
   9 O :   -0.345571
  10 H :    0.153876
  11 H :    0.149482

  Mayer bond orders larger than 0.100000
B(  0-O ,  1-H ) :   0.8425 B(  0-O ,  2-H ) :   0.8231 B(  3-O ,  4-H ) :   0.8000
B(  3-O ,  5-H ) :   0.8576 B(  6-O ,  7-H ) :   0.8335 B(  6-O ,  8-H ) :   0.8372
B(  9-O , 10-H ) :   0.8627 B(  9-O , 11-H ) :   0.8095

MP2 TOTAL ENERGY:     -305.270950372 Eh
FINAL SINGLE POINT ENERGY      -305.270950371896

DIPOLE MOMENT
-------------
                                X             Y             Z
Electronic contribution:      0.03944       0.06071       0.05236
Nuclear contribution   :     -0.25712      -0.22578      -0.05351
                        -----------------------------------------
Total Dipole Moment    :     -0.21768      -0.16507      -0.00115
                        -----------------------------------------
Magnitude (a.u.)       :      0.27319
Magnitude (Debye)      :      0.69439

Rotational constants in cm-1:     0.115080     0.059977     0.039928
Rotational constants in MHz :  3450.001803  1798.060264  1197.009169

                             ****ORCA TERMINATED NORMALLY****
TOTAL RUN TIME: 0 days 0 hours 0 minutes 17 seconds 338 msec
