                         Program Version 4.2.0 -  RELEASE  -
|  1> # 12h2o.su.etal.mol2,6,7,9,10,11
|  2> ! MP2 def2-TZVP EnGrad TightSCF
|  3>
|  4> %pal
|  5>     nprocs 6
|  6> end
|  7>
|  8> %maxcore 8000
|  9>
| 10> %scf
| 11>     ConvForced true
| 12> end
| 13>
| 14> *xyz 0 1
| 15> O   0.923410000  -1.794470000  -2.768350000
| 16> H   1.359750000  -2.338250000  -3.430940000
| 17> H   1.303000000  -0.879480000  -2.865760000
| 18> O   1.737840000   0.885520000  -0.052730000
| 19> H   2.090180000   1.032320000   0.841890000
| 20> H   0.839590000   1.284090000  -0.017130000
| 21> O  -1.737840000  -0.885520000  -0.052730000
| 22> H  -2.090180000  -1.032320000   0.841890000
| 23> H  -0.839590000  -1.284090000  -0.017130000
| 24> O   0.741530000  -1.752130000   2.896280000
| 25> H   0.920500000  -2.036450000   1.984040000
| 26> H   1.242140000  -0.921210000   2.984230000
| 27> O  -0.923410000   1.794470000  -2.768350000
| 28> H  -1.359750000   2.338250000  -3.430940000
| 29> H  -1.303000000   0.879480000  -2.865760000
| 30> O  -0.741530000   1.752130000   2.896280000
| 31> H  -0.920500000   2.036450000   1.984040000
| 32> H  -1.242140000   0.921210000   2.984230000
| 33> *
| 34>
| 35>                          ****END OF INPUT****

CARTESIAN COORDINATES (ANGSTROEM)
---------------------------------
  O      0.923410   -1.794470   -2.768350
  H      1.359750   -2.338250   -3.430940
  H      1.303000   -0.879480   -2.865760
  O      1.737840    0.885520   -0.052730
  H      2.090180    1.032320    0.841890
  H      0.839590    1.284090   -0.017130
  O     -1.737840   -0.885520   -0.052730
  H     -2.090180   -1.032320    0.841890
  H     -0.839590   -1.284090   -0.017130
  O      0.741530   -1.752130    2.896280
  H      0.920500   -2.036450    1.984040
  H      1.242140   -0.921210    2.984230
  O     -0.923410    1.794470   -2.768350
  H     -1.359750    2.338250   -3.430940
  H     -1.303000    0.879480   -2.865760
  O     -0.741530    1.752130    2.896280
  H     -0.920500    2.036450    1.984040
  H     -1.242140    0.921210    2.984230

 Total Charge           Charge          ....    0
 Multiplicity           Mult            ....    1
 Number of Electrons    NEL             ....   60
 Basis Dimension        Dim             ....  258

ORBITAL ENERGIES
----------------

  NO   OCC          E(Eh)            E(eV)
   0   2.0000     -20.572635      -559.8099
   1   2.0000     -20.572634      -559.8098
   2   2.0000     -20.567604      -559.6730
   3   2.0000     -20.567604      -559.6730
   4   2.0000     -20.560805      -559.4880
   5   2.0000     -20.560805      -559.4880
   6   2.0000      -1.352004       -36.7899
   7   2.0000      -1.351197       -36.7679
   8   2.0000      -1.343593       -36.5610
   9   2.0000      -1.342997       -36.5448
  10   2.0000      -1.336324       -36.3632
  11   2.0000      -1.335949       -36.3530
  12   2.0000      -0.715706       -19.4754
  13   2.0000      -0.713066       -19.4035
  14   2.0000      -0.707615       -19.2552
  15   2.0000      -0.704105       -19.1597
  16   2.0000      -0.703786       -19.1510
  17   2.0000      -0.702674       -19.1207
  18   2.0000      -0.589704       -16.0467
  19   2.0000      -0.589676       -16.0459
  20   2.0000      -0.583389       -15.8748
  21   2.0000      -0.582844       -15.8600
  22   2.0000      -0.573624       -15.6091
  23   2.0000      -0.572940       -15.5905
  24   2.0000      -0.520216       -14.1558
  25   2.0000      -0.513430       -13.9711
  26   2.0000      -0.512027       -13.9330
  27   2.0000      -0.508102       -13.8262
  28   2.0000      -0.505178       -13.7466
  29   2.0000      -0.503150       -13.6914
  30   0.0000       0.078614         2.1392
  31   0.0000       0.120827         3.2879
  32   0.0000       0.132085         3.5942
  33   0.0000       0.136527         3.7151
  34   0.0000       0.150129         4.0852

MULLIKEN ATOMIC CHARGES
-----------------------
   0 O :   -0.695752
   1 H :    0.337762
   2 H :    0.358786
   3 O :   -0.681348
   4 H :    0.332416
   5 H :    0.347915
   6 O :   -0.681348
   7 H :    0.332416
   8 H :    0.347915
   9 O :   -0.679355
  10 H :    0.337638
  11 H :    0.341937
  12 O :   -0.695752
  13 H :    0.337762
  14 H :    0.358786
  15 O :   -0.679355
  16 H :    0.337638
  17 H :    0.341937
Sum of atomic charges:   -0.0000000

LOEWDIN ATOMIC CHARGES
----------------------
   0 O :   -0.342767
   1 H :    0.157734
   2 H :    0.185552
   3 O :   -0.333940
   4 H :    0.161251
   5 H :    0.171994
   6 O :   -0.333940
   7 H :    0.161251
   8 H :    0.171994
   9 O :   -0.328836
  10 H :    0.163092
  11 H :    0.165919
  12 O :   -0.342767
  13 H :    0.157734
  14 H :    0.185552
  15 O :   -0.328836
  16 H :    0.163092
  17 H :    0.165919

  Mayer bond orders larger than 0.100000
B(  0-O ,  1-H ) :   0.8532 B(  0-O ,  2-H ) :   0.8320 B(  3-O ,  4-H ) :   0.8534
B(  3-O ,  5-H ) :   0.8384 B(  6-O ,  7-H ) :   0.8534 B(  6-O ,  8-H ) :   0.8384
B(  9-O , 10-H ) :   0.8502 B(  9-O , 11-H ) :   0.8462 B( 12-O , 13-H ) :   0.8532
B( 12-O , 14-H ) :   0.8320 B( 15-O , 16-H ) :   0.8502 B( 15-O , 17-H ) :   0.8462

MP2 TOTAL ENERGY:     -457.891666886 Eh
FINAL SINGLE POINT ENERGY      -457.891666885693

DIPOLE MOMENT
-------------
                                X             Y             Z
Electronic contribution:      0.00000       0.00000       0.13526
Nuclear contribution   :      0.00000      -0.00000      -1.08884
                        -----------------------------------------
Total Dipole Moment    :      0.00000       0.00000      -0.95358
                        -----------------------------------------
Magnitude (a.u.)       :      0.95358
Magnitude (Debye)      :      2.42382

Rotational constants in cm-1:     0.040310     0.023408     0.019586
Rotational constants in MHz :  1208.463347   701.766262   587.187275

                             ****ORCA TERMINATED NORMALLY****
TOTAL RUN TIME: 0 days 0 hours 0 minutes 42 seconds 303 msec
