                         Program Version 4.2.0 -  RELEASE  -
|  1> # 12h2o.su.etal.mol0,2,4,5,6,9
|  2> ! MP2 def2-TZVP EnGrad TightSCF
|  3>
|  4> %pal
|  5>     nprocs 6
|  6> end
|  7>
|  8> %maxcore 8000
|  9>
| 10> %scf
| 11>     ConvForced true
| 12> end
| 13>
| 14> *xyz 0 1
| 15> O   1.794470000   0.923410000   2.768350000
| 16> H   2.338250000   1.359750000   3.430940000
| 17> H   0.879480000   1.303000000   2.865760000
| 18> O   0.923410000  -1.794470000  -2.768350000
| 19> H   1.359750000  -2.338250000  -3.430940000
| 20> H   1.303000000  -0.879480000  -2.865760000
| 21> O  -0.885520000   1.737840000   0.052730000
| 22> H  -1.032320000   2.090180000  -0.841890000
| 23> H  -1.284090000   0.839590000   0.017130000
| 24> O   0.885520000  -1.737840000   0.052730000
| 25> H   1.284090000  -0.839590000   0.017130000
| 26> H   1.032320000  -2.090180000  -0.841890000
| 27> O   1.737840000   0.885520000  -0.052730000
| 28> H   2.090180000   1.032320000   0.841890000
| 29> H   0.839590000   1.284090000  -0.017130000
| 30> O   0.741530000  -1.752130000   2.896280000
| 31> H   0.920500000  -2.036450000   1.984040000
| 32> H   1.242140000  -0.921210000   2.984230000
| 33> *
| 34>
| 35>                          ****END OF INPUT****

CARTESIAN COORDINATES (ANGSTROEM)
---------------------------------
  O      1.794470    0.923410    2.768350
  H      2.338250    1.359750    3.430940
  H      0.879480    1.303000    2.865760
  O      0.923410   -1.794470   -2.768350
  H      1.359750   -2.338250   -3.430940
  H      1.303000   -0.879480   -2.865760
  O     -0.885520    1.737840    0.052730
  H     -1.032320    2.090180   -0.841890
  H     -1.284090    0.839590    0.017130
  O      0.885520   -1.737840    0.052730
  H      1.284090   -0.839590    0.017130
  H      1.032320   -2.090180   -0.841890
  O      1.737840    0.885520   -0.052730
  H      2.090180    1.032320    0.841890
  H      0.839590    1.284090   -0.017130
  O      0.741530   -1.752130    2.896280
  H      0.920500   -2.036450    1.984040
  H      1.242140   -0.921210    2.984230

 Total Charge           Charge          ....    0
 Multiplicity           Mult            ....    1
 Number of Electrons    NEL             ....   60
 Basis Dimension        Dim             ....  258

ORBITAL ENERGIES
----------------

  NO   OCC          E(Eh)            E(eV)
   0   2.0000     -20.603070      -560.6380
   1   2.0000     -20.601814      -560.6039
   2   2.0000     -20.582820      -560.0870
   3   2.0000     -20.541935      -558.9745
   4   2.0000     -20.508114      -558.0542
   5   2.0000     -20.490235      -557.5676
   6   2.0000      -1.384159       -37.6649
   7   2.0000      -1.382052       -37.6075
   8   2.0000      -1.360722       -37.0271
   9   2.0000      -1.331150       -36.2224
  10   2.0000      -1.295025       -35.2394
  11   2.0000      -1.274681       -34.6858
  12   2.0000      -0.748910       -20.3789
  13   2.0000      -0.739929       -20.1345
  14   2.0000      -0.727621       -19.7996
  15   2.0000      -0.707195       -19.2438
  16   2.0000      -0.675655       -18.3855
  17   2.0000      -0.655245       -17.8301
  18   2.0000      -0.632480       -17.2107
  19   2.0000      -0.615398       -16.7458
  20   2.0000      -0.599919       -16.3246
  21   2.0000      -0.580037       -15.7836
  22   2.0000      -0.563216       -15.3259
  23   2.0000      -0.541870       -14.7450
  24   2.0000      -0.528968       -14.3939
  25   2.0000      -0.518770       -14.1165
  26   2.0000      -0.503315       -13.6959
  27   2.0000      -0.483561       -13.1584
  28   2.0000      -0.459840       -12.5129
  29   2.0000      -0.440117       -11.9762
  30   0.0000       0.094927         2.5831
  31   0.0000       0.116866         3.1801
  32   0.0000       0.129203         3.5158
  33   0.0000       0.178079         4.8458
  34   0.0000       0.193871         5.2755

MULLIKEN ATOMIC CHARGES
-----------------------
   0 O :   -0.712476
   1 H :    0.360940
   2 H :    0.373497
   3 O :   -0.695713
   4 H :    0.348445
   5 H :    0.357309
   6 O :   -0.695428
   7 H :    0.358361
   8 H :    0.374525
   9 O :   -0.747682
  10 H :    0.341573
  11 H :    0.362004
  12 O :   -0.727807
  13 H :    0.374043
  14 H :    0.351911
  15 O :   -0.730485
  16 H :    0.372335
  17 H :    0.334649
Sum of atomic charges:    0.0000000

LOEWDIN ATOMIC CHARGES
----------------------
   0 O :   -0.286636
   1 H :    0.166258
   2 H :    0.192673
   3 O :   -0.312009
   4 H :    0.161584
   5 H :    0.185787
   6 O :   -0.292888
   7 H :    0.173848
   8 H :    0.186363
   9 O :   -0.351911
  10 H :    0.135922
  11 H :    0.145982
  12 O :   -0.320006
  13 H :    0.148568
  14 H :    0.138236
  15 O :   -0.359548
  16 H :    0.151145
  17 H :    0.136632

  Mayer bond orders larger than 0.100000
B(  0-O ,  1-H ) :   0.8338 B(  0-O ,  2-H ) :   0.8183 B(  3-O ,  4-H ) :   0.8440
B(  3-O ,  5-H ) :   0.8322 B(  6-O ,  7-H ) :   0.8375 B(  6-O ,  8-H ) :   0.8204
B(  9-O , 10-H ) :   0.7809 B(  9-O , 11-H ) :   0.8216 B( 12-O , 13-H ) :   0.8132
B( 12-O , 14-H ) :   0.7931 B( 15-O , 16-H ) :   0.8137 B( 15-O , 17-H ) :   0.8433

MP2 TOTAL ENERGY:     -457.923569305 Eh
FINAL SINGLE POINT ENERGY      -457.923569304644

DIPOLE MOMENT
-------------
                                X             Y             Z
Electronic contribution:     -0.20385       0.11484       0.04704
Nuclear contribution   :      0.48143       1.89704      -1.46039
                        -----------------------------------------
Total Dipole Moment    :      0.27758       2.01188      -1.41334
                        -----------------------------------------
Magnitude (a.u.)       :      2.47432
Magnitude (Debye)      :      6.28922

Rotational constants in cm-1:     0.054873     0.032934     0.025338
Rotational constants in MHz :  1645.054483   987.322379   759.611938

                             ****ORCA TERMINATED NORMALLY****
TOTAL RUN TIME: 0 days 0 hours 1 minutes 6 seconds 459 msec
