                         Program Version 4.2.0 -  RELEASE  -
|  1> # 12h2o.su.etal.mol2,4,5,8,9,10
|  2> ! MP2 def2-TZVP EnGrad TightSCF
|  3>
|  4> %pal
|  5>     nprocs 6
|  6> end
|  7>
|  8> %maxcore 8000
|  9>
| 10> %scf
| 11>     ConvForced true
| 12> end
| 13>
| 14> *xyz 0 1
| 15> O   0.923410000  -1.794470000  -2.768350000
| 16> H   1.359750000  -2.338250000  -3.430940000
| 17> H   1.303000000  -0.879480000  -2.865760000
| 18> O  -0.885520000   1.737840000   0.052730000
| 19> H  -1.032320000   2.090180000  -0.841890000
| 20> H  -1.284090000   0.839590000   0.017130000
| 21> O   0.885520000  -1.737840000   0.052730000
| 22> H   1.284090000  -0.839590000   0.017130000
| 23> H   1.032320000  -2.090180000  -0.841890000
| 24> O   1.752130000   0.741530000  -2.896280000
| 25> H   2.036450000   0.920500000  -1.984040000
| 26> H   0.921210000   1.242140000  -2.984230000
| 27> O   0.741530000  -1.752130000   2.896280000
| 28> H   0.920500000  -2.036450000   1.984040000
| 29> H   1.242140000  -0.921210000   2.984230000
| 30> O  -0.923410000   1.794470000  -2.768350000
| 31> H  -1.359750000   2.338250000  -3.430940000
| 32> H  -1.303000000   0.879480000  -2.865760000
| 33> *
| 34>
| 35>                          ****END OF INPUT****

CARTESIAN COORDINATES (ANGSTROEM)
---------------------------------
  O      0.923410   -1.794470   -2.768350
  H      1.359750   -2.338250   -3.430940
  H      1.303000   -0.879480   -2.865760
  O     -0.885520    1.737840    0.052730
  H     -1.032320    2.090180   -0.841890
  H     -1.284090    0.839590    0.017130
  O      0.885520   -1.737840    0.052730
  H      1.284090   -0.839590    0.017130
  H      1.032320   -2.090180   -0.841890
  O      1.752130    0.741530   -2.896280
  H      2.036450    0.920500   -1.984040
  H      0.921210    1.242140   -2.984230
  O      0.741530   -1.752130    2.896280
  H      0.920500   -2.036450    1.984040
  H      1.242140   -0.921210    2.984230
  O     -0.923410    1.794470   -2.768350
  H     -1.359750    2.338250   -3.430940
  H     -1.303000    0.879480   -2.865760

 Total Charge           Charge          ....    0
 Multiplicity           Mult            ....    1
 Number of Electrons    NEL             ....   60
 Basis Dimension        Dim             ....  258

ORBITAL ENERGIES
----------------

  NO   OCC          E(Eh)            E(eV)
   0   2.0000     -20.631654      -561.4158
   1   2.0000     -20.594874      -560.4150
   2   2.0000     -20.557725      -559.4041
   3   2.0000     -20.554534      -559.3173
   4   2.0000     -20.549758      -559.1873
   5   2.0000     -20.517523      -558.3102
   6   2.0000      -1.412320       -38.4312
   7   2.0000      -1.383744       -37.6536
   8   2.0000      -1.344591       -36.5882
   9   2.0000      -1.332728       -36.2654
  10   2.0000      -1.328808       -36.1587
  11   2.0000      -1.299205       -35.3532
  12   2.0000      -0.778029       -21.1712
  13   2.0000      -0.745186       -20.2775
  14   2.0000      -0.725878       -19.7522
  15   2.0000      -0.704655       -19.1746
  16   2.0000      -0.700699       -19.0670
  17   2.0000      -0.667274       -18.1575
  18   2.0000      -0.651561       -17.7299
  19   2.0000      -0.625667       -17.0253
  20   2.0000      -0.596386       -16.2285
  21   2.0000      -0.584214       -15.8973
  22   2.0000      -0.573227       -15.5983
  23   2.0000      -0.553313       -15.0564
  24   2.0000      -0.536327       -14.5942
  25   2.0000      -0.530589       -14.4381
  26   2.0000      -0.506416       -13.7803
  27   2.0000      -0.500020       -13.6062
  28   2.0000      -0.494270       -13.4498
  29   2.0000      -0.464034       -12.6270
  30   0.0000       0.077375         2.1055
  31   0.0000       0.113872         3.0986
  32   0.0000       0.146575         3.9885
  33   0.0000       0.152832         4.1588
  34   0.0000       0.168386         4.5820

MULLIKEN ATOMIC CHARGES
-----------------------
   0 O :   -0.743079
   1 H :    0.341241
   2 H :    0.367727
   3 O :   -0.698291
   4 H :    0.359469
   5 H :    0.335637
   6 O :   -0.708236
   7 H :    0.316707
   8 H :    0.378235
   9 O :   -0.696483
  10 H :    0.353727
  11 H :    0.378790
  12 O :   -0.697471
  13 H :    0.371438
  14 H :    0.316759
  15 O :   -0.723105
  16 H :    0.370226
  17 H :    0.376708
Sum of atomic charges:   -0.0000000

LOEWDIN ATOMIC CHARGES
----------------------
   0 O :   -0.343622
   1 H :    0.155717
   2 H :    0.141768
   3 O :   -0.344830
   4 H :    0.145260
   5 H :    0.168126
   6 O :   -0.325655
   7 H :    0.158824
   8 H :    0.153780
   9 O :   -0.276988
  10 H :    0.169697
  11 H :    0.154703
  12 O :   -0.342855
  13 H :    0.152234
  14 H :    0.156560
  15 O :   -0.287891
  16 H :    0.170904
  17 H :    0.194268

  Mayer bond orders larger than 0.100000
B(  0-O ,  1-H ) :   0.8482 B(  0-O ,  2-H ) :   0.7598 B(  3-O ,  4-H ) :   0.8283
B(  3-O ,  5-H ) :   0.8478 B(  6-O ,  7-H ) :   0.8525 B(  6-O ,  8-H ) :   0.7981
B(  9-O , 10-H ) :   0.8388 B(  9-O , 11-H ) :   0.7994 B( 12-O , 13-H ) :   0.8172
B( 12-O , 14-H ) :   0.8646 B( 15-O , 16-H ) :   0.8281 B( 15-O , 17-H ) :   0.8147

MP2 TOTAL ENERGY:     -457.918888900 Eh
FINAL SINGLE POINT ENERGY      -457.918888900008

DIPOLE MOMENT
-------------
                                X             Y             Z
Electronic contribution:     -0.17637       0.20372      -0.13272
Nuclear contribution   :      0.11069       1.02062      -2.81375
                        -----------------------------------------
Total Dipole Moment    :     -0.06568       1.22435      -2.94646
                        -----------------------------------------
Magnitude (a.u.)       :      3.19139
Magnitude (Debye)      :      8.11187

Rotational constants in cm-1:     0.053194     0.027536     0.020131
Rotational constants in MHz :  1594.721364   825.515560   603.525813

                             ****ORCA TERMINATED NORMALLY****
TOTAL RUN TIME: 0 days 0 hours 1 minutes 3 seconds 201 msec
