                         Program Version 4.2.0 -  RELEASE  -
|  1> # 12h2o.su.etal.mol0,4,7,9,11
|  2> ! MP2 def2-TZVP EnGrad TightSCF
|  3>
|  4> %pal
|  5>     nprocs 6
|  6> end
|  7>
|  8> %maxcore 8000
|  9>
| 10> %scf
| 11>     ConvForced true
| 12> end
| 13>
| 14> *xyz 0 1
| 15> O   1.794470000   0.923410000   2.768350000
| 16> H   2.338250000   1.359750000   3.430940000
| 17> H   0.879480000   1.303000000   2.865760000
| 18> O  -0.885520000   1.737840000   0.052730000
| 19> H  -1.032320000   2.090180000  -0.841890000
| 20> H  -1.284090000   0.839590000   0.017130000
| 21> O  -1.737840000  -0.885520000  -0.052730000
| 22> H  -2.090180000  -1.032320000   0.841890000
| 23> H  -0.839590000  -1.284090000  -0.017130000
| 24> O   0.741530000  -1.752130000   2.896280000
| 25> H   0.920500000  -2.036450000   1.984040000
| 26> H   1.242140000  -0.921210000   2.984230000
| 27> O  -0.741530000   1.752130000   2.896280000
| 28> H  -0.920500000   2.036450000   1.984040000
| 29> H  -1.242140000   0.921210000   2.984230000
| 30> *
| 31>
| 32>                          ****END OF INPUT****

CARTESIAN COORDINATES (ANGSTROEM)
---------------------------------
  O      1.794470    0.923410    2.768350
  H      2.338250    1.359750    3.430940
  H      0.879480    1.303000    2.865760
  O     -0.885520    1.737840    0.052730
  H     -1.032320    2.090180   -0.841890
  H     -1.284090    0.839590    0.017130
  O     -1.737840   -0.885520   -0.052730
  H     -2.090180   -1.032320    0.841890
  H     -0.839590   -1.284090   -0.017130
  O      0.741530   -1.752130    2.896280
  H      0.920500   -2.036450    1.984040
  H      1.242140   -0.921210    2.984230
  O     -0.741530    1.752130    2.896280
  H     -0.920500    2.036450    1.984040
  H     -1.242140    0.921210    2.984230

 Total Charge           Charge          ....    0
 Multiplicity           Mult            ....    1
 Number of Electrons    NEL             ....   50
 Basis Dimension        Dim             ....  215

ORBITAL ENERGIES
----------------

  NO   OCC          E(Eh)            E(eV)
   0   2.0000     -20.610504      -560.8403
   1   2.0000     -20.572544      -559.8074
   2   2.0000     -20.562416      -559.5318
   3   2.0000     -20.542132      -558.9798
   4   2.0000     -20.537313      -558.8487
   5   2.0000      -1.391339       -37.8603
   6   2.0000      -1.363455       -37.1015
   7   2.0000      -1.343523       -36.5591
   8   2.0000      -1.328056       -36.1382
   9   2.0000      -1.316418       -35.8216
  10   2.0000      -0.748761       -20.3748
  11   2.0000      -0.726531       -19.7699
  12   2.0000      -0.715066       -19.4579
  13   2.0000      -0.706082       -19.2135
  14   2.0000      -0.689903       -18.7732
  15   2.0000      -0.634892       -17.2763
  16   2.0000      -0.611499       -16.6397
  17   2.0000      -0.590647       -16.0723
  18   2.0000      -0.573253       -15.5990
  19   2.0000      -0.552260       -15.0278
  20   2.0000      -0.541482       -14.7345
  21   2.0000      -0.513579       -13.9752
  22   2.0000      -0.506973       -13.7954
  23   2.0000      -0.491434       -13.3726
  24   2.0000      -0.484905       -13.1949
  25   0.0000       0.083762         2.2793
  26   0.0000       0.137365         3.7379
  27   0.0000       0.150384         4.0922
  28   0.0000       0.156520         4.2591
  29   0.0000       0.198191         5.3931

MULLIKEN ATOMIC CHARGES
-----------------------
   0 O :   -0.740413
   1 H :    0.336982
   2 H :    0.384775
   3 O :   -0.725887
   4 H :    0.345591
   5 H :    0.353417
   6 O :   -0.677954
   7 H :    0.358580
   8 H :    0.358704
   9 O :   -0.710370
  10 H :    0.315699
  11 H :    0.367789
  12 O :   -0.697780
  13 H :    0.391459
  14 H :    0.339408
Sum of atomic charges:   -0.0000000

LOEWDIN ATOMIC CHARGES
----------------------
   0 O :   -0.340143
   1 H :    0.153842
   2 H :    0.146241
   3 O :   -0.340727
   4 H :    0.167668
   5 H :    0.142629
   6 O :   -0.285385
   7 H :    0.172385
   8 H :    0.179659
   9 O :   -0.349007
  10 H :    0.152000
  11 H :    0.149763
  12 O :   -0.275229
  13 H :    0.161276
  14 H :    0.165030

  Mayer bond orders larger than 0.100000
B(  0-O ,  1-H ) :   0.8506 B(  0-O ,  2-H ) :   0.7558 B(  3-O ,  4-H ) :   0.8461
B(  3-O ,  5-H ) :   0.7840 B(  6-O ,  7-H ) :   0.8357 B(  6-O ,  8-H ) :   0.8318
B(  9-O , 10-H ) :   0.8639 B(  9-O , 11-H ) :   0.7948 B( 12-O , 13-H ) :   0.7924
B( 12-O , 14-H ) :   0.8451

MP2 TOTAL ENERGY:     -381.605020683 Eh
FINAL SINGLE POINT ENERGY      -381.605020683158

DIPOLE MOMENT
-------------
                                X             Y             Z
Electronic contribution:     -0.23747       0.13267      -0.06777
Nuclear contribution   :     -0.30853      -0.22919      -0.73962
                        -----------------------------------------
Total Dipole Moment    :     -0.54600      -0.09653      -0.80739
                        -----------------------------------------
Magnitude (a.u.)       :      0.97945
Magnitude (Debye)      :      2.48956

Rotational constants in cm-1:     0.074363     0.051867     0.036469
Rotational constants in MHz :  2229.333702  1554.919529  1093.303093

                             ****ORCA TERMINATED NORMALLY****
TOTAL RUN TIME: 0 days 0 hours 0 minutes 33 seconds 161 msec
