                         Program Version 4.2.0 -  RELEASE  -
|  1> # 12meoh.boyd.etal.mol2,3,10
|  2> ! MP2 def2-TZVP EnGrad TightSCF
|  3>
|  4> %pal
|  5>     nprocs 6
|  6> end
|  7>
|  8> %maxcore 8000
|  9>
| 10> %scf
| 11>     ConvForced true
| 12> end
| 13>
| 14> *xyz 0 1
| 15> O  -3.839777402   2.233595098   0.660436763
| 16> H  -2.958345897   1.907036203   0.973588449
| 17> C  -3.600368059   3.168790682  -0.390480452
| 18> H  -4.551709193   3.344148967  -0.901254863
| 19> H  -2.868237594   2.789240199  -1.113617525
| 20> H  -3.243594915   4.128998607   0.009549480
| 21> O  -3.821405976  -2.118091637   0.596795346
| 22> H  -4.342989117  -1.344303030   0.251966383
| 23> C  -3.443883586  -1.809641231   1.934889393
| 24> H  -2.831494349  -2.637429600   2.305201764
| 25> H  -4.325601146  -1.719364371   2.585074667
| 26> H  -2.858527126  -0.882644791   1.996110694
| 27> O  -5.201143618   0.064582726  -0.172223772
| 28> H  -4.686891530   0.869258890   0.107806143
| 29> C  -6.513192168   0.171391798   0.359883449
| 30> H  -7.049381312  -0.749234190   0.111361174
| 31> H  -7.057741163   1.017801101  -0.081819420
| 32> H  -6.514770575   0.292264928   1.453058834
| 33> *
| 34>
| 35>                          ****END OF INPUT****

CARTESIAN COORDINATES (ANGSTROEM)
---------------------------------
  O     -3.839777    2.233595    0.660437
  H     -2.958346    1.907036    0.973588
  C     -3.600368    3.168791   -0.390480
  H     -4.551709    3.344149   -0.901255
  H     -2.868238    2.789240   -1.113618
  H     -3.243595    4.128999    0.009549
  O     -3.821406   -2.118092    0.596795
  H     -4.342989   -1.344303    0.251966
  C     -3.443884   -1.809641    1.934889
  H     -2.831494   -2.637430    2.305202
  H     -4.325601   -1.719364    2.585075
  H     -2.858527   -0.882645    1.996111
  O     -5.201144    0.064583   -0.172224
  H     -4.686892    0.869259    0.107806
  C     -6.513192    0.171392    0.359883
  H     -7.049381   -0.749234    0.111361
  H     -7.057741    1.017801   -0.081819
  H     -6.514771    0.292265    1.453059

 Total Charge           Charge          ....    0
 Multiplicity           Mult            ....    1
 Number of Electrons    NEL             ....   54
 Basis Dimension        Dim             ....  258

ORBITAL ENERGIES
----------------

  NO   OCC          E(Eh)            E(eV)
   0   2.0000     -20.602028      -560.6097
   1   2.0000     -20.549089      -559.1692
   2   2.0000     -20.507958      -558.0499
   3   2.0000     -11.299688      -307.4801
   4   2.0000     -11.268930      -306.6432
   5   2.0000     -11.249864      -306.1244
   6   2.0000      -1.396036       -37.9881
   7   2.0000      -1.350596       -36.7516
   8   2.0000      -1.304586       -35.4996
   9   2.0000      -0.952104       -25.9081
  10   2.0000      -0.919295       -25.0153
  11   2.0000      -0.894216       -24.3328
  12   2.0000      -0.729402       -19.8480
  13   2.0000      -0.700104       -19.0508
  14   2.0000      -0.664553       -18.0834
  15   2.0000      -0.645773       -17.5724
  16   2.0000      -0.623630       -16.9698
  17   2.0000      -0.610309       -16.6074
  18   2.0000      -0.590239       -16.0612
  19   2.0000      -0.588341       -16.0096
  20   2.0000      -0.556824       -15.1520
  21   2.0000      -0.540987       -14.7210
  22   2.0000      -0.509699       -13.8696
  23   2.0000      -0.482470       -13.1287
  24   2.0000      -0.468866       -12.7585
  25   2.0000      -0.438166       -11.9231
  26   2.0000      -0.413234       -11.2447
  27   0.0000       0.106892         2.9087
  28   0.0000       0.145792         3.9672
  29   0.0000       0.153266         4.1706
  30   0.0000       0.186105         5.0642
  31   0.0000       0.205865         5.6019

MULLIKEN ATOMIC CHARGES
-----------------------
   0 O :   -0.518027
   1 H :    0.348449
   2 C :   -0.193779
   3 H :    0.143573
   4 H :    0.138272
   5 H :    0.130819
   6 O :   -0.528723
   7 H :    0.361162
   8 C :   -0.169511
   9 H :    0.125147
  10 H :    0.100904
  11 H :    0.066638
  12 O :   -0.552595
  13 H :    0.359823
  14 C :   -0.179279
  15 H :    0.138466
  16 H :    0.112289
  17 H :    0.116373
Sum of atomic charges:   -0.0000000

LOEWDIN ATOMIC CHARGES
----------------------
   0 O :   -0.075113
   1 H :    0.199056
   2 C :   -0.368557
   3 H :    0.115661
   4 H :    0.105345
   5 H :    0.106088
   6 O :   -0.122858
   7 H :    0.159286
   8 C :   -0.399483
   9 H :    0.106156
  10 H :    0.091444
  11 H :    0.081629
  12 O :   -0.084420
  13 H :    0.162247
  14 C :   -0.387405
  15 H :    0.112423
  16 H :    0.099898
  17 H :    0.098604

  Mayer bond orders larger than 0.100000
B(  0-O ,  1-H ) :   0.8255 B(  0-O ,  2-C ) :   0.8648 B(  0-O , 13-H ) :   0.1075
B(  2-C ,  3-H ) :   0.9391 B(  2-C ,  4-H ) :   0.9407 B(  2-C ,  5-H ) :   0.9329
B(  6-O ,  7-H ) :   0.7826 B(  6-O ,  8-C ) :   0.9548 B(  8-C ,  9-H ) :   0.9434
B(  8-C , 10-H ) :   0.9396 B(  8-C , 11-H ) :   0.9373 B( 12-O , 13-H ) :   0.7566
B( 12-O , 14-C ) :   0.8900 B( 14-C , 15-H ) :   0.9416 B( 14-C , 16-H ) :   0.9374
B( 14-C , 17-H ) :   0.9390

MP2 TOTAL ENERGY:     -346.542387686 Eh
FINAL SINGLE POINT ENERGY      -346.542387686475

DIPOLE MOMENT
-------------
                                X             Y             Z
Electronic contribution:      0.76639      -1.33525      -1.31023
Nuclear contribution   :     -0.52647       3.25290       1.59454
                        -----------------------------------------
Total Dipole Moment    :      0.23992       1.91765       0.28431
                        -----------------------------------------
Magnitude (a.u.)       :      1.95340
Magnitude (Debye)      :      4.96515

Rotational constants in cm-1:     0.105682     0.041179     0.032987
Rotational constants in MHz :  3168.266246  1234.511064   988.924126

                             ****ORCA TERMINATED NORMALLY****
TOTAL RUN TIME: 0 days 0 hours 1 minutes 31 seconds 791 msec
