                         Program Version 4.2.0 -  RELEASE  -
|  1> # 12meoh.boyd.etal.mol10
|  2> ! MP2 def2-TZVP EnGrad TightSCF
|  3>
|  4> %pal
|  5>     nprocs 6
|  6> end
|  7>
|  8> %maxcore 8000
|  9>
| 10> %scf
| 11>     ConvForced true
| 12> end
| 13>
| 14> *xyz 0 1
| 15> O  -5.201143618   0.064582726  -0.172223772
| 16> H  -4.686891530   0.869258890   0.107806143
| 17> C  -6.513192168   0.171391798   0.359883449
| 18> H  -7.049381312  -0.749234190   0.111361174
| 19> H  -7.057741163   1.017801101  -0.081819420
| 20> H  -6.514770575   0.292264928   1.453058834
| 21> *
| 22>
| 23>                          ****END OF INPUT****

CARTESIAN COORDINATES (ANGSTROEM)
---------------------------------
  O     -5.201144    0.064583   -0.172224
  H     -4.686892    0.869259    0.107806
  C     -6.513192    0.171392    0.359883
  H     -7.049381   -0.749234    0.111361
  H     -7.057741    1.017801   -0.081819
  H     -6.514771    0.292265    1.453059

 Total Charge           Charge          ....    0
 Multiplicity           Mult            ....    1
 Number of Electrons    NEL             ....   18
 Basis Dimension        Dim             ....   86

ORBITAL ENERGIES
----------------

  NO   OCC          E(Eh)            E(eV)
   0   2.0000     -20.557814      -559.4065
   1   2.0000     -11.271560      -306.7147
   2   2.0000      -1.347887       -36.6779
   3   2.0000      -0.919382       -25.0177
   4   2.0000      -0.682491       -18.5715
   5   2.0000      -0.617003       -16.7895
   6   2.0000      -0.591692       -16.1008
   7   2.0000      -0.500040       -13.6068
   8   2.0000      -0.448790       -12.2122
   9   0.0000       0.134811         3.6684
  10   0.0000       0.175716         4.7815
  11   0.0000       0.229092         6.2339
  12   0.0000       0.231001         6.2859
  13   0.0000       0.254988         6.9386

MULLIKEN ATOMIC CHARGES
-----------------------
   0 O :   -0.496027
   1 H :    0.321674
   2 C :   -0.172468
   3 H :    0.129326
   4 H :    0.108598
   5 H :    0.108896
Sum of atomic charges:   -0.0000000

LOEWDIN ATOMIC CHARGES
----------------------
   0 O :   -0.106851
   1 H :    0.191015
   2 C :   -0.385006
   3 H :    0.110467
   4 H :    0.095080
   5 H :    0.095295

  Mayer bond orders larger than 0.100000
B(  0-O ,  1-H ) :   0.8420 B(  0-O ,  2-C ) :   0.9274 B(  2-C ,  3-H ) :   0.9376
B(  2-C ,  4-H ) :   0.9389 B(  2-C ,  5-H ) :   0.9385

MP2 TOTAL ENERGY:     -115.506572008 Eh
FINAL SINGLE POINT ENERGY      -115.506572007682

DIPOLE MOMENT
-------------
                                X             Y             Z
Electronic contribution:      1.62551      -0.27392      -0.72731
Nuclear contribution   :     -1.83896       0.80960       1.11677
                        -----------------------------------------
Total Dipole Moment    :     -0.21345       0.53568       0.38946
                        -----------------------------------------
Magnitude (a.u.)       :      0.69584
Magnitude (Debye)      :      1.76868

Rotational constants in cm-1:     4.199292     0.824803     0.793246
Rotational constants in MHz : 125891.618119 24726.983355 23780.912543

                             ****ORCA TERMINATED NORMALLY****
TOTAL RUN TIME: 0 days 0 hours 0 minutes 9 seconds 542 msec
