                         Program Version 4.2.0 -  RELEASE  -
|  1> # 12meoh.boyd.etal.mol7,10,11
|  2> ! MP2 def2-TZVP EnGrad TightSCF
|  3>
|  4> %pal
|  5>     nprocs 6
|  6> end
|  7>
|  8> %maxcore 8000
|  9>
| 10> %scf
| 11>     ConvForced true
| 12> end
| 13>
| 14> *xyz 0 1
| 15> O   4.310535586  -1.588322800   0.656128299
| 16> H   3.804372199  -1.630404735  -0.196849819
| 17> C   4.312298137  -2.894980854   1.222112691
| 18> H   4.713177833  -2.819907076   2.237066773
| 19> H   4.957796734  -3.574699304   0.648211180
| 20> H   3.302735989  -3.324433205   1.269756773
| 21> O  -5.201143618   0.064582726  -0.172223772
| 22> H  -4.686891530   0.869258890   0.107806143
| 23> C  -6.513192168   0.171391798   0.359883449
| 24> H  -7.049381312  -0.749234190   0.111361174
| 25> H  -7.057741163   1.017801101  -0.081819420
| 26> H  -6.514770575   0.292264928   1.453058834
| 27> O   3.252955559   0.588596242   1.858934315
| 28> H   3.621209177  -0.251605199   1.476063364
| 29> C   4.040824528   0.944288422   2.989639460
| 30> H   3.670521436   1.902573549   3.363847391
| 31> H   5.103749934   1.055868619   2.734277559
| 32> H   3.948540682   0.200279590   3.792908518
| 33> *
| 34>
| 35>                          ****END OF INPUT****

CARTESIAN COORDINATES (ANGSTROEM)
---------------------------------
  O      4.310536   -1.588323    0.656128
  H      3.804372   -1.630405   -0.196850
  C      4.312298   -2.894981    1.222113
  H      4.713178   -2.819907    2.237067
  H      4.957797   -3.574699    0.648211
  H      3.302736   -3.324433    1.269757
  O     -5.201144    0.064583   -0.172224
  H     -4.686892    0.869259    0.107806
  C     -6.513192    0.171392    0.359883
  H     -7.049381   -0.749234    0.111361
  H     -7.057741    1.017801   -0.081819
  H     -6.514771    0.292265    1.453059
  O      3.252956    0.588596    1.858934
  H      3.621209   -0.251605    1.476063
  C      4.040825    0.944288    2.989639
  H      3.670521    1.902574    3.363847
  H      5.103750    1.055869    2.734278
  H      3.948541    0.200280    3.792909

 Total Charge           Charge          ....    0
 Multiplicity           Mult            ....    1
 Number of Electrons    NEL             ....   54
 Basis Dimension        Dim             ....  258

ORBITAL ENERGIES
----------------

  NO   OCC          E(Eh)            E(eV)
   0   2.0000     -20.589197      -560.2605
   1   2.0000     -20.555917      -559.3549
   2   2.0000     -20.514041      -558.2154
   3   2.0000     -11.291226      -307.2499
   4   2.0000     -11.269994      -306.6721
   5   2.0000     -11.248932      -306.0990
   6   2.0000      -1.382735       -37.6261
   7   2.0000      -1.346029       -36.6273
   8   2.0000      -1.310706       -35.6661
   9   2.0000      -0.943082       -25.6626
  10   2.0000      -0.917758       -24.9735
  11   2.0000      -0.895334       -24.3633
  12   2.0000      -0.713716       -19.4212
  13   2.0000      -0.680707       -18.5230
  14   2.0000      -0.673623       -18.3302
  15   2.0000      -0.635543       -17.2940
  16   2.0000      -0.615325       -16.7438
  17   2.0000      -0.610161       -16.6033
  18   2.0000      -0.590356       -16.0644
  19   2.0000      -0.590010       -16.0550
  20   2.0000      -0.561742       -15.2858
  21   2.0000      -0.529199       -14.4002
  22   2.0000      -0.498376       -13.5615
  23   2.0000      -0.486932       -13.2501
  24   2.0000      -0.457091       -12.4381
  25   2.0000      -0.447019       -12.1640
  26   2.0000      -0.416815       -11.3421
  27   0.0000       0.120117         3.2685
  28   0.0000       0.137231         3.7342
  29   0.0000       0.156467         4.2577
  30   0.0000       0.173604         4.7240
  31   0.0000       0.177438         4.8283

MULLIKEN ATOMIC CHARGES
-----------------------
   0 O :   -0.513056
   1 H :    0.344692
   2 C :   -0.184445
   3 H :    0.140161
   4 H :    0.124677
   5 H :    0.129306
   6 O :   -0.496813
   7 H :    0.323064
   8 C :   -0.172308
   9 H :    0.128260
  10 H :    0.108480
  11 H :    0.109317
  12 O :   -0.532555
  13 H :    0.339405
  14 C :   -0.164008
  15 H :    0.120522
  16 H :    0.102688
  17 H :    0.092614
Sum of atomic charges:    0.0000000

LOEWDIN ATOMIC CHARGES
----------------------
   0 O :   -0.074675
   1 H :    0.200394
   2 C :   -0.372553
   3 H :    0.114232
   4 H :    0.104072
   5 H :    0.102621
   6 O :   -0.107015
   7 H :    0.191663
   8 C :   -0.385178
   9 H :    0.110092
  10 H :    0.095030
  11 H :    0.095408
  12 O :   -0.126197
  13 H :    0.157037
  14 C :   -0.393248
  15 H :    0.105497
  16 H :    0.093120
  17 H :    0.089700

  Mayer bond orders larger than 0.100000
B(  0-O ,  1-H ) :   0.8276 B(  0-O ,  2-C ) :   0.8727 B(  2-C ,  3-H ) :   0.9399
B(  2-C ,  4-H ) :   0.9330 B(  2-C ,  5-H ) :   0.9398 B(  6-O ,  7-H ) :   0.8412
B(  6-O ,  8-C ) :   0.9281 B(  8-C ,  9-H ) :   0.9377 B(  8-C , 10-H ) :   0.9390
B(  8-C , 11-H ) :   0.9386 B( 12-O , 13-H ) :   0.7924 B( 12-O , 14-C ) :   0.9409
B( 14-C , 15-H ) :   0.9420 B( 14-C , 16-H ) :   0.9380 B( 14-C , 17-H ) :   0.9389

MP2 TOTAL ENERGY:     -346.529035869 Eh
FINAL SINGLE POINT ENERGY      -346.529035868630

DIPOLE MOMENT
-------------
                                X             Y             Z
Electronic contribution:      0.70413       0.74193      -2.92468
Nuclear contribution   :     -0.60323      -1.48947       3.03613
                        -----------------------------------------
Total Dipole Moment    :      0.10090      -0.74754       0.11145
                        -----------------------------------------
Magnitude (a.u.)       :      0.76251
Magnitude (Debye)      :      1.93815

Rotational constants in cm-1:     0.076689     0.007730     0.007161
Rotational constants in MHz :  2299.089005   231.749592   214.680133

                             ****ORCA TERMINATED NORMALLY****
TOTAL RUN TIME: 0 days 0 hours 0 minutes 53 seconds 70 msec
