                         Program Version 4.2.0 -  RELEASE  -
|  1> # 12mecn.remya.etal.2.mol5,6,11
|  2> ! MP2 def2-TZVP EnGrad TightSCF
|  3>
|  4> %pal
|  5>     nprocs 6
|  6> end
|  7>
|  8> %maxcore 8000
|  9>
| 10> %scf
| 11>     ConvForced true
| 12> end
| 13>
| 14> *xyz 0 1
| 15> C  -1.955700000   2.515080000   1.698463000
| 16> H  -2.923830000   2.883163000   2.049269000
| 17> H  -1.154850000   3.171830000   2.050990000
| 18> H  -1.790380000   1.506115000   2.087896000
| 19> C  -1.948230000   2.482156000   0.253672000
| 20> N  -1.937550000   2.462523000  -0.913150000
| 21> C   5.300864000  -2.920090000   1.401103000
| 22> H   5.986071000  -2.139770000   1.737487000
| 23> H   5.636642000  -3.888750000   1.778233000
| 24> H   4.307359000  -2.697240000   1.799307000
| 25> C   5.234791000  -2.933140000  -0.043290000
| 26> N   5.170868000  -2.941760000  -1.207750000
| 27> C   4.214163000   3.378139000   1.593627000
| 28> H   3.242643000   3.657109000   2.012358000
| 29> H   4.969258000   4.086643000   1.941290000
| 30> H   4.482966000   2.372549000   1.931698000
| 31> C   4.130759000   3.388436000   0.150192000
| 32> N   4.050180000   3.381449000  -1.013420000
| 33> *
| 34>
| 35>                          ****END OF INPUT****

CARTESIAN COORDINATES (ANGSTROEM)
---------------------------------
  C     -1.955700    2.515080    1.698463
  H     -2.923830    2.883163    2.049269
  H     -1.154850    3.171830    2.050990
  H     -1.790380    1.506115    2.087896
  C     -1.948230    2.482156    0.253672
  N     -1.937550    2.462523   -0.913150
  C      5.300864   -2.920090    1.401103
  H      5.986071   -2.139770    1.737487
  H      5.636642   -3.888750    1.778233
  H      4.307359   -2.697240    1.799307
  C      5.234791   -2.933140   -0.043290
  N      5.170868   -2.941760   -1.207750
  C      4.214163    3.378139    1.593627
  H      3.242643    3.657109    2.012358
  H      4.969258    4.086643    1.941290
  H      4.482966    2.372549    1.931698
  C      4.130759    3.388436    0.150192
  N      4.050180    3.381449   -1.013420

 Total Charge           Charge          ....    0
 Multiplicity           Mult            ....    1
 Number of Electrons    NEL             ....   66
 Basis Dimension        Dim             ....  333

ORBITAL ENERGIES
----------------

  NO   OCC          E(Eh)            E(eV)
   0   2.0000     -15.573779      -423.7841
   1   2.0000     -15.573367      -423.7729
   2   2.0000     -15.573200      -423.7683
   3   2.0000     -11.289525      -307.2036
   4   2.0000     -11.288018      -307.1626
   5   2.0000     -11.287458      -307.1473
   6   2.0000     -11.279628      -306.9343
   7   2.0000     -11.279602      -306.9336
   8   2.0000     -11.279359      -306.9270
   9   2.0000      -1.214625       -33.0516
  10   2.0000      -1.214543       -33.0494
  11   2.0000      -1.213881       -33.0314
  12   2.0000      -1.046902       -28.4877
  13   2.0000      -1.045893       -28.4602
  14   2.0000      -1.045831       -28.4585
  15   2.0000      -0.703526       -19.1439
  16   2.0000      -0.703027       -19.1303
  17   2.0000      -0.701480       -19.0883
  18   2.0000      -0.636056       -17.3080
  19   2.0000      -0.635459       -17.2917
  20   2.0000      -0.635198       -17.2846
  21   2.0000      -0.634769       -17.2729
  22   2.0000      -0.633475       -17.2377
  23   2.0000      -0.632561       -17.2129
  24   2.0000      -0.555409       -15.1134
  25   2.0000      -0.555267       -15.1096
  26   2.0000      -0.554891       -15.0993
  27   2.0000      -0.457996       -12.4627
  28   2.0000      -0.457849       -12.4587
  29   2.0000      -0.457777       -12.4567
  30   2.0000      -0.457468       -12.4483
  31   2.0000      -0.457148       -12.4396
  32   2.0000      -0.457006       -12.4358
  33   0.0000       0.095787         2.6065
  34   0.0000       0.110223         2.9993
  35   0.0000       0.128050         3.4844
  36   0.0000       0.157210         4.2779
  37   0.0000       0.164732         4.4826

MULLIKEN ATOMIC CHARGES
-----------------------
   0 C :   -0.279931
   1 H :    0.173253
   2 H :    0.166263
   3 H :    0.170711
   4 C :   -0.145443
   5 N :   -0.084855
   6 C :   -0.283167
   7 H :    0.169028
   8 H :    0.173451
   9 H :    0.169581
  10 C :   -0.144836
  11 N :   -0.084064
  12 C :   -0.279419
  13 H :    0.166305
  14 H :    0.173649
  15 H :    0.166232
  16 C :   -0.145914
  17 N :   -0.080845
Sum of atomic charges:   -0.0000000

LOEWDIN ATOMIC CHARGES
----------------------
   0 C :   -0.285482
   1 H :    0.152612
   2 H :    0.150610
   3 H :    0.151670
   4 C :   -0.221091
   5 N :    0.051681
   6 C :   -0.285434
   7 H :    0.150110
   8 H :    0.151473
   9 H :    0.151771
  10 C :   -0.219784
  11 N :    0.051862
  12 C :   -0.285943
  13 H :    0.150715
  14 H :    0.151066
  15 H :    0.150767
  16 C :   -0.221090
  17 N :    0.054487

  Mayer bond orders larger than 0.100000
B(  0-C ,  1-H ) :   0.9164 B(  0-C ,  2-H ) :   0.9184 B(  0-C ,  3-H ) :   0.9176
B(  0-C ,  4-C ) :   0.9012 B(  4-C ,  5-N ) :   2.8316 B(  6-C ,  7-H ) :   0.9183
B(  6-C ,  8-H ) :   0.9160 B(  6-C ,  9-H ) :   0.9181 B(  6-C , 10-C ) :   0.9024
B( 10-C , 11-N ) :   2.8327 B( 12-C , 13-H ) :   0.9185 B( 12-C , 14-H ) :   0.9169
B( 12-C , 15-H ) :   0.9185 B( 12-C , 16-C ) :   0.9023 B( 16-C , 17-N ) :   2.8297

MP2 TOTAL ENERGY:     -397.446739738 Eh
FINAL SINGLE POINT ENERGY      -397.446739738448

DIPOLE MOMENT
-------------
                                X             Y             Z
Electronic contribution:     -0.29453      -0.08315      -9.48030
Nuclear contribution   :      0.44873       0.12531      13.93831
                        -----------------------------------------
Total Dipole Moment    :      0.15420       0.04216       4.45801
                        -----------------------------------------
Magnitude (a.u.)       :      4.46088
Magnitude (Debye)      :     11.33864

Rotational constants in cm-1:     0.024517     0.009216     0.007665
Rotational constants in MHz :   735.015327   276.281233   229.792931

                             ****ORCA TERMINATED NORMALLY****
TOTAL RUN TIME: 0 days 0 hours 1 minutes 55 seconds 929 msec
