                         Program Version 4.2.0 -  RELEASE  -
|  1> # 12meoh.boyd.etal.mol1,2
|  2> ! MP2 def2-TZVP EnGrad TightSCF
|  3>
|  4> %pal
|  5>     nprocs 6
|  6> end
|  7>
|  8> %maxcore 8000
|  9>
| 10> %scf
| 11>     ConvForced true
| 12> end
| 13>
| 14> *xyz 0 1
| 15> O   0.666045193  -2.600503172   0.138317521
| 16> H  -0.227115049  -2.712051982  -0.281868004
| 17> C   0.490021232  -1.851247678   1.341189459
| 18> H   1.466500502  -1.466176022   1.645844415
| 19> H   0.097564527  -2.488364683   2.146902740
| 20> H  -0.187588112  -1.000787499   1.200739571
| 21> O  -3.839777402   2.233595098   0.660436763
| 22> H  -2.958345897   1.907036203   0.973588449
| 23> C  -3.600368059   3.168790682  -0.390480452
| 24> H  -4.551709193   3.344148967  -0.901254863
| 25> H  -2.868237594   2.789240199  -1.113617525
| 26> H  -3.243594915   4.128998607   0.009549480
| 27> *
| 28>
| 29>                          ****END OF INPUT****

CARTESIAN COORDINATES (ANGSTROEM)
---------------------------------
  O      0.666045   -2.600503    0.138318
  H     -0.227115   -2.712052   -0.281868
  C      0.490021   -1.851248    1.341189
  H      1.466501   -1.466176    1.645844
  H      0.097565   -2.488365    2.146903
  H     -0.187588   -1.000787    1.200740
  O     -3.839777    2.233595    0.660437
  H     -2.958346    1.907036    0.973588
  C     -3.600368    3.168791   -0.390480
  H     -4.551709    3.344149   -0.901255
  H     -2.868238    2.789240   -1.113618
  H     -3.243595    4.128999    0.009549

 Total Charge           Charge          ....    0
 Multiplicity           Mult            ....    1
 Number of Electrons    NEL             ....   36
 Basis Dimension        Dim             ....  172

ORBITAL ENERGIES
----------------

  NO   OCC          E(Eh)            E(eV)
   0   2.0000     -20.560546      -559.4809
   1   2.0000     -20.559988      -559.4657
   2   2.0000     -11.275430      -306.8200
   3   2.0000     -11.274807      -306.8031
   4   2.0000      -1.349957       -36.7342
   5   2.0000      -1.348149       -36.6850
   6   2.0000      -0.923365       -25.1261
   7   2.0000      -0.922755       -25.1094
   8   2.0000      -0.685056       -18.6413
   9   2.0000      -0.683940       -18.6109
  10   2.0000      -0.619936       -16.8693
  11   2.0000      -0.619876       -16.8677
  12   2.0000      -0.593198       -16.1417
  13   2.0000      -0.593056       -16.1379
  14   2.0000      -0.504902       -13.7391
  15   2.0000      -0.504260       -13.7216
  16   2.0000      -0.452585       -12.3155
  17   2.0000      -0.452391       -12.3102
  18   0.0000       0.107922         2.9367
  19   0.0000       0.142347         3.8734
  20   0.0000       0.166214         4.5229
  21   0.0000       0.181229         4.9315
  22   0.0000       0.219983         5.9860

MULLIKEN ATOMIC CHARGES
-----------------------
   0 O :   -0.496155
   1 H :    0.322741
   2 C :   -0.171537
   3 H :    0.130052
   4 H :    0.113322
   5 H :    0.101557
   6 O :   -0.495814
   7 H :    0.319486
   8 C :   -0.176128
   9 H :    0.130141
  10 H :    0.111211
  11 H :    0.111123
Sum of atomic charges:   -0.0000000

LOEWDIN ATOMIC CHARGES
----------------------
   0 O :   -0.111886
   1 H :    0.190120
   2 C :   -0.377894
   3 H :    0.109430
   4 H :    0.096921
   5 H :    0.093335
   6 O :   -0.110999
   7 H :    0.187094
   8 C :   -0.378337
   9 H :    0.110138
  10 H :    0.095864
  11 H :    0.096213

  Mayer bond orders larger than 0.100000
B(  0-O ,  1-H ) :   0.8425 B(  0-O ,  2-C ) :   0.9291 B(  2-C ,  3-H ) :   0.9379
B(  2-C ,  4-H ) :   0.9381 B(  2-C ,  5-H ) :   0.9416 B(  6-O ,  7-H ) :   0.8449
B(  6-O ,  8-C ) :   0.9248 B(  8-C ,  9-H ) :   0.9378 B(  8-C , 10-H ) :   0.9409
B(  8-C , 11-H ) :   0.9378

MP2 TOTAL ENERGY:     -231.012894406 Eh
FINAL SINGLE POINT ENERGY      -231.012894406004

DIPOLE MOMENT
-------------
                                X             Y             Z
Electronic contribution:     -0.07367      -2.09924      -0.20376
Nuclear contribution   :      0.09278       2.51421       0.18283
                        -----------------------------------------
Total Dipole Moment    :      0.01910       0.41497      -0.02093
                        -----------------------------------------
Magnitude (a.u.)       :      0.41594
Magnitude (Debye)      :      1.05722

Rotational constants in cm-1:     0.476342     0.024000     0.023474
Rotational constants in MHz : 14280.366303   719.489496   703.727109

                             ****ORCA TERMINATED NORMALLY****
TOTAL RUN TIME: 0 days 0 hours 0 minutes 33 seconds 902 msec
