                         Program Version 4.2.0 -  RELEASE  -
|  1> # 12h2o.su.etal.mol1,3,4,6,7,10,11
|  2> ! MP2 def2-TZVP EnGrad TightSCF
|  3>
|  4> %pal
|  5>     nprocs 6
|  6> end
|  7>
|  8> %maxcore 8000
|  9>
| 10> %scf
| 11>     ConvForced true
| 12> end
| 13>
| 14> *xyz 0 1
| 15> O  -1.794470000  -0.923410000   2.768350000
| 16> H  -2.338250000  -1.359750000   3.430940000
| 17> H  -0.879480000  -1.303000000   2.865760000
| 18> O  -1.752130000  -0.741530000  -2.896280000
| 19> H  -2.036450000  -0.920500000  -1.984040000
| 20> H  -0.921210000  -1.242140000  -2.984230000
| 21> O  -0.885520000   1.737840000   0.052730000
| 22> H  -1.032320000   2.090180000  -0.841890000
| 23> H  -1.284090000   0.839590000   0.017130000
| 24> O   1.737840000   0.885520000  -0.052730000
| 25> H   2.090180000   1.032320000   0.841890000
| 26> H   0.839590000   1.284090000  -0.017130000
| 27> O  -1.737840000  -0.885520000  -0.052730000
| 28> H  -2.090180000  -1.032320000   0.841890000
| 29> H  -0.839590000  -1.284090000  -0.017130000
| 30> O  -0.923410000   1.794470000  -2.768350000
| 31> H  -1.359750000   2.338250000  -3.430940000
| 32> H  -1.303000000   0.879480000  -2.865760000
| 33> O  -0.741530000   1.752130000   2.896280000
| 34> H  -0.920500000   2.036450000   1.984040000
| 35> H  -1.242140000   0.921210000   2.984230000
| 36> *
| 37>
| 38>                          ****END OF INPUT****

CARTESIAN COORDINATES (ANGSTROEM)
---------------------------------
  O     -1.794470   -0.923410    2.768350
  H     -2.338250   -1.359750    3.430940
  H     -0.879480   -1.303000    2.865760
  O     -1.752130   -0.741530   -2.896280
  H     -2.036450   -0.920500   -1.984040
  H     -0.921210   -1.242140   -2.984230
  O     -0.885520    1.737840    0.052730
  H     -1.032320    2.090180   -0.841890
  H     -1.284090    0.839590    0.017130
  O      1.737840    0.885520   -0.052730
  H      2.090180    1.032320    0.841890
  H      0.839590    1.284090   -0.017130
  O     -1.737840   -0.885520   -0.052730
  H     -2.090180   -1.032320    0.841890
  H     -0.839590   -1.284090   -0.017130
  O     -0.923410    1.794470   -2.768350
  H     -1.359750    2.338250   -3.430940
  H     -1.303000    0.879480   -2.865760
  O     -0.741530    1.752130    2.896280
  H     -0.920500    2.036450    1.984040
  H     -1.242140    0.921210    2.984230

 Total Charge           Charge          ....    0
 Multiplicity           Mult            ....    1
 Number of Electrons    NEL             ....   70
 Basis Dimension        Dim             ....  301

ORBITAL ENERGIES
----------------

  NO   OCC          E(Eh)            E(eV)
   0   2.0000     -20.631209      -561.4037
   1   2.0000     -20.610194      -560.8319
   2   2.0000     -20.583916      -560.1168
   3   2.0000     -20.541685      -558.9677
   4   2.0000     -20.538154      -558.8716
   5   2.0000     -20.513787      -558.2085
   6   2.0000     -20.513198      -558.1925
   7   2.0000      -1.412782       -38.4438
   8   2.0000      -1.395631       -37.9771
   9   2.0000      -1.371848       -37.3299
  10   2.0000      -1.336521       -36.3686
  11   2.0000      -1.319462       -35.9044
  12   2.0000      -1.298392       -35.3310
  13   2.0000      -1.293814       -35.2065
  14   2.0000      -0.777664       -21.1613
  15   2.0000      -0.760497       -20.6942
  16   2.0000      -0.732802       -19.9406
  17   2.0000      -0.709375       -19.3031
  18   2.0000      -0.706087       -19.2136
  19   2.0000      -0.680827       -18.5262
  20   2.0000      -0.668671       -18.1955
  21   2.0000      -0.659349       -17.9418
  22   2.0000      -0.632436       -17.2095
  23   2.0000      -0.607437       -16.5292
  24   2.0000      -0.600674       -16.3452
  25   2.0000      -0.575846       -15.6696
  26   2.0000      -0.558909       -15.2087
  27   2.0000      -0.550013       -14.9666
  28   2.0000      -0.540061       -14.6958
  29   2.0000      -0.524568       -14.2742
  30   2.0000      -0.516514       -14.0551
  31   2.0000      -0.487028       -13.2527
  32   2.0000      -0.484907       -13.1950
  33   2.0000      -0.463361       -12.6087
  34   2.0000      -0.461634       -12.5617
  35   0.0000       0.076221         2.0741
  36   0.0000       0.115532         3.1438
  37   0.0000       0.146908         3.9976
  38   0.0000       0.162936         4.4337
  39   0.0000       0.182610         4.9691

MULLIKEN ATOMIC CHARGES
-----------------------
   0 O :   -0.717239
   1 H :    0.371000
   2 H :    0.372262
   3 O :   -0.693661
   4 H :    0.385992
   5 H :    0.352655
   6 O :   -0.748893
   7 H :    0.384496
   8 H :    0.351513
   9 O :   -0.731326
  10 H :    0.326277
  11 H :    0.367065
  12 O :   -0.729700
  13 H :    0.392574
  14 H :    0.357502
  15 O :   -0.732904
  16 H :    0.335065
  17 H :    0.371891
  18 O :   -0.723192
  19 H :    0.373185
  20 H :    0.335439
Sum of atomic charges:   -0.0000000

LOEWDIN ATOMIC CHARGES
----------------------
   0 O :   -0.286979
   1 H :    0.171073
   2 H :    0.192987
   3 O :   -0.274427
   4 H :    0.157231
   5 H :    0.173449
   6 O :   -0.301161
   7 H :    0.153643
   8 H :    0.138385
   9 O :   -0.367723
  10 H :    0.156187
  11 H :    0.141653
  12 O :   -0.283393
  13 H :    0.158517
  14 H :    0.177338
  15 O :   -0.338073
  16 H :    0.153389
  17 H :    0.144312
  18 O :   -0.353473
  19 H :    0.149988
  20 H :    0.137076

  Mayer bond orders larger than 0.100000
B(  0-O ,  1-H ) :   0.8282 B(  0-O ,  2-H ) :   0.8193 B(  3-O ,  4-H ) :   0.8042
B(  3-O ,  5-H ) :   0.8401 B(  6-O ,  7-H ) :   0.7888 B(  6-O ,  8-H ) :   0.7888
B(  9-O , 10-H ) :   0.8576 B(  9-O , 11-H ) :   0.7866 B( 12-O , 13-H ) :   0.7913
B( 12-O , 14-H ) :   0.8268 B( 15-O , 16-H ) :   0.8517 B( 15-O , 17-H ) :   0.7641
B( 18-O , 19-H ) :   0.8154 B( 18-O , 20-H ) :   0.8437

MP2 TOTAL ENERGY:     -534.254335696 Eh
FINAL SINGLE POINT ENERGY      -534.254335695888

DIPOLE MOMENT
-------------
                                X             Y             Z
Electronic contribution:     -0.34339      -0.13762      -0.15258
Nuclear contribution   :     -0.93480      -2.46315       0.77428
                        -----------------------------------------
Total Dipole Moment    :     -1.27819      -2.60076       0.62170
                        -----------------------------------------
Magnitude (a.u.)       :      2.96382
Magnitude (Debye)      :      7.53344

Rotational constants in cm-1:     0.047070     0.024880     0.019935
Rotational constants in MHz :  1411.114359   745.896180   597.644753

                             ****ORCA TERMINATED NORMALLY****
TOTAL RUN TIME: 0 days 0 hours 1 minutes 58 seconds 619 msec
