                         Program Version 4.2.0 -  RELEASE  -
|  1> # 12h2o.su.etal.mol2,5,6,7,8,9,10
|  2> ! MP2 def2-TZVP EnGrad TightSCF
|  3>
|  4> %pal
|  5>     nprocs 6
|  6> end
|  7>
|  8> %maxcore 8000
|  9>
| 10> %scf
| 11>     ConvForced true
| 12> end
| 13>
| 14> *xyz 0 1
| 15> O   0.923410000  -1.794470000  -2.768350000
| 16> H   1.359750000  -2.338250000  -3.430940000
| 17> H   1.303000000  -0.879480000  -2.865760000
| 18> O   0.885520000  -1.737840000   0.052730000
| 19> H   1.284090000  -0.839590000   0.017130000
| 20> H   1.032320000  -2.090180000  -0.841890000
| 21> O   1.737840000   0.885520000  -0.052730000
| 22> H   2.090180000   1.032320000   0.841890000
| 23> H   0.839590000   1.284090000  -0.017130000
| 24> O  -1.737840000  -0.885520000  -0.052730000
| 25> H  -2.090180000  -1.032320000   0.841890000
| 26> H  -0.839590000  -1.284090000  -0.017130000
| 27> O   1.752130000   0.741530000  -2.896280000
| 28> H   2.036450000   0.920500000  -1.984040000
| 29> H   0.921210000   1.242140000  -2.984230000
| 30> O   0.741530000  -1.752130000   2.896280000
| 31> H   0.920500000  -2.036450000   1.984040000
| 32> H   1.242140000  -0.921210000   2.984230000
| 33> O  -0.923410000   1.794470000  -2.768350000
| 34> H  -1.359750000   2.338250000  -3.430940000
| 35> H  -1.303000000   0.879480000  -2.865760000
| 36> *
| 37>
| 38>                          ****END OF INPUT****

CARTESIAN COORDINATES (ANGSTROEM)
---------------------------------
  O      0.923410   -1.794470   -2.768350
  H      1.359750   -2.338250   -3.430940
  H      1.303000   -0.879480   -2.865760
  O      0.885520   -1.737840    0.052730
  H      1.284090   -0.839590    0.017130
  H      1.032320   -2.090180   -0.841890
  O      1.737840    0.885520   -0.052730
  H      2.090180    1.032320    0.841890
  H      0.839590    1.284090   -0.017130
  O     -1.737840   -0.885520   -0.052730
  H     -2.090180   -1.032320    0.841890
  H     -0.839590   -1.284090   -0.017130
  O      1.752130    0.741530   -2.896280
  H      2.036450    0.920500   -1.984040
  H      0.921210    1.242140   -2.984230
  O      0.741530   -1.752130    2.896280
  H      0.920500   -2.036450    1.984040
  H      1.242140   -0.921210    2.984230
  O     -0.923410    1.794470   -2.768350
  H     -1.359750    2.338250   -3.430940
  H     -1.303000    0.879480   -2.865760

 Total Charge           Charge          ....    0
 Multiplicity           Mult            ....    1
 Number of Electrons    NEL             ....   70
 Basis Dimension        Dim             ....  301

ORBITAL ENERGIES
----------------

  NO   OCC          E(Eh)            E(eV)
   0   2.0000     -20.627472      -561.3020
   1   2.0000     -20.592586      -560.3528
   2   2.0000     -20.562277      -559.5280
   3   2.0000     -20.551891      -559.2454
   4   2.0000     -20.542761      -558.9969
   5   2.0000     -20.538840      -558.8903
   6   2.0000     -20.519948      -558.3762
   7   2.0000      -1.410787       -38.3895
   8   2.0000      -1.371429       -37.3185
   9   2.0000      -1.354491       -36.8576
  10   2.0000      -1.345988       -36.6262
  11   2.0000      -1.323700       -36.0197
  12   2.0000      -1.319560       -35.9070
  13   2.0000      -1.300301       -35.3830
  14   2.0000      -0.768710       -20.9177
  15   2.0000      -0.738939       -20.1076
  16   2.0000      -0.721571       -19.6350
  17   2.0000      -0.718428       -19.5494
  18   2.0000      -0.708742       -19.2858
  19   2.0000      -0.689567       -18.7641
  20   2.0000      -0.674614       -18.3572
  21   2.0000      -0.654390       -17.8069
  22   2.0000      -0.614728       -16.7276
  23   2.0000      -0.609053       -16.5732
  24   2.0000      -0.592381       -16.1195
  25   2.0000      -0.565793       -15.3960
  26   2.0000      -0.559654       -15.2290
  27   2.0000      -0.558431       -15.1957
  28   2.0000      -0.538653       -14.6575
  29   2.0000      -0.532520       -14.4906
  30   2.0000      -0.504649       -13.7322
  31   2.0000      -0.494398       -13.4533
  32   2.0000      -0.492824       -13.4104
  33   2.0000      -0.484556       -13.1855
  34   2.0000      -0.468436       -12.7468
  35   0.0000       0.081423         2.2156
  36   0.0000       0.114820         3.1244
  37   0.0000       0.151428         4.1206
  38   0.0000       0.166919         4.5421
  39   0.0000       0.169492         4.6121

MULLIKEN ATOMIC CHARGES
-----------------------
   0 O :   -0.741511
   1 H :    0.336757
   2 H :    0.371041
   3 O :   -0.748821
   4 H :    0.346179
   5 H :    0.387710
   6 O :   -0.717928
   7 H :    0.365362
   8 H :    0.385762
   9 O :   -0.732390
  10 H :    0.331291
  11 H :    0.366299
  12 O :   -0.714654
  13 H :    0.379759
  14 H :    0.367890
  15 O :   -0.689202
  16 H :    0.376550
  17 H :    0.304832
  18 O :   -0.711785
  19 H :    0.355373
  20 H :    0.381488
Sum of atomic charges:   -0.0000000

LOEWDIN ATOMIC CHARGES
----------------------
   0 O :   -0.342432
   1 H :    0.153851
   2 H :    0.143149
   3 O :   -0.301678
   4 H :    0.137427
   5 H :    0.154905
   6 O :   -0.276027
   7 H :    0.175493
   8 H :    0.189647
   9 O :   -0.367524
  10 H :    0.159107
  11 H :    0.141296
  12 O :   -0.284507
  13 H :    0.154280
  14 H :    0.150577
  15 O :   -0.338078
  16 H :    0.152191
  17 H :    0.150932
  18 O :   -0.313912
  19 H :    0.165373
  20 H :    0.195930

  Mayer bond orders larger than 0.100000
B(  0-O ,  1-H ) :   0.8507 B(  0-O ,  2-H ) :   0.7517 B(  2-H , 12-O ) :   0.1100
B(  3-O ,  4-H ) :   0.7912 B(  3-O ,  5-H ) :   0.7861 B(  6-O ,  7-H ) :   0.8303
B(  6-O ,  8-H ) :   0.8089 B(  9-O , 10-H ) :   0.8550 B(  9-O , 11-H ) :   0.7881
B( 12-O , 13-H ) :   0.8157 B( 12-O , 14-H ) :   0.7998 B( 15-O , 16-H ) :   0.8109
B( 15-O , 17-H ) :   0.8701 B( 18-O , 19-H ) :   0.8400 B( 18-O , 20-H ) :   0.8135

MP2 TOTAL ENERGY:     -534.255178867 Eh
FINAL SINGLE POINT ENERGY      -534.255178867309

DIPOLE MOMENT
-------------
                                X             Y             Z
Electronic contribution:      0.05560       0.24569      -0.24677
Nuclear contribution   :      0.56463       1.47502      -0.49091
                        -----------------------------------------
Total Dipole Moment    :      0.62023       1.72071      -0.73768
                        -----------------------------------------
Magnitude (a.u.)       :      1.97223
Magnitude (Debye)      :      5.01301

Rotational constants in cm-1:     0.047265     0.022626     0.021686
Rotational constants in MHz :  1416.974618   678.314229   650.119576

                             ****ORCA TERMINATED NORMALLY****
TOTAL RUN TIME: 0 days 0 hours 2 minutes 24 seconds 691 msec
