                         Program Version 3.0.3 - RELEASE   -
|  1> ! B3LYP Def2-TZVP def2-TZVP/J RIJCOSX TightSCF Grid4 D3BJ
|  2>
|  3> %pal nprocs 12 end
|  4>
|  5> %scf
|  6>         maxiter 400
|  7> end
|  8>
|  9> * xyz  0  1
| 10> O  -1.649069	-0.525879	-0.733540
| 11> H  -0.714469	-0.631187	-1.120970
| 12> H  -2.072867	0.109615	-1.340155
| 13> O  -0.862891	0.536431	1.555554
| 14> H  -1.205954	1.449143	1.560469
| 15> H  -1.276262	0.128437	0.720528
| 16> O  1.612153	0.651692	0.644285
| 17> H  2.167706	0.130342	1.252751
| 18> H  0.692548	0.626555	1.078586
| 19> O  0.869103	-0.689149	-1.513373
| 20> H  1.263573	-0.161655	-0.739236
| 21> H  1.169521	-1.601679	-1.345336
| 22> **                         ****END OF INPUT****

CARTESIAN COORDINATES (ANGSTROEM)
---------------------------------
  O     -1.649069   -0.525879   -0.733540
  H     -0.714469   -0.631187   -1.120970
  H     -2.072867    0.109615   -1.340155
  O     -0.862891    0.536431    1.555554
  H     -1.205954    1.449143    1.560469
  H     -1.276262    0.128437    0.720528
  O      1.612153    0.651692    0.644285
  H      2.167706    0.130342    1.252751
  H      0.692548    0.626555    1.078586
  O      0.869103   -0.689149   -1.513373
  H      1.263573   -0.161655   -0.739236
  H      1.169521   -1.601679   -1.345336

 Total Charge           Charge          ....    0
 Multiplicity           Mult            ....    1
 Number of Electrons    NEL             ....   40
 Basis Dimension        Dim             ....  172

ORBITAL ENERGIES
----------------

  NO   OCC          E(Eh)            E(eV)
   0   2.0000     -19.127763      -520.4929
   1   2.0000     -19.127713      -520.4915
   2   2.0000     -19.126786      -520.4663
   3   2.0000     -19.126569      -520.4604
   4   2.0000      -1.024373       -27.8746
   5   2.0000      -1.005506       -27.3612
   6   2.0000      -1.004247       -27.3269
   7   2.0000      -0.985727       -26.8230
   8   2.0000      -0.538186       -14.6448
   9   2.0000      -0.528214       -14.3734
  10   2.0000      -0.520244       -14.1566
  11   2.0000      -0.516918       -14.0660
  12   2.0000      -0.434744       -11.8300
  13   2.0000      -0.406680       -11.0663
  14   2.0000      -0.398166       -10.8347
  15   2.0000      -0.375411       -10.2154
  16   2.0000      -0.321770        -8.7558
  17   2.0000      -0.319978        -8.7070
  18   2.0000      -0.314787        -8.5658
  19   2.0000      -0.309431        -8.4200
  20   0.0000       0.002427         0.0660
  21   0.0000       0.036733         0.9996
  22   0.0000       0.047410         1.2901
  23   0.0000       0.070101         1.9075
  24   0.0000       0.169785         4.6201

MULLIKEN ATOMIC CHARGES
-----------------------
   0 O :   -0.688242
   1 H :    0.360406
   2 H :    0.321718
   3 O :   -0.683923
   4 H :    0.321753
   5 H :    0.372163
   6 O :   -0.688831
   7 H :    0.321723
   8 H :    0.354692
   9 O :   -0.685534
  10 H :    0.373269
  11 H :    0.320805
Sum of atomic charges:    0.0000000

LOEWDIN ATOMIC CHARGES
----------------------
   0 O :   -0.306344
   1 H :    0.145560
   2 H :    0.158366
   3 O :   -0.301579
   4 H :    0.157904
   5 H :    0.147823
   6 O :   -0.307754
   7 H :    0.157804
   8 H :    0.143853
   9 O :   -0.301174
  10 H :    0.147750
  11 H :    0.157791

  Mayer bond orders larger than 0.1
B(  0-O ,  1-H ) :   0.7636 B(  0-O ,  2-H ) :   0.8997 B(  0-O ,  5-H ) :   0.1493
B(  1-H ,  9-O ) :   0.1668 B(  3-O ,  4-H ) :   0.8995 B(  3-O ,  5-H ) :   0.7649
B(  3-O ,  8-H ) :   0.1711 B(  6-O ,  7-H ) :   0.8996 B(  6-O ,  8-H ) :   0.7622
B(  6-O , 10-H ) :   0.1481 B(  9-O , 10-H ) :   0.7660 B(  9-O , 11-H ) :   0.8999

Dispersion correction           -0.008294306
FINAL SINGLE POINT ENERGY      -305.753709093644

DIPOLE MOMENT
-------------
                                X             Y             Z
Electronic contribution:     -0.01981      -0.01849      -0.02954
Nuclear contribution   :      0.07092       0.08605       0.13383
                        -----------------------------------------
Total Dipole Moment    :      0.05111       0.06756       0.10429
                        -----------------------------------------
Magnitude (a.u.)       :      0.13436
Magnitude (Debye)      :      0.34152

                             ****ORCA TERMINATED NORMALLY****
TOTAL RUN TIME: 0 days 0 hours 0 minutes 51 seconds 339 msec
