                         Program Version 3.0.3 - RELEASE   -
|  1> ! wB97X-D3 Def2-TZVP def2-TZVP/J RIJCOSX TightSCF Grid4
|  2>
|  3> %pal nprocs 12 end
|  4>
|  5> %scf
|  6>         maxiter 400
|  7> end
|  8>
|  9> * xyz  0  1
| 10> O  -1.649069	-0.525879	-0.733540
| 11> H  -0.714469	-0.631187	-1.120970
| 12> H  -2.072867	0.109615	-1.340155
| 13> O  -0.862891	0.536431	1.555554
| 14> H  -1.205954	1.449143	1.560469
| 15> H  -1.276262	0.128437	0.720528
| 16> O  1.612153	0.651692	0.644285
| 17> H  2.167706	0.130342	1.252751
| 18> H  0.692548	0.626555	1.078586
| 19> O  0.869103	-0.689149	-1.513373
| 20> H  1.263573	-0.161655	-0.739236
| 21> H  1.169521	-1.601679	-1.345336
| 22> **                         ****END OF INPUT****

CARTESIAN COORDINATES (ANGSTROEM)
---------------------------------
  O     -1.649069   -0.525879   -0.733540
  H     -0.714469   -0.631187   -1.120970
  H     -2.072867    0.109615   -1.340155
  O     -0.862891    0.536431    1.555554
  H     -1.205954    1.449143    1.560469
  H     -1.276262    0.128437    0.720528
  O      1.612153    0.651692    0.644285
  H      2.167706    0.130342    1.252751
  H      0.692548    0.626555    1.078586
  O      0.869103   -0.689149   -1.513373
  H      1.263573   -0.161655   -0.739236
  H      1.169521   -1.601679   -1.345336

 Total Charge           Charge          ....    0
 Multiplicity           Mult            ....    1
 Number of Electrons    NEL             ....   40
 Basis Dimension        Dim             ....  172

ORBITAL ENERGIES
----------------

  NO   OCC          E(Eh)            E(eV)
   0   2.0000     -19.234629      -523.4009
   1   2.0000     -19.234597      -523.4000
   2   2.0000     -19.233668      -523.3747
   3   2.0000     -19.233450      -523.3688
   4   2.0000      -1.139873       -31.0175
   5   2.0000      -1.120447       -30.4889
   6   2.0000      -1.119206       -30.4551
   7   2.0000      -1.100233       -29.9389
   8   2.0000      -0.641244       -17.4491
   9   2.0000      -0.630506       -17.1569
  10   2.0000      -0.622227       -16.9317
  11   2.0000      -0.619605       -16.8603
  12   2.0000      -0.536750       -14.6057
  13   2.0000      -0.508092       -13.8259
  14   2.0000      -0.498749       -13.5717
  15   2.0000      -0.476531       -12.9671
  16   2.0000      -0.420208       -11.4344
  17   2.0000      -0.417283       -11.3549
  18   2.0000      -0.413025       -11.2390
  19   2.0000      -0.407714       -11.0944
  20   0.0000       0.089778         2.4430
  21   0.0000       0.126056         3.4302
  22   0.0000       0.138086         3.7575
  23   0.0000       0.161704         4.4002
  24   0.0000       0.255531         6.9534

MULLIKEN ATOMIC CHARGES
-----------------------
   0 O :   -0.708452
   1 H :    0.365115
   2 H :    0.337163
   3 O :   -0.704097
   4 H :    0.337114
   5 H :    0.377102
   6 O :   -0.708542
   7 H :    0.337169
   8 H :    0.358930
   9 O :   -0.706328
  10 H :    0.378427
  11 H :    0.336399
Sum of atomic charges:    0.0000000

LOEWDIN ATOMIC CHARGES
----------------------
   0 O :   -0.309225
   1 H :    0.146270
   2 H :    0.160490
   3 O :   -0.304469
   4 H :    0.160056
   5 H :    0.148609
   6 O :   -0.310615
   7 H :    0.159929
   8 H :    0.144521
   9 O :   -0.304155
  10 H :    0.148600
  11 H :    0.159987

  Mayer bond orders larger than 0.1
B(  0-O ,  1-H ) :   0.7680 B(  0-O ,  2-H ) :   0.8931 B(  0-O ,  5-H ) :   0.1401
B(  1-H ,  9-O ) :   0.1563 B(  3-O ,  4-H ) :   0.8929 B(  3-O ,  5-H ) :   0.7687
B(  3-O ,  8-H ) :   0.1608 B(  6-O ,  7-H ) :   0.8931 B(  6-O ,  8-H ) :   0.7672
B(  6-O , 10-H ) :   0.1386 B(  9-O , 10-H ) :   0.7695 B(  9-O , 11-H ) :   0.8932

Dispersion correction           -0.003096318
FINAL SINGLE POINT ENERGY      -305.799083091687

DIPOLE MOMENT
-------------
                                X             Y             Z
Electronic contribution:     -0.01874      -0.01777      -0.02793
Nuclear contribution   :      0.07092       0.08605       0.13383
                        -----------------------------------------
Total Dipole Moment    :      0.05218       0.06828       0.10590
                        -----------------------------------------
Magnitude (a.u.)       :      0.13638
Magnitude (Debye)      :      0.34665

                             ****ORCA TERMINATED NORMALLY****
TOTAL RUN TIME: 0 days 0 hours 0 minutes 51 seconds 337 msec
