                         Program Version 4.2.0 -  RELEASE  -
|  1> # 12meoh.boyd.etal.mol0,1,2
|  2> ! MP2 def2-TZVP EnGrad TightSCF
|  3>
|  4> %pal
|  5>     nprocs 6
|  6> end
|  7>
|  8> %maxcore 8000
|  9>
| 10> %scf
| 11>     ConvForced true
| 12> end
| 13>
| 14> *xyz 0 1
| 15> O  -1.776108874  -2.741384797  -1.019308298
| 16> H  -2.520094035  -2.452295987  -0.420778302
| 17> C  -2.174025166  -3.952700964  -1.647004581
| 18> H  -1.359803895  -4.272673416  -2.304149236
| 19> H  -3.075973971  -3.808692420  -2.256751112
| 20> H  -2.370225393  -4.752784761  -0.918966137
| 21> O   0.666045193  -2.600503172   0.138317521
| 22> H  -0.227115049  -2.712051982  -0.281868004
| 23> C   0.490021232  -1.851247678   1.341189459
| 24> H   1.466500502  -1.466176022   1.645844415
| 25> H   0.097564527  -2.488364683   2.146902740
| 26> H  -0.187588112  -1.000787499   1.200739571
| 27> O  -3.839777402   2.233595098   0.660436763
| 28> H  -2.958345897   1.907036203   0.973588449
| 29> C  -3.600368059   3.168790682  -0.390480452
| 30> H  -4.551709193   3.344148967  -0.901254863
| 31> H  -2.868237594   2.789240199  -1.113617525
| 32> H  -3.243594915   4.128998607   0.009549480
| 33> *
| 34>
| 35>                          ****END OF INPUT****

CARTESIAN COORDINATES (ANGSTROEM)
---------------------------------
  O     -1.776109   -2.741385   -1.019308
  H     -2.520094   -2.452296   -0.420778
  C     -2.174025   -3.952701   -1.647005
  H     -1.359804   -4.272673   -2.304149
  H     -3.075974   -3.808692   -2.256751
  H     -2.370225   -4.752785   -0.918966
  O      0.666045   -2.600503    0.138318
  H     -0.227115   -2.712052   -0.281868
  C      0.490021   -1.851248    1.341189
  H      1.466501   -1.466176    1.645844
  H      0.097565   -2.488365    2.146903
  H     -0.187588   -1.000787    1.200740
  O     -3.839777    2.233595    0.660437
  H     -2.958346    1.907036    0.973588
  C     -3.600368    3.168791   -0.390480
  H     -4.551709    3.344149   -0.901255
  H     -2.868238    2.789240   -1.113618
  H     -3.243595    4.128999    0.009549

 Total Charge           Charge          ....    0
 Multiplicity           Mult            ....    1
 Number of Electrons    NEL             ....   54
 Basis Dimension        Dim             ....  258

ORBITAL ENERGIES
----------------

  NO   OCC          E(Eh)            E(eV)
   0   2.0000     -20.591463      -560.3222
   1   2.0000     -20.560652      -559.4838
   2   2.0000     -20.516520      -558.2829
   3   2.0000     -11.290447      -307.2287
   4   2.0000     -11.274313      -306.7897
   5   2.0000     -11.254818      -306.2592
   6   2.0000      -1.384108       -37.6635
   7   2.0000      -1.350052       -36.7368
   8   2.0000      -1.312133       -35.7050
   9   2.0000      -0.941967       -25.6322
  10   2.0000      -0.922401       -25.0998
  11   2.0000      -0.901022       -24.5181
  12   2.0000      -0.716425       -19.4949
  13   2.0000      -0.684928       -18.6378
  14   2.0000      -0.674101       -18.3432
  15   2.0000      -0.636628       -17.3235
  16   2.0000      -0.619602       -16.8602
  17   2.0000      -0.611481       -16.6392
  18   2.0000      -0.594876       -16.1874
  19   2.0000      -0.593204       -16.1419
  20   2.0000      -0.564414       -15.3585
  21   2.0000      -0.528911       -14.3924
  22   2.0000      -0.504770       -13.7355
  23   2.0000      -0.488089       -13.2816
  24   2.0000      -0.461366       -12.5544
  25   2.0000      -0.452537       -12.3142
  26   2.0000      -0.420277       -11.4363
  27   0.0000       0.100403         2.7321
  28   0.0000       0.130436         3.5493
  29   0.0000       0.159922         4.3517
  30   0.0000       0.171179         4.6580
  31   0.0000       0.183863         5.0032

MULLIKEN ATOMIC CHARGES
-----------------------
   0 O :   -0.520386
   1 H :    0.341763
   2 C :   -0.184860
   3 H :    0.148363
   4 H :    0.125214
   5 H :    0.124706
   6 O :   -0.526988
   7 H :    0.355856
   8 C :   -0.174538
   9 H :    0.124036
  10 H :    0.099128
  11 H :    0.087644
  12 O :   -0.499957
  13 H :    0.321290
  14 C :   -0.176689
  15 H :    0.128808
  16 H :    0.114920
  17 H :    0.111691
Sum of atomic charges:    0.0000000

LOEWDIN ATOMIC CHARGES
----------------------
   0 O :   -0.077831
   1 H :    0.201348
   2 C :   -0.373741
   3 H :    0.117523
   4 H :    0.103935
   5 H :    0.101560
   6 O :   -0.125265
   7 H :    0.160515
   8 C :   -0.392978
   9 H :    0.105938
  10 H :    0.091098
  11 H :    0.087915
  12 O :   -0.112725
  13 H :    0.187623
  14 C :   -0.378020
  15 H :    0.109681
  16 H :    0.096915
  17 H :    0.096509

  Mayer bond orders larger than 0.100000
B(  0-O ,  1-H ) :   0.8271 B(  0-O ,  2-C ) :   0.8730 B(  2-C ,  3-H ) :   0.9387
B(  2-C ,  4-H ) :   0.9340 B(  2-C ,  5-H ) :   0.9375 B(  6-O ,  7-H ) :   0.7936
B(  6-O ,  8-C ) :   0.9478 B(  8-C ,  9-H ) :   0.9425 B(  8-C , 10-H ) :   0.9367
B(  8-C , 11-H ) :   0.9405 B( 12-O , 13-H ) :   0.8441 B( 12-O , 14-C ) :   0.9229
B( 14-C , 15-H ) :   0.9378 B( 14-C , 16-H ) :   0.9408 B( 14-C , 17-H ) :   0.9380

MP2 TOTAL ENERGY:     -346.528677048 Eh
FINAL SINGLE POINT ENERGY      -346.528677048018

DIPOLE MOMENT
-------------
                                X             Y             Z
Electronic contribution:      0.28093      -0.71993       0.23838
Nuclear contribution   :     -1.16626       0.68324      -0.42528
                        -----------------------------------------
Total Dipole Moment    :     -0.88533      -0.03670      -0.18690
                        -----------------------------------------
Magnitude (a.u.)       :      0.90559
Magnitude (Debye)      :      2.30183

Rotational constants in cm-1:     0.071545     0.019195     0.015804
Rotational constants in MHz :  2144.865917   575.457909   473.793654

                             ****ORCA TERMINATED NORMALLY****
TOTAL RUN TIME: 0 days 0 hours 1 minutes 2 seconds 173 msec
