                         Program Version 4.2.0 -  RELEASE  -
|  1> # 12h2o.su.etal.mol2,4,6,7,10
|  2> ! MP2 def2-TZVP EnGrad TightSCF
|  3>
|  4> %pal
|  5>     nprocs 6
|  6> end
|  7>
|  8> %maxcore 8000
|  9>
| 10> %scf
| 11>     ConvForced true
| 12> end
| 13>
| 14> *xyz 0 1
| 15> O   0.923410000  -1.794470000  -2.768350000
| 16> H   1.359750000  -2.338250000  -3.430940000
| 17> H   1.303000000  -0.879480000  -2.865760000
| 18> O  -0.885520000   1.737840000   0.052730000
| 19> H  -1.032320000   2.090180000  -0.841890000
| 20> H  -1.284090000   0.839590000   0.017130000
| 21> O   1.737840000   0.885520000  -0.052730000
| 22> H   2.090180000   1.032320000   0.841890000
| 23> H   0.839590000   1.284090000  -0.017130000
| 24> O  -1.737840000  -0.885520000  -0.052730000
| 25> H  -2.090180000  -1.032320000   0.841890000
| 26> H  -0.839590000  -1.284090000  -0.017130000
| 27> O  -0.923410000   1.794470000  -2.768350000
| 28> H  -1.359750000   2.338250000  -3.430940000
| 29> H  -1.303000000   0.879480000  -2.865760000
| 30> *
| 31>
| 32>                          ****END OF INPUT****

CARTESIAN COORDINATES (ANGSTROEM)
---------------------------------
  O      0.923410   -1.794470   -2.768350
  H      1.359750   -2.338250   -3.430940
  H      1.303000   -0.879480   -2.865760
  O     -0.885520    1.737840    0.052730
  H     -1.032320    2.090180   -0.841890
  H     -1.284090    0.839590    0.017130
  O      1.737840    0.885520   -0.052730
  H      2.090180    1.032320    0.841890
  H      0.839590    1.284090   -0.017130
  O     -1.737840   -0.885520   -0.052730
  H     -2.090180   -1.032320    0.841890
  H     -0.839590   -1.284090   -0.017130
  O     -0.923410    1.794470   -2.768350
  H     -1.359750    2.338250   -3.430940
  H     -1.303000    0.879480   -2.865760

 Total Charge           Charge          ....    0
 Multiplicity           Mult            ....    1
 Number of Electrons    NEL             ....   50
 Basis Dimension        Dim             ....  215

ORBITAL ENERGIES
----------------

  NO   OCC          E(Eh)            E(eV)
   0   2.0000     -20.588050      -560.2293
   1   2.0000     -20.582895      -560.0891
   2   2.0000     -20.557419      -559.3958
   3   2.0000     -20.526951      -558.5667
   4   2.0000     -20.512685      -558.1785
   5   2.0000      -1.369128       -37.2559
   6   2.0000      -1.360836       -37.0302
   7   2.0000      -1.332772       -36.2666
   8   2.0000      -1.317051       -35.8388
   9   2.0000      -1.291985       -35.1567
  10   2.0000      -0.727993       -19.8097
  11   2.0000      -0.725676       -19.7466
  12   2.0000      -0.700695       -19.0669
  13   2.0000      -0.691766       -18.8239
  14   2.0000      -0.666270       -18.1301
  15   2.0000      -0.615240       -16.7415
  16   2.0000      -0.598303       -16.2806
  17   2.0000      -0.570150       -15.5146
  18   2.0000      -0.568216       -15.4619
  19   2.0000      -0.542473       -14.7614
  20   2.0000      -0.524554       -14.2738
  21   2.0000      -0.512277       -13.9398
  22   2.0000      -0.500835       -13.6284
  23   2.0000      -0.472371       -12.8539
  24   2.0000      -0.460876       -12.5411
  25   0.0000       0.103931         2.8281
  26   0.0000       0.133524         3.6334
  27   0.0000       0.143703         3.9104
  28   0.0000       0.174012         4.7351
  29   0.0000       0.202165         5.5012

MULLIKEN ATOMIC CHARGES
-----------------------
   0 O :   -0.697198
   1 H :    0.337018
   2 H :    0.360803
   3 O :   -0.727910
   4 H :    0.372802
   5 H :    0.349632
   6 O :   -0.726763
   7 H :    0.321189
   8 H :    0.360973
   9 O :   -0.694154
  10 H :    0.354467
  11 H :    0.375989
  12 O :   -0.699746
  13 H :    0.348472
  14 H :    0.364425
Sum of atomic charges:   -0.0000000

LOEWDIN ATOMIC CHARGES
----------------------
   0 O :   -0.343473
   1 H :    0.157476
   2 H :    0.186441
   3 O :   -0.319304
   4 H :    0.148573
   5 H :    0.138041
   6 O :   -0.368742
   7 H :    0.155064
   8 H :    0.141380
   9 O :   -0.292307
  10 H :    0.172123
  11 H :    0.185680
  12 O :   -0.310969
  13 H :    0.161903
  14 H :    0.188112

  Mayer bond orders larger than 0.100000
B(  0-O ,  1-H ) :   0.8536 B(  0-O ,  2-H ) :   0.8303 B(  3-O ,  4-H ) :   0.8118
B(  3-O ,  5-H ) :   0.7943 B(  3-O ,  8-H ) :   0.1024 B(  6-O ,  7-H ) :   0.8616
B(  6-O ,  8-H ) :   0.7803 B(  9-O , 10-H ) :   0.8395 B(  9-O , 11-H ) :   0.8182
B( 12-O , 13-H ) :   0.8436 B( 12-O , 14-H ) :   0.8256

MP2 TOTAL ENERGY:     -381.595803875 Eh
FINAL SINGLE POINT ENERGY      -381.595803874541

DIPOLE MOMENT
-------------
                                X             Y             Z
Electronic contribution:     -0.24278      -0.07290      -0.12965
Nuclear contribution   :     -0.45394      -0.45439      -0.49091
                        -----------------------------------------
Total Dipole Moment    :     -0.69672      -0.52730      -0.62056
                        -----------------------------------------
Magnitude (a.u.)       :      1.07171
Magnitude (Debye)      :      2.72407

Rotational constants in cm-1:     0.059067     0.045668     0.044526
Rotational constants in MHz :  1770.784106  1369.100528  1334.867782

                             ****ORCA TERMINATED NORMALLY****
TOTAL RUN TIME: 0 days 0 hours 0 minutes 32 seconds 139 msec
