                         Program Version 4.2.0 -  RELEASE  -
|  1> # 12h2o.su.etal.mol0,6,9,10
|  2> ! MP2 def2-TZVP EnGrad TightSCF
|  3>
|  4> %pal
|  5>     nprocs 6
|  6> end
|  7>
|  8> %maxcore 8000
|  9>
| 10> %scf
| 11>     ConvForced true
| 12> end
| 13>
| 14> *xyz 0 1
| 15> O   1.794470000   0.923410000   2.768350000
| 16> H   2.338250000   1.359750000   3.430940000
| 17> H   0.879480000   1.303000000   2.865760000
| 18> O   1.737840000   0.885520000  -0.052730000
| 19> H   2.090180000   1.032320000   0.841890000
| 20> H   0.839590000   1.284090000  -0.017130000
| 21> O   0.741530000  -1.752130000   2.896280000
| 22> H   0.920500000  -2.036450000   1.984040000
| 23> H   1.242140000  -0.921210000   2.984230000
| 24> O  -0.923410000   1.794470000  -2.768350000
| 25> H  -1.359750000   2.338250000  -3.430940000
| 26> H  -1.303000000   0.879480000  -2.865760000
| 27> *
| 28>
| 29>                          ****END OF INPUT****

CARTESIAN COORDINATES (ANGSTROEM)
---------------------------------
  O      1.794470    0.923410    2.768350
  H      2.338250    1.359750    3.430940
  H      0.879480    1.303000    2.865760
  O      1.737840    0.885520   -0.052730
  H      2.090180    1.032320    0.841890
  H      0.839590    1.284090   -0.017130
  O      0.741530   -1.752130    2.896280
  H      0.920500   -2.036450    1.984040
  H      1.242140   -0.921210    2.984230
  O     -0.923410    1.794470   -2.768350
  H     -1.359750    2.338250   -3.430940
  H     -1.303000    0.879480   -2.865760

 Total Charge           Charge          ....    0
 Multiplicity           Mult            ....    1
 Number of Electrons    NEL             ....   40
 Basis Dimension        Dim             ....  172

ORBITAL ENERGIES
----------------

  NO   OCC          E(Eh)            E(eV)
   0   2.0000     -20.613266      -560.9155
   1   2.0000     -20.563770      -559.5686
   2   2.0000     -20.533465      -558.7440
   3   2.0000     -20.532198      -558.7095
   4   2.0000      -1.393374       -37.9156
   5   2.0000      -1.339026       -36.4367
   6   2.0000      -1.314740       -35.7759
   7   2.0000      -1.312533       -35.7158
   8   2.0000      -0.759038       -20.6545
   9   2.0000      -0.707441       -19.2504
  10   2.0000      -0.687302       -18.7025
  11   2.0000      -0.683443       -18.5974
  12   2.0000      -0.627209       -17.0672
  13   2.0000      -0.578072       -15.7301
  14   2.0000      -0.575030       -15.6474
  15   2.0000      -0.548323       -14.9206
  16   2.0000      -0.533083       -14.5059
  17   2.0000      -0.506868       -13.7926
  18   2.0000      -0.480489       -13.0748
  19   2.0000      -0.478193       -13.0123
  20   0.0000       0.094881         2.5818
  21   0.0000       0.122622         3.3367
  22   0.0000       0.161156         4.3853
  23   0.0000       0.177060         4.8180
  24   0.0000       0.193431         5.2635

MULLIKEN ATOMIC CHARGES
-----------------------
   0 O :   -0.710039
   1 H :    0.363886
   2 H :    0.366577
   3 O :   -0.691375
   4 H :    0.357467
   5 H :    0.327478
   6 O :   -0.706654
   7 H :    0.336951
   8 H :    0.353731
   9 O :   -0.681603
  10 H :    0.338672
  11 H :    0.344911
Sum of atomic charges:    0.0000000

LOEWDIN ATOMIC CHARGES
----------------------
   0 O :   -0.286171
   1 H :    0.167616
   2 H :    0.190305
   3 O :   -0.344136
   4 H :    0.144754
   5 H :    0.165397
   6 O :   -0.347892
   7 H :    0.163409
   8 H :    0.144870
   9 O :   -0.338082
  10 H :    0.158037
  11 H :    0.181892

  Mayer bond orders larger than 0.100000
B(  0-O ,  1-H ) :   0.8319 B(  0-O ,  2-H ) :   0.8233 B(  3-O ,  4-H ) :   0.8290
B(  3-O ,  5-H ) :   0.8540 B(  6-O ,  7-H ) :   0.8526 B(  6-O ,  8-H ) :   0.8276
B(  9-O , 10-H ) :   0.8528 B(  9-O , 11-H ) :   0.8441

MP2 TOTAL ENERGY:     -305.263663728 Eh
FINAL SINGLE POINT ENERGY      -305.263663728371

DIPOLE MOMENT
-------------
                                X             Y             Z
Electronic contribution:      0.22899      -0.03272       0.09208
Nuclear contribution   :     -0.87687       1.27908       0.08817
                        -----------------------------------------
Total Dipole Moment    :     -0.64788       1.24636       0.18025
                        -----------------------------------------
Magnitude (a.u.)       :      1.41621
Magnitude (Debye)      :      3.59972

Rotational constants in cm-1:     0.160694     0.031818     0.028291
Rotational constants in MHz :  4817.495416   953.888630   848.154081

                             ****ORCA TERMINATED NORMALLY****
TOTAL RUN TIME: 0 days 0 hours 0 minutes 16 seconds 42 msec
