                         Program Version 4.2.0 -  RELEASE  -
|  1> # 12h2o.su.etal.mol2,4,5,10,11
|  2> ! MP2 def2-TZVP EnGrad TightSCF
|  3>
|  4> %pal
|  5>     nprocs 6
|  6> end
|  7>
|  8> %maxcore 8000
|  9>
| 10> %scf
| 11>     ConvForced true
| 12> end
| 13>
| 14> *xyz 0 1
| 15> O   0.923410000  -1.794470000  -2.768350000
| 16> H   1.359750000  -2.338250000  -3.430940000
| 17> H   1.303000000  -0.879480000  -2.865760000
| 18> O  -0.885520000   1.737840000   0.052730000
| 19> H  -1.032320000   2.090180000  -0.841890000
| 20> H  -1.284090000   0.839590000   0.017130000
| 21> O   0.885520000  -1.737840000   0.052730000
| 22> H   1.284090000  -0.839590000   0.017130000
| 23> H   1.032320000  -2.090180000  -0.841890000
| 24> O  -0.923410000   1.794470000  -2.768350000
| 25> H  -1.359750000   2.338250000  -3.430940000
| 26> H  -1.303000000   0.879480000  -2.865760000
| 27> O  -0.741530000   1.752130000   2.896280000
| 28> H  -0.920500000   2.036450000   1.984040000
| 29> H  -1.242140000   0.921210000   2.984230000
| 30> *
| 31>
| 32>                          ****END OF INPUT****

CARTESIAN COORDINATES (ANGSTROEM)
---------------------------------
  O      0.923410   -1.794470   -2.768350
  H      1.359750   -2.338250   -3.430940
  H      1.303000   -0.879480   -2.865760
  O     -0.885520    1.737840    0.052730
  H     -1.032320    2.090180   -0.841890
  H     -1.284090    0.839590    0.017130
  O      0.885520   -1.737840    0.052730
  H      1.284090   -0.839590    0.017130
  H      1.032320   -2.090180   -0.841890
  O     -0.923410    1.794470   -2.768350
  H     -1.359750    2.338250   -3.430940
  H     -1.303000    0.879480   -2.865760
  O     -0.741530    1.752130    2.896280
  H     -0.920500    2.036450    1.984040
  H     -1.242140    0.921210    2.984230

 Total Charge           Charge          ....    0
 Multiplicity           Mult            ....    1
 Number of Electrons    NEL             ....   50
 Basis Dimension        Dim             ....  215

ORBITAL ENERGIES
----------------

  NO   OCC          E(Eh)            E(eV)
   0   2.0000     -20.605676      -560.7090
   1   2.0000     -20.600339      -560.5637
   2   2.0000     -20.557208      -559.3901
   3   2.0000     -20.534162      -558.7630
   4   2.0000     -20.516162      -558.2732
   5   2.0000      -1.383608       -37.6499
   6   2.0000      -1.378164       -37.5018
   7   2.0000      -1.338522       -36.4230
   8   2.0000      -1.313136       -35.7322
   9   2.0000      -1.297935       -35.3186
  10   2.0000      -0.750707       -20.4278
  11   2.0000      -0.744639       -20.2626
  12   2.0000      -0.708024       -19.2663
  13   2.0000      -0.683217       -18.5913
  14   2.0000      -0.666323       -18.1316
  15   2.0000      -0.622305       -16.9338
  16   2.0000      -0.614329       -16.7167
  17   2.0000      -0.584810       -15.9135
  18   2.0000      -0.564803       -15.3691
  19   2.0000      -0.548252       -14.9187
  20   2.0000      -0.531033       -14.4502
  21   2.0000      -0.530125       -14.4254
  22   2.0000      -0.502392       -13.6708
  23   2.0000      -0.479555       -13.0493
  24   2.0000      -0.462725       -12.5914
  25   0.0000       0.080906         2.2016
  26   0.0000       0.116136         3.1602
  27   0.0000       0.143685         3.9099
  28   0.0000       0.169860         4.6221
  29   0.0000       0.174556         4.7499

MULLIKEN ATOMIC CHARGES
-----------------------
   0 O :   -0.700472
   1 H :    0.353660
   2 H :    0.355897
   3 O :   -0.710276
   4 H :    0.372758
   5 H :    0.332201
   6 O :   -0.699390
   7 H :    0.328563
   8 H :    0.362935
   9 O :   -0.700749
  10 H :    0.355726
  11 H :    0.358297
  12 O :   -0.697814
  13 H :    0.369689
  14 H :    0.318975
Sum of atomic charges:   -0.0000000

LOEWDIN ATOMIC CHARGES
----------------------
   0 O :   -0.312989
   1 H :    0.164108
   2 H :    0.184826
   3 O :   -0.325474
   4 H :    0.152407
   5 H :    0.166579
   6 O :   -0.347397
   7 H :    0.164738
   8 H :    0.147446
   9 O :   -0.312190
  10 H :    0.165304
  11 H :    0.185955
  12 O :   -0.342775
  13 H :    0.151834
  14 H :    0.157629

  Mayer bond orders larger than 0.100000
B(  0-O ,  1-H ) :   0.8405 B(  0-O ,  2-H ) :   0.8311 B(  3-O ,  4-H ) :   0.8101
B(  3-O ,  5-H ) :   0.8447 B(  6-O ,  7-H ) :   0.8524 B(  6-O ,  8-H ) :   0.8233
B(  9-O , 10-H ) :   0.8396 B(  9-O , 11-H ) :   0.8299 B( 12-O , 13-H ) :   0.8191
B( 12-O , 14-H ) :   0.8634

MP2 TOTAL ENERGY:     -381.585849067 Eh
FINAL SINGLE POINT ENERGY      -381.585849067240

DIPOLE MOMENT
-------------
                                X             Y             Z
Electronic contribution:      0.12476       0.08622      -0.00143
Nuclear contribution   :     -0.56566      -0.45497      -3.49985
                        -----------------------------------------
Total Dipole Moment    :     -0.44090      -0.36875      -3.50128
                        -----------------------------------------
Magnitude (a.u.)       :      3.54815
Magnitude (Debye)      :      9.01868

Rotational constants in cm-1:     0.066303     0.034037     0.022674
Rotational constants in MHz :  1987.719133  1020.400541   679.743516

                             ****ORCA TERMINATED NORMALLY****
TOTAL RUN TIME: 0 days 0 hours 0 minutes 31 seconds 582 msec
