                         Program Version 4.2.0 -  RELEASE  -
|  1> # 12meoh.boyd.etal.mol1,4,9
|  2> ! MP2 def2-TZVP EnGrad TightSCF
|  3>
|  4> %pal
|  5>     nprocs 6
|  6> end
|  7>
|  8> %maxcore 8000
|  9>
| 10> %scf
| 11>     ConvForced true
| 12> end
| 13>
| 14> *xyz 0 1
| 15> O   0.666045193  -2.600503172   0.138317521
| 16> H  -0.227115049  -2.712051982  -0.281868004
| 17> C   0.490021232  -1.851247678   1.341189459
| 18> H   1.466500502  -1.466176022   1.645844415
| 19> H   0.097564527  -2.488364683   2.146902740
| 20> H  -0.187588112  -1.000787499   1.200739571
| 21> O  -1.358578914   1.232360421   1.189721000
| 22> H  -1.058250183   1.216459361   0.238591307
| 23> C  -0.389763452   1.957872567   1.943072362
| 24> H  -0.747220771   2.012806578   2.975200343
| 25> H  -0.260410585   2.982763209   1.565366540
| 26> H   0.585220638   1.453754179   1.934070793
| 27> O   1.390610024   3.194080770  -1.536658882
| 28> H   2.162932299   2.881562730  -0.993525056
| 29> C   1.202977189   4.580367182  -1.302880219
| 30> H   0.374773115   4.915764831  -1.934164643
| 31> H   2.098649340   5.157710875  -1.570472348
| 32> H   0.950320401   4.800436015  -0.254328827
| 33> *
| 34>
| 35>                          ****END OF INPUT****

CARTESIAN COORDINATES (ANGSTROEM)
---------------------------------
  O      0.666045   -2.600503    0.138318
  H     -0.227115   -2.712052   -0.281868
  C      0.490021   -1.851248    1.341189
  H      1.466501   -1.466176    1.645844
  H      0.097565   -2.488365    2.146903
  H     -0.187588   -1.000787    1.200740
  O     -1.358579    1.232360    1.189721
  H     -1.058250    1.216459    0.238591
  C     -0.389763    1.957873    1.943072
  H     -0.747221    2.012807    2.975200
  H     -0.260411    2.982763    1.565367
  H      0.585221    1.453754    1.934071
  O      1.390610    3.194081   -1.536659
  H      2.162932    2.881563   -0.993525
  C      1.202977    4.580367   -1.302880
  H      0.374773    4.915765   -1.934165
  H      2.098649    5.157711   -1.570472
  H      0.950320    4.800436   -0.254329

 Total Charge           Charge          ....    0
 Multiplicity           Mult            ....    1
 Number of Electrons    NEL             ....   54
 Basis Dimension        Dim             ....  258

ORBITAL ENERGIES
----------------

  NO   OCC          E(Eh)            E(eV)
   0   2.0000     -20.568165      -559.6882
   1   2.0000     -20.561879      -559.5172
   2   2.0000     -20.551043      -559.2223
   3   2.0000     -11.279736      -306.9372
   4   2.0000     -11.275838      -306.8311
   5   2.0000     -11.262495      -306.4681
   6   2.0000      -1.358450       -36.9653
   7   2.0000      -1.349683       -36.7267
   8   2.0000      -1.339187       -36.4411
   9   2.0000      -0.928156       -25.2564
  10   2.0000      -0.923573       -25.1317
  11   2.0000      -0.912554       -24.8319
  12   2.0000      -0.692518       -18.8444
  13   2.0000      -0.684653       -18.6304
  14   2.0000      -0.674390       -18.3511
  15   2.0000      -0.627424       -17.0731
  16   2.0000      -0.623275       -16.9602
  17   2.0000      -0.606494       -16.5035
  18   2.0000      -0.601633       -16.3713
  19   2.0000      -0.594176       -16.1684
  20   2.0000      -0.583862       -15.8877
  21   2.0000      -0.508546       -13.8382
  22   2.0000      -0.504713       -13.7339
  23   2.0000      -0.494523       -13.4567
  24   2.0000      -0.458463       -12.4754
  25   2.0000      -0.453840       -12.3496
  26   2.0000      -0.440971       -11.9994
  27   0.0000       0.110035         2.9942
  28   0.0000       0.138063         3.7569
  29   0.0000       0.161813         4.4031
  30   0.0000       0.165372         4.5000
  31   0.0000       0.169431         4.6105

MULLIKEN ATOMIC CHARGES
-----------------------
   0 O :   -0.503030
   1 H :    0.322537
   2 C :   -0.172296
   3 H :    0.116642
   4 H :    0.107402
   5 H :    0.111654
   6 O :   -0.500417
   7 H :    0.334889
   8 C :   -0.172608
   9 H :    0.132489
  10 H :    0.113628
  11 H :    0.104875
  12 O :   -0.501880
  13 H :    0.325723
  14 C :   -0.173965
  15 H :    0.132873
  16 H :    0.117375
  17 H :    0.104108
Sum of atomic charges:    0.0000000

LOEWDIN ATOMIC CHARGES
----------------------
   0 O :   -0.114436
   1 H :    0.189520
   2 C :   -0.383040
   3 H :    0.105540
   4 H :    0.096286
   5 H :    0.098385
   6 O :   -0.107614
   7 H :    0.194685
   8 C :   -0.383216
   9 H :    0.110690
  10 H :    0.097032
  11 H :    0.093252
  12 O :   -0.105905
  13 H :    0.191916
  14 C :   -0.385318
  15 H :    0.111806
  16 H :    0.097557
  17 H :    0.092860

  Mayer bond orders larger than 0.100000
B(  0-O ,  1-H ) :   0.8431 B(  0-O ,  2-C ) :   0.9177 B(  2-C ,  3-H ) :   0.9365
B(  2-C ,  4-H ) :   0.9360 B(  2-C ,  5-H ) :   0.9363 B(  6-O ,  7-H ) :   0.8330
B(  6-O ,  8-C ) :   0.9129 B(  8-C ,  9-H ) :   0.9379 B(  8-C , 10-H ) :   0.9399
B(  8-C , 11-H ) :   0.9389 B( 12-O , 13-H ) :   0.8389 B( 12-O , 14-C ) :   0.9200
B( 14-C , 15-H ) :   0.9377 B( 14-C , 16-H ) :   0.9415 B( 14-C , 17-H ) :   0.9350

MP2 TOTAL ENERGY:     -346.524307982 Eh
FINAL SINGLE POINT ENERGY      -346.524307981744

DIPOLE MOMENT
-------------
                                X             Y             Z
Electronic contribution:     -0.85648      -3.51229      -2.73275
Nuclear contribution   :      1.16423       4.52498       3.06019
                        -----------------------------------------
Total Dipole Moment    :      0.30775       1.01269       0.32744
                        -----------------------------------------
Magnitude (a.u.)       :      1.10791
Magnitude (Debye)      :      2.81608

Rotational constants in cm-1:     0.081956     0.023227     0.019176
Rotational constants in MHz :  2456.971004   696.330189   574.880924

                             ****ORCA TERMINATED NORMALLY****
TOTAL RUN TIME: 0 days 0 hours 1 minutes 9 seconds 834 msec
