                         Program Version 4.2.0 -  RELEASE  -
|  1> # 12h2o.su.etal.mol1,7,9,10
|  2> ! MP2 def2-TZVP EnGrad TightSCF
|  3>
|  4> %pal
|  5>     nprocs 6
|  6> end
|  7>
|  8> %maxcore 8000
|  9>
| 10> %scf
| 11>     ConvForced true
| 12> end
| 13>
| 14> *xyz 0 1
| 15> O  -1.794470000  -0.923410000   2.768350000
| 16> H  -2.338250000  -1.359750000   3.430940000
| 17> H  -0.879480000  -1.303000000   2.865760000
| 18> O  -1.737840000  -0.885520000  -0.052730000
| 19> H  -2.090180000  -1.032320000   0.841890000
| 20> H  -0.839590000  -1.284090000  -0.017130000
| 21> O   0.741530000  -1.752130000   2.896280000
| 22> H   0.920500000  -2.036450000   1.984040000
| 23> H   1.242140000  -0.921210000   2.984230000
| 24> O  -0.923410000   1.794470000  -2.768350000
| 25> H  -1.359750000   2.338250000  -3.430940000
| 26> H  -1.303000000   0.879480000  -2.865760000
| 27> *
| 28>
| 29>                          ****END OF INPUT****

CARTESIAN COORDINATES (ANGSTROEM)
---------------------------------
  O     -1.794470   -0.923410    2.768350
  H     -2.338250   -1.359750    3.430940
  H     -0.879480   -1.303000    2.865760
  O     -1.737840   -0.885520   -0.052730
  H     -2.090180   -1.032320    0.841890
  H     -0.839590   -1.284090   -0.017130
  O      0.741530   -1.752130    2.896280
  H      0.920500   -2.036450    1.984040
  H      1.242140   -0.921210    2.984230
  O     -0.923410    1.794470   -2.768350
  H     -1.359750    2.338250   -3.430940
  H     -1.303000    0.879480   -2.865760

 Total Charge           Charge          ....    0
 Multiplicity           Mult            ....    1
 Number of Electrons    NEL             ....   40
 Basis Dimension        Dim             ....  172

ORBITAL ENERGIES
----------------

  NO   OCC          E(Eh)            E(eV)
   0   2.0000     -20.613457      -560.9207
   1   2.0000     -20.545942      -559.0835
   2   2.0000     -20.545831      -559.0805
   3   2.0000     -20.530739      -558.6698
   4   2.0000      -1.398836       -38.0643
   5   2.0000      -1.331451       -36.2306
   6   2.0000      -1.321234       -35.9526
   7   2.0000      -1.308541       -35.6072
   8   2.0000      -0.756069       -20.5737
   9   2.0000      -0.717467       -19.5233
  10   2.0000      -0.689498       -18.7622
  11   2.0000      -0.678055       -18.4508
  12   2.0000      -0.635711       -17.2986
  13   2.0000      -0.583879       -15.8881
  14   2.0000      -0.557551       -15.1717
  15   2.0000      -0.555603       -15.1187
  16   2.0000      -0.533741       -14.5238
  17   2.0000      -0.493026       -13.4159
  18   2.0000      -0.488997       -13.3063
  19   2.0000      -0.475881       -12.9494
  20   0.0000       0.088583         2.4105
  21   0.0000       0.140208         3.8152
  22   0.0000       0.157064         4.2739
  23   0.0000       0.160354         4.3634
  24   0.0000       0.204409         5.5623

MULLIKEN ATOMIC CHARGES
-----------------------
   0 O :   -0.730385
   1 H :    0.336347
   2 H :    0.365354
   3 O :   -0.687560
   4 H :    0.370699
   5 H :    0.299815
   6 O :   -0.674412
   7 H :    0.353410
   8 H :    0.368500
   9 O :   -0.684898
  10 H :    0.332511
  11 H :    0.350620
Sum of atomic charges:   -0.0000000

LOEWDIN ATOMIC CHARGES
----------------------
   0 O :   -0.337743
   1 H :    0.153575
   2 H :    0.142437
   3 O :   -0.345692
   4 H :    0.150543
   5 H :    0.152871
   6 O :   -0.266674
   7 H :    0.171445
   8 H :    0.181207
   9 O :   -0.340143
  10 H :    0.154985
  11 H :    0.183188

  Mayer bond orders larger than 0.100000
B(  0-O ,  1-H ) :   0.8508 B(  0-O ,  2-H ) :   0.7747 B(  3-O ,  4-H ) :   0.8094
B(  3-O ,  5-H ) :   0.8708 B(  6-O ,  7-H ) :   0.8390 B(  6-O ,  8-H ) :   0.8305
B(  9-O , 10-H ) :   0.8566 B(  9-O , 11-H ) :   0.8393

MP2 TOTAL ENERGY:     -305.265345775 Eh
FINAL SINGLE POINT ENERGY      -305.265345774580

DIPOLE MOMENT
-------------
                                X             Y             Z
Electronic contribution:      0.14645       0.11234       0.25081
Nuclear contribution   :      0.64988      -0.98710       0.08817
                        -----------------------------------------
Total Dipole Moment    :      0.79633      -0.87477       0.33899
                        -----------------------------------------
Magnitude (a.u.)       :      1.23056
Magnitude (Debye)      :      3.12783

Rotational constants in cm-1:     0.184013     0.031651     0.028761
Rotational constants in MHz :  5516.584992   948.873903   862.236652

                             ****ORCA TERMINATED NORMALLY****
TOTAL RUN TIME: 0 days 0 hours 0 minutes 19 seconds 837 msec
