                         Program Version 4.2.0 -  RELEASE  -
|  1> # 12h2o.su.etal.mol1,4,6,7,8,10
|  2> ! MP2 def2-TZVP EnGrad TightSCF
|  3>
|  4> %pal
|  5>     nprocs 6
|  6> end
|  7>
|  8> %maxcore 8000
|  9>
| 10> %scf
| 11>     ConvForced true
| 12> end
| 13>
| 14> *xyz 0 1
| 15> O  -1.794470000  -0.923410000   2.768350000
| 16> H  -2.338250000  -1.359750000   3.430940000
| 17> H  -0.879480000  -1.303000000   2.865760000
| 18> O  -0.885520000   1.737840000   0.052730000
| 19> H  -1.032320000   2.090180000  -0.841890000
| 20> H  -1.284090000   0.839590000   0.017130000
| 21> O   1.737840000   0.885520000  -0.052730000
| 22> H   2.090180000   1.032320000   0.841890000
| 23> H   0.839590000   1.284090000  -0.017130000
| 24> O  -1.737840000  -0.885520000  -0.052730000
| 25> H  -2.090180000  -1.032320000   0.841890000
| 26> H  -0.839590000  -1.284090000  -0.017130000
| 27> O   1.752130000   0.741530000  -2.896280000
| 28> H   2.036450000   0.920500000  -1.984040000
| 29> H   0.921210000   1.242140000  -2.984230000
| 30> O  -0.923410000   1.794470000  -2.768350000
| 31> H  -1.359750000   2.338250000  -3.430940000
| 32> H  -1.303000000   0.879480000  -2.865760000
| 33> *
| 34>
| 35>                          ****END OF INPUT****

CARTESIAN COORDINATES (ANGSTROEM)
---------------------------------
  O     -1.794470   -0.923410    2.768350
  H     -2.338250   -1.359750    3.430940
  H     -0.879480   -1.303000    2.865760
  O     -0.885520    1.737840    0.052730
  H     -1.032320    2.090180   -0.841890
  H     -1.284090    0.839590    0.017130
  O      1.737840    0.885520   -0.052730
  H      2.090180    1.032320    0.841890
  H      0.839590    1.284090   -0.017130
  O     -1.737840   -0.885520   -0.052730
  H     -2.090180   -1.032320    0.841890
  H     -0.839590   -1.284090   -0.017130
  O      1.752130    0.741530   -2.896280
  H      2.036450    0.920500   -1.984040
  H      0.921210    1.242140   -2.984230
  O     -0.923410    1.794470   -2.768350
  H     -1.359750    2.338250   -3.430940
  H     -1.303000    0.879480   -2.865760

 Total Charge           Charge          ....    0
 Multiplicity           Mult            ....    1
 Number of Electrons    NEL             ....   60
 Basis Dimension        Dim             ....  258

ORBITAL ENERGIES
----------------

  NO   OCC          E(Eh)            E(eV)
   0   2.0000     -20.603030      -560.6369
   1   2.0000     -20.599850      -560.5504
   2   2.0000     -20.573480      -559.8329
   3   2.0000     -20.533992      -558.7583
   4   2.0000     -20.531614      -558.6936
   5   2.0000     -20.494993      -557.6971
   6   2.0000      -1.381576       -37.5946
   7   2.0000      -1.380215       -37.5576
   8   2.0000      -1.357001       -36.9259
   9   2.0000      -1.326385       -36.0928
  10   2.0000      -1.310825       -35.6694
  11   2.0000      -1.280008       -34.8308
  12   2.0000      -0.747937       -20.3524
  13   2.0000      -0.745610       -20.2891
  14   2.0000      -0.720064       -19.5939
  15   2.0000      -0.695680       -18.9304
  16   2.0000      -0.688843       -18.7444
  17   2.0000      -0.659518       -17.9464
  18   2.0000      -0.627268       -17.0688
  19   2.0000      -0.620785       -16.8924
  20   2.0000      -0.594995       -16.1906
  21   2.0000      -0.573920       -15.6172
  22   2.0000      -0.570758       -15.5311
  23   2.0000      -0.542664       -14.7666
  24   2.0000      -0.533074       -14.5057
  25   2.0000      -0.510773       -13.8988
  26   2.0000      -0.508967       -13.8497
  27   2.0000      -0.485008       -13.1977
  28   2.0000      -0.476270       -12.9600
  29   2.0000      -0.444921       -12.1069
  30   0.0000       0.090019         2.4496
  31   0.0000       0.113579         3.0906
  32   0.0000       0.146115         3.9760
  33   0.0000       0.170831         4.6486
  34   0.0000       0.181409         4.9364

MULLIKEN ATOMIC CHARGES
-----------------------
   0 O :   -0.693434
   1 H :    0.355995
   2 H :    0.354739
   3 O :   -0.725648
   4 H :    0.369020
   5 H :    0.363162
   6 O :   -0.732139
   7 H :    0.329118
   8 H :    0.356780
   9 O :   -0.708790
  10 H :    0.381537
  11 H :    0.349268
  12 O :   -0.728010
  13 H :    0.369026
  14 H :    0.337611
  15 O :   -0.713752
  16 H :    0.360374
  17 H :    0.375143
Sum of atomic charges:    0.0000000

LOEWDIN ATOMIC CHARGES
----------------------
   0 O :   -0.308283
   1 H :    0.165355
   2 H :    0.186053
   3 O :   -0.315969
   4 H :    0.146445
   5 H :    0.140796
   6 O :   -0.346769
   7 H :    0.158439
   8 H :    0.142377
   9 O :   -0.300569
  10 H :    0.154572
  11 H :    0.173869
  12 O :   -0.357425
  13 H :    0.151094
  14 H :    0.138061
  15 O :   -0.287277
  16 H :    0.165982
  17 H :    0.193248

  Mayer bond orders larger than 0.100000
B(  0-O ,  1-H ) :   0.8397 B(  0-O ,  2-H ) :   0.8342 B(  3-O ,  4-H ) :   0.8167
B(  3-O ,  5-H ) :   0.7838 B(  3-O ,  8-H ) :   0.1141 B(  6-O ,  7-H ) :   0.8540
B(  6-O ,  8-H ) :   0.7626 B(  9-O , 10-H ) :   0.8007 B(  9-O , 11-H ) :   0.8368
B( 12-O , 13-H ) :   0.8198 B( 12-O , 14-H ) :   0.8400 B( 15-O , 16-H ) :   0.8341
B( 15-O , 17-H ) :   0.8171

MP2 TOTAL ENERGY:     -457.925465001 Eh
FINAL SINGLE POINT ENERGY      -457.925465001038

DIPOLE MOMENT
-------------
                                X             Y             Z
Electronic contribution:     -0.35639       0.02569       0.01053
Nuclear contribution   :     -1.27908      -0.87687       1.46039
                        -----------------------------------------
Total Dipole Moment    :     -1.63547      -0.85117       1.47092
                        -----------------------------------------
Magnitude (a.u.)       :      2.35857
Magnitude (Debye)      :      5.99500

Rotational constants in cm-1:     0.073727     0.026776     0.023467
Rotational constants in MHz :  2210.289820   802.724211   703.510311

                             ****ORCA TERMINATED NORMALLY****
TOTAL RUN TIME: 0 days 0 hours 1 minutes 1 seconds 879 msec
