                         Program Version 4.2.0 -  RELEASE  -
|  1> # 12mecn.remya.etal.2.mol0,2,4
|  2> ! MP2 def2-TZVP EnGrad TightSCF
|  3>
|  4> %pal
|  5>     nprocs 6
|  6> end
|  7>
|  8> %maxcore 8000
|  9>
| 10> %scf
| 11>     ConvForced true
| 12> end
| 13>
| 14> *xyz 0 1
| 15> C  -0.869520000  -3.929380000   1.700199000
| 16> H  -0.057420000  -3.268850000   2.015352000
| 17> H  -0.697530000  -4.930670000   2.101524000
| 18> H  -1.821490000  -3.546590000   2.077146000
| 19> C  -0.916080000  -3.969960000   0.256749000
| 20> N  -0.955390000  -3.995980000  -0.909290000
| 21> C  -4.219070000  -3.477410000  -1.501740000
| 22> H  -3.251530000  -3.803540000  -1.893830000
| 23> H  -4.452920000  -2.481700000  -1.890840000
| 24> H  -4.992170000  -4.178130000  -1.824640000
| 25> C  -4.154550000  -3.418790000  -0.058340000
| 26> N  -4.091140000  -3.354840000   1.104432000
| 27> C  -1.509690000  -0.693960000  -1.610140000
| 28> H  -1.327010000  -1.692700000  -2.017370000
| 29> H  -0.742170000  -0.000650000  -1.964400000
| 30> H  -2.491920000  -0.334310000  -1.929350000
| 31> C  -1.473570000  -0.748120000  -0.167200000
| 32> N  -1.447490000  -0.793720000   0.998938000
| 33> *
| 34>
| 35>                          ****END OF INPUT****

CARTESIAN COORDINATES (ANGSTROEM)
---------------------------------
  C     -0.869520   -3.929380    1.700199
  H     -0.057420   -3.268850    2.015352
  H     -0.697530   -4.930670    2.101524
  H     -1.821490   -3.546590    2.077146
  C     -0.916080   -3.969960    0.256749
  N     -0.955390   -3.995980   -0.909290
  C     -4.219070   -3.477410   -1.501740
  H     -3.251530   -3.803540   -1.893830
  H     -4.452920   -2.481700   -1.890840
  H     -4.992170   -4.178130   -1.824640
  C     -4.154550   -3.418790   -0.058340
  N     -4.091140   -3.354840    1.104432
  C     -1.509690   -0.693960   -1.610140
  H     -1.327010   -1.692700   -2.017370
  H     -0.742170   -0.000650   -1.964400
  H     -2.491920   -0.334310   -1.929350
  C     -1.473570   -0.748120   -0.167200
  N     -1.447490   -0.793720    0.998938

 Total Charge           Charge          ....    0
 Multiplicity           Mult            ....    1
 Number of Electrons    NEL             ....   66
 Basis Dimension        Dim             ....  333

ORBITAL ENERGIES
----------------

  NO   OCC          E(Eh)            E(eV)
   0   2.0000     -15.570175      -423.6860
   1   2.0000     -15.569527      -423.6684
   2   2.0000     -15.568146      -423.6308
   3   2.0000     -11.284469      -307.0660
   4   2.0000     -11.280143      -306.9483
   5   2.0000     -11.279041      -306.9183
   6   2.0000     -11.277576      -306.8784
   7   2.0000     -11.276857      -306.8589
   8   2.0000     -11.260377      -306.4104
   9   2.0000      -1.218313       -33.1520
  10   2.0000      -1.213137       -33.0111
  11   2.0000      -1.211603       -32.9694
  12   2.0000      -1.040448       -28.3120
  13   2.0000      -1.037503       -28.2319
  14   2.0000      -1.026513       -27.9328
  15   2.0000      -0.697667       -18.9845
  16   2.0000      -0.693953       -18.8834
  17   2.0000      -0.685150       -18.6439
  18   2.0000      -0.636509       -17.3203
  19   2.0000      -0.631418       -17.1818
  20   2.0000      -0.626775       -17.0554
  21   2.0000      -0.620870       -16.8947
  22   2.0000      -0.611102       -16.6289
  23   2.0000      -0.609609       -16.5883
  24   2.0000      -0.559106       -15.2140
  25   2.0000      -0.554204       -15.0807
  26   2.0000      -0.553674       -15.0662
  27   2.0000      -0.465007       -12.6535
  28   2.0000      -0.460188       -12.5223
  29   2.0000      -0.458160       -12.4672
  30   2.0000      -0.454790       -12.3755
  31   2.0000      -0.451487       -12.2856
  32   2.0000      -0.448154       -12.1949
  33   0.0000       0.112214         3.0535
  34   0.0000       0.148748         4.0476
  35   0.0000       0.154646         4.2081
  36   0.0000       0.159330         4.3356
  37   0.0000       0.165000         4.4899

MULLIKEN ATOMIC CHARGES
-----------------------
   0 C :   -0.268201
   1 H :    0.171154
   2 H :    0.166842
   3 H :    0.212254
   4 C :   -0.087914
   5 N :   -0.194742
   6 C :   -0.294448
   7 H :    0.202172
   8 H :    0.157881
   9 H :    0.177002
  10 C :   -0.112881
  11 N :   -0.129491
  12 C :   -0.292568
  13 H :    0.198012
  14 H :    0.177010
  15 H :    0.160918
  16 C :   -0.127306
  17 N :   -0.115694
Sum of atomic charges:    0.0000000

LOEWDIN ATOMIC CHARGES
----------------------
   0 C :   -0.282624
   1 H :    0.155253
   2 H :    0.149335
   3 H :    0.160553
   4 C :   -0.201600
   5 N :    0.014897
   6 C :   -0.286675
   7 H :    0.155058
   8 H :    0.149048
   9 H :    0.150931
  10 C :   -0.212123
  11 N :    0.044703
  12 C :   -0.286284
  13 H :    0.154159
  14 H :    0.152943
  15 H :    0.149267
  16 C :   -0.215776
  17 N :    0.048936

  Mayer bond orders larger than 0.100000
B(  0-C ,  1-H ) :   0.9125 B(  0-C ,  2-H ) :   0.9087 B(  0-C ,  3-H ) :   0.8980
B(  0-C ,  4-C ) :   0.9111 B(  4-C ,  5-N ) :   2.7228 B(  6-C ,  7-H ) :   0.9070
B(  6-C ,  8-H ) :   0.9197 B(  6-C ,  9-H ) :   0.9107 B(  6-C , 10-C ) :   0.8981
B( 10-C , 11-N ) :   2.7676 B( 12-C , 13-H ) :   0.9072 B( 12-C , 14-H ) :   0.9101
B( 12-C , 15-H ) :   0.9227 B( 12-C , 16-C ) :   0.8939 B( 16-C , 17-N ) :   2.7930

MP2 TOTAL ENERGY:     -397.466650657 Eh
FINAL SINGLE POINT ENERGY      -397.466650657325

DIPOLE MOMENT
-------------
                                X             Y             Z
Electronic contribution:      0.12588      -0.10805       3.27862
Nuclear contribution   :     -0.17853       0.12827      -4.63166
                        -----------------------------------------
Total Dipole Moment    :     -0.05264       0.02022      -1.35303
                        -----------------------------------------
Magnitude (a.u.)       :      1.35421
Magnitude (Debye)      :      3.44213

Rotational constants in cm-1:     0.045192     0.039096     0.031161
Rotational constants in MHz :  1354.817426  1172.065328   934.168601

                             ****ORCA TERMINATED NORMALLY****
TOTAL RUN TIME: 0 days 0 hours 8 minutes 7 seconds 653 msec
