                         Program Version 4.2.0 -  RELEASE  -
|  1> # 12meoh.boyd.etal.mol4,5,7
|  2> ! MP2 def2-TZVP EnGrad TightSCF
|  3>
|  4> %pal
|  5>     nprocs 6
|  6> end
|  7>
|  8> %maxcore 8000
|  9>
| 10> %scf
| 11>     ConvForced true
| 12> end
| 13>
| 14> *xyz 0 1
| 15> O  -1.358578914   1.232360421   1.189721000
| 16> H  -1.058250183   1.216459361   0.238591307
| 17> C  -0.389763452   1.957872567   1.943072362
| 18> H  -0.747220771   2.012806578   2.975200343
| 19> H  -0.260410585   2.982763209   1.565366540
| 20> H   0.585220638   1.453754179   1.934070793
| 21> O  -0.662721750   1.449094618  -1.383082065
| 22> H   0.064188300   2.119867608  -1.465650660
| 23> C  -0.353319239   0.341218776  -2.229326771
| 24> H  -1.072358530  -0.454743281  -2.019906495
| 25> H   0.657636746  -0.044472139  -2.042736771
| 26> H  -0.434616607   0.624733901  -3.287793021
| 27> O   4.310535586  -1.588322800   0.656128299
| 28> H   3.804372199  -1.630404735  -0.196849819
| 29> C   4.312298137  -2.894980854   1.222112691
| 30> H   4.713177833  -2.819907076   2.237066773
| 31> H   4.957796734  -3.574699304   0.648211180
| 32> H   3.302735989  -3.324433205   1.269756773
| 33> *
| 34>
| 35>                          ****END OF INPUT****

CARTESIAN COORDINATES (ANGSTROEM)
---------------------------------
  O     -1.358579    1.232360    1.189721
  H     -1.058250    1.216459    0.238591
  C     -0.389763    1.957873    1.943072
  H     -0.747221    2.012807    2.975200
  H     -0.260411    2.982763    1.565367
  H      0.585221    1.453754    1.934071
  O     -0.662722    1.449095   -1.383082
  H      0.064188    2.119868   -1.465651
  C     -0.353319    0.341219   -2.229327
  H     -1.072359   -0.454743   -2.019906
  H      0.657637   -0.044472   -2.042737
  H     -0.434617    0.624734   -3.287793
  O      4.310536   -1.588323    0.656128
  H      3.804372   -1.630405   -0.196850
  C      4.312298   -2.894981    1.222113
  H      4.713178   -2.819907    2.237067
  H      4.957797   -3.574699    0.648211
  H      3.302736   -3.324433    1.269757

 Total Charge           Charge          ....    0
 Multiplicity           Mult            ....    1
 Number of Electrons    NEL             ....   54
 Basis Dimension        Dim             ....  258

ORBITAL ENERGIES
----------------

  NO   OCC          E(Eh)            E(eV)
   0   2.0000     -20.592019      -560.3373
   1   2.0000     -20.561444      -559.5053
   2   2.0000     -20.511727      -558.1525
   3   2.0000     -11.294694      -307.3443
   4   2.0000     -11.274304      -306.7894
   5   2.0000     -11.249701      -306.1199
   6   2.0000      -1.384442       -37.6726
   7   2.0000      -1.350980       -36.7620
   8   2.0000      -1.307505       -35.5790
   9   2.0000      -0.946532       -25.7564
  10   2.0000      -0.922473       -25.1018
  11   2.0000      -0.895492       -24.3676
  12   2.0000      -0.716846       -19.5064
  13   2.0000      -0.685457       -18.6522
  14   2.0000      -0.674297       -18.3485
  15   2.0000      -0.637954       -17.3596
  16   2.0000      -0.620014       -16.8714
  17   2.0000      -0.611229       -16.6324
  18   2.0000      -0.594189       -16.1687
  19   2.0000      -0.590162       -16.0591
  20   2.0000      -0.560261       -15.2455
  21   2.0000      -0.530889       -14.4462
  22   2.0000      -0.504195       -13.7198
  23   2.0000      -0.489516       -13.3204
  24   2.0000      -0.457154       -12.4398
  25   2.0000      -0.452595       -12.3157
  26   2.0000      -0.415422       -11.3042
  27   0.0000       0.099321         2.7027
  28   0.0000       0.128095         3.4856
  29   0.0000       0.157784         4.2935
  30   0.0000       0.170158         4.6302
  31   0.0000       0.186887         5.0855

MULLIKEN ATOMIC CHARGES
-----------------------
   0 O :   -0.526096
   1 H :    0.353222
   2 C :   -0.184928
   3 H :    0.123909
   4 H :    0.092845
   5 H :    0.102281
   6 O :   -0.514559
   7 H :    0.341707
   8 C :   -0.181175
   9 H :    0.150191
  10 H :    0.115456
  11 H :    0.126867
  12 O :   -0.495948
  13 H :    0.317998
  14 C :   -0.175173
  15 H :    0.130992
  16 H :    0.109305
  17 H :    0.113108
Sum of atomic charges:    0.0000000

LOEWDIN ATOMIC CHARGES
----------------------
   0 O :   -0.126435
   1 H :    0.158796
   2 C :   -0.398037
   3 H :    0.106939
   4 H :    0.088924
   5 H :    0.090997
   6 O :   -0.073525
   7 H :    0.197884
   8 C :   -0.366500
   9 H :    0.117153
  10 H :    0.098980
  11 H :    0.104717
  12 O :   -0.109784
  13 H :    0.187599
  14 C :   -0.380416
  15 H :    0.110787
  16 H :    0.095360
  17 H :    0.096562

  Mayer bond orders larger than 0.100000
B(  0-O ,  1-H ) :   0.7910 B(  0-O ,  2-C ) :   0.9447 B(  2-C ,  3-H ) :   0.9426
B(  2-C ,  4-H ) :   0.9374 B(  2-C ,  5-H ) :   0.9372 B(  6-O ,  7-H ) :   0.8281
B(  6-O ,  8-C ) :   0.8745 B(  8-C ,  9-H ) :   0.9389 B(  8-C , 10-H ) :   0.9378
B(  8-C , 11-H ) :   0.9343 B( 12-O , 13-H ) :   0.8450 B( 12-O , 14-C ) :   0.9231
B( 14-C , 15-H ) :   0.9375 B( 14-C , 16-H ) :   0.9383 B( 14-C , 17-H ) :   0.9400

MP2 TOTAL ENERGY:     -346.527471161 Eh
FINAL SINGLE POINT ENERGY      -346.527471160583

DIPOLE MOMENT
-------------
                                X             Y             Z
Electronic contribution:     -1.73114       1.96672      -0.70247
Nuclear contribution   :      2.58187      -2.37754      -0.66463
                        -----------------------------------------
Total Dipole Moment    :      0.85074      -0.41082      -1.36710
                        -----------------------------------------
Magnitude (a.u.)       :      1.66177
Magnitude (Debye)      :      4.22389

Rotational constants in cm-1:     0.070595     0.019624     0.016190
Rotational constants in MHz :  2116.376084   588.310989   485.369274

                             ****ORCA TERMINATED NORMALLY****
TOTAL RUN TIME: 0 days 0 hours 1 minutes 3 seconds 755 msec
