                         Program Version 4.2.0 -  RELEASE  -
|  1> # 12meoh.boyd.etal.mol0,3,6
|  2> ! MP2 def2-TZVP EnGrad TightSCF
|  3>
|  4> %pal
|  5>     nprocs 6
|  6> end
|  7>
|  8> %maxcore 8000
|  9>
| 10> %scf
| 11>     ConvForced true
| 12> end
| 13>
| 14> *xyz 0 1
| 15> O  -1.776108874  -2.741384797  -1.019308298
| 16> H  -2.520094035  -2.452295987  -0.420778302
| 17> C  -2.174025166  -3.952700964  -1.647004581
| 18> H  -1.359803895  -4.272673416  -2.304149236
| 19> H  -3.075973971  -3.808692420  -2.256751112
| 20> H  -2.370225393  -4.752784761  -0.918966137
| 21> O  -3.821405976  -2.118091637   0.596795346
| 22> H  -4.342989117  -1.344303030   0.251966383
| 23> C  -3.443883586  -1.809641231   1.934889393
| 24> H  -2.831494349  -2.637429600   2.305201764
| 25> H  -4.325601146  -1.719364371   2.585074667
| 26> H  -2.858527126  -0.882644791   1.996110694
| 27> O   2.622209273  -1.703002590  -1.445859723
| 28> H   1.828551432  -1.986513781  -0.909754968
| 29> C   2.781117675  -2.615822239  -2.525472890
| 30> H   3.691063626  -2.339003544  -3.065143454
| 31> H   1.934727323  -2.559520367  -3.223226661
| 32> H   2.879948338  -3.653846211  -2.177750170
| 33> *
| 34>
| 35>                          ****END OF INPUT****

CARTESIAN COORDINATES (ANGSTROEM)
---------------------------------
  O     -1.776109   -2.741385   -1.019308
  H     -2.520094   -2.452296   -0.420778
  C     -2.174025   -3.952701   -1.647005
  H     -1.359804   -4.272673   -2.304149
  H     -3.075974   -3.808692   -2.256751
  H     -2.370225   -4.752785   -0.918966
  O     -3.821406   -2.118092    0.596795
  H     -4.342989   -1.344303    0.251966
  C     -3.443884   -1.809641    1.934889
  H     -2.831494   -2.637430    2.305202
  H     -4.325601   -1.719364    2.585075
  H     -2.858527   -0.882645    1.996111
  O      2.622209   -1.703003   -1.445860
  H      1.828551   -1.986514   -0.909755
  C      2.781118   -2.615822   -2.525473
  H      3.691064   -2.339004   -3.065143
  H      1.934727   -2.559520   -3.223227
  H      2.879948   -3.653846   -2.177750

 Total Charge           Charge          ....    0
 Multiplicity           Mult            ....    1
 Number of Electrons    NEL             ....   54
 Basis Dimension        Dim             ....  258

ORBITAL ENERGIES
----------------

  NO   OCC          E(Eh)            E(eV)
   0   2.0000     -20.595809      -560.4404
   1   2.0000     -20.542884      -559.0003
   2   2.0000     -20.520494      -558.3910
   3   2.0000     -11.294252      -307.3322
   4   2.0000     -11.259087      -306.3753
   5   2.0000     -11.253504      -306.2234
   6   2.0000      -1.389082       -37.7988
   7   2.0000      -1.331243       -36.2250
   8   2.0000      -1.317217       -35.8433
   9   2.0000      -0.945938       -25.7403
  10   2.0000      -0.906399       -24.6644
  11   2.0000      -0.899942       -24.4887
  12   2.0000      -0.721156       -19.6237
  13   2.0000      -0.679083       -18.4788
  14   2.0000      -0.666708       -18.1421
  15   2.0000      -0.639493       -17.4015
  16   2.0000      -0.614057       -16.7093
  17   2.0000      -0.603581       -16.4243
  18   2.0000      -0.595668       -16.2090
  19   2.0000      -0.577832       -15.7236
  20   2.0000      -0.567401       -15.4398
  21   2.0000      -0.533359       -14.5134
  22   2.0000      -0.493942       -13.4408
  23   2.0000      -0.486522       -13.2389
  24   2.0000      -0.461452       -12.5567
  25   2.0000      -0.435004       -11.8371
  26   2.0000      -0.422399       -11.4941
  27   0.0000       0.113807         3.0968
  28   0.0000       0.141132         3.8404
  29   0.0000       0.158163         4.3038
  30   0.0000       0.172981         4.7070
  31   0.0000       0.186493         5.0747

MULLIKEN ATOMIC CHARGES
-----------------------
   0 O :   -0.541630
   1 H :    0.341959
   2 C :   -0.156693
   3 H :    0.117281
   4 H :    0.098573
   5 H :    0.098977
   6 O :   -0.513830
   7 H :    0.343364
   8 C :   -0.189777
   9 H :    0.144581
  10 H :    0.127251
  11 H :    0.132301
  12 O :   -0.507086
  13 H :    0.331173
  14 C :   -0.167435
  15 H :    0.123817
  16 H :    0.112154
  17 H :    0.105020
Sum of atomic charges:    0.0000000

LOEWDIN ATOMIC CHARGES
----------------------
   0 O :   -0.130064
   1 H :    0.158204
   2 C :   -0.395614
   3 H :    0.104001
   4 H :    0.092376
   5 H :    0.092435
   6 O :   -0.073360
   7 H :    0.200669
   8 C :   -0.372173
   9 H :    0.116776
  10 H :    0.104708
  11 H :    0.103641
  12 O :   -0.113300
  13 H :    0.196214
  14 C :   -0.382978
  15 H :    0.107949
  16 H :    0.096161
  17 H :    0.094355

  Mayer bond orders larger than 0.100000
B(  0-O ,  1-H ) :   0.7859 B(  0-O ,  2-C ) :   0.9367 B(  1-H ,  6-O ) :   0.1037
B(  2-C ,  3-H ) :   0.9409 B(  2-C ,  4-H ) :   0.9436 B(  2-C ,  5-H ) :   0.9363
B(  6-O ,  7-H ) :   0.8270 B(  6-O ,  8-C ) :   0.8665 B(  8-C ,  9-H ) :   0.9385
B(  8-C , 10-H ) :   0.9339 B(  8-C , 11-H ) :   0.9390 B( 12-O , 13-H ) :   0.8348
B( 12-O , 14-C ) :   0.9300 B( 14-C , 15-H ) :   0.9378 B( 14-C , 16-H ) :   0.9392
B( 14-C , 17-H ) :   0.9398

MP2 TOTAL ENERGY:     -346.531629791 Eh
FINAL SINGLE POINT ENERGY      -346.531629791414

DIPOLE MOMENT
-------------
                                X             Y             Z
Electronic contribution:     -0.12656       2.40684       0.72082
Nuclear contribution   :     -1.38346      -2.48418      -0.02338
                        -----------------------------------------
Total Dipole Moment    :     -1.51002      -0.07734       0.69744
                        -----------------------------------------
Magnitude (a.u.)       :      1.66510
Magnitude (Debye)      :      4.23236

Rotational constants in cm-1:     0.117896     0.019885     0.017424
Rotational constants in MHz :  3534.437082   596.144701   522.351429

                             ****ORCA TERMINATED NORMALLY****
TOTAL RUN TIME: 0 days 0 hours 1 minutes 18 seconds 459 msec
