                         Program Version 4.2.0 -  RELEASE  -
|  1> # 12meoh.boyd.etal.mol4,5,6
|  2> ! MP2 def2-TZVP EnGrad TightSCF
|  3>
|  4> %pal
|  5>     nprocs 6
|  6> end
|  7>
|  8> %maxcore 8000
|  9>
| 10> %scf
| 11>     ConvForced true
| 12> end
| 13>
| 14> *xyz 0 1
| 15> O  -1.358578914   1.232360421   1.189721000
| 16> H  -1.058250183   1.216459361   0.238591307
| 17> C  -0.389763452   1.957872567   1.943072362
| 18> H  -0.747220771   2.012806578   2.975200343
| 19> H  -0.260410585   2.982763209   1.565366540
| 20> H   0.585220638   1.453754179   1.934070793
| 21> O  -0.662721750   1.449094618  -1.383082065
| 22> H   0.064188300   2.119867608  -1.465650660
| 23> C  -0.353319239   0.341218776  -2.229326771
| 24> H  -1.072358530  -0.454743281  -2.019906495
| 25> H   0.657636746  -0.044472139  -2.042736771
| 26> H  -0.434616607   0.624733901  -3.287793021
| 27> O   2.622209273  -1.703002590  -1.445859723
| 28> H   1.828551432  -1.986513781  -0.909754968
| 29> C   2.781117675  -2.615822239  -2.525472890
| 30> H   3.691063626  -2.339003544  -3.065143454
| 31> H   1.934727323  -2.559520367  -3.223226661
| 32> H   2.879948338  -3.653846211  -2.177750170
| 33> *
| 34>
| 35>                          ****END OF INPUT****

CARTESIAN COORDINATES (ANGSTROEM)
---------------------------------
  O     -1.358579    1.232360    1.189721
  H     -1.058250    1.216459    0.238591
  C     -0.389763    1.957873    1.943072
  H     -0.747221    2.012807    2.975200
  H     -0.260411    2.982763    1.565367
  H      0.585221    1.453754    1.934071
  O     -0.662722    1.449095   -1.383082
  H      0.064188    2.119868   -1.465651
  C     -0.353319    0.341219   -2.229327
  H     -1.072359   -0.454743   -2.019906
  H      0.657637   -0.044472   -2.042737
  H     -0.434617    0.624734   -3.287793
  O      2.622209   -1.703003   -1.445860
  H      1.828551   -1.986514   -0.909755
  C      2.781118   -2.615822   -2.525473
  H      3.691064   -2.339004   -3.065143
  H      1.934727   -2.559520   -3.223227
  H      2.879948   -3.653846   -2.177750

 Total Charge           Charge          ....    0
 Multiplicity           Mult            ....    1
 Number of Electrons    NEL             ....   54
 Basis Dimension        Dim             ....  258

ORBITAL ENERGIES
----------------

  NO   OCC          E(Eh)            E(eV)
   0   2.0000     -20.586912      -560.1984
   1   2.0000     -20.570087      -559.7405
   2   2.0000     -20.511673      -558.1510
   3   2.0000     -11.286866      -307.1312
   4   2.0000     -11.281528      -306.9860
   5   2.0000     -11.250168      -306.1326
   6   2.0000      -1.379357       -37.5342
   7   2.0000      -1.358154       -36.9572
   8   2.0000      -1.307420       -35.5767
   9   2.0000      -0.940516       -25.5927
  10   2.0000      -0.929695       -25.2983
  11   2.0000      -0.895805       -24.3761
  12   2.0000      -0.711673       -19.3656
  13   2.0000      -0.692413       -18.8415
  14   2.0000      -0.671896       -18.2832
  15   2.0000      -0.634443       -17.2641
  16   2.0000      -0.626351       -17.0439
  17   2.0000      -0.607589       -16.5333
  18   2.0000      -0.602207       -16.3869
  19   2.0000      -0.590436       -16.0666
  20   2.0000      -0.560147       -15.2424
  21   2.0000      -0.525928       -14.3112
  22   2.0000      -0.510685       -13.8964
  23   2.0000      -0.485937       -13.2230
  24   2.0000      -0.460135       -12.5209
  25   2.0000      -0.454516       -12.3680
  26   2.0000      -0.415597       -11.3090
  27   0.0000       0.112350         3.0572
  28   0.0000       0.126167         3.4332
  29   0.0000       0.160908         4.3785
  30   0.0000       0.170717         4.6454
  31   0.0000       0.187619         5.1054

MULLIKEN ATOMIC CHARGES
-----------------------
   0 O :   -0.527353
   1 H :    0.352710
   2 C :   -0.181897
   3 H :    0.123613
   4 H :    0.094237
   5 H :    0.098002
   6 O :   -0.518242
   7 H :    0.342640
   8 C :   -0.202181
   9 H :    0.142438
  10 H :    0.135573
  11 H :    0.123789
  12 O :   -0.497468
  13 H :    0.330388
  14 C :   -0.176404
  15 H :    0.132307
  16 H :    0.108289
  17 H :    0.119560
Sum of atomic charges:    0.0000000

LOEWDIN ATOMIC CHARGES
----------------------
   0 O :   -0.126948
   1 H :    0.158922
   2 C :   -0.398043
   3 H :    0.106649
   4 H :    0.089438
   5 H :    0.089918
   6 O :   -0.074513
   7 H :    0.198156
   8 C :   -0.372890
   9 H :    0.114310
  10 H :    0.102141
  11 H :    0.104249
  12 O :   -0.106429
  13 H :    0.193497
  14 C :   -0.382604
  15 H :    0.111375
  16 H :    0.094076
  17 H :    0.098697

  Mayer bond orders larger than 0.100000
B(  0-O ,  1-H ) :   0.7885 B(  0-O ,  2-C ) :   0.9460 B(  2-C ,  3-H ) :   0.9424
B(  2-C ,  4-H ) :   0.9380 B(  2-C ,  5-H ) :   0.9373 B(  6-O ,  7-H ) :   0.8278
B(  6-O ,  8-C ) :   0.8634 B(  8-C ,  9-H ) :   0.9377 B(  8-C , 10-H ) :   0.9302
B(  8-C , 11-H ) :   0.9314 B( 12-O , 13-H ) :   0.8354 B( 12-O , 14-C ) :   0.9159
B( 14-C , 15-H ) :   0.9381 B( 14-C , 16-H ) :   0.9372 B( 14-C , 17-H ) :   0.9394

MP2 TOTAL ENERGY:     -346.530143369 Eh
FINAL SINGLE POINT ENERGY      -346.530143368965

DIPOLE MOMENT
-------------
                                X             Y             Z
Electronic contribution:     -1.77160       1.44824       1.17326
Nuclear contribution   :      2.61364      -1.89336      -2.37835
                        -----------------------------------------
Total Dipole Moment    :      0.84204      -0.44512      -1.20509
                        -----------------------------------------
Magnitude (a.u.)       :      1.53603
Magnitude (Debye)      :      3.90428

Rotational constants in cm-1:     0.111317     0.024536     0.021109
Rotational constants in MHz :  3337.185089   735.556115   632.819799

                             ****ORCA TERMINATED NORMALLY****
TOTAL RUN TIME: 0 days 0 hours 1 minutes 25 seconds 781 msec
