                         Program Version 4.2.0 -  RELEASE  -
|  1> # 12h2o.su.etal.mol0,2,3,4,5,6,7,8,9,11
|  2> ! MP2 def2-TZVP EnGrad TightSCF
|  3>
|  4> %pal
|  5>     nprocs 6
|  6> end
|  7>
|  8> %maxcore 8000
|  9>
| 10> %scf
| 11>     ConvForced true
| 12> end
| 13>
| 14> *xyz 0 1
| 15> O   1.794470000   0.923410000   2.768350000
| 16> H   2.338250000   1.359750000   3.430940000
| 17> H   0.879480000   1.303000000   2.865760000
| 18> O   0.923410000  -1.794470000  -2.768350000
| 19> H   1.359750000  -2.338250000  -3.430940000
| 20> H   1.303000000  -0.879480000  -2.865760000
| 21> O  -1.752130000  -0.741530000  -2.896280000
| 22> H  -2.036450000  -0.920500000  -1.984040000
| 23> H  -0.921210000  -1.242140000  -2.984230000
| 24> O  -0.885520000   1.737840000   0.052730000
| 25> H  -1.032320000   2.090180000  -0.841890000
| 26> H  -1.284090000   0.839590000   0.017130000
| 27> O   0.885520000  -1.737840000   0.052730000
| 28> H   1.284090000  -0.839590000   0.017130000
| 29> H   1.032320000  -2.090180000  -0.841890000
| 30> O   1.737840000   0.885520000  -0.052730000
| 31> H   2.090180000   1.032320000   0.841890000
| 32> H   0.839590000   1.284090000  -0.017130000
| 33> O  -1.737840000  -0.885520000  -0.052730000
| 34> H  -2.090180000  -1.032320000   0.841890000
| 35> H  -0.839590000  -1.284090000  -0.017130000
| 36> O   1.752130000   0.741530000  -2.896280000
| 37> H   2.036450000   0.920500000  -1.984040000
| 38> H   0.921210000   1.242140000  -2.984230000
| 39> O   0.741530000  -1.752130000   2.896280000
| 40> H   0.920500000  -2.036450000   1.984040000
| 41> H   1.242140000  -0.921210000   2.984230000
| 42> O  -0.741530000   1.752130000   2.896280000
| 43> H  -0.920500000   2.036450000   1.984040000
| 44> H  -1.242140000   0.921210000   2.984230000
| 45> *
| 46>
| 47>                          ****END OF INPUT****

CARTESIAN COORDINATES (ANGSTROEM)
---------------------------------
  O      1.794470    0.923410    2.768350
  H      2.338250    1.359750    3.430940
  H      0.879480    1.303000    2.865760
  O      0.923410   -1.794470   -2.768350
  H      1.359750   -2.338250   -3.430940
  H      1.303000   -0.879480   -2.865760
  O     -1.752130   -0.741530   -2.896280
  H     -2.036450   -0.920500   -1.984040
  H     -0.921210   -1.242140   -2.984230
  O     -0.885520    1.737840    0.052730
  H     -1.032320    2.090180   -0.841890
  H     -1.284090    0.839590    0.017130
  O      0.885520   -1.737840    0.052730
  H      1.284090   -0.839590    0.017130
  H      1.032320   -2.090180   -0.841890
  O      1.737840    0.885520   -0.052730
  H      2.090180    1.032320    0.841890
  H      0.839590    1.284090   -0.017130
  O     -1.737840   -0.885520   -0.052730
  H     -2.090180   -1.032320    0.841890
  H     -0.839590   -1.284090   -0.017130
  O      1.752130    0.741530   -2.896280
  H      2.036450    0.920500   -1.984040
  H      0.921210    1.242140   -2.984230
  O      0.741530   -1.752130    2.896280
  H      0.920500   -2.036450    1.984040
  H      1.242140   -0.921210    2.984230
  O     -0.741530    1.752130    2.896280
  H     -0.920500    2.036450    1.984040
  H     -1.242140    0.921210    2.984230

 Total Charge           Charge          ....    0
 Multiplicity           Mult            ....    1
 Number of Electrons    NEL             ....  100
 Basis Dimension        Dim             ....  430

ORBITAL ENERGIES
----------------

  NO   OCC          E(Eh)            E(eV)
   0   2.0000     -20.605957      -560.7166
   1   2.0000     -20.594361      -560.4011
   2   2.0000     -20.590286      -560.2902
   3   2.0000     -20.588432      -560.2397
   4   2.0000     -20.577336      -559.9378
   5   2.0000     -20.574941      -559.8726
   6   2.0000     -20.570320      -559.7469
   7   2.0000     -20.561479      -559.5063
   8   2.0000     -20.522023      -558.4326
   9   2.0000     -20.516426      -558.2803
  10   2.0000      -1.401368       -38.1331
  11   2.0000      -1.384428       -37.6722
  12   2.0000      -1.382222       -37.6122
  13   2.0000      -1.376586       -37.4588
  14   2.0000      -1.369521       -37.2666
  15   2.0000      -1.357148       -36.9299
  16   2.0000      -1.355612       -36.8881
  17   2.0000      -1.344172       -36.5768
  18   2.0000      -1.306904       -35.5627
  19   2.0000      -1.301388       -35.4126
  20   2.0000      -0.762034       -20.7360
  21   2.0000      -0.747346       -20.3363
  22   2.0000      -0.743211       -20.2238
  23   2.0000      -0.742888       -20.2150
  24   2.0000      -0.740081       -20.1386
  25   2.0000      -0.737001       -20.0548
  26   2.0000      -0.732614       -19.9354
  27   2.0000      -0.724228       -19.7072
  28   2.0000      -0.686545       -18.6819
  29   2.0000      -0.679419       -18.4879
  30   2.0000      -0.663342       -18.0504
  31   2.0000      -0.637449       -17.3459
  32   2.0000      -0.629698       -17.1350
  33   2.0000      -0.621787       -16.9197
  34   2.0000      -0.613116       -16.6837
  35   2.0000      -0.604473       -16.4485
  36   2.0000      -0.588968       -16.0266
  37   2.0000      -0.584644       -15.9090
  38   2.0000      -0.553502       -15.0616
  39   2.0000      -0.549780       -14.9603
  40   2.0000      -0.541869       -14.7450
  41   2.0000      -0.535215       -14.5640
  42   2.0000      -0.531906       -14.4739
  43   2.0000      -0.528196       -14.3729
  44   2.0000      -0.523071       -14.2335
  45   2.0000      -0.517512       -14.0822
  46   2.0000      -0.514446       -13.9988
  47   2.0000      -0.507909       -13.8209
  48   2.0000      -0.471910       -12.8413
  49   2.0000      -0.466459       -12.6930
  50   0.0000       0.084508         2.2996
  51   0.0000       0.113650         3.0926
  52   0.0000       0.136177         3.7056
  53   0.0000       0.138088         3.7576
  54   0.0000       0.182944         4.9782

MULLIKEN ATOMIC CHARGES
-----------------------
   0 O :   -0.755819
   1 H :    0.353167
   2 H :    0.386913
   3 O :   -0.756670
   4 H :    0.352536
   5 H :    0.387662
   6 O :   -0.733215
   7 H :    0.366534
   8 H :    0.352449
   9 O :   -0.746132
  10 H :    0.366554
  11 H :    0.374084
  12 O :   -0.757002
  13 H :    0.365224
  14 H :    0.385185
  15 O :   -0.759849
  16 H :    0.391372
  17 H :    0.356109
  18 O :   -0.742249
  19 H :    0.357195
  20 H :    0.382101
  21 O :   -0.698874
  22 H :    0.393417
  23 H :    0.348521
  24 O :   -0.735596
  25 H :    0.370147
  26 H :    0.349067
  27 O :   -0.697407
  28 H :    0.390955
  29 H :    0.353622
Sum of atomic charges:   -0.0000000

LOEWDIN ATOMIC CHARGES
----------------------
   0 O :   -0.314095
   1 H :    0.160700
   2 H :    0.147097
   3 O :   -0.314751
   4 H :    0.160341
   5 H :    0.147205
   6 O :   -0.355736
   7 H :    0.147365
   8 H :    0.142326
   9 O :   -0.296171
  10 H :    0.173320
  11 H :    0.146377
  12 O :   -0.299378
  13 H :    0.141378
  14 H :    0.152515
  15 O :   -0.302718
  16 H :    0.155607
  17 H :    0.139214
  18 O :   -0.292533
  19 H :    0.168322
  20 H :    0.148353
  21 O :   -0.273332
  22 H :    0.158902
  23 H :    0.169315
  24 O :   -0.357767
  25 H :    0.147811
  26 H :    0.140680
  27 O :   -0.271353
  28 H :    0.159113
  29 H :    0.171892

  Mayer bond orders larger than 0.100000
B(  0-O ,  1-H ) :   0.8390 B(  0-O ,  2-H ) :   0.7400 B(  2-H , 27-O ) :   0.1001
B(  3-O ,  4-H ) :   0.8394 B(  3-O ,  5-H ) :   0.7393 B(  5-H , 21-O ) :   0.1004
B(  6-O ,  7-H ) :   0.8275 B(  6-O ,  8-H ) :   0.8190 B(  9-O , 10-H ) :   0.8295
B(  9-O , 11-H ) :   0.7460 B( 11-H , 18-O ) :   0.1119 B( 12-O , 13-H ) :   0.7636
B( 12-O , 14-H ) :   0.7924 B( 12-O , 20-H ) :   0.1133 B( 15-O , 16-H ) :   0.7869
B( 15-O , 17-H ) :   0.7704 B( 18-O , 19-H ) :   0.8337 B( 18-O , 20-H ) :   0.7389
B( 21-O , 22-H ) :   0.7931 B( 21-O , 23-H ) :   0.8386 B( 24-O , 25-H ) :   0.8209
B( 24-O , 26-H ) :   0.8237 B( 27-O , 28-H ) :   0.8000 B( 27-O , 29-H ) :   0.8351

MP2 TOTAL ENERGY:     -763.264821672 Eh
FINAL SINGLE POINT ENERGY      -763.264821672432

DIPOLE MOMENT
-------------
                                X             Y             Z
Electronic contribution:      0.01742       0.25296       0.01010
Nuclear contribution   :      0.37017       0.98813       0.00000
                        -----------------------------------------
Total Dipole Moment    :      0.38759       1.24109       0.01010
                        -----------------------------------------
Magnitude (a.u.)       :      1.30025
Magnitude (Debye)      :      3.30496

Rotational constants in cm-1:     0.026562     0.013814     0.013567
Rotational constants in MHz :   796.309928   414.133992   406.715851

                             ****ORCA TERMINATED NORMALLY****
TOTAL RUN TIME: 0 days 0 hours 7 minutes 59 seconds 615 msec
