                         Program Version 4.2.0 -  RELEASE  -
|  1> # 12h2o.su.etal.mol2,4,7,8
|  2> ! MP2 def2-TZVP EnGrad TightSCF
|  3>
|  4> %pal
|  5>     nprocs 6
|  6> end
|  7>
|  8> %maxcore 8000
|  9>
| 10> %scf
| 11>     ConvForced true
| 12> end
| 13>
| 14> *xyz 0 1
| 15> O   0.923410000  -1.794470000  -2.768350000
| 16> H   1.359750000  -2.338250000  -3.430940000
| 17> H   1.303000000  -0.879480000  -2.865760000
| 18> O  -0.885520000   1.737840000   0.052730000
| 19> H  -1.032320000   2.090180000  -0.841890000
| 20> H  -1.284090000   0.839590000   0.017130000
| 21> O  -1.737840000  -0.885520000  -0.052730000
| 22> H  -2.090180000  -1.032320000   0.841890000
| 23> H  -0.839590000  -1.284090000  -0.017130000
| 24> O   1.752130000   0.741530000  -2.896280000
| 25> H   2.036450000   0.920500000  -1.984040000
| 26> H   0.921210000   1.242140000  -2.984230000
| 27> *
| 28>
| 29>                          ****END OF INPUT****

CARTESIAN COORDINATES (ANGSTROEM)
---------------------------------
  O      0.923410   -1.794470   -2.768350
  H      1.359750   -2.338250   -3.430940
  H      1.303000   -0.879480   -2.865760
  O     -0.885520    1.737840    0.052730
  H     -1.032320    2.090180   -0.841890
  H     -1.284090    0.839590    0.017130
  O     -1.737840   -0.885520   -0.052730
  H     -2.090180   -1.032320    0.841890
  H     -0.839590   -1.284090   -0.017130
  O      1.752130    0.741530   -2.896280
  H      2.036450    0.920500   -1.984040
  H      0.921210    1.242140   -2.984230

 Total Charge           Charge          ....    0
 Multiplicity           Mult            ....    1
 Number of Electrons    NEL             ....   40
 Basis Dimension        Dim             ....  172

ORBITAL ENERGIES
----------------

  NO   OCC          E(Eh)            E(eV)
   0   2.0000     -20.598729      -560.5199
   1   2.0000     -20.588949      -560.2538
   2   2.0000     -20.538132      -558.8710
   3   2.0000     -20.523969      -558.4856
   4   2.0000      -1.384004       -37.6607
   5   2.0000      -1.369710       -37.2717
   6   2.0000      -1.318737       -35.8847
   7   2.0000      -1.306182       -35.5430
   8   2.0000      -0.741531       -20.1781
   9   2.0000      -0.726770       -19.7764
  10   2.0000      -0.696397       -18.9499
  11   2.0000      -0.693606       -18.8740
  12   2.0000      -0.619811       -16.8659
  13   2.0000      -0.610203       -16.6045
  14   2.0000      -0.567885       -15.4529
  15   2.0000      -0.561963       -15.2918
  16   2.0000      -0.519931       -14.1480
  17   2.0000      -0.518541       -14.1102
  18   2.0000      -0.485964       -13.2237
  19   2.0000      -0.474355       -12.9079
  20   0.0000       0.093480         2.5437
  21   0.0000       0.130216         3.5434
  22   0.0000       0.157483         4.2853
  23   0.0000       0.177207         4.8220
  24   0.0000       0.204163         5.5555

MULLIKEN ATOMIC CHARGES
-----------------------
   0 O :   -0.734313
   1 H :    0.327672
   2 H :    0.365176
   3 O :   -0.712143
   4 H :    0.317918
   5 H :    0.356659
   6 O :   -0.682652
   7 H :    0.352542
   8 H :    0.368511
   9 O :   -0.677948
  10 H :    0.363313
  11 H :    0.355266
Sum of atomic charges:   -0.0000000

LOEWDIN ATOMIC CHARGES
----------------------
   0 O :   -0.373204
   1 H :    0.150143
   2 H :    0.141702
   3 O :   -0.361322
   4 H :    0.152625
   5 H :    0.142456
   6 O :   -0.288669
   7 H :    0.171394
   8 H :    0.184002
   9 O :   -0.269603
  10 H :    0.176374
  11 H :    0.174102

  Mayer bond orders larger than 0.100000
B(  0-O ,  1-H ) :   0.8592 B(  0-O ,  2-H ) :   0.7859 B(  3-O ,  4-H ) :   0.8634
B(  3-O ,  5-H ) :   0.7935 B(  6-O ,  7-H ) :   0.8402 B(  6-O ,  8-H ) :   0.8251
B(  9-O , 10-H ) :   0.8326 B(  9-O , 11-H ) :   0.8372

MP2 TOTAL ENERGY:     -305.270499698 Eh
FINAL SINGLE POINT ENERGY      -305.270499697921

DIPOLE MOMENT
-------------
                                X             Y             Z
Electronic contribution:     -0.02757       0.02008       0.00654
Nuclear contribution   :      0.22463      -0.03370       0.05351
                        -----------------------------------------
Total Dipole Moment    :      0.19706      -0.01362       0.06005
                        -----------------------------------------
Magnitude (a.u.)       :      0.20646
Magnitude (Debye)      :      0.52478

Rotational constants in cm-1:     0.123869     0.057924     0.039921
Rotational constants in MHz :  3713.486869  1736.507661  1196.790488

                             ****ORCA TERMINATED NORMALLY****
TOTAL RUN TIME: 0 days 0 hours 0 minutes 20 seconds 558 msec
