                         Program Version 4.2.0 -  RELEASE  -
|  1> # 12h2o.su.etal.mol0,5,10,11
|  2> ! MP2 def2-TZVP EnGrad TightSCF
|  3>
|  4> %pal
|  5>     nprocs 6
|  6> end
|  7>
|  8> %maxcore 8000
|  9>
| 10> %scf
| 11>     ConvForced true
| 12> end
| 13>
| 14> *xyz 0 1
| 15> O   1.794470000   0.923410000   2.768350000
| 16> H   2.338250000   1.359750000   3.430940000
| 17> H   0.879480000   1.303000000   2.865760000
| 18> O   0.885520000  -1.737840000   0.052730000
| 19> H   1.284090000  -0.839590000   0.017130000
| 20> H   1.032320000  -2.090180000  -0.841890000
| 21> O  -0.923410000   1.794470000  -2.768350000
| 22> H  -1.359750000   2.338250000  -3.430940000
| 23> H  -1.303000000   0.879480000  -2.865760000
| 24> O  -0.741530000   1.752130000   2.896280000
| 25> H  -0.920500000   2.036450000   1.984040000
| 26> H  -1.242140000   0.921210000   2.984230000
| 27> *
| 28>
| 29>                          ****END OF INPUT****

CARTESIAN COORDINATES (ANGSTROEM)
---------------------------------
  O      1.794470    0.923410    2.768350
  H      2.338250    1.359750    3.430940
  H      0.879480    1.303000    2.865760
  O      0.885520   -1.737840    0.052730
  H      1.284090   -0.839590    0.017130
  H      1.032320   -2.090180   -0.841890
  O     -0.923410    1.794470   -2.768350
  H     -1.359750    2.338250   -3.430940
  H     -1.303000    0.879480   -2.865760
  O     -0.741530    1.752130    2.896280
  H     -0.920500    2.036450    1.984040
  H     -1.242140    0.921210    2.984230

 Total Charge           Charge          ....    0
 Multiplicity           Mult            ....    1
 Number of Electrons    NEL             ....   40
 Basis Dimension        Dim             ....  172

ORBITAL ENERGIES
----------------

  NO   OCC          E(Eh)            E(eV)
   0   2.0000     -20.592361      -560.3466
   1   2.0000     -20.571562      -559.7807
   2   2.0000     -20.550888      -559.2181
   3   2.0000     -20.514231      -558.2206
   4   2.0000      -1.377668       -37.4883
   5   2.0000      -1.346879       -36.6504
   6   2.0000      -1.326902       -36.1068
   7   2.0000      -1.296496       -35.2794
   8   2.0000      -0.735126       -20.0038
   9   2.0000      -0.715281       -19.4638
  10   2.0000      -0.688867       -18.7450
  11   2.0000      -0.686995       -18.6941
  12   2.0000      -0.612846       -16.6764
  13   2.0000      -0.583023       -15.8649
  14   2.0000      -0.566472       -15.4145
  15   2.0000      -0.553778       -15.0691
  16   2.0000      -0.514842       -14.0096
  17   2.0000      -0.510334       -13.8869
  18   2.0000      -0.493979       -13.4419
  19   2.0000      -0.464448       -12.6383
  20   0.0000       0.102642         2.7930
  21   0.0000       0.122434         3.3316
  22   0.0000       0.146519         3.9870
  23   0.0000       0.178840         4.8665
  24   0.0000       0.189829         5.1655

MULLIKEN ATOMIC CHARGES
-----------------------
   0 O :   -0.729138
   1 H :    0.324159
   2 H :    0.364344
   3 O :   -0.682153
   4 H :    0.351353
   5 H :    0.328248
   6 O :   -0.685165
   7 H :    0.341450
   8 H :    0.343579
   9 O :   -0.680881
  10 H :    0.361445
  11 H :    0.362758
Sum of atomic charges:    0.0000000

LOEWDIN ATOMIC CHARGES
----------------------
   0 O :   -0.370863
   1 H :    0.148595
   2 H :    0.141772
   3 O :   -0.340154
   4 H :    0.176744
   5 H :    0.161169
   6 O :   -0.340226
   7 H :    0.159029
   8 H :    0.181045
   9 O :   -0.271650
  10 H :    0.176197
  11 H :    0.178343

  Mayer bond orders larger than 0.100000
B(  0-O ,  1-H ) :   0.8610 B(  0-O ,  2-H ) :   0.7880 B(  3-O ,  4-H ) :   0.8399
B(  3-O ,  5-H ) :   0.8576 B(  6-O ,  7-H ) :   0.8517 B(  6-O ,  8-H ) :   0.8448
B(  9-O , 10-H ) :   0.8351 B(  9-O , 11-H ) :   0.8340

MP2 TOTAL ENERGY:     -305.260576986 Eh
FINAL SINGLE POINT ENERGY      -305.260576986189

DIPOLE MOMENT
-------------
                                X             Y             Z
Electronic contribution:     -0.12246       0.04821       0.25214
Nuclear contribution   :     -1.09984       0.36959      -1.46039
                        -----------------------------------------
Total Dipole Moment    :     -1.22230       0.41780      -1.20824
                        -----------------------------------------
Magnitude (a.u.)       :      1.76873
Magnitude (Debye)      :      4.49576

Rotational constants in cm-1:     0.075870     0.036865     0.027819
Rotational constants in MHz :  2274.518080  1105.178925   833.995679

                             ****ORCA TERMINATED NORMALLY****
TOTAL RUN TIME: 0 days 0 hours 0 minutes 14 seconds 341 msec
