                         Program Version 4.2.0 -  RELEASE  -
|  1> # 12h2o.su.etal.mol1,2,3,4,6,8,9,10,11
|  2> ! MP2 def2-TZVP EnGrad TightSCF
|  3>
|  4> %pal
|  5>     nprocs 6
|  6> end
|  7>
|  8> %maxcore 8000
|  9>
| 10> %scf
| 11>     ConvForced true
| 12> end
| 13>
| 14> *xyz 0 1
| 15> O  -1.794470000  -0.923410000   2.768350000
| 16> H  -2.338250000  -1.359750000   3.430940000
| 17> H  -0.879480000  -1.303000000   2.865760000
| 18> O   0.923410000  -1.794470000  -2.768350000
| 19> H   1.359750000  -2.338250000  -3.430940000
| 20> H   1.303000000  -0.879480000  -2.865760000
| 21> O  -1.752130000  -0.741530000  -2.896280000
| 22> H  -2.036450000  -0.920500000  -1.984040000
| 23> H  -0.921210000  -1.242140000  -2.984230000
| 24> O  -0.885520000   1.737840000   0.052730000
| 25> H  -1.032320000   2.090180000  -0.841890000
| 26> H  -1.284090000   0.839590000   0.017130000
| 27> O   1.737840000   0.885520000  -0.052730000
| 28> H   2.090180000   1.032320000   0.841890000
| 29> H   0.839590000   1.284090000  -0.017130000
| 30> O   1.752130000   0.741530000  -2.896280000
| 31> H   2.036450000   0.920500000  -1.984040000
| 32> H   0.921210000   1.242140000  -2.984230000
| 33> O   0.741530000  -1.752130000   2.896280000
| 34> H   0.920500000  -2.036450000   1.984040000
| 35> H   1.242140000  -0.921210000   2.984230000
| 36> O  -0.923410000   1.794470000  -2.768350000
| 37> H  -1.359750000   2.338250000  -3.430940000
| 38> H  -1.303000000   0.879480000  -2.865760000
| 39> O  -0.741530000   1.752130000   2.896280000
| 40> H  -0.920500000   2.036450000   1.984040000
| 41> H  -1.242140000   0.921210000   2.984230000
| 42> *
| 43>
| 44>                          ****END OF INPUT****

CARTESIAN COORDINATES (ANGSTROEM)
---------------------------------
  O     -1.794470   -0.923410    2.768350
  H     -2.338250   -1.359750    3.430940
  H     -0.879480   -1.303000    2.865760
  O      0.923410   -1.794470   -2.768350
  H      1.359750   -2.338250   -3.430940
  H      1.303000   -0.879480   -2.865760
  O     -1.752130   -0.741530   -2.896280
  H     -2.036450   -0.920500   -1.984040
  H     -0.921210   -1.242140   -2.984230
  O     -0.885520    1.737840    0.052730
  H     -1.032320    2.090180   -0.841890
  H     -1.284090    0.839590    0.017130
  O      1.737840    0.885520   -0.052730
  H      2.090180    1.032320    0.841890
  H      0.839590    1.284090   -0.017130
  O      1.752130    0.741530   -2.896280
  H      2.036450    0.920500   -1.984040
  H      0.921210    1.242140   -2.984230
  O      0.741530   -1.752130    2.896280
  H      0.920500   -2.036450    1.984040
  H      1.242140   -0.921210    2.984230
  O     -0.923410    1.794470   -2.768350
  H     -1.359750    2.338250   -3.430940
  H     -1.303000    0.879480   -2.865760
  O     -0.741530    1.752130    2.896280
  H     -0.920500    2.036450    1.984040
  H     -1.242140    0.921210    2.984230

 Total Charge           Charge          ....    0
 Multiplicity           Mult            ....    1
 Number of Electrons    NEL             ....   90
 Basis Dimension        Dim             ....  387

ORBITAL ENERGIES
----------------

  NO   OCC          E(Eh)            E(eV)
   0   2.0000     -20.601738      -560.6018
   1   2.0000     -20.591164      -560.3141
   2   2.0000     -20.587104      -560.2036
   3   2.0000     -20.582184      -560.0697
   4   2.0000     -20.558877      -559.4355
   5   2.0000     -20.551568      -559.2366
   6   2.0000     -20.548995      -559.1666
   7   2.0000     -20.547380      -559.1226
   8   2.0000     -20.513078      -558.1892
   9   2.0000      -1.387600       -37.7585
  10   2.0000      -1.385446       -37.6999
  11   2.0000      -1.377280       -37.4777
  12   2.0000      -1.361376       -37.0449
  13   2.0000      -1.348374       -36.6911
  14   2.0000      -1.338600       -36.4252
  15   2.0000      -1.335618       -36.3440
  16   2.0000      -1.324041       -36.0290
  17   2.0000      -1.298042       -35.3215
  18   2.0000      -0.748633       -20.3713
  19   2.0000      -0.744072       -20.2472
  20   2.0000      -0.739387       -20.1198
  21   2.0000      -0.737552       -20.0698
  22   2.0000      -0.720472       -19.6050
  23   2.0000      -0.717270       -19.5179
  24   2.0000      -0.710051       -19.3215
  25   2.0000      -0.704740       -19.1770
  26   2.0000      -0.676879       -18.4188
  27   2.0000      -0.644208       -17.5298
  28   2.0000      -0.628549       -17.1037
  29   2.0000      -0.617116       -16.7926
  30   2.0000      -0.605984       -16.4897
  31   2.0000      -0.598805       -16.2943
  32   2.0000      -0.585357       -15.9284
  33   2.0000      -0.580447       -15.7948
  34   2.0000      -0.556645       -15.1471
  35   2.0000      -0.542644       -14.7661
  36   2.0000      -0.531566       -14.4646
  37   2.0000      -0.530486       -14.4353
  38   2.0000      -0.528298       -14.3757
  39   2.0000      -0.523648       -14.2492
  40   2.0000      -0.508353       -13.8330
  41   2.0000      -0.498432       -13.5630
  42   2.0000      -0.497594       -13.5402
  43   2.0000      -0.493614       -13.4319
  44   2.0000      -0.463175       -12.6036
  45   0.0000       0.084103         2.2886
  46   0.0000       0.112039         3.0487
  47   0.0000       0.137394         3.7387
  48   0.0000       0.149083         4.0567
  49   0.0000       0.156426         4.2566

MULLIKEN ATOMIC CHARGES
-----------------------
   0 O :   -0.743149
   1 H :    0.342567
   2 H :    0.379082
   3 O :   -0.749673
   4 H :    0.340667
   5 H :    0.385145
   6 O :   -0.704980
   7 H :    0.347655
   8 H :    0.384512
   9 O :   -0.720574
  10 H :    0.389796
  11 H :    0.347697
  12 O :   -0.734005
  13 H :    0.339704
  14 H :    0.365200
  15 O :   -0.724322
  16 H :    0.388713
  17 H :    0.363964
  18 O :   -0.686069
  19 H :    0.365830
  20 H :    0.363942
  21 O :   -0.760785
  22 H :    0.357291
  23 H :    0.383147
  24 O :   -0.736290
  25 H :    0.364766
  26 H :    0.350166
Sum of atomic charges:    0.0000000

LOEWDIN ATOMIC CHARGES
----------------------
   0 O :   -0.342896
   1 H :    0.156405
   2 H :    0.144947
   3 O :   -0.343722
   4 H :    0.155332
   5 H :    0.145903
   6 O :   -0.279619
   7 H :    0.166762
   8 H :    0.157014
   9 O :   -0.280570
  10 H :    0.156042
  11 H :    0.172460
  12 O :   -0.340985
  13 H :    0.162341
  14 H :    0.144985
  15 O :   -0.287852
  16 H :    0.158756
  17 H :    0.147350
  18 O :   -0.268937
  19 H :    0.177297
  20 H :    0.176525
  21 O :   -0.315773
  22 H :    0.162415
  23 H :    0.145673
  24 O :   -0.357968
  25 H :    0.146228
  26 H :    0.141887

  Mayer bond orders larger than 0.100000
B(  0-O ,  1-H ) :   0.8478 B(  0-O ,  2-H ) :   0.7637 B(  3-O ,  4-H ) :   0.8484
B(  3-O ,  5-H ) :   0.7382 B(  5-H , 15-O ) :   0.1175 B(  6-O ,  7-H ) :   0.8434
B(  6-O ,  8-H ) :   0.7706 B(  6-O , 23-H ) :   0.1150 B(  9-O , 10-H ) :   0.7864
B(  9-O , 11-H ) :   0.8325 B( 12-O , 13-H ) :   0.8475 B( 12-O , 14-H ) :   0.7744
B( 15-O , 16-H ) :   0.7986 B( 15-O , 17-H ) :   0.8064 B( 18-O , 19-H ) :   0.8313
B( 18-O , 20-H ) :   0.8287 B( 21-O , 22-H ) :   0.8370 B( 21-O , 23-H ) :   0.7322
B( 24-O , 25-H ) :   0.8287 B( 24-O , 26-H ) :   0.8160

MP2 TOTAL ENERGY:     -686.918795006 Eh
FINAL SINGLE POINT ENERGY      -686.918795006282

DIPOLE MOMENT
-------------
                                X             Y             Z
Electronic contribution:      0.16435      -0.05711      -0.08545
Nuclear contribution   :     -0.59936      -0.67960      -0.63259
                        -----------------------------------------
Total Dipole Moment    :     -0.43501      -0.73671      -0.71804
                        -----------------------------------------
Magnitude (a.u.)       :      1.11694
Magnitude (Debye)      :      2.83904

Rotational constants in cm-1:     0.027997     0.013194     0.012410
Rotational constants in MHz :   839.337584   395.539576   372.037183

                             ****ORCA TERMINATED NORMALLY****
TOTAL RUN TIME: 0 days 0 hours 4 minutes 21 seconds 875 msec
