                         Program Version 4.2.0 -  RELEASE  -
|  1> # 12h2o.su.etal.mol0,1,2,3,5,7,8
|  2> ! MP2 def2-TZVP EnGrad TightSCF
|  3>
|  4> %pal
|  5>     nprocs 6
|  6> end
|  7>
|  8> %maxcore 8000
|  9>
| 10> %scf
| 11>     ConvForced true
| 12> end
| 13>
| 14> *xyz 0 1
| 15> O   1.794470000   0.923410000   2.768350000
| 16> H   2.338250000   1.359750000   3.430940000
| 17> H   0.879480000   1.303000000   2.865760000
| 18> O  -1.794470000  -0.923410000   2.768350000
| 19> H  -2.338250000  -1.359750000   3.430940000
| 20> H  -0.879480000  -1.303000000   2.865760000
| 21> O   0.923410000  -1.794470000  -2.768350000
| 22> H   1.359750000  -2.338250000  -3.430940000
| 23> H   1.303000000  -0.879480000  -2.865760000
| 24> O  -1.752130000  -0.741530000  -2.896280000
| 25> H  -2.036450000  -0.920500000  -1.984040000
| 26> H  -0.921210000  -1.242140000  -2.984230000
| 27> O   0.885520000  -1.737840000   0.052730000
| 28> H   1.284090000  -0.839590000   0.017130000
| 29> H   1.032320000  -2.090180000  -0.841890000
| 30> O  -1.737840000  -0.885520000  -0.052730000
| 31> H  -2.090180000  -1.032320000   0.841890000
| 32> H  -0.839590000  -1.284090000  -0.017130000
| 33> O   1.752130000   0.741530000  -2.896280000
| 34> H   2.036450000   0.920500000  -1.984040000
| 35> H   0.921210000   1.242140000  -2.984230000
| 36> *
| 37>
| 38>                          ****END OF INPUT****

CARTESIAN COORDINATES (ANGSTROEM)
---------------------------------
  O      1.794470    0.923410    2.768350
  H      2.338250    1.359750    3.430940
  H      0.879480    1.303000    2.865760
  O     -1.794470   -0.923410    2.768350
  H     -2.338250   -1.359750    3.430940
  H     -0.879480   -1.303000    2.865760
  O      0.923410   -1.794470   -2.768350
  H      1.359750   -2.338250   -3.430940
  H      1.303000   -0.879480   -2.865760
  O     -1.752130   -0.741530   -2.896280
  H     -2.036450   -0.920500   -1.984040
  H     -0.921210   -1.242140   -2.984230
  O      0.885520   -1.737840    0.052730
  H      1.284090   -0.839590    0.017130
  H      1.032320   -2.090180   -0.841890
  O     -1.737840   -0.885520   -0.052730
  H     -2.090180   -1.032320    0.841890
  H     -0.839590   -1.284090   -0.017130
  O      1.752130    0.741530   -2.896280
  H      2.036450    0.920500   -1.984040
  H      0.921210    1.242140   -2.984230

 Total Charge           Charge          ....    0
 Multiplicity           Mult            ....    1
 Number of Electrons    NEL             ....   70
 Basis Dimension        Dim             ....  301

ORBITAL ENERGIES
----------------

  NO   OCC          E(Eh)            E(eV)
   0   2.0000     -20.608378      -560.7825
   1   2.0000     -20.581920      -560.0625
   2   2.0000     -20.576569      -559.9169
   3   2.0000     -20.567184      -559.6615
   4   2.0000     -20.563952      -559.5736
   5   2.0000     -20.507313      -558.0323
   6   2.0000     -20.489991      -557.5610
   7   2.0000      -1.394667       -37.9508
   8   2.0000      -1.359900       -37.0048
   9   2.0000      -1.356340       -36.9079
  10   2.0000      -1.351840       -36.7854
  11   2.0000      -1.344338       -36.5813
  12   2.0000      -1.294851       -35.2347
  13   2.0000      -1.274239       -34.6738
  14   2.0000      -0.750520       -20.4227
  15   2.0000      -0.735513       -20.0143
  16   2.0000      -0.726874       -19.7792
  17   2.0000      -0.719774       -19.5860
  18   2.0000      -0.710656       -19.3379
  19   2.0000      -0.675790       -18.3892
  20   2.0000      -0.654110       -17.7992
  21   2.0000      -0.635943       -17.3049
  22   2.0000      -0.606894       -16.5144
  23   2.0000      -0.597446       -16.2573
  24   2.0000      -0.588772       -16.0213
  25   2.0000      -0.579964       -15.7816
  26   2.0000      -0.558861       -15.2074
  27   2.0000      -0.542879       -14.7725
  28   2.0000      -0.528019       -14.3681
  29   2.0000      -0.520025       -14.1506
  30   2.0000      -0.513815       -13.9816
  31   2.0000      -0.501272       -13.6403
  32   2.0000      -0.493153       -13.4194
  33   2.0000      -0.459213       -12.4958
  34   2.0000      -0.440005       -11.9732
  35   0.0000       0.087562         2.3827
  36   0.0000       0.110579         3.0090
  37   0.0000       0.133852         3.6423
  38   0.0000       0.150715         4.1012
  39   0.0000       0.172875         4.7042

MULLIKEN ATOMIC CHARGES
-----------------------
   0 O :   -0.694604
   1 H :    0.343122
   2 H :    0.353599
   3 O :   -0.700809
   4 H :    0.347465
   5 H :    0.364017
   6 O :   -0.747213
   7 H :    0.350671
   8 H :    0.380070
   9 O :   -0.738533
  10 H :    0.372858
  11 H :    0.340796
  12 O :   -0.693989
  13 H :    0.334633
  14 H :    0.379811
  15 O :   -0.745544
  16 H :    0.361538
  17 H :    0.342311
  18 O :   -0.685031
  19 H :    0.354379
  20 H :    0.380453
Sum of atomic charges:   -0.0000000

LOEWDIN ATOMIC CHARGES
----------------------
   0 O :   -0.342457
   1 H :    0.160187
   2 H :    0.184228
   3 O :   -0.313180
   4 H :    0.161345
   5 H :    0.187519
   6 O :   -0.311693
   7 H :    0.159343
   8 H :    0.145666
   9 O :   -0.361926
  10 H :    0.151186
  11 H :    0.137200
  12 O :   -0.298319
  13 H :    0.166528
  14 H :    0.152520
  15 O :   -0.351460
  16 H :    0.146058
  17 H :    0.137522
  18 O :   -0.266936
  19 H :    0.171627
  20 H :    0.185042

  Mayer bond orders larger than 0.100000
B(  0-O ,  1-H ) :   0.8501 B(  0-O ,  2-H ) :   0.8363 B(  3-O ,  4-H ) :   0.8442
B(  3-O ,  5-H ) :   0.8261 B(  6-O ,  7-H ) :   0.8404 B(  6-O ,  8-H ) :   0.7519
B(  9-O , 10-H ) :   0.8128 B(  9-O , 11-H ) :   0.8333 B( 12-O , 13-H ) :   0.8451
B( 12-O , 14-H ) :   0.7977 B( 15-O , 16-H ) :   0.8223 B( 15-O , 17-H ) :   0.7882
B( 18-O , 19-H ) :   0.8390 B( 18-O , 20-H ) :   0.8178

MP2 TOTAL ENERGY:     -534.242598238 Eh
FINAL SINGLE POINT ENERGY      -534.242598238204

DIPOLE MOMENT
-------------
                                X             Y             Z
Electronic contribution:      0.17242       0.14319      -0.16605
Nuclear contribution   :      1.58749       0.30943       2.00481
                        -----------------------------------------
Total Dipole Moment    :      1.75991       0.45262       1.83875
                        -----------------------------------------
Magnitude (a.u.)       :      2.58518
Magnitude (Debye)      :      6.57101

Rotational constants in cm-1:     0.038889     0.020903     0.016024
Rotational constants in MHz :  1165.856497   626.646496   480.390315

                             ****ORCA TERMINATED NORMALLY****
TOTAL RUN TIME: 0 days 0 hours 1 minutes 38 seconds 575 msec
