                         Program Version 4.2.0 -  RELEASE  -
|  1> # 12h2o.su.etal.mol0,1,5,6,10,11
|  2> ! MP2 def2-TZVP EnGrad TightSCF
|  3>
|  4> %pal
|  5>     nprocs 6
|  6> end
|  7>
|  8> %maxcore 8000
|  9>
| 10> %scf
| 11>     ConvForced true
| 12> end
| 13>
| 14> *xyz 0 1
| 15> O   1.794470000   0.923410000   2.768350000
| 16> H   2.338250000   1.359750000   3.430940000
| 17> H   0.879480000   1.303000000   2.865760000
| 18> O  -1.794470000  -0.923410000   2.768350000
| 19> H  -2.338250000  -1.359750000   3.430940000
| 20> H  -0.879480000  -1.303000000   2.865760000
| 21> O   0.885520000  -1.737840000   0.052730000
| 22> H   1.284090000  -0.839590000   0.017130000
| 23> H   1.032320000  -2.090180000  -0.841890000
| 24> O   1.737840000   0.885520000  -0.052730000
| 25> H   2.090180000   1.032320000   0.841890000
| 26> H   0.839590000   1.284090000  -0.017130000
| 27> O  -0.923410000   1.794470000  -2.768350000
| 28> H  -1.359750000   2.338250000  -3.430940000
| 29> H  -1.303000000   0.879480000  -2.865760000
| 30> O  -0.741530000   1.752130000   2.896280000
| 31> H  -0.920500000   2.036450000   1.984040000
| 32> H  -1.242140000   0.921210000   2.984230000
| 33> *
| 34>
| 35>                          ****END OF INPUT****

CARTESIAN COORDINATES (ANGSTROEM)
---------------------------------
  O      1.794470    0.923410    2.768350
  H      2.338250    1.359750    3.430940
  H      0.879480    1.303000    2.865760
  O     -1.794470   -0.923410    2.768350
  H     -2.338250   -1.359750    3.430940
  H     -0.879480   -1.303000    2.865760
  O      0.885520   -1.737840    0.052730
  H      1.284090   -0.839590    0.017130
  H      1.032320   -2.090180   -0.841890
  O      1.737840    0.885520   -0.052730
  H      2.090180    1.032320    0.841890
  H      0.839590    1.284090   -0.017130
  O     -0.923410    1.794470   -2.768350
  H     -1.359750    2.338250   -3.430940
  H     -1.303000    0.879480   -2.865760
  O     -0.741530    1.752130    2.896280
  H     -0.920500    2.036450    1.984040
  H     -1.242140    0.921210    2.984230

 Total Charge           Charge          ....    0
 Multiplicity           Mult            ....    1
 Number of Electrons    NEL             ....   60
 Basis Dimension        Dim             ....  258

ORBITAL ENERGIES
----------------

  NO   OCC          E(Eh)            E(eV)
   0   2.0000     -20.586704      -560.1927
   1   2.0000     -20.578297      -559.9639
   2   2.0000     -20.566654      -559.6471
   3   2.0000     -20.548109      -559.1425
   4   2.0000     -20.543622      -559.0204
   5   2.0000     -20.512877      -558.1837
   6   2.0000      -1.371805       -37.3287
   7   2.0000      -1.360252       -37.0143
   8   2.0000      -1.341919       -36.5155
   9   2.0000      -1.336027       -36.3552
  10   2.0000      -1.323282       -36.0083
  11   2.0000      -1.293241       -35.1909
  12   2.0000      -0.736490       -20.0409
  13   2.0000      -0.722556       -19.6617
  14   2.0000      -0.711338       -19.3565
  15   2.0000      -0.710286       -19.3279
  16   2.0000      -0.694164       -18.8892
  17   2.0000      -0.667356       -18.1597
  18   2.0000      -0.622157       -16.9297
  19   2.0000      -0.597066       -16.2470
  20   2.0000      -0.581852       -15.8330
  21   2.0000      -0.578290       -15.7361
  22   2.0000      -0.563133       -15.3236
  23   2.0000      -0.540696       -14.7131
  24   2.0000      -0.528378       -14.3779
  25   2.0000      -0.514972       -14.0131
  26   2.0000      -0.509872       -13.8743
  27   2.0000      -0.492552       -13.4030
  28   2.0000      -0.485294       -13.2055
  29   2.0000      -0.461358       -12.5542
  30   0.0000       0.100193         2.7264
  31   0.0000       0.121578         3.3083
  32   0.0000       0.140498         3.8231
  33   0.0000       0.162059         4.4099
  34   0.0000       0.169109         4.6017

MULLIKEN ATOMIC CHARGES
-----------------------
   0 O :   -0.738554
   1 H :    0.337437
   2 H :    0.367528
   3 O :   -0.704118
   4 H :    0.351541
   5 H :    0.379264
   6 O :   -0.725951
   7 H :    0.363297
   8 H :    0.321367
   9 O :   -0.694666
  10 H :    0.378272
  11 H :    0.333311
  12 O :   -0.685341
  13 H :    0.340296
  14 H :    0.346806
  15 O :   -0.699601
  16 H :    0.349384
  17 H :    0.379727
Sum of atomic charges:   -0.0000000

LOEWDIN ATOMIC CHARGES
----------------------
   0 O :   -0.341142
   1 H :    0.153985
   2 H :    0.142356
   3 O :   -0.310476
   4 H :    0.163763
   5 H :    0.195274
   6 O :   -0.368716
   7 H :    0.143420
   8 H :    0.155414
   9 O :   -0.297922
  10 H :    0.152565
  11 H :    0.166112
  12 O :   -0.339563
  13 H :    0.158728
  14 H :    0.182558
  15 O :   -0.280268
  16 H :    0.167982
  17 H :    0.155932

  Mayer bond orders larger than 0.100000
B(  0-O ,  1-H ) :   0.8504 B(  0-O ,  2-H ) :   0.7585 B(  2-H , 15-O ) :   0.1003
B(  3-O ,  4-H ) :   0.8418 B(  3-O ,  5-H ) :   0.8151 B(  6-O ,  7-H ) :   0.7860
B(  6-O ,  8-H ) :   0.8618 B(  9-O , 10-H ) :   0.7955 B(  9-O , 11-H ) :   0.8459
B( 12-O , 13-H ) :   0.8520 B( 12-O , 14-H ) :   0.8425 B( 15-O , 16-H ) :   0.8424
B( 15-O , 17-H ) :   0.7885

MP2 TOTAL ENERGY:     -457.918462575 Eh
FINAL SINGLE POINT ENERGY      -457.918462574835

DIPOLE MOMENT
-------------
                                X             Y             Z
Electronic contribution:     -0.09241       0.10436       0.22790
Nuclear contribution   :     -1.24525       0.14439      -0.05351
                        -----------------------------------------
Total Dipole Moment    :     -1.33766       0.24875       0.17439
                        -----------------------------------------
Magnitude (a.u.)       :      1.37172
Magnitude (Debye)      :      3.48664

Rotational constants in cm-1:     0.042587     0.025014     0.024120
Rotational constants in MHz :  1276.736767   749.889379   723.113037

                             ****ORCA TERMINATED NORMALLY****
TOTAL RUN TIME: 0 days 0 hours 1 minutes 6 seconds 473 msec
