                         Program Version 4.2.0 -  RELEASE  -
|  1> # 12mecn.remya.etal.2.mol5,6,8
|  2> ! MP2 def2-TZVP EnGrad TightSCF
|  3>
|  4> %pal
|  5>     nprocs 6
|  6> end
|  7>
|  8> %maxcore 8000
|  9>
| 10> %scf
| 11>     ConvForced true
| 12> end
| 13>
| 14> *xyz 0 1
| 15> C  -1.955700000   2.515080000   1.698463000
| 16> H  -2.923830000   2.883163000   2.049269000
| 17> H  -1.154850000   3.171830000   2.050990000
| 18> H  -1.790380000   1.506115000   2.087896000
| 19> C  -1.948230000   2.482156000   0.253672000
| 20> N  -1.937550000   2.462523000  -0.913150000
| 21> C   5.300864000  -2.920090000   1.401103000
| 22> H   5.986071000  -2.139770000   1.737487000
| 23> H   5.636642000  -3.888750000   1.778233000
| 24> H   4.307359000  -2.697240000   1.799307000
| 25> C   5.234791000  -2.933140000  -0.043290000
| 26> N   5.170868000  -2.941760000  -1.207750000
| 27> C   1.912641000  -2.468050000  -1.750510000
| 28> H   2.876947000  -2.793500000  -2.151200000
| 29> H   1.688016000  -1.463720000  -2.122170000
| 30> H   1.123460000  -3.154780000  -2.069590000
| 31> C   1.977850000  -2.444240000  -0.306900000
| 32> N   2.036566000  -2.426130000   0.858249000
| 33> *
| 34>
| 35>                          ****END OF INPUT****

CARTESIAN COORDINATES (ANGSTROEM)
---------------------------------
  C     -1.955700    2.515080    1.698463
  H     -2.923830    2.883163    2.049269
  H     -1.154850    3.171830    2.050990
  H     -1.790380    1.506115    2.087896
  C     -1.948230    2.482156    0.253672
  N     -1.937550    2.462523   -0.913150
  C      5.300864   -2.920090    1.401103
  H      5.986071   -2.139770    1.737487
  H      5.636642   -3.888750    1.778233
  H      4.307359   -2.697240    1.799307
  C      5.234791   -2.933140   -0.043290
  N      5.170868   -2.941760   -1.207750
  C      1.912641   -2.468050   -1.750510
  H      2.876947   -2.793500   -2.151200
  H      1.688016   -1.463720   -2.122170
  H      1.123460   -3.154780   -2.069590
  C      1.977850   -2.444240   -0.306900
  N      2.036566   -2.426130    0.858249

 Total Charge           Charge          ....    0
 Multiplicity           Mult            ....    1
 Number of Electrons    NEL             ....   66
 Basis Dimension        Dim             ....  333

ORBITAL ENERGIES
----------------

  NO   OCC          E(Eh)            E(eV)
   0   2.0000     -15.572949      -423.7615
   1   2.0000     -15.571128      -423.7119
   2   2.0000     -15.570435      -423.6931
   3   2.0000     -11.284082      -307.0555
   4   2.0000     -11.282956      -307.0248
   5   2.0000     -11.282927      -307.0240
   6   2.0000     -11.280301      -306.9526
   7   2.0000     -11.271557      -306.7147
   8   2.0000     -11.269346      -306.6545
   9   2.0000      -1.218107       -33.1464
  10   2.0000      -1.214331       -33.0436
  11   2.0000      -1.213859       -33.0308
  12   2.0000      -1.043020       -28.3820
  13   2.0000      -1.035793       -28.1854
  14   2.0000      -1.032270       -28.0895
  15   2.0000      -0.698886       -19.0176
  16   2.0000      -0.695169       -18.9165
  17   2.0000      -0.689402       -18.7596
  18   2.0000      -0.631948       -17.1962
  19   2.0000      -0.629931       -17.1413
  20   2.0000      -0.629795       -17.1376
  21   2.0000      -0.623183       -16.9577
  22   2.0000      -0.619192       -16.8491
  23   2.0000      -0.612784       -16.6747
  24   2.0000      -0.559091       -15.2136
  25   2.0000      -0.555981       -15.1290
  26   2.0000      -0.555798       -15.1240
  27   2.0000      -0.460270       -12.5246
  28   2.0000      -0.458385       -12.4733
  29   2.0000      -0.457560       -12.4508
  30   2.0000      -0.457274       -12.4431
  31   2.0000      -0.456690       -12.4272
  32   2.0000      -0.455824       -12.4036
  33   0.0000       0.118439         3.2229
  34   0.0000       0.130188         3.5426
  35   0.0000       0.144014         3.9188
  36   0.0000       0.169640         4.6161
  37   0.0000       0.171923         4.6783

MULLIKEN ATOMIC CHARGES
-----------------------
   0 C :   -0.278967
   1 H :    0.171347
   2 H :    0.171956
   3 H :    0.176179
   4 C :   -0.144850
   5 N :   -0.095654
   6 C :   -0.287228
   7 H :    0.165797
   8 H :    0.166434
   9 H :    0.205465
  10 C :   -0.101665
  11 N :   -0.149299
  12 C :   -0.284943
  13 H :    0.205072
  14 H :    0.172578
  15 H :    0.166282
  16 C :   -0.101051
  17 N :   -0.157452
Sum of atomic charges:   -0.0000000

LOEWDIN ATOMIC CHARGES
----------------------
   0 C :   -0.283363
   1 H :    0.152361
   2 H :    0.152965
   3 H :    0.153941
   4 C :   -0.219222
   5 N :    0.043321
   6 C :   -0.282658
   7 H :    0.150535
   8 H :    0.150895
   9 H :    0.156942
  10 C :   -0.206818
  11 N :    0.031045
  12 C :   -0.281334
  13 H :    0.156917
  14 H :    0.154861
  15 H :    0.151421
  16 C :   -0.206881
  17 N :    0.025071

  Mayer bond orders larger than 0.100000
B(  0-C ,  1-H ) :   0.9163 B(  0-C ,  2-H ) :   0.9161 B(  0-C ,  3-H ) :   0.9153
B(  0-C ,  4-C ) :   0.9019 B(  4-C ,  5-N ) :   2.8383 B(  6-C ,  7-H ) :   0.9162
B(  6-C ,  8-H ) :   0.9148 B(  6-C ,  9-H ) :   0.9015 B(  6-C , 10-C ) :   0.9028
B( 10-C , 11-N ) :   2.7704 B( 12-C , 13-H ) :   0.9012 B( 12-C , 14-H ) :   0.9128
B( 12-C , 15-H ) :   0.9154 B( 12-C , 16-C ) :   0.9021 B( 16-C , 17-N ) :   2.7727

MP2 TOTAL ENERGY:     -397.460288838 Eh
FINAL SINGLE POINT ENERGY      -397.460288838006

DIPOLE MOMENT
-------------
                                X             Y             Z
Electronic contribution:      0.02382      -0.06115      -3.14521
Nuclear contribution   :     -0.03784       0.08615       4.65841
                        -----------------------------------------
Total Dipole Moment    :     -0.01403       0.02499       1.51320
                        -----------------------------------------
Magnitude (a.u.)       :      1.51347
Magnitude (Debye)      :      3.84694

Rotational constants in cm-1:     0.069963     0.009335     0.008756
Rotational constants in MHz :  2097.428593   279.862240   262.503195

                             ****ORCA TERMINATED NORMALLY****
TOTAL RUN TIME: 0 days 0 hours 2 minutes 44 seconds 867 msec
