                         Program Version 4.2.0 -  RELEASE  -
|  1> ! MP2 def2-TZVP EnGrad TightSCF FrozenCore
|  2>
|  3> %pal
|  4>     nprocs 12
|  5> end
|  6>
|  7> %maxcore 8000
|  8>
|  9> %scf
| 10>     ConvForced true
| 11> end
| 12>
| 13> *xyz 0 1
| 14> C     0.077099    -2.747057    -1.099769
| 15> H     0.910099    -2.299715    -0.547769
| 16> H    -0.143659    -2.125072    -1.972329
| 17> H     0.363657    -3.749978    -1.426161
| 18> C    -1.109711    -2.812875    -0.252910
| 19> N    -2.058423    -2.856865     0.417848
| 20> C    -4.052500    -0.246218    -0.596414
| 21> H    -4.030329    -1.217323    -0.091731
| 22> H    -4.866214    -0.234976    -1.326144
| 23> H    -4.210769     0.551174     0.136502
| 24> C    -2.774855    -0.030112    -1.269673
| 25> N    -1.757311     0.139760    -1.804987
| 26> C     1.799430     0.421236    -2.167754
| 27> H     1.773118     0.780383    -3.200073
| 28> H     0.775289     0.290866    -1.802566
| 29> H     2.314855    -0.542975    -2.125414
| 30> C     2.500642     1.379972    -1.319323
| 31> N     3.046583     2.149693    -0.640281
| 32> C    -0.468942     3.008104    -0.286372
| 33> H    -0.475790     4.073067    -0.531517
| 34> H    -0.471691     2.418817    -1.208916
| 35> H     0.438480     2.767585     0.274422
| 36> C    -1.651414     2.660326     0.495876
| 37> N    -2.593024     2.369765     1.112868
| 38> C     3.844290    -0.006224     1.697287
| 39> H     2.916709     0.540576     1.887391
| 40> H     4.589973     0.701544     1.327257
| 41> H     4.199989    -0.472997     2.619399
| 42> C     3.585889    -1.026934     0.685806
| 43> N     3.375229    -1.838872    -0.118669
| 44> C    -1.608283    -0.420681     2.500631
| 45> H    -2.511527    -0.419547     1.885878
| 46> H    -1.694168     0.370337     3.249597
| 47> H    -1.515532    -1.397302     2.981609
| 48> C    -0.446318    -0.173801     1.651630
| 49> N     0.482024     0.026678     0.981290
| 50> *
| 51>
| 52>                          ****END OF INPUT****

CARTESIAN COORDINATES (ANGSTROEM)
---------------------------------
  C      0.077099   -2.747057   -1.099769
  H      0.910099   -2.299715   -0.547769
  H     -0.143659   -2.125072   -1.972329
  H      0.363657   -3.749978   -1.426161
  C     -1.109711   -2.812875   -0.252910
  N     -2.058423   -2.856865    0.417848
  C     -4.052500   -0.246218   -0.596414
  H     -4.030329   -1.217323   -0.091731
  H     -4.866214   -0.234976   -1.326144
  H     -4.210769    0.551174    0.136502
  C     -2.774855   -0.030112   -1.269673
  N     -1.757311    0.139760   -1.804987
  C      1.799430    0.421236   -2.167754
  H      1.773118    0.780383   -3.200073
  H      0.775289    0.290866   -1.802566
  H      2.314855   -0.542975   -2.125414
  C      2.500642    1.379972   -1.319323
  N      3.046583    2.149693   -0.640281
  C     -0.468942    3.008104   -0.286372
  H     -0.475790    4.073067   -0.531517
  H     -0.471691    2.418817   -1.208916
  H      0.438480    2.767585    0.274422
  C     -1.651414    2.660326    0.495876
  N     -2.593024    2.369765    1.112868
  C      3.844290   -0.006224    1.697287
  H      2.916709    0.540576    1.887391
  H      4.589973    0.701544    1.327257
  H      4.199989   -0.472997    2.619399
  C      3.585889   -1.026934    0.685806
  N      3.375229   -1.838872   -0.118669
  C     -1.608283   -0.420681    2.500631
  H     -2.511527   -0.419547    1.885878
  H     -1.694168    0.370337    3.249597
  H     -1.515532   -1.397302    2.981609
  C     -0.446318   -0.173801    1.651630
  N      0.482024    0.026678    0.981290

 Total Charge           Charge          ....    0
 Multiplicity           Mult            ....    1
 Number of Electrons    NEL             ....  132
 Basis Dimension        Dim             ....  666

ORBITAL ENERGIES
----------------

  NO   OCC          E(Eh)            E(eV)
   0   2.0000     -15.574404      -423.8011
   1   2.0000     -15.571702      -423.7276
   2   2.0000     -15.570148      -423.6853
   3   2.0000     -15.568466      -423.6395
   4   2.0000     -15.563707      -423.5100
   5   2.0000     -15.562152      -423.4677
   6   2.0000     -11.289674      -307.2077
   7   2.0000     -11.287834      -307.1576
   8   2.0000     -11.284797      -307.0749
   9   2.0000     -11.283589      -307.0421
  10   2.0000     -11.278140      -306.8938
  11   2.0000     -11.275131      -306.8119
  12   2.0000     -11.273776      -306.7750
  13   2.0000     -11.271620      -306.7164
  14   2.0000     -11.266683      -306.5820
  15   2.0000     -11.264552      -306.5241
  16   2.0000     -11.263736      -306.5018
  17   2.0000     -11.260199      -306.4056
  18   2.0000      -1.226215       -33.3670
  19   2.0000      -1.222578       -33.2680
  20   2.0000      -1.219168       -33.1752
  21   2.0000      -1.217031       -33.1171
  22   2.0000      -1.213534       -33.0219
  23   2.0000      -1.209886       -32.9227
  24   2.0000      -1.034935       -28.1620
  25   2.0000      -1.030375       -28.0379
  26   2.0000      -1.026645       -27.9364
  27   2.0000      -1.025324       -27.9005
  28   2.0000      -1.023163       -27.8417
  29   2.0000      -1.019743       -27.7486
  30   2.0000      -0.696104       -18.9419
  31   2.0000      -0.691356       -18.8127
  32   2.0000      -0.688751       -18.7419
  33   2.0000      -0.686258       -18.6740
  34   2.0000      -0.681893       -18.5553
  35   2.0000      -0.678399       -18.4602
  36   2.0000      -0.634578       -17.2677
  37   2.0000      -0.629645       -17.1335
  38   2.0000      -0.626251       -17.0412
  39   2.0000      -0.625166       -17.0116
  40   2.0000      -0.621738       -16.9184
  41   2.0000      -0.614953       -16.7337
  42   2.0000      -0.612438       -16.6653
  43   2.0000      -0.611927       -16.6514
  44   2.0000      -0.607863       -16.5408
  45   2.0000      -0.605684       -16.4815
  46   2.0000      -0.602946       -16.4070
  47   2.0000      -0.601975       -16.3806
  48   2.0000      -0.564294       -15.3552
  49   2.0000      -0.560571       -15.2539
  50   2.0000      -0.558545       -15.1988
  51   2.0000      -0.557751       -15.1772
  52   2.0000      -0.552929       -15.0460
  53   2.0000      -0.549756       -14.9596
  54   2.0000      -0.476630       -12.9698
  55   2.0000      -0.470675       -12.8077
  56   2.0000      -0.465813       -12.6754
  57   2.0000      -0.463017       -12.5993
  58   2.0000      -0.462416       -12.5830
  59   2.0000      -0.459102       -12.4928
  60   2.0000      -0.457969       -12.4620
  61   2.0000      -0.456420       -12.4198
  62   2.0000      -0.455132       -12.3848
  63   2.0000      -0.452469       -12.3123
  64   2.0000      -0.450353       -12.2547
  65   2.0000      -0.448403       -12.2017
  66   0.0000       0.123065         3.3488
  67   0.0000       0.143020         3.8918
  68   0.0000       0.148414         4.0386
  69   0.0000       0.151260         4.1160
  70   0.0000       0.157490         4.2855

MULLIKEN ATOMIC CHARGES
-----------------------
   0 C :   -0.293045
   1 H :    0.195033
   2 H :    0.177792
   3 H :    0.175302
   4 C :   -0.085619
   5 N :   -0.170368
   6 C :   -0.324198
   7 H :    0.201787
   8 H :    0.176009
   9 H :    0.201533
  10 C :   -0.078352
  11 N :   -0.176349
  12 C :   -0.306631
  13 H :    0.170730
  14 H :    0.188619
  15 H :    0.191280
  16 C :   -0.113013
  17 N :   -0.137712
  18 C :   -0.294468
  19 H :    0.175010
  20 H :    0.180494
  21 H :    0.189886
  22 C :   -0.086838
  23 N :   -0.165162
  24 C :   -0.276283
  25 H :    0.186011
  26 H :    0.181009
  27 H :    0.167685
  28 C :   -0.089932
  29 N :   -0.167424
  30 C :   -0.223076
  31 H :    0.160862
  32 H :    0.177216
  33 H :    0.179174
  34 C :   -0.075904
  35 N :   -0.211057
Sum of atomic charges:   -0.0000000

LOEWDIN ATOMIC CHARGES
----------------------
   0 C :   -0.281468
   1 H :    0.156397
   2 H :    0.152355
   3 H :    0.150575
   4 C :   -0.200567
   5 N :    0.024319
   6 C :   -0.285222
   7 H :    0.154484
   8 H :    0.150390
   9 H :    0.154311
  10 C :   -0.197561
  11 N :    0.028330
  12 C :   -0.290500
  13 H :    0.147920
  14 H :    0.149406
  15 H :    0.153521
  16 C :   -0.213925
  17 N :    0.028079
  18 C :   -0.279983
  19 H :    0.149539
  20 H :    0.154258
  21 H :    0.157556
  22 C :   -0.201601
  23 N :    0.025928
  24 C :   -0.284497
  25 H :    0.153534
  26 H :    0.154433
  27 H :    0.146384
  28 C :   -0.203662
  29 N :    0.021780
  30 C :   -0.278595
  31 H :    0.152566
  32 H :    0.152486
  33 H :    0.153002
  34 C :   -0.197035
  35 N :    0.043060

  Mayer bond orders larger than 0.100000
B(  0-C ,  1-H ) :   0.8999 B(  0-C ,  2-H ) :   0.9114 B(  0-C ,  3-H ) :   0.9141
B(  0-C ,  4-C ) :   0.9066 B(  4-C ,  5-N ) :   2.7458 B(  6-C ,  7-H ) :   0.9080
B(  6-C ,  8-H ) :   0.9074 B(  6-C ,  9-H ) :   0.9081 B(  6-C , 10-C ) :   0.8869
B( 10-C , 11-N ) :   2.7269 B( 12-C , 13-H ) :   0.9161 B( 12-C , 14-H ) :   0.9001
B( 12-C , 15-H ) :   0.9081 B( 12-C , 16-C ) :   0.9023 B( 16-C , 17-N ) :   2.7881
B( 18-C , 19-H ) :   0.9131 B( 18-C , 20-H ) :   0.9112 B( 18-C , 21-H ) :   0.9049
B( 18-C , 22-C ) :   0.9044 B( 22-C , 23-N ) :   2.7491 B( 24-C , 25-H ) :   0.9129
B( 24-C , 26-H ) :   0.9119 B( 24-C , 27-H ) :   0.9100 B( 24-C , 28-C ) :   0.9036
B( 28-C , 29-N ) :   2.7490 B( 30-C , 31-H ) :   0.9209 B( 30-C , 32-H ) :   0.9114
B( 30-C , 33-H ) :   0.9115 B( 30-C , 34-C ) :   0.8983 B( 34-C , 35-N ) :   2.6491

MP2 TOTAL ENERGY:     -794.955905444 Eh
FINAL SINGLE POINT ENERGY      -794.955905443666

DIPOLE MOMENT
-------------
                                X             Y             Z
Electronic contribution:      1.04325      -0.04109      -0.00291
Nuclear contribution   :     -1.64514       0.03463       0.12996
                        -----------------------------------------
Total Dipole Moment    :     -0.60189      -0.00646       0.12705
                        -----------------------------------------
Magnitude (a.u.)       :      0.61518
Magnitude (Debye)      :      1.56367

Rotational constants in cm-1:     0.014015     0.009093     0.007582
Rotational constants in MHz :   420.148276   272.612158   227.312212

                             ****ORCA TERMINATED NORMALLY****
TOTAL RUN TIME: 0 days 1 hours 4 minutes 37 seconds 798 msec
