                         Program Version 4.2.0 -  RELEASE  -
|  1> ! MP2 def2-TZVP EnGrad TightSCF FrozenCore
|  2>
|  3> %pal
|  4>     nprocs 8
|  5> end
|  6>
|  7> %maxcore 8000
|  8>
|  9> %scf
| 10>     ConvForced true
| 11> end
| 12>
| 13> *xyz 0 1
| 14> O          0.00000        0.00000        0.00000
| 15> H          0.96490        0.00000        0.00000
| 16> H         -0.25150        0.00000       -0.95390
| 17> O         -0.72867        0.11146       -2.62655
| 18> H         -1.35656        0.85241       -2.79670
| 19> H         -1.13177       -0.65845       -3.04489
| 20> O         -2.44843        2.22738       -2.94826
| 21> H         -3.34710        2.09668       -3.27406
| 22> H         -2.56499        2.68456       -2.08133
| 23> O         -2.74416        3.41624       -0.50873
| 24> H         -2.20821        2.94933        0.17547
| 25> H         -2.48521        4.34256       -0.43061
| 26> O         -1.31105        1.99113        1.32040
| 27> H         -1.61517        1.05261        1.33678
| 28> H         -1.28524        2.26135        2.24612
| 29> *
| 30>
| 31>
| 32>                          ****END OF INPUT****

CARTESIAN COORDINATES (ANGSTROEM)
---------------------------------
  O      0.000000    0.000000    0.000000
  H      0.964900    0.000000    0.000000
  H     -0.251500    0.000000   -0.953900
  O     -0.728670    0.111460   -2.626550
  H     -1.356560    0.852410   -2.796700
  H     -1.131770   -0.658450   -3.044890
  O     -2.448430    2.227380   -2.948260
  H     -3.347100    2.096680   -3.274060
  H     -2.564990    2.684560   -2.081330
  O     -2.744160    3.416240   -0.508730
  H     -2.208210    2.949330    0.175470
  H     -2.485210    4.342560   -0.430610
  O     -1.311050    1.991130    1.320400
  H     -1.615170    1.052610    1.336780
  H     -1.285240    2.261350    2.246120

 Total Charge           Charge          ....    0
 Multiplicity           Mult            ....    1
 Number of Electrons    NEL             ....   50
 Basis Dimension        Dim             ....  215

ORBITAL ENERGIES
----------------

  NO   OCC          E(Eh)            E(eV)
   0   2.0000     -20.572126      -559.7960
   1   2.0000     -20.555098      -559.3326
   2   2.0000     -20.547763      -559.1331
   3   2.0000     -20.541271      -558.9564
   4   2.0000     -20.510048      -558.1068
   5   2.0000      -1.358764       -36.9738
   6   2.0000      -1.344838       -36.5949
   7   2.0000      -1.334681       -36.3185
   8   2.0000      -1.323200       -36.0061
   9   2.0000      -1.293960       -35.2104
  10   2.0000      -0.721281       -19.6271
  11   2.0000      -0.711800       -19.3691
  12   2.0000      -0.708180       -19.2705
  13   2.0000      -0.700491       -19.0613
  14   2.0000      -0.675048       -18.3690
  15   2.0000      -0.614067       -16.7096
  16   2.0000      -0.593965       -16.1626
  17   2.0000      -0.575822       -15.6689
  18   2.0000      -0.550882       -14.9903
  19   2.0000      -0.536252       -14.5922
  20   2.0000      -0.514585       -14.0026
  21   2.0000      -0.502392       -13.6708
  22   2.0000      -0.493507       -13.4290
  23   2.0000      -0.485901       -13.2220
  24   2.0000      -0.458596       -12.4790
  25   0.0000       0.117416         3.1950
  26   0.0000       0.143442         3.9032
  27   0.0000       0.158709         4.3187
  28   0.0000       0.180196         4.9034
  29   0.0000       0.191123         5.2007

MULLIKEN ATOMIC CHARGES
-----------------------
   0 O :   -0.740638
   1 H :    0.327240
   2 H :    0.381182
   3 O :   -0.731158
   4 H :    0.394537
   5 H :    0.334561
   6 O :   -0.735081
   7 H :    0.337833
   8 H :    0.394543
   9 O :   -0.733037
  10 H :    0.389768
  11 H :    0.342448
  12 O :   -0.680208
  13 H :    0.378617
  14 H :    0.339393
Sum of atomic charges:    0.0000000

LOEWDIN ATOMIC CHARGES
----------------------
   0 O :   -0.353535
   1 H :    0.151248
   2 H :    0.145544
   3 O :   -0.311329
   4 H :    0.154044
   5 H :    0.156030
   6 O :   -0.314618
   7 H :    0.157604
   8 H :    0.153106
   9 O :   -0.311655
  10 H :    0.152592
  11 H :    0.160315
  12 O :   -0.283519
  13 H :    0.185299
  14 H :    0.158872

  Mayer bond orders larger than 0.100000
B(  0-O ,  1-H ) :   0.8602 B(  0-O ,  2-H ) :   0.7777 B(  3-O ,  4-H ) :   0.7641
B(  3-O ,  5-H ) :   0.8512 B(  6-O ,  7-H ) :   0.8504 B(  6-O ,  8-H ) :   0.7586
B(  9-O , 10-H ) :   0.7614 B(  9-O , 11-H ) :   0.8472 B( 12-O , 13-H ) :   0.8125
B( 12-O , 14-H ) :   0.8476

MP2 TOTAL ENERGY:     -381.611861104 Eh
FINAL SINGLE POINT ENERGY      -381.611861103752

DIPOLE MOMENT
-------------
                                X             Y             Z
Electronic contribution:      0.02266       0.19311       0.06589
Nuclear contribution   :     -0.67940       0.07377       0.58528
                        -----------------------------------------
Total Dipole Moment    :     -0.65674       0.26688       0.65118
                        -----------------------------------------
Magnitude (a.u.)       :      0.96258
Magnitude (Debye)      :      2.44668

Rotational constants in cm-1:     0.067404     0.066473     0.033869
Rotational constants in MHz :  2020.722747  1992.824294  1015.380812

                             ****ORCA TERMINATED NORMALLY****
TOTAL RUN TIME: 0 days 0 hours 0 minutes 33 seconds 740 msec
