                         Program Version 4.2.0 -  RELEASE  -
|  1> ! MP2 def2-TZVP EnGrad TightSCF FrozenCore
|  2>
|  3> %pal
|  4>     nprocs 12
|  5> end
|  6>
|  7> %maxcore 8000
|  8>
|  9> %scf
| 10>     ConvForced true
| 11> end
| 12>
| 13> *xyz 0 1
| 14> C    -3.009685    -2.543090     0.511128
| 15> H    -3.448247    -3.483785     0.168225
| 16> H    -3.489336    -2.221420     1.438451
| 17> H    -1.940454    -2.681239     0.697963
| 18> C    -3.178885    -1.512751    -0.509404
| 19> N    -3.309943    -0.702824    -1.332732
| 20> C    -3.333052     2.260544    -0.074944
| 21> H    -3.830804     1.916082    -0.984191
| 22> H    -3.632238     3.286775     0.153487
| 23> H    -3.614893     1.598620     0.749362
| 24> C    -1.886198     2.194465    -0.255023
| 25> N    -0.731888     2.157556    -0.387184
| 26> C     3.496289    -2.193324    -0.302047
| 27> H     4.458468    -2.710826    -0.335375
| 28> H     3.332328    -1.654434    -1.240007
| 29> H     2.687392    -2.915584    -0.168737
| 30> C     3.482841    -1.234355     0.798973
| 31> N     3.480906    -0.467281     1.672225
| 32> C     2.630330     2.534918     0.221621
| 33> H     2.979561     2.039524     1.133085
| 34> H     1.609174     2.899188     0.364836
| 35> H     3.290934     3.374017    -0.011496
| 36> C     2.640515     1.571465    -0.875415
| 37> N     2.659899     0.800660    -1.745149
| 38> C    -0.190133    -0.355680    -2.633055
| 39> H     0.566241    -0.632659    -3.371526
| 40> H    -0.105089     0.714069    -2.427630
| 41> H    -1.194233    -0.575539    -3.005052
| 42> C     0.038870    -1.095471    -1.395665
| 43> N     0.215358    -1.704049    -0.420110
| 44> C     0.360485     0.184319     2.212396
| 45> H     0.726912     0.912286     2.941225
| 46> H     0.677720     0.476236     1.207553
| 47> H     0.796939    -0.792855     2.429910
| 48> C    -1.096530     0.108668     2.253409
| 49> N    -2.257112     0.049268     2.291245
| 50> *
| 51>
| 52>                          ****END OF INPUT****

CARTESIAN COORDINATES (ANGSTROEM)
---------------------------------
  C     -3.009685   -2.543090    0.511128
  H     -3.448247   -3.483785    0.168225
  H     -3.489336   -2.221420    1.438451
  H     -1.940454   -2.681239    0.697963
  C     -3.178885   -1.512751   -0.509404
  N     -3.309943   -0.702824   -1.332732
  C     -3.333052    2.260544   -0.074944
  H     -3.830804    1.916082   -0.984191
  H     -3.632238    3.286775    0.153487
  H     -3.614893    1.598620    0.749362
  C     -1.886198    2.194465   -0.255023
  N     -0.731888    2.157556   -0.387184
  C      3.496289   -2.193324   -0.302047
  H      4.458468   -2.710826   -0.335375
  H      3.332328   -1.654434   -1.240007
  H      2.687392   -2.915584   -0.168737
  C      3.482841   -1.234355    0.798973
  N      3.480906   -0.467281    1.672225
  C      2.630330    2.534918    0.221621
  H      2.979561    2.039524    1.133085
  H      1.609174    2.899188    0.364836
  H      3.290934    3.374017   -0.011496
  C      2.640515    1.571465   -0.875415
  N      2.659899    0.800660   -1.745149
  C     -0.190133   -0.355680   -2.633055
  H      0.566241   -0.632659   -3.371526
  H     -0.105089    0.714069   -2.427630
  H     -1.194233   -0.575539   -3.005052
  C      0.038870   -1.095471   -1.395665
  N      0.215358   -1.704049   -0.420110
  C      0.360485    0.184319    2.212396
  H      0.726912    0.912286    2.941225
  H      0.677720    0.476236    1.207553
  H      0.796939   -0.792855    2.429910
  C     -1.096530    0.108668    2.253409
  N     -2.257112    0.049268    2.291245

 Total Charge           Charge          ....    0
 Multiplicity           Mult            ....    1
 Number of Electrons    NEL             ....  132
 Basis Dimension        Dim             ....  666

ORBITAL ENERGIES
----------------

  NO   OCC          E(Eh)            E(eV)
   0   2.0000     -15.566348      -423.5819
   1   2.0000     -15.563751      -423.5112
   2   2.0000     -15.563186      -423.4958
   3   2.0000     -15.563179      -423.4956
   4   2.0000     -15.561014      -423.4367
   5   2.0000     -15.560002      -423.4092
   6   2.0000     -11.283184      -307.0311
   7   2.0000     -11.278190      -306.8952
   8   2.0000     -11.278142      -306.8938
   9   2.0000     -11.277834      -306.8855
  10   2.0000     -11.277737      -306.8828
  11   2.0000     -11.275912      -306.8332
  12   2.0000     -11.264060      -306.5107
  13   2.0000     -11.263598      -306.4981
  14   2.0000     -11.263278      -306.4894
  15   2.0000     -11.263234      -306.4882
  16   2.0000     -11.255668      -306.2823
  17   2.0000     -11.253928      -306.2350
  18   2.0000      -1.218015       -33.1439
  19   2.0000      -1.214921       -33.0597
  20   2.0000      -1.213466       -33.0201
  21   2.0000      -1.210995       -32.9528
  22   2.0000      -1.210043       -32.9269
  23   2.0000      -1.209575       -32.9142
  24   2.0000      -1.025184       -27.8967
  25   2.0000      -1.024003       -27.8646
  26   2.0000      -1.022602       -27.8264
  27   2.0000      -1.022318       -27.8187
  28   2.0000      -1.016247       -27.6535
  29   2.0000      -1.014837       -27.6151
  30   2.0000      -0.685945       -18.6655
  31   2.0000      -0.684141       -18.6164
  32   2.0000      -0.682358       -18.5679
  33   2.0000      -0.680937       -18.5293
  34   2.0000      -0.677820       -18.4444
  35   2.0000      -0.675302       -18.3759
  36   2.0000      -0.623288       -16.9605
  37   2.0000      -0.621685       -16.9169
  38   2.0000      -0.619719       -16.8634
  39   2.0000      -0.616433       -16.7740
  40   2.0000      -0.615820       -16.7573
  41   2.0000      -0.613727       -16.7004
  42   2.0000      -0.611645       -16.6437
  43   2.0000      -0.606219       -16.4960
  44   2.0000      -0.605517       -16.4770
  45   2.0000      -0.601178       -16.3589
  46   2.0000      -0.599322       -16.3084
  47   2.0000      -0.594996       -16.1907
  48   2.0000      -0.556954       -15.1555
  49   2.0000      -0.554090       -15.0776
  50   2.0000      -0.552692       -15.0395
  51   2.0000      -0.550512       -14.9802
  52   2.0000      -0.549986       -14.9659
  53   2.0000      -0.548485       -14.9250
  54   2.0000      -0.465028       -12.6541
  55   2.0000      -0.462705       -12.5909
  56   2.0000      -0.461787       -12.5659
  57   2.0000      -0.457825       -12.4580
  58   2.0000      -0.456597       -12.4246
  59   2.0000      -0.456472       -12.4212
  60   2.0000      -0.453333       -12.3358
  61   2.0000      -0.451577       -12.2880
  62   2.0000      -0.450846       -12.2681
  63   2.0000      -0.449554       -12.2330
  64   2.0000      -0.446032       -12.1371
  65   2.0000      -0.444685       -12.1005
  66   0.0000       0.129093         3.5128
  67   0.0000       0.147484         4.0133
  68   0.0000       0.148850         4.0504
  69   0.0000       0.155833         4.2404
  70   0.0000       0.163753         4.4560

MULLIKEN ATOMIC CHARGES
-----------------------
   0 C :   -0.291435
   1 H :    0.168162
   2 H :    0.185656
   3 H :    0.190103
   4 C :   -0.072019
   5 N :   -0.181379
   6 C :   -0.286709
   7 H :    0.186054
   8 H :    0.167942
   9 H :    0.197080
  10 C :   -0.049561
  11 N :   -0.212278
  12 C :   -0.287432
  13 H :    0.170081
  14 H :    0.192296
  15 H :    0.179572
  16 C :   -0.088350
  17 N :   -0.166850
  18 C :   -0.314885
  19 H :    0.195755
  20 H :    0.191745
  21 H :    0.170109
  22 C :   -0.067428
  23 N :   -0.177445
  24 C :   -0.273488
  25 H :    0.170852
  26 H :    0.191445
  27 H :    0.187690
  28 C :   -0.040343
  29 N :   -0.233189
  30 C :   -0.283950
  31 H :    0.169284
  32 H :    0.174480
  33 H :    0.178480
  34 C :   -0.062906
  35 N :   -0.177140
Sum of atomic charges:   -0.0000000

LOEWDIN ATOMIC CHARGES
----------------------
   0 C :   -0.284833
   1 H :    0.146683
   2 H :    0.153595
   3 H :    0.154484
   4 C :   -0.199055
   5 N :    0.029723
   6 C :   -0.281995
   7 H :    0.154262
   8 H :    0.146885
   9 H :    0.156386
  10 C :   -0.191201
  11 N :    0.025909
  12 C :   -0.284338
  13 H :    0.146964
  14 H :    0.154994
  15 H :    0.152546
  16 C :   -0.201096
  17 N :    0.028058
  18 C :   -0.287768
  19 H :    0.153322
  20 H :    0.151072
  21 H :    0.148363
  22 C :   -0.200052
  23 N :    0.033496
  24 C :   -0.285605
  25 H :    0.150162
  26 H :    0.154539
  27 H :    0.151132
  28 C :   -0.196655
  29 N :    0.023058
  30 C :   -0.286702
  31 H :    0.149369
  32 H :    0.152249
  33 H :    0.154387
  34 C :   -0.197331
  35 N :    0.024996

  Mayer bond orders larger than 0.100000
B(  0-C ,  1-H ) :   0.9105 B(  0-C ,  2-H ) :   0.9137 B(  0-C ,  3-H ) :   0.9106
B(  0-C ,  4-C ) :   0.8938 B(  4-C ,  5-N ) :   2.7301 B(  6-C ,  7-H ) :   0.9136
B(  6-C ,  8-H ) :   0.9107 B(  6-C ,  9-H ) :   0.9091 B(  6-C , 10-C ) :   0.8882
B( 10-C , 11-N ) :   2.6921 B( 12-C , 13-H ) :   0.9097 B( 12-C , 14-H ) :   0.9087
B( 12-C , 15-H ) :   0.9134 B( 12-C , 16-C ) :   0.9003 B( 16-C , 17-N ) :   2.7494
B( 18-C , 19-H ) :   0.9078 B( 18-C , 20-H ) :   0.9116 B( 18-C , 21-H ) :   0.9099
B( 18-C , 22-C ) :   0.8918 B( 22-C , 23-N ) :   2.7368 B( 24-C , 25-H ) :   0.9132
B( 24-C , 26-H ) :   0.9131 B( 24-C , 27-H ) :   0.9034 B( 24-C , 28-C ) :   0.8905
B( 28-C , 29-N ) :   2.6614 B( 30-C , 31-H ) :   0.9104 B( 30-C , 32-H ) :   0.9057
B( 30-C , 33-H ) :   0.9109 B( 30-C , 34-C ) :   0.9196 B( 34-C , 35-N ) :   2.7374

MP2 TOTAL ENERGY:     -794.957999570 Eh
FINAL SINGLE POINT ENERGY      -794.957999570430

DIPOLE MOMENT
-------------
                                X             Y             Z
Electronic contribution:      0.00787       0.34947       0.12032
Nuclear contribution   :     -0.13012      -0.45367      -0.26113
                        -----------------------------------------
Total Dipole Moment    :     -0.12226      -0.10419      -0.14081
                        -----------------------------------------
Magnitude (a.u.)       :      0.21362
Magnitude (Debye)      :      0.54297

Rotational constants in cm-1:     0.015012     0.008410     0.007827
Rotational constants in MHz :   450.047689   252.136026   234.635699

                             ****ORCA TERMINATED NORMALLY****
TOTAL RUN TIME: 0 days 1 hours 4 minutes 28 seconds 95 msec
