                         Program Version 4.2.0 -  RELEASE  -
|  1> # 12meoh.boyd.etal.mol1,6,9
|  2> ! MP2 def2-TZVP EnGrad TightSCF
|  3>
|  4> %pal
|  5>     nprocs 6
|  6> end
|  7>
|  8> %maxcore 8000
|  9>
| 10> %scf
| 11>     ConvForced true
| 12> end
| 13>
| 14> *xyz 0 1
| 15> O   0.666045193  -2.600503172   0.138317521
| 16> H  -0.227115049  -2.712051982  -0.281868004
| 17> C   0.490021232  -1.851247678   1.341189459
| 18> H   1.466500502  -1.466176022   1.645844415
| 19> H   0.097564527  -2.488364683   2.146902740
| 20> H  -0.187588112  -1.000787499   1.200739571
| 21> O   2.622209273  -1.703002590  -1.445859723
| 22> H   1.828551432  -1.986513781  -0.909754968
| 23> C   2.781117675  -2.615822239  -2.525472890
| 24> H   3.691063626  -2.339003544  -3.065143454
| 25> H   1.934727323  -2.559520367  -3.223226661
| 26> H   2.879948338  -3.653846211  -2.177750170
| 27> O   1.390610024   3.194080770  -1.536658882
| 28> H   2.162932299   2.881562730  -0.993525056
| 29> C   1.202977189   4.580367182  -1.302880219
| 30> H   0.374773115   4.915764831  -1.934164643
| 31> H   2.098649340   5.157710875  -1.570472348
| 32> H   0.950320401   4.800436015  -0.254328827
| 33> *
| 34>
| 35>                          ****END OF INPUT****

CARTESIAN COORDINATES (ANGSTROEM)
---------------------------------
  O      0.666045   -2.600503    0.138318
  H     -0.227115   -2.712052   -0.281868
  C      0.490021   -1.851248    1.341189
  H      1.466501   -1.466176    1.645844
  H      0.097565   -2.488365    2.146903
  H     -0.187588   -1.000787    1.200740
  O      2.622209   -1.703003   -1.445860
  H      1.828551   -1.986514   -0.909755
  C      2.781118   -2.615822   -2.525473
  H      3.691064   -2.339004   -3.065143
  H      1.934727   -2.559520   -3.223227
  H      2.879948   -3.653846   -2.177750
  O      1.390610    3.194081   -1.536659
  H      2.162932    2.881563   -0.993525
  C      1.202977    4.580367   -1.302880
  H      0.374773    4.915765   -1.934165
  H      2.098649    5.157711   -1.570472
  H      0.950320    4.800436   -0.254329

 Total Charge           Charge          ....    0
 Multiplicity           Mult            ....    1
 Number of Electrons    NEL             ....   54
 Basis Dimension        Dim             ....  258

ORBITAL ENERGIES
----------------

  NO   OCC          E(Eh)            E(eV)
   0   2.0000     -20.588985      -560.2548
   1   2.0000     -20.551675      -559.2395
   2   2.0000     -20.509690      -558.0971
   3   2.0000     -11.288683      -307.1807
   4   2.0000     -11.267647      -306.6083
   5   2.0000     -11.245860      -306.0154
   6   2.0000      -1.381244       -37.5856
   7   2.0000      -1.342501       -36.5313
   8   2.0000      -1.305879       -35.5348
   9   2.0000      -0.940771       -25.5997
  10   2.0000      -0.915226       -24.9046
  11   2.0000      -0.892246       -24.2793
  12   2.0000      -0.714791       -19.4504
  13   2.0000      -0.677622       -18.4390
  14   2.0000      -0.669753       -18.2249
  15   2.0000      -0.632828       -17.2201
  16   2.0000      -0.612662       -16.6714
  17   2.0000      -0.606866       -16.5137
  18   2.0000      -0.587338       -15.9823
  19   2.0000      -0.586889       -15.9701
  20   2.0000      -0.557973       -15.1832
  21   2.0000      -0.527782       -14.3617
  22   2.0000      -0.494489       -13.4557
  23   2.0000      -0.485892       -13.2218
  24   2.0000      -0.453364       -12.3367
  25   2.0000      -0.443473       -12.0675
  26   2.0000      -0.412639       -11.2285
  27   0.0000       0.117967         3.2100
  28   0.0000       0.139448         3.7946
  29   0.0000       0.160530         4.3682
  30   0.0000       0.178809         4.8656
  31   0.0000       0.184252         5.0137

MULLIKEN ATOMIC CHARGES
-----------------------
   0 O :   -0.515178
   1 H :    0.341528
   2 C :   -0.187777
   3 H :    0.149311
   4 H :    0.124674
   5 H :    0.129375
   6 O :   -0.536031
   7 H :    0.344619
   8 C :   -0.164171
   9 H :    0.119573
  10 H :    0.093375
  11 H :    0.100914
  12 O :   -0.495515
  13 H :    0.326399
  14 C :   -0.171648
  15 H :    0.126863
  16 H :    0.108925
  17 H :    0.104763
Sum of atomic charges:   -0.0000000

LOEWDIN ATOMIC CHARGES
----------------------
   0 O :   -0.076926
   1 H :    0.198117
   2 C :   -0.366710
   3 H :    0.116822
   4 H :    0.103788
   5 H :    0.103008
   6 O :   -0.128945
   7 H :    0.159594
   8 C :   -0.395841
   9 H :    0.105384
  10 H :    0.089689
  11 H :    0.092173
  12 O :   -0.104244
  13 H :    0.192883
  14 C :   -0.387395
  15 H :    0.109603
  16 H :    0.095119
  17 H :    0.093880

  Mayer bond orders larger than 0.100000
B(  0-O ,  1-H ) :   0.8283 B(  0-O ,  2-C ) :   0.8705 B(  2-C ,  3-H ) :   0.9390
B(  2-C ,  4-H ) :   0.9333 B(  2-C ,  5-H ) :   0.9399 B(  6-O ,  7-H ) :   0.7862
B(  6-O ,  8-C ) :   0.9443 B(  8-C ,  9-H ) :   0.9416 B(  8-C , 10-H ) :   0.9415
B(  8-C , 11-H ) :   0.9368 B( 12-O , 13-H ) :   0.8386 B( 12-O , 14-C ) :   0.9325
B( 14-C , 15-H ) :   0.9378 B( 14-C , 16-H ) :   0.9402 B( 14-C , 17-H ) :   0.9371

MP2 TOTAL ENERGY:     -346.528571239 Eh
FINAL SINGLE POINT ENERGY      -346.528571239335

DIPOLE MOMENT
-------------
                                X             Y             Z
Electronic contribution:      0.16118      -1.49886      -0.20987
Nuclear contribution   :     -1.05928       1.54110       1.10235
                        -----------------------------------------
Total Dipole Moment    :     -0.89811       0.04224       0.89248
                        -----------------------------------------
Magnitude (a.u.)       :      1.26684
Magnitude (Debye)      :      3.22006

Rotational constants in cm-1:     0.074433     0.019940     0.016142
Rotational constants in MHz :  2231.445120   597.791316   483.923507

                             ****ORCA TERMINATED NORMALLY****
TOTAL RUN TIME: 0 days 0 hours 1 minutes 3 seconds 309 msec
