                         Program Version 4.2.0 -  RELEASE  -
|  1> # 12h2o.su.etal.mol0,1,3,4,5,6,7,8
|  2> ! MP2 def2-TZVP EnGrad TightSCF
|  3>
|  4> %pal
|  5>     nprocs 6
|  6> end
|  7>
|  8> %maxcore 8000
|  9>
| 10> %scf
| 11>     ConvForced true
| 12> end
| 13>
| 14> *xyz 0 1
| 15> O   1.794470000   0.923410000   2.768350000
| 16> H   2.338250000   1.359750000   3.430940000
| 17> H   0.879480000   1.303000000   2.865760000
| 18> O  -1.794470000  -0.923410000   2.768350000
| 19> H  -2.338250000  -1.359750000   3.430940000
| 20> H  -0.879480000  -1.303000000   2.865760000
| 21> O  -1.752130000  -0.741530000  -2.896280000
| 22> H  -2.036450000  -0.920500000  -1.984040000
| 23> H  -0.921210000  -1.242140000  -2.984230000
| 24> O  -0.885520000   1.737840000   0.052730000
| 25> H  -1.032320000   2.090180000  -0.841890000
| 26> H  -1.284090000   0.839590000   0.017130000
| 27> O   0.885520000  -1.737840000   0.052730000
| 28> H   1.284090000  -0.839590000   0.017130000
| 29> H   1.032320000  -2.090180000  -0.841890000
| 30> O   1.737840000   0.885520000  -0.052730000
| 31> H   2.090180000   1.032320000   0.841890000
| 32> H   0.839590000   1.284090000  -0.017130000
| 33> O  -1.737840000  -0.885520000  -0.052730000
| 34> H  -2.090180000  -1.032320000   0.841890000
| 35> H  -0.839590000  -1.284090000  -0.017130000
| 36> O   1.752130000   0.741530000  -2.896280000
| 37> H   2.036450000   0.920500000  -1.984040000
| 38> H   0.921210000   1.242140000  -2.984230000
| 39> *
| 40>
| 41>                          ****END OF INPUT****

CARTESIAN COORDINATES (ANGSTROEM)
---------------------------------
  O      1.794470    0.923410    2.768350
  H      2.338250    1.359750    3.430940
  H      0.879480    1.303000    2.865760
  O     -1.794470   -0.923410    2.768350
  H     -2.338250   -1.359750    3.430940
  H     -0.879480   -1.303000    2.865760
  O     -1.752130   -0.741530   -2.896280
  H     -2.036450   -0.920500   -1.984040
  H     -0.921210   -1.242140   -2.984230
  O     -0.885520    1.737840    0.052730
  H     -1.032320    2.090180   -0.841890
  H     -1.284090    0.839590    0.017130
  O      0.885520   -1.737840    0.052730
  H      1.284090   -0.839590    0.017130
  H      1.032320   -2.090180   -0.841890
  O      1.737840    0.885520   -0.052730
  H      2.090180    1.032320    0.841890
  H      0.839590    1.284090   -0.017130
  O     -1.737840   -0.885520   -0.052730
  H     -2.090180   -1.032320    0.841890
  H     -0.839590   -1.284090   -0.017130
  O      1.752130    0.741530   -2.896280
  H      2.036450    0.920500   -1.984040
  H      0.921210    1.242140   -2.984230

 Total Charge           Charge          ....    0
 Multiplicity           Mult            ....    1
 Number of Electrons    NEL             ....   80
 Basis Dimension        Dim             ....  344

ORBITAL ENERGIES
----------------

  NO   OCC          E(Eh)            E(eV)
   0   2.0000     -20.599689      -560.5460
   1   2.0000     -20.599689      -560.5460
   2   2.0000     -20.564110      -559.5779
   3   2.0000     -20.564110      -559.5779
   4   2.0000     -20.557872      -559.4081
   5   2.0000     -20.557872      -559.4081
   6   2.0000     -20.533140      -558.7351
   7   2.0000     -20.533139      -558.7351
   8   2.0000      -1.378846       -37.5203
   9   2.0000      -1.377912       -37.4949
  10   2.0000      -1.364674       -37.1347
  11   2.0000      -1.349424       -36.7197
  12   2.0000      -1.348717       -36.7004
  13   2.0000      -1.333374       -36.2829
  14   2.0000      -1.314803       -35.7776
  15   2.0000      -1.314211       -35.7615
  16   2.0000      -0.746031       -20.3005
  17   2.0000      -0.743187       -20.2231
  18   2.0000      -0.723296       -19.6819
  19   2.0000      -0.719461       -19.5775
  20   2.0000      -0.717870       -19.5342
  21   2.0000      -0.714050       -19.4303
  22   2.0000      -0.685615       -18.6565
  23   2.0000      -0.681926       -18.5562
  24   2.0000      -0.632711       -17.2169
  25   2.0000      -0.623643       -16.9702
  26   2.0000      -0.608616       -16.5613
  27   2.0000      -0.595959       -16.2169
  28   2.0000      -0.593779       -16.1576
  29   2.0000      -0.577217       -15.7069
  30   2.0000      -0.553978       -15.0745
  31   2.0000      -0.552874       -15.0445
  32   2.0000      -0.536853       -14.6085
  33   2.0000      -0.536320       -14.5940
  34   2.0000      -0.510310       -13.8862
  35   2.0000      -0.509325       -13.8594
  36   2.0000      -0.506695       -13.7879
  37   2.0000      -0.501848       -13.6560
  38   2.0000      -0.482640       -13.1333
  39   2.0000      -0.476606       -12.9691
  40   0.0000       0.088361         2.4044
  41   0.0000       0.120212         3.2711
  42   0.0000       0.121094         3.2951
  43   0.0000       0.146354         3.9825
  44   0.0000       0.181309         4.9337

MULLIKEN ATOMIC CHARGES
-----------------------
   0 O :   -0.706492
   1 H :    0.354900
   2 H :    0.367906
   3 O :   -0.706492
   4 H :    0.354900
   5 H :    0.367906
   6 O :   -0.702478
   7 H :    0.372356
   8 H :    0.324590
   9 O :   -0.722297
  10 H :    0.349619
  11 H :    0.381884
  12 O :   -0.722297
  13 H :    0.381884
  14 H :    0.349619
  15 O :   -0.755607
  16 H :    0.382708
  17 H :    0.352910
  18 O :   -0.755607
  19 H :    0.382708
  20 H :    0.352910
  21 O :   -0.702478
  22 H :    0.372356
  23 H :    0.324590
Sum of atomic charges:    0.0000000

LOEWDIN ATOMIC CHARGES
----------------------
   0 O :   -0.312952
   1 H :    0.165073
   2 H :    0.189577
   3 O :   -0.312952
   4 H :    0.165073
   5 H :    0.189577
   6 O :   -0.341006
   7 H :    0.150388
   8 H :    0.157468
   9 O :   -0.310955
  10 H :    0.165953
  11 H :    0.146660
  12 O :   -0.310955
  13 H :    0.146660
  14 H :    0.165953
  15 O :   -0.302681
  16 H :    0.152736
  17 H :    0.139738
  18 O :   -0.302681
  19 H :    0.152736
  20 H :    0.139738
  21 O :   -0.341006
  22 H :    0.150388
  23 H :    0.157468

  Mayer bond orders larger than 0.100000
B(  0-O ,  1-H ) :   0.8403 B(  0-O ,  2-H ) :   0.8234 B(  3-O ,  4-H ) :   0.8403
B(  3-O ,  5-H ) :   0.8234 B(  6-O ,  7-H ) :   0.8159 B(  6-O ,  8-H ) :   0.8561
B(  9-O , 10-H ) :   0.8411 B(  9-O , 11-H ) :   0.7606 B(  9-O , 17-H ) :   0.1152
B( 12-O , 13-H ) :   0.7606 B( 12-O , 14-H ) :   0.8411 B( 12-O , 20-H ) :   0.1152
B( 15-O , 16-H ) :   0.8006 B( 15-O , 17-H ) :   0.7583 B( 18-O , 19-H ) :   0.8006
B( 18-O , 20-H ) :   0.7583 B( 21-O , 22-H ) :   0.8159 B( 21-O , 23-H ) :   0.8561

MP2 TOTAL ENERGY:     -610.585975461 Eh
FINAL SINGLE POINT ENERGY      -610.585975461098

DIPOLE MOMENT
-------------
                                X             Y             Z
Electronic contribution:     -0.00000       0.00000       0.34321
Nuclear contribution   :     -0.00000       0.00000       2.63740
                        -----------------------------------------
Total Dipole Moment    :     -0.00000       0.00000       2.98062
                        -----------------------------------------
Magnitude (a.u.)       :      2.98062
Magnitude (Debye)      :      7.57612

Rotational constants in cm-1:     0.030340     0.023316     0.016886
Rotational constants in MHz :   909.562429   698.999253   506.239156

                             ****ORCA TERMINATED NORMALLY****
TOTAL RUN TIME: 0 days 0 hours 3 minutes 14 seconds 863 msec
