                         Program Version 4.2.0 -  RELEASE  -
|  1> # 12meoh.boyd.etal.mol3,4,7
|  2> ! MP2 def2-TZVP EnGrad TightSCF
|  3>
|  4> %pal
|  5>     nprocs 6
|  6> end
|  7>
|  8> %maxcore 8000
|  9>
| 10> %scf
| 11>     ConvForced true
| 12> end
| 13>
| 14> *xyz 0 1
| 15> O  -3.821405976  -2.118091637   0.596795346
| 16> H  -4.342989117  -1.344303030   0.251966383
| 17> C  -3.443883586  -1.809641231   1.934889393
| 18> H  -2.831494349  -2.637429600   2.305201764
| 19> H  -4.325601146  -1.719364371   2.585074667
| 20> H  -2.858527126  -0.882644791   1.996110694
| 21> O  -1.358578914   1.232360421   1.189721000
| 22> H  -1.058250183   1.216459361   0.238591307
| 23> C  -0.389763452   1.957872567   1.943072362
| 24> H  -0.747220771   2.012806578   2.975200343
| 25> H  -0.260410585   2.982763209   1.565366540
| 26> H   0.585220638   1.453754179   1.934070793
| 27> O   4.310535586  -1.588322800   0.656128299
| 28> H   3.804372199  -1.630404735  -0.196849819
| 29> C   4.312298137  -2.894980854   1.222112691
| 30> H   4.713177833  -2.819907076   2.237066773
| 31> H   4.957796734  -3.574699304   0.648211180
| 32> H   3.302735989  -3.324433205   1.269756773
| 33> *
| 34>
| 35>                          ****END OF INPUT****

CARTESIAN COORDINATES (ANGSTROEM)
---------------------------------
  O     -3.821406   -2.118092    0.596795
  H     -4.342989   -1.344303    0.251966
  C     -3.443884   -1.809641    1.934889
  H     -2.831494   -2.637430    2.305202
  H     -4.325601   -1.719364    2.585075
  H     -2.858527   -0.882645    1.996111
  O     -1.358579    1.232360    1.189721
  H     -1.058250    1.216459    0.238591
  C     -0.389763    1.957873    1.943072
  H     -0.747221    2.012807    2.975200
  H     -0.260411    2.982763    1.565367
  H      0.585221    1.453754    1.934071
  O      4.310536   -1.588323    0.656128
  H      3.804372   -1.630405   -0.196850
  C      4.312298   -2.894981    1.222113
  H      4.713178   -2.819907    2.237067
  H      4.957797   -3.574699    0.648211
  H      3.302736   -3.324433    1.269757

 Total Charge           Charge          ....    0
 Multiplicity           Mult            ....    1
 Number of Electrons    NEL             ....   54
 Basis Dimension        Dim             ....  258

ORBITAL ENERGIES
----------------

  NO   OCC          E(Eh)            E(eV)
   0   2.0000     -20.563174      -559.5524
   1   2.0000     -20.558940      -559.4372
   2   2.0000     -20.547099      -559.1150
   3   2.0000     -11.274742      -306.8013
   4   2.0000     -11.272405      -306.7377
   5   2.0000     -11.256633      -306.3086
   6   2.0000      -1.350690       -36.7542
   7   2.0000      -1.348567       -36.6964
   8   2.0000      -1.335916       -36.3521
   9   2.0000      -0.922792       -25.1105
  10   2.0000      -0.920478       -25.0475
  11   2.0000      -0.905805       -24.6482
  12   2.0000      -0.685357       -18.6495
  13   2.0000      -0.683142       -18.5892
  14   2.0000      -0.669366       -18.2144
  15   2.0000      -0.620676       -16.8894
  16   2.0000      -0.617969       -16.8158
  17   2.0000      -0.605614       -16.4796
  18   2.0000      -0.593329       -16.1453
  19   2.0000      -0.592087       -16.1115
  20   2.0000      -0.578635       -15.7454
  21   2.0000      -0.505671       -13.7600
  22   2.0000      -0.502113       -13.6632
  23   2.0000      -0.488009       -13.2794
  24   2.0000      -0.454193       -12.3592
  25   2.0000      -0.450363       -12.2550
  26   2.0000      -0.436732       -11.8841
  27   0.0000       0.122563         3.3351
  28   0.0000       0.135436         3.6854
  29   0.0000       0.152769         4.1570
  30   0.0000       0.173911         4.7324
  31   0.0000       0.175235         4.7684

MULLIKEN ATOMIC CHARGES
-----------------------
   0 O :   -0.504929
   1 H :    0.320361
   2 C :   -0.186970
   3 H :    0.119480
   4 H :    0.103397
   5 H :    0.139079
   6 O :   -0.497737
   7 H :    0.323309
   8 C :   -0.175754
   9 H :    0.129163
  10 H :    0.110904
  11 H :    0.119497
  12 O :   -0.498284
  13 H :    0.321254
  14 C :   -0.174890
  15 H :    0.128970
  16 H :    0.109837
  17 H :    0.113313
Sum of atomic charges:    0.0000000

LOEWDIN ATOMIC CHARGES
----------------------
   0 O :   -0.114039
   1 H :    0.189974
   2 C :   -0.385398
   3 H :    0.107368
   4 H :    0.093056
   5 H :    0.100197
   6 O :   -0.110440
   7 H :    0.193060
   8 C :   -0.379359
   9 H :    0.110305
  10 H :    0.097078
  11 H :    0.098097
  12 O :   -0.110419
  13 H :    0.189238
  14 C :   -0.380903
  15 H :    0.110009
  16 H :    0.095624
  17 H :    0.096551

  Mayer bond orders larger than 0.100000
B(  0-O ,  1-H ) :   0.8437 B(  0-O ,  2-C ) :   0.9160 B(  2-C ,  3-H ) :   0.9381
B(  2-C ,  4-H ) :   0.9406 B(  2-C ,  5-H ) :   0.9308 B(  6-O ,  7-H ) :   0.8388
B(  6-O ,  8-C ) :   0.9146 B(  8-C ,  9-H ) :   0.9391 B(  8-C , 10-H ) :   0.9351
B(  8-C , 11-H ) :   0.9380 B( 12-O , 13-H ) :   0.8433 B( 12-O , 14-C ) :   0.9243
B( 14-C , 15-H ) :   0.9377 B( 14-C , 16-H ) :   0.9383 B( 14-C , 17-H ) :   0.9401

MP2 TOTAL ENERGY:     -346.522523036 Eh
FINAL SINGLE POINT ENERGY      -346.522523036368

DIPOLE MOMENT
-------------
                                X             Y             Z
Electronic contribution:     -1.53852       0.33283      -3.06668
Nuclear contribution   :      1.71624       0.08087       2.83641
                        -----------------------------------------
Total Dipole Moment    :      0.17772       0.41370      -0.23028
                        -----------------------------------------
Magnitude (a.u.)       :      0.50573
Magnitude (Debye)      :      1.28545

Rotational constants in cm-1:     0.051312     0.015187     0.012239
Rotational constants in MHz :  1538.289475   455.292721   366.915621

                             ****ORCA TERMINATED NORMALLY****
TOTAL RUN TIME: 0 days 0 hours 0 minutes 52 seconds 14 msec
