                         Program Version 3.0.3 - RELEASE   -
|  1> ! B3LYP Def2-TZVP def2-TZVP/J RIJCOSX TightSCF Grid4 D3BJ
|  2>
|  3> %pal nprocs 12 end
|  4>
|  5> %scf
|  6>         maxiter 400
|  7> end
|  8>
|  9> * xyz  0  1
| 10> O  1.119114	-0.133853	0.975252
| 11> H  0.482644	-0.131862	0.221763
| 12> H  1.867213	-0.640830	0.611010
| 13> O  -0.988983	0.115575	-0.927867
| 14> H  -0.993867	1.086528	-0.818014
| 15> H  -1.636408	-0.180130	-0.258373
| 16> **                         ****END OF INPUT****

CARTESIAN COORDINATES (ANGSTROEM)
---------------------------------
  O      1.119114   -0.133853    0.975252
  H      0.482644   -0.131862    0.221763
  H      1.867213   -0.640830    0.611010
  O     -0.988983    0.115575   -0.927867
  H     -0.993867    1.086528   -0.818014
  H     -1.636408   -0.180130   -0.258373

 Total Charge           Charge          ....    0
 Multiplicity           Mult            ....    1
 Number of Electrons    NEL             ....   20
 Basis Dimension        Dim             ....   86

ORBITAL ENERGIES
----------------

  NO   OCC          E(Eh)            E(eV)
   0   2.0000     -19.160440      -521.3821
   1   2.0000     -19.099419      -519.7216
   2   2.0000      -1.039929       -28.2979
   3   2.0000      -0.979653       -26.6577
   4   2.0000      -0.552028       -15.0215
   5   2.0000      -0.500186       -13.6107
   6   2.0000      -0.424554       -11.5527
   7   2.0000      -0.375179       -10.2092
   8   2.0000      -0.337798        -9.1919
   9   2.0000      -0.289937        -7.8896
  10   0.0000      -0.003171        -0.0863
  11   0.0000       0.056382         1.5342
  12   0.0000       0.075800         2.0626
  13   0.0000       0.182556         4.9676
  14   0.0000       0.321332         8.7439

MULLIKEN ATOMIC CHARGES
-----------------------
   0 O :   -0.664071
   1 H :    0.313573
   2 H :    0.307321
   3 O :   -0.632951
   4 H :    0.337992
   5 H :    0.338136
Sum of atomic charges:    0.0000000

LOEWDIN ATOMIC CHARGES
----------------------
   0 O :   -0.353781
   1 H :    0.140135
   2 H :    0.156182
   3 O :   -0.285348
   4 H :    0.171318
   5 H :    0.171494

  Mayer bond orders larger than 0.1
B(  0-O ,  1-H ) :   0.8583 B(  0-O ,  2-H ) :   0.9146 B(  3-O ,  4-H ) :   0.8924
B(  3-O ,  5-H ) :   0.8924

Dispersion correction           -0.002294396
FINAL SINGLE POINT ENERGY      -152.861461464752

DIPOLE MOMENT
-------------
                                X             Y             Z
Electronic contribution:     -0.11389       0.00942      -0.09544
Nuclear contribution   :     -0.45004       0.14172      -0.28166
                        -----------------------------------------
Total Dipole Moment    :     -0.56393       0.15114      -0.37710
                        -----------------------------------------
Magnitude (a.u.)       :      0.69503
Magnitude (Debye)      :      1.76661

                             ****ORCA TERMINATED NORMALLY****
TOTAL RUN TIME: 0 days 0 hours 0 minutes 48 seconds 403 msec
