                         Program Version 3.0.3 - RELEASE   -
|  1> ! wB97X-D3 Def2-TZVP def2-TZVP/J RIJCOSX TightSCF Grid4 COSMO
|  2>
|  3> %pal nprocs 12 end
|  4>
|  5> %scf
|  6>         maxiter 400
|  7> end
|  8>
|  9> %cosmo
| 10>         SMD true
| 11>         solvent "WATER"
| 12> end
| 13>
| 14> * xyz  0  1
| 15> O  1.137516	-0.247546	1.017017
| 16> H  0.393060	-0.141760	0.363809
| 17> H  1.875978	-0.514251	0.436152
| 18> O  -0.908444	0.078874	-0.820433
| 19> H  -0.938282	1.053868	-0.899676
| 20> H  -1.710116	-0.113757	-0.293098
| 21> **                         ****END OF INPUT****

CARTESIAN COORDINATES (ANGSTROEM)
---------------------------------
  O      1.137516   -0.247546    1.017017
  H      0.393060   -0.141760    0.363809
  H      1.875978   -0.514251    0.436152
  O     -0.908444    0.078874   -0.820433
  H     -0.938282    1.053868   -0.899676
  H     -1.710116   -0.113757   -0.293098

 Total Charge           Charge          ....    0
 Multiplicity           Mult            ....    1
 Number of Electrons    NEL             ....   20
 Basis Dimension        Dim             ....   86

ORBITAL ENERGIES
----------------

  NO   OCC          E(Eh)            E(eV)
   0   2.0000     -19.247129      -523.7410
   1   2.0000     -19.218421      -522.9598
   2   2.0000      -1.134257       -30.8647
   3   2.0000      -1.102874       -30.0107
   4   2.0000      -0.627355       -17.0712
   5   2.0000      -0.608860       -16.5679
   6   2.0000      -0.519273       -14.1301
   7   2.0000      -0.488013       -13.2795
   8   2.0000      -0.426189       -11.5972
   9   2.0000      -0.409801       -11.1513
  10   0.0000       0.117257         3.1907
  11   0.0000       0.165957         4.5159
  12   0.0000       0.204679         5.5696
  13   0.0000       0.286764         7.8032
  14   0.0000       0.418531        11.3888

MULLIKEN ATOMIC CHARGES
-----------------------
   0 O :   -0.797716
   1 H :    0.362599
   2 H :    0.384158
   3 O :   -0.755415
   4 H :    0.402878
   5 H :    0.403496
Sum of atomic charges:   -0.0000000

LOEWDIN ATOMIC CHARGES
----------------------
   0 O :   -0.408890
   1 H :    0.147067
   2 H :    0.180738
   3 O :   -0.310834
   4 H :    0.195640
   5 H :    0.196280

  Mayer bond orders larger than 0.1
B(  0-O ,  1-H ) :   0.8140 B(  0-O ,  2-H ) :   0.8638 B(  1-H ,  3-O ) :   0.1110
B(  3-O ,  4-H ) :   0.8456 B(  3-O ,  5-H ) :   0.8456

Dispersion correction           -0.000541643
FINAL SINGLE POINT ENERGY      -152.908424422965

DIPOLE MOMENT
-------------
                                X             Y             Z
Electronic contribution:     -0.19975       0.03986      -0.16353
Nuclear contribution   :     -0.69711       0.51727      -0.65422
                        -----------------------------------------
Total Dipole Moment    :     -0.89686       0.55712      -0.81775
                        -----------------------------------------
Magnitude (a.u.)       :      1.33546
Magnitude (Debye)      :      3.39447

                             ****ORCA TERMINATED NORMALLY****
TOTAL RUN TIME: 0 days 0 hours 0 minutes 50 seconds 597 msec
