                         Program Version 3.0.3 - RELEASE   -
|  1> ! wB97X-D3 Def2-TZVP def2-TZVP/J RIJCOSX TightSCF Grid4 COSMO
|  2>
|  3> %pal nprocs 12 end
|  4>
|  5> %scf
|  6>         maxiter 400
|  7> end
|  8>
|  9> %cosmo
| 10>         SMD true
| 11>         solvent "WATER"
| 12> end
| 13>
| 14> * xyz  0  1
| 15> O  1.150924	-0.282354	1.020049
| 16> H  0.382119	-0.162131	0.418934
| 17> H  1.871184	-0.458816	0.396419
| 18> O  -0.902426	0.076142	-0.786964
| 19> H  -0.910459	1.037966	-0.913996
| 20> H  -1.741629	-0.095380	-0.330670
| 21> **                         ****END OF INPUT****

CARTESIAN COORDINATES (ANGSTROEM)
---------------------------------
  O      1.150924   -0.282354    1.020049
  H      0.382119   -0.162131    0.418934
  H      1.871184   -0.458816    0.396419
  O     -0.902426    0.076142   -0.786964
  H     -0.910459    1.037966   -0.913996
  H     -1.741629   -0.095380   -0.330670

 Total Charge           Charge          ....    0
 Multiplicity           Mult            ....    1
 Number of Electrons    NEL             ....   20
 Basis Dimension        Dim             ....   86

ORBITAL ENERGIES
----------------

  NO   OCC          E(Eh)            E(eV)
   0   2.0000     -19.244542      -523.6706
   1   2.0000     -19.217163      -522.9256
   2   2.0000      -1.136199       -30.9175
   3   2.0000      -1.106843       -30.1187
   4   2.0000      -0.631348       -17.1799
   5   2.0000      -0.613075       -16.6826
   6   2.0000      -0.519641       -14.1401
   7   2.0000      -0.486289       -13.2326
   8   2.0000      -0.426567       -11.6075
   9   2.0000      -0.410535       -11.1712
  10   0.0000       0.118843         3.2339
  11   0.0000       0.167845         4.5673
  12   0.0000       0.206525         5.6198
  13   0.0000       0.284050         7.7294
  14   0.0000       0.420240        11.4353

MULLIKEN ATOMIC CHARGES
-----------------------
   0 O :   -0.793542
   1 H :    0.363746
   2 H :    0.382735
   3 O :   -0.755773
   4 H :    0.400992
   5 H :    0.401841
Sum of atomic charges:   -0.0000000

LOEWDIN ATOMIC CHARGES
----------------------
   0 O :   -0.394591
   1 H :    0.139448
   2 H :    0.176014
   3 O :   -0.301399
   4 H :    0.189770
   5 H :    0.190758

  Mayer bond orders larger than 0.1
B(  0-O ,  1-H ) :   0.8188 B(  0-O ,  2-H ) :   0.8655 B(  1-H ,  3-O ) :   0.1067
B(  3-O ,  4-H ) :   0.8474 B(  3-O ,  5-H ) :   0.8473

Dispersion correction           -0.000545492
FINAL SINGLE POINT ENERGY      -152.909321880254

DIPOLE MOMENT
-------------
                                X             Y             Z
Electronic contribution:     -0.19722       0.04487      -0.15742
Nuclear contribution   :     -0.74561       0.61101      -0.74536
                        -----------------------------------------
Total Dipole Moment    :     -0.94283       0.65587      -0.90278
                        -----------------------------------------
Magnitude (a.u.)       :      1.46086
Magnitude (Debye)      :      3.71321

                             ****ORCA TERMINATED NORMALLY****
TOTAL RUN TIME: 0 days 0 hours 0 minutes 50 seconds 333 msec
