                         Program Version 4.2.0 -  RELEASE  -
|  1> # 12mecn.remya.etal.2.mol10,11
|  2> ! MP2 def2-TZVP EnGrad TightSCF
|  3>
|  4> %pal
|  5>     nprocs 6
|  6> end
|  7>
|  8> %maxcore 8000
|  9>
| 10> %scf
| 11>     ConvForced true
| 12> end
| 13>
| 14> *xyz 0 1
| 15> C   4.602033000   0.321019000  -1.784800000
| 16> H   4.827650000  -0.662160000  -2.207910000
| 17> H   5.320558000   1.057980000  -2.148500000
| 18> H   3.601982000   0.643751000  -2.087520000
| 19> C   4.654967000   0.244048000  -0.343060000
| 20> N   4.691648000   0.166590000   0.820757000
| 21> C   4.214163000   3.378139000   1.593627000
| 22> H   3.242643000   3.657109000   2.012358000
| 23> H   4.969258000   4.086643000   1.941290000
| 24> H   4.482966000   2.372549000   1.931698000
| 25> C   4.130759000   3.388436000   0.150192000
| 26> N   4.050180000   3.381449000  -1.013420000
| 27> *
| 28>
| 29>                          ****END OF INPUT****

CARTESIAN COORDINATES (ANGSTROEM)
---------------------------------
  C      4.602033    0.321019   -1.784800
  H      4.827650   -0.662160   -2.207910
  H      5.320558    1.057980   -2.148500
  H      3.601982    0.643751   -2.087520
  C      4.654967    0.244048   -0.343060
  N      4.691648    0.166590    0.820757
  C      4.214163    3.378139    1.593627
  H      3.242643    3.657109    2.012358
  H      4.969258    4.086643    1.941290
  H      4.482966    2.372549    1.931698
  C      4.130759    3.388436    0.150192
  N      4.050180    3.381449   -1.013420

 Total Charge           Charge          ....    0
 Multiplicity           Mult            ....    1
 Number of Electrons    NEL             ....   44
 Basis Dimension        Dim             ....  222

ORBITAL ENERGIES
----------------

  NO   OCC          E(Eh)            E(eV)
   0   2.0000     -15.571459      -423.7209
   1   2.0000     -15.570633      -423.6985
   2   2.0000     -11.283071      -307.0280
   3   2.0000     -11.282929      -307.0241
   4   2.0000     -11.272529      -306.7411
   5   2.0000     -11.272029      -306.7275
   6   2.0000      -1.218570       -33.1590
   7   2.0000      -1.213705       -33.0266
   8   2.0000      -1.036567       -28.2064
   9   2.0000      -1.033562       -28.1246
  10   2.0000      -0.695175       -18.9167
  11   2.0000      -0.690681       -18.7944
  12   2.0000      -0.631817       -17.1926
  13   2.0000      -0.622730       -16.9453
  14   2.0000      -0.618357       -16.8264
  15   2.0000      -0.615971       -16.7614
  16   2.0000      -0.559270       -15.2185
  17   2.0000      -0.556082       -15.1318
  18   2.0000      -0.462752       -12.5921
  19   2.0000      -0.458976       -12.4894
  20   2.0000      -0.457258       -12.4426
  21   2.0000      -0.453412       -12.3380
  22   0.0000       0.126203         3.4342
  23   0.0000       0.145374         3.9558
  24   0.0000       0.172056         4.6819
  25   0.0000       0.176305         4.7975
  26   0.0000       0.179010         4.8711

MULLIKEN ATOMIC CHARGES
-----------------------
   0 C :   -0.258021
   1 H :    0.171526
   2 H :    0.179420
   3 H :    0.176102
   4 C :   -0.118275
   5 N :   -0.150103
   6 C :   -0.287944
   7 H :    0.166436
   8 H :    0.166501
   9 H :    0.205778
  10 C :   -0.113100
  11 N :   -0.138320
Sum of atomic charges:   -0.0000000

LOEWDIN ATOMIC CHARGES
----------------------
   0 C :   -0.284485
   1 H :    0.150091
   2 H :    0.155684
   3 H :    0.157244
   4 C :   -0.209930
   5 N :    0.028302
   6 C :   -0.282581
   7 H :    0.152675
   8 H :    0.150010
   9 H :    0.157356
  10 C :   -0.209323
  11 N :    0.034956

  Mayer bond orders larger than 0.100000
B(  0-C ,  1-H ) :   0.9094 B(  0-C ,  2-H ) :   0.9122 B(  0-C ,  3-H ) :   0.9128
B(  0-C ,  4-C ) :   0.9122 B(  4-C ,  5-N ) :   2.7721 B(  6-C ,  7-H ) :   0.9148
B(  6-C ,  8-H ) :   0.9163 B(  6-C ,  9-H ) :   0.9017 B(  6-C , 10-C ) :   0.9002
B( 10-C , 11-N ) :   2.7914

MP2 TOTAL ENERGY:     -264.975956448 Eh
FINAL SINGLE POINT ENERGY      -264.975956447611

DIPOLE MOMENT
-------------
                                X             Y             Z
Electronic contribution:     -0.05227      -0.16597      -0.02563
Nuclear contribution   :      0.09322       0.25033       0.01580
                        -----------------------------------------
Total Dipole Moment    :      0.04094       0.08436      -0.00983
                        -----------------------------------------
Magnitude (a.u.)       :      0.09428
Magnitude (Debye)      :      0.23965

Rotational constants in cm-1:     0.166443     0.071761     0.051120
Rotational constants in MHz :  4989.833937  2151.349742  1532.526313

                             ****ORCA TERMINATED NORMALLY****
TOTAL RUN TIME: 0 days 0 hours 1 minutes 28 seconds 820 msec
