                         Program Version 4.2.0 -  RELEASE  -
|  1> # 12h2o.su.etal.mol6,7,11
|  2> ! MP2 def2-TZVP EnGrad TightSCF
|  3>
|  4> %pal
|  5>     nprocs 6
|  6> end
|  7>
|  8> %maxcore 8000
|  9>
| 10> %scf
| 11>     ConvForced true
| 12> end
| 13>
| 14> *xyz 0 1
| 15> O   1.737840000   0.885520000  -0.052730000
| 16> H   2.090180000   1.032320000   0.841890000
| 17> H   0.839590000   1.284090000  -0.017130000
| 18> O  -1.737840000  -0.885520000  -0.052730000
| 19> H  -2.090180000  -1.032320000   0.841890000
| 20> H  -0.839590000  -1.284090000  -0.017130000
| 21> O  -0.741530000   1.752130000   2.896280000
| 22> H  -0.920500000   2.036450000   1.984040000
| 23> H  -1.242140000   0.921210000   2.984230000
| 24> *
| 25>
| 26>                          ****END OF INPUT****

CARTESIAN COORDINATES (ANGSTROEM)
---------------------------------
  O      1.737840    0.885520   -0.052730
  H      2.090180    1.032320    0.841890
  H      0.839590    1.284090   -0.017130
  O     -1.737840   -0.885520   -0.052730
  H     -2.090180   -1.032320    0.841890
  H     -0.839590   -1.284090   -0.017130
  O     -0.741530    1.752130    2.896280
  H     -0.920500    2.036450    1.984040
  H     -1.242140    0.921210    2.984230

 Total Charge           Charge          ....    0
 Multiplicity           Mult            ....    1
 Number of Electrons    NEL             ....   30
 Basis Dimension        Dim             ....  129

ORBITAL ENERGIES
----------------

  NO   OCC          E(Eh)            E(eV)
   0   2.0000     -20.579706      -560.0023
   1   2.0000     -20.578488      -559.9691
   2   2.0000     -20.567169      -559.6611
   3   2.0000      -1.358662       -36.9711
   4   2.0000      -1.354270       -36.8515
   5   2.0000      -1.342923       -36.5428
   6   2.0000      -0.721677       -19.6378
   7   2.0000      -0.716106       -19.4862
   8   2.0000      -0.704776       -19.1779
   9   2.0000      -0.596233       -16.2243
  10   2.0000      -0.593001       -16.1364
  11   2.0000      -0.582391       -15.8477
  12   2.0000      -0.523935       -14.2570
  13   2.0000      -0.520776       -14.1710
  14   2.0000      -0.509443       -13.8626
  15   0.0000       0.079715         2.1692
  16   0.0000       0.132341         3.6012
  17   0.0000       0.155656         4.2356
  18   0.0000       0.180058         4.8996
  19   0.0000       0.217812         5.9270

MULLIKEN ATOMIC CHARGES
-----------------------
   0 O :   -0.676957
   1 H :    0.342645
   2 H :    0.333392
   3 O :   -0.677523
   4 H :    0.328274
   5 H :    0.350039
   6 O :   -0.667820
   7 H :    0.334898
   8 H :    0.333052
Sum of atomic charges:    0.0000000

LOEWDIN ATOMIC CHARGES
----------------------
   0 O :   -0.334893
   1 H :    0.166759
   2 H :    0.166828
   3 O :   -0.334766
   4 H :    0.160112
   5 H :    0.175844
   6 O :   -0.326230
   7 H :    0.162148
   8 H :    0.164200

  Mayer bond orders larger than 0.100000
B(  0-O ,  1-H ) :   0.8488 B(  0-O ,  2-H ) :   0.8497 B(  3-O ,  4-H ) :   0.8565
B(  3-O ,  5-H ) :   0.8398 B(  6-O ,  7-H ) :   0.8522 B(  6-O ,  8-H ) :   0.8542

MP2 TOTAL ENERGY:     -228.941920873 Eh
FINAL SINGLE POINT ENERGY      -228.941920873417

DIPOLE MOMENT
-------------
                                X             Y             Z
Electronic contribution:      0.10511       0.06514      -0.14553
Nuclear contribution   :     -0.56566      -0.45497       0.86245
                        -----------------------------------------
Total Dipole Moment    :     -0.46055      -0.38983       0.71692
                        -----------------------------------------
Magnitude (a.u.)       :      0.93704
Magnitude (Debye)      :      2.38176

Rotational constants in cm-1:     0.123719     0.114593     0.060381
Rotational constants in MHz :  3708.992144  3435.425449  1810.179168

                             ****ORCA TERMINATED NORMALLY****
TOTAL RUN TIME: 0 days 0 hours 0 minutes 10 seconds 275 msec
