                         Program Version 4.2.0 -  RELEASE  -
|  1> # 12h2o.su.etal.mol0,2,3,4,6,9
|  2> ! MP2 def2-TZVP EnGrad TightSCF
|  3>
|  4> %pal
|  5>     nprocs 6
|  6> end
|  7>
|  8> %maxcore 8000
|  9>
| 10> %scf
| 11>     ConvForced true
| 12> end
| 13>
| 14> *xyz 0 1
| 15> O   1.794470000   0.923410000   2.768350000
| 16> H   2.338250000   1.359750000   3.430940000
| 17> H   0.879480000   1.303000000   2.865760000
| 18> O   0.923410000  -1.794470000  -2.768350000
| 19> H   1.359750000  -2.338250000  -3.430940000
| 20> H   1.303000000  -0.879480000  -2.865760000
| 21> O  -1.752130000  -0.741530000  -2.896280000
| 22> H  -2.036450000  -0.920500000  -1.984040000
| 23> H  -0.921210000  -1.242140000  -2.984230000
| 24> O  -0.885520000   1.737840000   0.052730000
| 25> H  -1.032320000   2.090180000  -0.841890000
| 26> H  -1.284090000   0.839590000   0.017130000
| 27> O   1.737840000   0.885520000  -0.052730000
| 28> H   2.090180000   1.032320000   0.841890000
| 29> H   0.839590000   1.284090000  -0.017130000
| 30> O   0.741530000  -1.752130000   2.896280000
| 31> H   0.920500000  -2.036450000   1.984040000
| 32> H   1.242140000  -0.921210000   2.984230000
| 33> *
| 34>
| 35>                          ****END OF INPUT****

CARTESIAN COORDINATES (ANGSTROEM)
---------------------------------
  O      1.794470    0.923410    2.768350
  H      2.338250    1.359750    3.430940
  H      0.879480    1.303000    2.865760
  O      0.923410   -1.794470   -2.768350
  H      1.359750   -2.338250   -3.430940
  H      1.303000   -0.879480   -2.865760
  O     -1.752130   -0.741530   -2.896280
  H     -2.036450   -0.920500   -1.984040
  H     -0.921210   -1.242140   -2.984230
  O     -0.885520    1.737840    0.052730
  H     -1.032320    2.090180   -0.841890
  H     -1.284090    0.839590    0.017130
  O      1.737840    0.885520   -0.052730
  H      2.090180    1.032320    0.841890
  H      0.839590    1.284090   -0.017130
  O      0.741530   -1.752130    2.896280
  H      0.920500   -2.036450    1.984040
  H      1.242140   -0.921210    2.984230

 Total Charge           Charge          ....    0
 Multiplicity           Mult            ....    1
 Number of Electrons    NEL             ....   60
 Basis Dimension        Dim             ....  258

ORBITAL ENERGIES
----------------

  NO   OCC          E(Eh)            E(eV)
   0   2.0000     -20.606197      -560.7231
   1   2.0000     -20.596554      -560.4607
   2   2.0000     -20.583144      -560.0958
   3   2.0000     -20.544144      -559.0346
   4   2.0000     -20.531766      -558.6978
   5   2.0000     -20.513898      -558.2116
   6   2.0000      -1.386411       -37.7262
   7   2.0000      -1.377028       -37.4708
   8   2.0000      -1.361038       -37.0357
   9   2.0000      -1.325891       -36.0793
  10   2.0000      -1.314250       -35.7626
  11   2.0000      -1.298313       -35.3289
  12   2.0000      -0.752020       -20.4635
  13   2.0000      -0.735329       -20.0093
  14   2.0000      -0.728203       -19.8154
  15   2.0000      -0.694004       -18.8848
  16   2.0000      -0.685893       -18.6641
  17   2.0000      -0.682807       -18.5801
  18   2.0000      -0.628019       -17.0893
  19   2.0000      -0.613088       -16.6830
  20   2.0000      -0.603100       -16.4112
  21   2.0000      -0.575419       -15.6579
  22   2.0000      -0.564211       -15.3530
  23   2.0000      -0.550477       -14.9793
  24   2.0000      -0.533935       -14.5291
  25   2.0000      -0.522882       -14.2283
  26   2.0000      -0.513893       -13.9837
  27   2.0000      -0.491245       -13.3674
  28   2.0000      -0.479612       -13.0509
  29   2.0000      -0.464459       -12.6386
  30   0.0000       0.088586         2.4106
  31   0.0000       0.112319         3.0564
  32   0.0000       0.130507         3.5513
  33   0.0000       0.162378         4.4185
  34   0.0000       0.175597         4.7782

MULLIKEN ATOMIC CHARGES
-----------------------
   0 O :   -0.711952
   1 H :    0.360680
   2 H :    0.372774
   3 O :   -0.698630
   4 H :    0.350619
   5 H :    0.370169
   6 O :   -0.702029
   7 H :    0.319202
   8 H :    0.363027
   9 O :   -0.687017
  10 H :    0.365445
  11 H :    0.353403
  12 O :   -0.734011
  13 H :    0.357330
  14 H :    0.338310
  15 O :   -0.709610
  16 H :    0.336664
  17 H :    0.355626
Sum of atomic charges:   -0.0000000

LOEWDIN ATOMIC CHARGES
----------------------
   0 O :   -0.286556
   1 H :    0.166207
   2 H :    0.192252
   3 O :   -0.311075
   4 H :    0.162980
   5 H :    0.191584
   6 O :   -0.345724
   7 H :    0.154120
   8 H :    0.149510
   9 O :   -0.292400
  10 H :    0.176300
  11 H :    0.176678
  12 O :   -0.370639
  13 H :    0.142659
  14 H :    0.134828
  15 O :   -0.349188
  16 H :    0.162970
  17 H :    0.145493

  Mayer bond orders larger than 0.100000
B(  0-O ,  1-H ) :   0.8337 B(  0-O ,  2-H ) :   0.8192 B(  3-O ,  4-H ) :   0.8425
B(  3-O ,  5-H ) :   0.8221 B(  6-O ,  7-H ) :   0.8624 B(  6-O ,  8-H ) :   0.8096
B(  9-O , 10-H ) :   0.8323 B(  9-O , 11-H ) :   0.8348 B( 12-O , 13-H ) :   0.8320
B( 12-O , 14-H ) :   0.8101 B( 15-O , 16-H ) :   0.8525 B( 15-O , 17-H ) :   0.8249

MP2 TOTAL ENERGY:     -457.910708620 Eh
FINAL SINGLE POINT ENERGY      -457.910708620417

DIPOLE MOMENT
-------------
                                X             Y             Z
Electronic contribution:     -0.00187       0.02914       0.08003
Nuclear contribution   :      0.48245       0.87699       0.00000
                        -----------------------------------------
Total Dipole Moment    :      0.48058       0.90614       0.08003
                        -----------------------------------------
Magnitude (a.u.)       :      1.02881
Magnitude (Debye)      :      2.61502

Rotational constants in cm-1:     0.053190     0.021675     0.019574
Rotational constants in MHz :  1594.596091   649.785601   586.811152

                             ****ORCA TERMINATED NORMALLY****
TOTAL RUN TIME: 0 days 0 hours 0 minutes 55 seconds 146 msec
