                         Program Version 4.2.0 -  RELEASE  -
|  1> # 12meoh.boyd.etal.mol0,4,5
|  2> ! MP2 def2-TZVP EnGrad TightSCF
|  3>
|  4> %pal
|  5>     nprocs 6
|  6> end
|  7>
|  8> %maxcore 8000
|  9>
| 10> %scf
| 11>     ConvForced true
| 12> end
| 13>
| 14> *xyz 0 1
| 15> O  -1.776108874  -2.741384797  -1.019308298
| 16> H  -2.520094035  -2.452295987  -0.420778302
| 17> C  -2.174025166  -3.952700964  -1.647004581
| 18> H  -1.359803895  -4.272673416  -2.304149236
| 19> H  -3.075973971  -3.808692420  -2.256751112
| 20> H  -2.370225393  -4.752784761  -0.918966137
| 21> O  -1.358578914   1.232360421   1.189721000
| 22> H  -1.058250183   1.216459361   0.238591307
| 23> C  -0.389763452   1.957872567   1.943072362
| 24> H  -0.747220771   2.012806578   2.975200343
| 25> H  -0.260410585   2.982763209   1.565366540
| 26> H   0.585220638   1.453754179   1.934070793
| 27> O  -0.662721750   1.449094618  -1.383082065
| 28> H   0.064188300   2.119867608  -1.465650660
| 29> C  -0.353319239   0.341218776  -2.229326771
| 30> H  -1.072358530  -0.454743281  -2.019906495
| 31> H   0.657636746  -0.044472139  -2.042736771
| 32> H  -0.434616607   0.624733901  -3.287793021
| 33> *
| 34>
| 35>                          ****END OF INPUT****

CARTESIAN COORDINATES (ANGSTROEM)
---------------------------------
  O     -1.776109   -2.741385   -1.019308
  H     -2.520094   -2.452296   -0.420778
  C     -2.174025   -3.952701   -1.647005
  H     -1.359804   -4.272673   -2.304149
  H     -3.075974   -3.808692   -2.256751
  H     -2.370225   -4.752785   -0.918966
  O     -1.358579    1.232360    1.189721
  H     -1.058250    1.216459    0.238591
  C     -0.389763    1.957873    1.943072
  H     -0.747221    2.012807    2.975200
  H     -0.260411    2.982763    1.565367
  H      0.585221    1.453754    1.934071
  O     -0.662722    1.449095   -1.383082
  H      0.064188    2.119868   -1.465651
  C     -0.353319    0.341219   -2.229327
  H     -1.072359   -0.454743   -2.019906
  H      0.657637   -0.044472   -2.042737
  H     -0.434617    0.624734   -3.287793

 Total Charge           Charge          ....    0
 Multiplicity           Mult            ....    1
 Number of Electrons    NEL             ....   54
 Basis Dimension        Dim             ....  258

ORBITAL ENERGIES
----------------

  NO   OCC          E(Eh)            E(eV)
   0   2.0000     -20.580678      -560.0287
   1   2.0000     -20.560624      -559.4830
   2   2.0000     -20.509127      -558.0817
   3   2.0000     -11.276145      -306.8395
   4   2.0000     -11.273673      -306.7722
   5   2.0000     -11.248580      -306.0894
   6   2.0000      -1.372853       -37.3572
   7   2.0000      -1.349966       -36.7344
   8   2.0000      -1.304825       -35.5061
   9   2.0000      -0.930377       -25.3168
  10   2.0000      -0.921315       -25.0702
  11   2.0000      -0.893955       -24.3258
  12   2.0000      -0.704893       -19.1811
  13   2.0000      -0.684159       -18.6169
  14   2.0000      -0.667103       -18.1528
  15   2.0000      -0.624821       -17.0023
  16   2.0000      -0.620211       -16.8768
  17   2.0000      -0.601957       -16.3801
  18   2.0000      -0.592087       -16.1115
  19   2.0000      -0.587806       -15.9950
  20   2.0000      -0.557674       -15.1751
  21   2.0000      -0.518252       -14.1024
  22   2.0000      -0.501646       -13.6505
  23   2.0000      -0.479539       -13.0489
  24   2.0000      -0.452413       -12.3108
  25   2.0000      -0.450248       -12.2519
  26   2.0000      -0.413288       -11.2461
  27   0.0000       0.119762         3.2589
  28   0.0000       0.134855         3.6696
  29   0.0000       0.171623         4.6701
  30   0.0000       0.175614         4.7787
  31   0.0000       0.185246         5.0408

MULLIKEN ATOMIC CHARGES
-----------------------
   0 O :   -0.497507
   1 H :    0.333707
   2 C :   -0.174145
   3 H :    0.126947
   4 H :    0.111488
   5 H :    0.113240
   6 O :   -0.530242
   7 H :    0.357797
   8 C :   -0.181723
   9 H :    0.122168
  10 H :    0.093326
  11 H :    0.097962
  12 O :   -0.522201
  13 H :    0.337765
  14 C :   -0.180639
  15 H :    0.160107
  16 H :    0.117459
  17 H :    0.114491
Sum of atomic charges:    0.0000000

LOEWDIN ATOMIC CHARGES
----------------------
   0 O :   -0.103386
   1 H :    0.197617
   2 C :   -0.384207
   3 H :    0.109564
   4 H :    0.095741
   5 H :    0.097763
   6 O :   -0.127606
   7 H :    0.159802
   8 C :   -0.398225
   9 H :    0.106153
  10 H :    0.088953
  11 H :    0.089967
  12 O :   -0.077061
  13 H :    0.195040
  14 C :   -0.368976
  15 H :    0.116523
  16 H :    0.101304
  17 H :    0.101034

  Mayer bond orders larger than 0.100000
B(  0-O ,  1-H ) :   0.8326 B(  0-O ,  2-C ) :   0.9182 B(  2-C ,  3-H ) :   0.9395
B(  2-C ,  4-H ) :   0.9399 B(  2-C ,  5-H ) :   0.9343 B(  6-O ,  7-H ) :   0.7848
B(  6-O ,  8-C ) :   0.9489 B(  8-C ,  9-H ) :   0.9427 B(  8-C , 10-H ) :   0.9381
B(  8-C , 11-H ) :   0.9374 B( 12-O , 13-H ) :   0.8308 B( 12-O , 14-C ) :   0.8656
B( 14-C , 15-H ) :   0.9300 B( 14-C , 16-H ) :   0.9408 B( 14-C , 17-H ) :   0.9336

MP2 TOTAL ENERGY:     -346.531315212 Eh
FINAL SINGLE POINT ENERGY      -346.531315212316

DIPOLE MOMENT
-------------
                                X             Y             Z
Electronic contribution:     -1.19710       1.67618       0.61413
Nuclear contribution   :      1.70569      -1.95871      -1.56658
                        -----------------------------------------
Total Dipole Moment    :      0.50859      -0.28253      -0.95245
                        -----------------------------------------
Magnitude (a.u.)       :      1.11609
Magnitude (Debye)      :      2.83687

Rotational constants in cm-1:     0.099445     0.027370     0.022169
Rotational constants in MHz :  2981.272145   820.529564   664.617345

                             ****ORCA TERMINATED NORMALLY****
TOTAL RUN TIME: 0 days 0 hours 1 minutes 20 seconds 464 msec
