                         Program Version 4.2.0 -  RELEASE  -
|  1> # 12h2o.su.etal.mol0,2,3,5,8,10
|  2> ! MP2 def2-TZVP EnGrad TightSCF
|  3>
|  4> %pal
|  5>     nprocs 6
|  6> end
|  7>
|  8> %maxcore 8000
|  9>
| 10> %scf
| 11>     ConvForced true
| 12> end
| 13>
| 14> *xyz 0 1
| 15> O   1.794470000   0.923410000   2.768350000
| 16> H   2.338250000   1.359750000   3.430940000
| 17> H   0.879480000   1.303000000   2.865760000
| 18> O   0.923410000  -1.794470000  -2.768350000
| 19> H   1.359750000  -2.338250000  -3.430940000
| 20> H   1.303000000  -0.879480000  -2.865760000
| 21> O  -1.752130000  -0.741530000  -2.896280000
| 22> H  -2.036450000  -0.920500000  -1.984040000
| 23> H  -0.921210000  -1.242140000  -2.984230000
| 24> O   0.885520000  -1.737840000   0.052730000
| 25> H   1.284090000  -0.839590000   0.017130000
| 26> H   1.032320000  -2.090180000  -0.841890000
| 27> O   1.752130000   0.741530000  -2.896280000
| 28> H   2.036450000   0.920500000  -1.984040000
| 29> H   0.921210000   1.242140000  -2.984230000
| 30> O  -0.923410000   1.794470000  -2.768350000
| 31> H  -1.359750000   2.338250000  -3.430940000
| 32> H  -1.303000000   0.879480000  -2.865760000
| 33> *
| 34>
| 35>                          ****END OF INPUT****

CARTESIAN COORDINATES (ANGSTROEM)
---------------------------------
  O      1.794470    0.923410    2.768350
  H      2.338250    1.359750    3.430940
  H      0.879480    1.303000    2.865760
  O      0.923410   -1.794470   -2.768350
  H      1.359750   -2.338250   -3.430940
  H      1.303000   -0.879480   -2.865760
  O     -1.752130   -0.741530   -2.896280
  H     -2.036450   -0.920500   -1.984040
  H     -0.921210   -1.242140   -2.984230
  O      0.885520   -1.737840    0.052730
  H      1.284090   -0.839590    0.017130
  H      1.032320   -2.090180   -0.841890
  O      1.752130    0.741530   -2.896280
  H      2.036450    0.920500   -1.984040
  H      0.921210    1.242140   -2.984230
  O     -0.923410    1.794470   -2.768350
  H     -1.359750    2.338250   -3.430940
  H     -1.303000    0.879480   -2.865760

 Total Charge           Charge          ....    0
 Multiplicity           Mult            ....    1
 Number of Electrons    NEL             ....   60
 Basis Dimension        Dim             ....  258

ORBITAL ENERGIES
----------------

  NO   OCC          E(Eh)            E(eV)
   0   2.0000     -20.579419      -559.9945
   1   2.0000     -20.571064      -559.7671
   2   2.0000     -20.569775      -559.7320
   3   2.0000     -20.564331      -559.5839
   4   2.0000     -20.551125      -559.2245
   5   2.0000     -20.529445      -558.6346
   6   2.0000      -1.375104       -37.4185
   7   2.0000      -1.361753       -37.0552
   8   2.0000      -1.351376       -36.7728
   9   2.0000      -1.339579       -36.4518
  10   2.0000      -1.331168       -36.2229
  11   2.0000      -1.308222       -35.5985
  12   2.0000      -0.737129       -20.0583
  13   2.0000      -0.731589       -19.9075
  14   2.0000      -0.719964       -19.5912
  15   2.0000      -0.713533       -19.4162
  16   2.0000      -0.707967       -19.2647
  17   2.0000      -0.678382       -18.4597
  18   2.0000      -0.631507       -17.1842
  19   2.0000      -0.602342       -16.3906
  20   2.0000      -0.594546       -16.1784
  21   2.0000      -0.575720       -15.6662
  22   2.0000      -0.567852       -15.4520
  23   2.0000      -0.551911       -15.0183
  24   2.0000      -0.521768       -14.1980
  25   2.0000      -0.513146       -13.9634
  26   2.0000      -0.511012       -13.9053
  27   2.0000      -0.507449       -13.8084
  28   2.0000      -0.501606       -13.6494
  29   2.0000      -0.474980       -12.9249
  30   0.0000       0.103227         2.8089
  31   0.0000       0.126199         3.4341
  32   0.0000       0.150372         4.0918
  33   0.0000       0.152752         4.1566
  34   0.0000       0.170944         4.6516

MULLIKEN ATOMIC CHARGES
-----------------------
   0 O :   -0.682463
   1 H :    0.339181
   2 H :    0.345347
   3 O :   -0.754999
   4 H :    0.351507
   5 H :    0.379961
   6 O :   -0.710241
   7 H :    0.360334
   8 H :    0.378752
   9 O :   -0.693229
  10 H :    0.318696
  11 H :    0.361911
  12 O :   -0.706361
  13 H :    0.351527
  14 H :    0.382210
  15 O :   -0.744086
  16 H :    0.342237
  17 H :    0.379716
Sum of atomic charges:   -0.0000000

LOEWDIN ATOMIC CHARGES
----------------------
   0 O :   -0.338425
   1 H :    0.158251
   2 H :    0.182061
   3 O :   -0.314823
   4 H :    0.159484
   5 H :    0.145238
   6 O :   -0.283176
   7 H :    0.173918
   8 H :    0.153868
   9 O :   -0.345901
  10 H :    0.160197
  11 H :    0.145698
  12 O :   -0.280773
  13 H :    0.168716
  14 H :    0.156014
  15 O :   -0.341577
  16 H :    0.156138
  17 H :    0.145093

  Mayer bond orders larger than 0.100000
B(  0-O ,  1-H ) :   0.8525 B(  0-O ,  2-H ) :   0.8438 B(  3-O ,  4-H ) :   0.8397
B(  3-O ,  5-H ) :   0.7353 B(  5-H , 12-O ) :   0.1117 B(  6-O ,  7-H ) :   0.8348
B(  6-O ,  8-H ) :   0.7897 B(  6-O , 17-H ) :   0.1096 B(  9-O , 10-H ) :   0.8582
B(  9-O , 11-H ) :   0.8200 B( 12-O , 13-H ) :   0.8405 B( 12-O , 14-H ) :   0.7765
B( 15-O , 16-H ) :   0.8477 B( 15-O , 17-H ) :   0.7485

MP2 TOTAL ENERGY:     -457.930850993 Eh
FINAL SINGLE POINT ENERGY      -457.930850992628

DIPOLE MOMENT
-------------
                                X             Y             Z
Electronic contribution:     -0.05660      -0.18889      -0.13303
Nuclear contribution   :      0.14496       1.13354      -0.03466
                        -----------------------------------------
Total Dipole Moment    :      0.08836       0.94465      -0.16769
                        -----------------------------------------
Magnitude (a.u.)       :      0.96348
Magnitude (Debye)      :      2.44898

Rotational constants in cm-1:     0.050675     0.024135     0.021532
Rotational constants in MHz :  1519.209097   723.553293   645.517075

                             ****ORCA TERMINATED NORMALLY****
TOTAL RUN TIME: 0 days 0 hours 1 minutes 2 seconds 694 msec
