                         Program Version 4.2.0 -  RELEASE  -
|  1> # 12h2o.su.etal.mol2,4,5,7,10,11
|  2> ! MP2 def2-TZVP EnGrad TightSCF
|  3>
|  4> %pal
|  5>     nprocs 6
|  6> end
|  7>
|  8> %maxcore 8000
|  9>
| 10> %scf
| 11>     ConvForced true
| 12> end
| 13>
| 14> *xyz 0 1
| 15> O   0.923410000  -1.794470000  -2.768350000
| 16> H   1.359750000  -2.338250000  -3.430940000
| 17> H   1.303000000  -0.879480000  -2.865760000
| 18> O  -0.885520000   1.737840000   0.052730000
| 19> H  -1.032320000   2.090180000  -0.841890000
| 20> H  -1.284090000   0.839590000   0.017130000
| 21> O   0.885520000  -1.737840000   0.052730000
| 22> H   1.284090000  -0.839590000   0.017130000
| 23> H   1.032320000  -2.090180000  -0.841890000
| 24> O  -1.737840000  -0.885520000  -0.052730000
| 25> H  -2.090180000  -1.032320000   0.841890000
| 26> H  -0.839590000  -1.284090000  -0.017130000
| 27> O  -0.923410000   1.794470000  -2.768350000
| 28> H  -1.359750000   2.338250000  -3.430940000
| 29> H  -1.303000000   0.879480000  -2.865760000
| 30> O  -0.741530000   1.752130000   2.896280000
| 31> H  -0.920500000   2.036450000   1.984040000
| 32> H  -1.242140000   0.921210000   2.984230000
| 33> *
| 34>
| 35>                          ****END OF INPUT****

CARTESIAN COORDINATES (ANGSTROEM)
---------------------------------
  O      0.923410   -1.794470   -2.768350
  H      1.359750   -2.338250   -3.430940
  H      1.303000   -0.879480   -2.865760
  O     -0.885520    1.737840    0.052730
  H     -1.032320    2.090180   -0.841890
  H     -1.284090    0.839590    0.017130
  O      0.885520   -1.737840    0.052730
  H      1.284090   -0.839590    0.017130
  H      1.032320   -2.090180   -0.841890
  O     -1.737840   -0.885520   -0.052730
  H     -2.090180   -1.032320    0.841890
  H     -0.839590   -1.284090   -0.017130
  O     -0.923410    1.794470   -2.768350
  H     -1.359750    2.338250   -3.430940
  H     -1.303000    0.879480   -2.865760
  O     -0.741530    1.752130    2.896280
  H     -0.920500    2.036450    1.984040
  H     -1.242140    0.921210    2.984230

 Total Charge           Charge          ....    0
 Multiplicity           Mult            ....    1
 Number of Electrons    NEL             ....   60
 Basis Dimension        Dim             ....  258

ORBITAL ENERGIES
----------------

  NO   OCC          E(Eh)            E(eV)
   0   2.0000     -20.606729      -560.7376
   1   2.0000     -20.590749      -560.3028
   2   2.0000     -20.572082      -559.7948
   3   2.0000     -20.558562      -559.4269
   4   2.0000     -20.518135      -558.3268
   5   2.0000     -20.514942      -558.2400
   6   2.0000      -1.385130       -37.6913
   7   2.0000      -1.368664       -37.2433
   8   2.0000      -1.358599       -36.9694
   9   2.0000      -1.341079       -36.4926
  10   2.0000      -1.306621       -35.5550
  11   2.0000      -1.294324       -35.2204
  12   2.0000      -0.751620       -20.4526
  13   2.0000      -0.735278       -20.0079
  14   2.0000      -0.718801       -19.5596
  15   2.0000      -0.711389       -19.3579
  16   2.0000      -0.686250       -18.6738
  17   2.0000      -0.663553       -18.0562
  18   2.0000      -0.628024       -17.0894
  19   2.0000      -0.612123       -16.6567
  20   2.0000      -0.601217       -16.3599
  21   2.0000      -0.583259       -15.8713
  22   2.0000      -0.563248       -15.3268
  23   2.0000      -0.545386       -14.8407
  24   2.0000      -0.538566       -14.6551
  25   2.0000      -0.520671       -14.1682
  26   2.0000      -0.512021       -13.9328
  27   2.0000      -0.496436       -13.5087
  28   2.0000      -0.470486       -12.8026
  29   2.0000      -0.460895       -12.5416
  30   0.0000       0.084922         2.3108
  31   0.0000       0.121612         3.3092
  32   0.0000       0.128358         3.4928
  33   0.0000       0.160912         4.3786
  34   0.0000       0.188329         5.1247

MULLIKEN ATOMIC CHARGES
-----------------------
   0 O :   -0.703027
   1 H :    0.357398
   2 H :    0.360768
   3 O :   -0.745786
   4 H :    0.364549
   5 H :    0.335947
   6 O :   -0.702961
   7 H :    0.352113
   8 H :    0.379219
   9 O :   -0.714414
  10 H :    0.341585
  11 H :    0.377879
  12 O :   -0.703063
  13 H :    0.350440
  14 H :    0.363668
  15 O :   -0.696433
  16 H :    0.375643
  17 H :    0.306477
Sum of atomic charges:   -0.0000000

LOEWDIN ATOMIC CHARGES
----------------------
   0 O :   -0.311615
   1 H :    0.166077
   2 H :    0.187296
   3 O :   -0.351325
   4 H :    0.146916
   5 H :    0.135049
   6 O :   -0.296364
   7 H :    0.175689
   8 H :    0.153466
   9 O :   -0.312532
  10 H :    0.162951
  11 H :    0.147143
  12 O :   -0.313887
  13 H :    0.162777
  14 H :    0.187382
  15 O :   -0.343652
  16 H :    0.153415
  17 H :    0.151215

  Mayer bond orders larger than 0.100000
B(  0-O ,  1-H ) :   0.8386 B(  0-O ,  2-H ) :   0.8280 B(  3-O ,  4-H ) :   0.8207
B(  3-O ,  5-H ) :   0.7828 B(  6-O ,  7-H ) :   0.8348 B(  6-O ,  8-H ) :   0.8030
B(  9-O , 10-H ) :   0.8468 B(  9-O , 11-H ) :   0.7678 B( 12-O , 13-H ) :   0.8425
B( 12-O , 14-H ) :   0.8264 B( 15-O , 16-H ) :   0.8095 B( 15-O , 17-H ) :   0.8696

MP2 TOTAL ENERGY:     -457.921326113 Eh
FINAL SINGLE POINT ENERGY      -457.921326113001

DIPOLE MOMENT
-------------
                                X             Y             Z
Electronic contribution:      0.26578      -0.18804      -0.18158
Nuclear contribution   :     -0.11126      -0.90891      -2.72557
                        -----------------------------------------
Total Dipole Moment    :      0.15452      -1.09695      -2.90715
                        -----------------------------------------
Magnitude (a.u.)       :      3.11106
Magnitude (Debye)      :      7.90768

Rotational constants in cm-1:     0.052788     0.030453     0.022389
Rotational constants in MHz :  1582.546651   912.950716   671.205647

                             ****ORCA TERMINATED NORMALLY****
TOTAL RUN TIME: 0 days 0 hours 1 minutes 5 seconds 85 msec
