                         Program Version 3.0.3 - RELEASE   -
|  1> ! wB97X-D3 Def2-TZVP def2-TZVP/J RIJCOSX TightSCF Grid4
|  2>
|  3> %pal nprocs 12 end
|  4>
|  5> %scf
|  6>         maxiter 400
|  7> end
|  8>
|  9> * xyz  0  1
| 10> O  0.919606	-0.137971	-1.063021
| 11> H  1.345167	0.718229	-0.908701
| 12> H  0.064874	0.107680	-1.449962
| 13> O  -0.921796	0.097836	1.042596
| 14> H  -0.150256	-0.200849	0.528294
| 15> H  -1.110747	-0.649246	1.625272
| 16> **                         ****END OF INPUT****

CARTESIAN COORDINATES (ANGSTROEM)
---------------------------------
  O      0.919606   -0.137971   -1.063021
  H      1.345167    0.718229   -0.908701
  H      0.064874    0.107680   -1.449962
  O     -0.921796    0.097836    1.042596
  H     -0.150256   -0.200849    0.528294
  H     -1.110747   -0.649246    1.625272

 Total Charge           Charge          ....    0
 Multiplicity           Mult            ....    1
 Number of Electrons    NEL             ....   20
 Basis Dimension        Dim             ....   86

ORBITAL ENERGIES
----------------

  NO   OCC          E(Eh)            E(eV)
   0   2.0000     -19.258328      -524.0457
   1   2.0000     -19.212530      -522.7995
   2   2.0000      -1.151387       -31.3308
   3   2.0000      -1.105180       -30.0735
   4   2.0000      -0.651130       -17.7182
   5   2.0000      -0.613653       -16.6983
   6   2.0000      -0.518840       -14.1183
   7   2.0000      -0.478902       -13.0316
   8   2.0000      -0.434951       -11.8356
   9   2.0000      -0.398519       -10.8442
  10   0.0000       0.094081         2.5601
  11   0.0000       0.144869         3.9421
  12   0.0000       0.174055         4.7363
  13   0.0000       0.254538         6.9263
  14   0.0000       0.420242        11.4354

MULLIKEN ATOMIC CHARGES
-----------------------
   0 O :   -0.660981
   1 H :    0.347180
   2 H :    0.347960
   3 O :   -0.674150
   4 H :    0.318245
   5 H :    0.321746
Sum of atomic charges:    0.0000000

LOEWDIN ATOMIC CHARGES
----------------------
   0 O :   -0.285138
   1 H :    0.166393
   2 H :    0.166542
   3 O :   -0.338461
   4 H :    0.136228
   5 H :    0.154436

  Mayer bond orders larger than 0.1
B(  0-O ,  1-H ) :   0.8896 B(  0-O ,  2-H ) :   0.8863 B(  3-O ,  4-H ) :   0.8648
B(  3-O ,  5-H ) :   0.9078

Dispersion correction           -0.000549095
FINAL SINGLE POINT ENERGY      -152.885783487544

DIPOLE MOMENT
-------------
                                X             Y             Z
Electronic contribution:      0.09534      -0.00460      -0.12265
Nuclear contribution   :      0.12770       0.04668      -0.13671
                        -----------------------------------------
Total Dipole Moment    :      0.22304       0.04208      -0.25936
                        -----------------------------------------
Magnitude (a.u.)       :      0.34466
Magnitude (Debye)      :      0.87605

                             ****ORCA TERMINATED NORMALLY****
TOTAL RUN TIME: 0 days 0 hours 0 minutes 48 seconds 468 msec
