                         Program Version 3.0.3 - RELEASE   -
|  1> ! wB97X-D3 MA-Def2-TZVP def2-TZVP/J RIJCOSX TightSCF Grid4
|  2>
|  3> %pal nprocs 1 end
|  4>
|  5> %scf
|  6>         maxiter 400
|  7> end
|  8>
|  9> %cosmo
| 10>         SMD true
| 11>         solvent "WATER"
| 12> end
| 13>
| 14> * xyz  0  1
| 15> O  0.860831	-0.127842	-0.930763
| 16> H  1.296388	0.739539	-0.960785
| 17> H  0.158869	-0.036338	-1.595968
| 18> O  -0.808401	0.114159	1.314382
| 19> H  -0.188220	0.026928	0.557695
| 20> H  -1.172620	-0.780766	1.389917
| 21> **                         ****END OF INPUT****

CARTESIAN COORDINATES (ANGSTROEM)
---------------------------------
  O      0.860831   -0.127842   -0.930763
  H      1.296388    0.739539   -0.960785
  H      0.158869   -0.036338   -1.595968
  O     -0.808401    0.114159    1.314382
  H     -0.188220    0.026928    0.557695
  H     -1.172620   -0.780766    1.389917

 Total Charge           Charge          ....    0
 Multiplicity           Mult            ....    1
 Number of Electrons    NEL             ....   20
 Basis Dimension        Dim             ....   94

ORBITAL ENERGIES
----------------

  NO   OCC          E(Eh)            E(eV)
   0   2.0000     -19.247952      -523.7634
   1   2.0000     -19.225377      -523.1491
   2   2.0000      -1.137817       -30.9616
   3   2.0000      -1.112253       -30.2659
   4   2.0000      -0.631456       -17.1828
   5   2.0000      -0.617355       -16.7991
   6   2.0000      -0.518994       -14.1225
   7   2.0000      -0.493887       -13.4394
   8   2.0000      -0.429234       -11.6801
   9   2.0000      -0.415115       -11.2958
  10   0.0000       0.079996         2.1768
  11   0.0000       0.120308         3.2737
  12   0.0000       0.138285         3.7629
  13   0.0000       0.142932         3.8894
  14   0.0000       0.171236         4.6596

MULLIKEN ATOMIC CHARGES
-----------------------
   0 O :   -0.782215
   1 H :    0.408777
   2 H :    0.407856
   3 O :   -0.807713
   4 H :    0.381131
   5 H :    0.392163
Sum of atomic charges:   -0.0000000

LOEWDIN ATOMIC CHARGES
----------------------
   0 O :   -0.374682
   1 H :    0.216296
   2 H :    0.216345
   3 O :   -0.447258
   4 H :    0.183818
   5 H :    0.205481

  Mayer bond orders larger than 0.1
B(  0-O ,  1-H ) :   0.8484 B(  0-O ,  2-H ) :   0.8491 B(  3-O ,  4-H ) :   0.8191
B(  3-O ,  5-H ) :   0.8540

Dispersion correction           -0.000554042
FINAL SINGLE POINT ENERGY      -152.911290619180

DIPOLE MOMENT
-------------
                                X             Y             Z
Electronic contribution:      0.12170      -0.01684      -0.18612
Nuclear contribution   :     -0.00869      -0.01937      -1.14564
                        -----------------------------------------
Total Dipole Moment    :      0.11301      -0.03621      -1.33177
                        -----------------------------------------
Magnitude (a.u.)       :      1.33704
Magnitude (Debye)      :      3.39849

                             ****ORCA TERMINATED NORMALLY****
TOTAL RUN TIME: 0 days 0 hours 0 minutes 16 seconds 974 msec
