                         Program Version 3.0.3 - RELEASE   -
|  1> ! wB97X-D3 MA-Def2-TZVP def2-TZVP/J RIJCOSX TightSCF Grid4
|  2>
|  3> %pal nprocs 1 end
|  4>
|  5> %scf
|  6>         maxiter 400
|  7> end
|  8>
|  9> * xyz  0  1
| 10> O  0.919606	-0.137971	-1.063021
| 11> H  1.345167	0.718229	-0.908701
| 12> H  0.064874	0.107680	-1.449962
| 13> O  -0.921796	0.097836	1.042596
| 14> H  -0.150256	-0.200849	0.528294
| 15> H  -1.110747	-0.649246	1.625272
| 16> **                         ****END OF INPUT****

CARTESIAN COORDINATES (ANGSTROEM)
---------------------------------
  O      0.919606   -0.137971   -1.063021
  H      1.345167    0.718229   -0.908701
  H      0.064874    0.107680   -1.449962
  O     -0.921796    0.097836    1.042596
  H     -0.150256   -0.200849    0.528294
  H     -1.110747   -0.649246    1.625272

 Total Charge           Charge          ....    0
 Multiplicity           Mult            ....    1
 Number of Electrons    NEL             ....   20
 Basis Dimension        Dim             ....   94

ORBITAL ENERGIES
----------------

  NO   OCC          E(Eh)            E(eV)
   0   2.0000     -19.262309      -524.1541
   1   2.0000     -19.220650      -523.0205
   2   2.0000      -1.154322       -31.4107
   3   2.0000      -1.110762       -30.2254
   4   2.0000      -0.653872       -17.7928
   5   2.0000      -0.618747       -16.8370
   6   2.0000      -0.521795       -14.1988
   7   2.0000      -0.483904       -13.1677
   8   2.0000      -0.438278       -11.9261
   9   2.0000      -0.403951       -10.9921
  10   0.0000       0.065325         1.7776
  11   0.0000       0.105695         2.8761
  12   0.0000       0.128393         3.4938
  13   0.0000       0.141166         3.8413
  14   0.0000       0.169126         4.6022

MULLIKEN ATOMIC CHARGES
-----------------------
   0 O :   -0.676838
   1 H :    0.355576
   2 H :    0.355344
   3 O :   -0.693832
   4 H :    0.334282
   5 H :    0.325468
Sum of atomic charges:   -0.0000000

LOEWDIN ATOMIC CHARGES
----------------------
   0 O :   -0.352294
   1 H :    0.193871
   2 H :    0.196611
   3 O :   -0.396456
   4 H :    0.176125
   5 H :    0.182143

  Mayer bond orders larger than 0.1
B(  0-O ,  1-H ) :   0.8901 B(  0-O ,  2-H ) :   0.8883 B(  3-O ,  4-H ) :   0.8660
B(  3-O ,  5-H ) :   0.9008

Dispersion correction           -0.000549095
FINAL SINGLE POINT ENERGY      -152.887981245330

DIPOLE MOMENT
-------------
                                X             Y             Z
Electronic contribution:      0.09759      -0.01458      -0.11256
Nuclear contribution   :      0.12770       0.04668      -0.13671
                        -----------------------------------------
Total Dipole Moment    :      0.22529       0.03210      -0.24927
                        -----------------------------------------
Magnitude (a.u.)       :      0.33752
Magnitude (Debye)      :      0.85792

                             ****ORCA TERMINATED NORMALLY****
TOTAL RUN TIME: 0 days 0 hours 0 minutes 20 seconds 690 msec
