                         Program Version 4.2.0 -  RELEASE  -
|  1> # 12h2o.su.etal.mol1,3,4,6,8,9,10,11
|  2> ! MP2 def2-TZVP EnGrad TightSCF
|  3>
|  4> %pal
|  5>     nprocs 6
|  6> end
|  7>
|  8> %maxcore 8000
|  9>
| 10> %scf
| 11>     ConvForced true
| 12> end
| 13>
| 14> *xyz 0 1
| 15> O  -1.794470000  -0.923410000   2.768350000
| 16> H  -2.338250000  -1.359750000   3.430940000
| 17> H  -0.879480000  -1.303000000   2.865760000
| 18> O  -1.752130000  -0.741530000  -2.896280000
| 19> H  -2.036450000  -0.920500000  -1.984040000
| 20> H  -0.921210000  -1.242140000  -2.984230000
| 21> O  -0.885520000   1.737840000   0.052730000
| 22> H  -1.032320000   2.090180000  -0.841890000
| 23> H  -1.284090000   0.839590000   0.017130000
| 24> O   1.737840000   0.885520000  -0.052730000
| 25> H   2.090180000   1.032320000   0.841890000
| 26> H   0.839590000   1.284090000  -0.017130000
| 27> O   1.752130000   0.741530000  -2.896280000
| 28> H   2.036450000   0.920500000  -1.984040000
| 29> H   0.921210000   1.242140000  -2.984230000
| 30> O   0.741530000  -1.752130000   2.896280000
| 31> H   0.920500000  -2.036450000   1.984040000
| 32> H   1.242140000  -0.921210000   2.984230000
| 33> O  -0.923410000   1.794470000  -2.768350000
| 34> H  -1.359750000   2.338250000  -3.430940000
| 35> H  -1.303000000   0.879480000  -2.865760000
| 36> O  -0.741530000   1.752130000   2.896280000
| 37> H  -0.920500000   2.036450000   1.984040000
| 38> H  -1.242140000   0.921210000   2.984230000
| 39> *
| 40>
| 41>                          ****END OF INPUT****

CARTESIAN COORDINATES (ANGSTROEM)
---------------------------------
  O     -1.794470   -0.923410    2.768350
  H     -2.338250   -1.359750    3.430940
  H     -0.879480   -1.303000    2.865760
  O     -1.752130   -0.741530   -2.896280
  H     -2.036450   -0.920500   -1.984040
  H     -0.921210   -1.242140   -2.984230
  O     -0.885520    1.737840    0.052730
  H     -1.032320    2.090180   -0.841890
  H     -1.284090    0.839590    0.017130
  O      1.737840    0.885520   -0.052730
  H      2.090180    1.032320    0.841890
  H      0.839590    1.284090   -0.017130
  O      1.752130    0.741530   -2.896280
  H      2.036450    0.920500   -1.984040
  H      0.921210    1.242140   -2.984230
  O      0.741530   -1.752130    2.896280
  H      0.920500   -2.036450    1.984040
  H      1.242140   -0.921210    2.984230
  O     -0.923410    1.794470   -2.768350
  H     -1.359750    2.338250   -3.430940
  H     -1.303000    0.879480   -2.865760
  O     -0.741530    1.752130    2.896280
  H     -0.920500    2.036450    1.984040
  H     -1.242140    0.921210    2.984230

 Total Charge           Charge          ....    0
 Multiplicity           Mult            ....    1
 Number of Electrons    NEL             ....   80
 Basis Dimension        Dim             ....  344

ORBITAL ENERGIES
----------------

  NO   OCC          E(Eh)            E(eV)
   0   2.0000     -20.621207      -561.1316
   1   2.0000     -20.606721      -560.7374
   2   2.0000     -20.592931      -560.3621
   3   2.0000     -20.581543      -560.0523
   4   2.0000     -20.556374      -559.3674
   5   2.0000     -20.554022      -559.3034
   6   2.0000     -20.514949      -558.2402
   7   2.0000     -20.508913      -558.0759
   8   2.0000      -1.407607       -38.3029
   9   2.0000      -1.392550       -37.8932
  10   2.0000      -1.381912       -37.6038
  11   2.0000      -1.364606       -37.1328
  12   2.0000      -1.340409       -36.4744
  13   2.0000      -1.336915       -36.3793
  14   2.0000      -1.299970       -35.3740
  15   2.0000      -1.293871       -35.2080
  16   2.0000      -0.763226       -20.7684
  17   2.0000      -0.750214       -20.4144
  18   2.0000      -0.749090       -20.3838
  19   2.0000      -0.741042       -20.1648
  20   2.0000      -0.725284       -19.7360
  21   2.0000      -0.710801       -19.3419
  22   2.0000      -0.679094       -18.4791
  23   2.0000      -0.673259       -18.3203
  24   2.0000      -0.650938       -17.7129
  25   2.0000      -0.633767       -17.2457
  26   2.0000      -0.624028       -16.9807
  27   2.0000      -0.603204       -16.4140
  28   2.0000      -0.592437       -16.1210
  29   2.0000      -0.585808       -15.9406
  30   2.0000      -0.556640       -15.1469
  31   2.0000      -0.549928       -14.9643
  32   2.0000      -0.538262       -14.6469
  33   2.0000      -0.532649       -14.4941
  34   2.0000      -0.527127       -14.3439
  35   2.0000      -0.517629       -14.0854
  36   2.0000      -0.501991       -13.6599
  37   2.0000      -0.501129       -13.6364
  38   2.0000      -0.464995       -12.6532
  39   2.0000      -0.458877       -12.4867
  40   0.0000       0.072096         1.9618
  41   0.0000       0.103566         2.8182
  42   0.0000       0.136284         3.7085
  43   0.0000       0.147338         4.0093
  44   0.0000       0.158162         4.3038

MULLIKEN ATOMIC CHARGES
-----------------------
   0 O :   -0.744352
   1 H :    0.343538
   2 H :    0.378303
   3 O :   -0.682688
   4 H :    0.354438
   5 H :    0.379009
   6 O :   -0.717025
   7 H :    0.390781
   8 H :    0.340544
   9 O :   -0.731602
  10 H :    0.335464
  11 H :    0.362669
  12 O :   -0.733369
  13 H :    0.370682
  14 H :    0.343993
  15 O :   -0.684029
  16 H :    0.361088
  17 H :    0.366524
  18 O :   -0.751927
  19 H :    0.356098
  20 H :    0.382306
  21 O :   -0.735224
  22 H :    0.365377
  23 H :    0.349401
Sum of atomic charges:    0.0000000

LOEWDIN ATOMIC CHARGES
----------------------
   0 O :   -0.343603
   1 H :    0.156766
   2 H :    0.144646
   3 O :   -0.265195
   4 H :    0.171543
   5 H :    0.184437
   6 O :   -0.279753
   7 H :    0.156512
   8 H :    0.169348
   9 O :   -0.341583
  10 H :    0.159710
  11 H :    0.144190
  12 O :   -0.357788
  13 H :    0.151195
  14 H :    0.138596
  15 O :   -0.268368
  16 H :    0.175313
  17 H :    0.177707
  18 O :   -0.312331
  19 H :    0.162119
  20 H :    0.145828
  21 O :   -0.357328
  22 H :    0.146474
  23 H :    0.141566

  Mayer bond orders larger than 0.100000
B(  0-O ,  1-H ) :   0.8472 B(  0-O ,  2-H ) :   0.7639 B(  3-O ,  4-H ) :   0.8390
B(  3-O ,  5-H ) :   0.8186 B(  6-O ,  7-H ) :   0.7851 B(  6-O ,  8-H ) :   0.8371
B(  9-O , 10-H ) :   0.8492 B(  9-O , 11-H ) :   0.7776 B( 12-O , 13-H ) :   0.8200
B( 12-O , 14-H ) :   0.8304 B( 15-O , 16-H ) :   0.8342 B( 15-O , 17-H ) :   0.8269
B( 18-O , 19-H ) :   0.8375 B( 18-O , 20-H ) :   0.7503 B( 21-O , 22-H ) :   0.8283
B( 21-O , 23-H ) :   0.8174

MP2 TOTAL ENERGY:     -610.575538099 Eh
FINAL SINGLE POINT ENERGY      -610.575538098618

DIPOLE MOMENT
-------------
                                X             Y             Z
Electronic contribution:     -0.01443      -0.23410      -0.21810
Nuclear contribution   :     -1.27851      -0.98858       0.00000
                        -----------------------------------------
Total Dipole Moment    :     -1.29293      -1.22267      -0.21810
                        -----------------------------------------
Magnitude (a.u.)       :      1.79281
Magnitude (Debye)      :      4.55697

Rotational constants in cm-1:     0.035019     0.014977     0.014383
Rotational constants in MHz :  1049.849801   448.995684   431.184388

                             ****ORCA TERMINATED NORMALLY****
TOTAL RUN TIME: 0 days 0 hours 2 minutes 51 seconds 192 msec
