                         Program Version 4.2.0 -  RELEASE  -
|  1> # 12mecn.remya.etal.2.mol2,3,5
|  2> ! MP2 def2-TZVP EnGrad TightSCF
|  3>
|  4> %pal
|  5>     nprocs 6
|  6> end
|  7>
|  8> %maxcore 8000
|  9>
| 10> %scf
| 11>     ConvForced true
| 12> end
| 13>
| 14> *xyz 0 1
| 15> C  -4.219070000  -3.477410000  -1.501740000
| 16> H  -3.251530000  -3.803540000  -1.893830000
| 17> H  -4.452920000  -2.481700000  -1.890840000
| 18> H  -4.992170000  -4.178130000  -1.824640000
| 19> C  -4.154550000  -3.418790000  -0.058340000
| 20> N  -4.091140000  -3.354840000   1.104432000
| 21> C  -5.181310000   2.853865000  -1.626100000
| 22> H  -5.488260000   3.811434000  -2.053310000
| 23> H  -5.857590000   2.068112000  -1.968630000
| 24> H  -4.170750000   2.611402000  -1.966640000
| 25> C  -5.187260000   2.919160000  -0.181450000
| 26> N  -5.181700000   2.970641000   0.983640000
| 27> C  -1.955700000   2.515080000   1.698463000
| 28> H  -2.923830000   2.883163000   2.049269000
| 29> H  -1.154850000   3.171830000   2.050990000
| 30> H  -1.790380000   1.506115000   2.087896000
| 31> C  -1.948230000   2.482156000   0.253672000
| 32> N  -1.937550000   2.462523000  -0.913150000
| 33> *
| 34>
| 35>                          ****END OF INPUT****

CARTESIAN COORDINATES (ANGSTROEM)
---------------------------------
  C     -4.219070   -3.477410   -1.501740
  H     -3.251530   -3.803540   -1.893830
  H     -4.452920   -2.481700   -1.890840
  H     -4.992170   -4.178130   -1.824640
  C     -4.154550   -3.418790   -0.058340
  N     -4.091140   -3.354840    1.104432
  C     -5.181310    2.853865   -1.626100
  H     -5.488260    3.811434   -2.053310
  H     -5.857590    2.068112   -1.968630
  H     -4.170750    2.611402   -1.966640
  C     -5.187260    2.919160   -0.181450
  N     -5.181700    2.970641    0.983640
  C     -1.955700    2.515080    1.698463
  H     -2.923830    2.883163    2.049269
  H     -1.154850    3.171830    2.050990
  H     -1.790380    1.506115    2.087896
  C     -1.948230    2.482156    0.253672
  N     -1.937550    2.462523   -0.913150

 Total Charge           Charge          ....    0
 Multiplicity           Mult            ....    1
 Number of Electrons    NEL             ....   66
 Basis Dimension        Dim             ....  333

ORBITAL ENERGIES
----------------

  NO   OCC          E(Eh)            E(eV)
   0   2.0000     -15.573461      -423.7754
   1   2.0000     -15.571438      -423.7204
   2   2.0000     -15.570554      -423.6963
   3   2.0000     -11.285556      -307.0956
   4   2.0000     -11.283056      -307.0276
   5   2.0000     -11.282898      -307.0233
   6   2.0000     -11.280503      -306.9581
   7   2.0000     -11.273064      -306.7557
   8   2.0000     -11.269608      -306.6616
   9   2.0000      -1.218125       -33.1469
  10   2.0000      -1.215136       -33.0655
  11   2.0000      -1.213834       -33.0301
  12   2.0000      -1.044048       -28.4100
  13   2.0000      -1.036639       -28.2084
  14   2.0000      -1.032594       -28.0983
  15   2.0000      -0.700909       -19.0727
  16   2.0000      -0.695957       -18.9380
  17   2.0000      -0.689745       -18.7689
  18   2.0000      -0.632239       -17.2041
  19   2.0000      -0.631504       -17.1841
  20   2.0000      -0.630544       -17.1580
  21   2.0000      -0.624363       -16.9898
  22   2.0000      -0.619190       -16.8490
  23   2.0000      -0.613569       -16.6961
  24   2.0000      -0.559109       -15.2141
  25   2.0000      -0.556369       -15.1396
  26   2.0000      -0.555825       -15.1248
  27   2.0000      -0.460208       -12.5229
  28   2.0000      -0.458873       -12.4866
  29   2.0000      -0.458294       -12.4708
  30   2.0000      -0.458091       -12.4653
  31   2.0000      -0.456627       -12.4255
  32   2.0000      -0.455741       -12.4014
  33   0.0000       0.109301         2.9742
  34   0.0000       0.132789         3.6134
  35   0.0000       0.141470         3.8496
  36   0.0000       0.168258         4.5785
  37   0.0000       0.170812         4.6480

MULLIKEN ATOMIC CHARGES
-----------------------
   0 C :   -0.278718
   1 H :    0.173085
   2 H :    0.170557
   3 H :    0.171928
   4 C :   -0.145261
   5 N :   -0.091574
   6 C :   -0.288878
   7 H :    0.167508
   8 H :    0.162799
   9 H :    0.205080
  10 C :   -0.101358
  11 N :   -0.146099
  12 C :   -0.284566
  13 H :    0.204979
  14 H :    0.165982
  15 H :    0.172599
  16 C :   -0.101125
  17 N :   -0.156936
Sum of atomic charges:   -0.0000000

LOEWDIN ATOMIC CHARGES
----------------------
   0 C :   -0.283774
   1 H :    0.153145
   2 H :    0.152759
   3 H :    0.150899
   4 C :   -0.219143
   5 N :    0.046120
   6 C :   -0.283555
   7 H :    0.151387
   8 H :    0.149152
   9 H :    0.156665
  10 C :   -0.207441
  11 N :    0.033485
  12 C :   -0.281383
  13 H :    0.157188
  14 H :    0.151163
  15 H :    0.154920
  16 C :   -0.206940
  17 N :    0.025354

  Mayer bond orders larger than 0.100000
B(  0-C ,  1-H ) :   0.9161 B(  0-C ,  2-H ) :   0.9165 B(  0-C ,  3-H ) :   0.9167
B(  0-C ,  4-C ) :   0.9029 B(  4-C ,  5-N ) :   2.8368 B(  6-C ,  7-H ) :   0.9145
B(  6-C ,  8-H ) :   0.9177 B(  6-C ,  9-H ) :   0.9017 B(  6-C , 10-C ) :   0.9020
B( 10-C , 11-N ) :   2.7692 B( 12-C , 13-H ) :   0.9011 B( 12-C , 14-H ) :   0.9160
B( 12-C , 15-H ) :   0.9128 B( 12-C , 16-C ) :   0.9018 B( 16-C , 17-N ) :   2.7717

MP2 TOTAL ENERGY:     -397.459651130 Eh
FINAL SINGLE POINT ENERGY      -397.459651130005

DIPOLE MOMENT
-------------
                                X             Y             Z
Electronic contribution:      0.13083       0.21352       3.17951
Nuclear contribution   :     -0.20606      -0.32843      -4.65684
                        -----------------------------------------
Total Dipole Moment    :     -0.07523      -0.11491      -1.47733
                        -----------------------------------------
Magnitude (a.u.)       :      1.48370
Magnitude (Debye)      :      3.77126

Rotational constants in cm-1:     0.042909     0.014287     0.012996
Rotational constants in MHz :  1286.393365   428.324795   389.601913

                             ****ORCA TERMINATED NORMALLY****
TOTAL RUN TIME: 0 days 0 hours 2 minutes 53 seconds 265 msec
