                         Program Version 4.2.0 -  RELEASE  -
|  1> # 12meoh.boyd.etal.mol1,7,8
|  2> ! MP2 def2-TZVP EnGrad TightSCF
|  3>
|  4> %pal
|  5>     nprocs 6
|  6> end
|  7>
|  8> %maxcore 8000
|  9>
| 10> %scf
| 11>     ConvForced true
| 12> end
| 13>
| 14> *xyz 0 1
| 15> O   0.666045193  -2.600503172   0.138317521
| 16> H  -0.227115049  -2.712051982  -0.281868004
| 17> C   0.490021232  -1.851247678   1.341189459
| 18> H   1.466500502  -1.466176022   1.645844415
| 19> H   0.097564527  -2.488364683   2.146902740
| 20> H  -0.187588112  -1.000787499   1.200739571
| 21> O   4.310535586  -1.588322800   0.656128299
| 22> H   3.804372199  -1.630404735  -0.196849819
| 23> C   4.312298137  -2.894980854   1.222112691
| 24> H   4.713177833  -2.819907076   2.237066773
| 25> H   4.957796734  -3.574699304   0.648211180
| 26> H   3.302735989  -3.324433205   1.269756773
| 27> O   3.570084754   2.361662577  -0.202416728
| 28> H   3.393280933   1.755669977   0.560634073
| 29> C   4.368082883   1.644741793  -1.143112807
| 30> H   4.552851717   2.311801738  -1.989632421
| 31> H   3.862427494   0.740851663  -1.508095690
| 32> H   5.333949674   1.357289092  -0.706288100
| 33> *
| 34>
| 35>                          ****END OF INPUT****

CARTESIAN COORDINATES (ANGSTROEM)
---------------------------------
  O      0.666045   -2.600503    0.138318
  H     -0.227115   -2.712052   -0.281868
  C      0.490021   -1.851248    1.341189
  H      1.466501   -1.466176    1.645844
  H      0.097565   -2.488365    2.146903
  H     -0.187588   -1.000787    1.200740
  O      4.310536   -1.588323    0.656128
  H      3.804372   -1.630405   -0.196850
  C      4.312298   -2.894981    1.222113
  H      4.713178   -2.819907    2.237067
  H      4.957797   -3.574699    0.648211
  H      3.302736   -3.324433    1.269757
  O      3.570085    2.361663   -0.202417
  H      3.393281    1.755670    0.560634
  C      4.368083    1.644742   -1.143113
  H      4.552852    2.311802   -1.989632
  H      3.862427    0.740852   -1.508096
  H      5.333950    1.357289   -0.706288

 Total Charge           Charge          ....    0
 Multiplicity           Mult            ....    1
 Number of Electrons    NEL             ....   54
 Basis Dimension        Dim             ....  258

ORBITAL ENERGIES
----------------

  NO   OCC          E(Eh)            E(eV)
   0   2.0000     -20.567618      -559.6733
   1   2.0000     -20.559134      -559.4425
   2   2.0000     -20.547618      -559.1291
   3   2.0000     -11.277828      -306.8853
   4   2.0000     -11.269197      -306.6504
   5   2.0000     -11.262869      -306.4782
   6   2.0000      -1.355592       -36.8875
   7   2.0000      -1.348390       -36.6915
   8   2.0000      -1.337112       -36.3847
   9   2.0000      -0.927295       -25.2330
  10   2.0000      -0.918432       -24.9918
  11   2.0000      -0.910645       -24.7799
  12   2.0000      -0.691952       -18.8290
  13   2.0000      -0.681121       -18.5342
  14   2.0000      -0.672099       -18.2887
  15   2.0000      -0.624696       -16.9988
  16   2.0000      -0.618030       -16.8174
  17   2.0000      -0.607824       -16.5397
  18   2.0000      -0.596484       -16.2312
  19   2.0000      -0.591469       -16.0947
  20   2.0000      -0.580551       -15.7976
  21   2.0000      -0.509877       -13.8745
  22   2.0000      -0.500829       -13.6283
  23   2.0000      -0.492505       -13.4018
  24   2.0000      -0.458584       -12.4787
  25   2.0000      -0.449411       -12.2291
  26   2.0000      -0.440511       -11.9869
  27   0.0000       0.115105         3.1322
  28   0.0000       0.138333         3.7642
  29   0.0000       0.159544         4.3414
  30   0.0000       0.166029         4.5179
  31   0.0000       0.190205         5.1758

MULLIKEN ATOMIC CHARGES
-----------------------
   0 O :   -0.507817
   1 H :    0.325610
   2 C :   -0.196773
   3 H :    0.140072
   4 H :    0.115278
   5 H :    0.121597
   6 O :   -0.511349
   7 H :    0.333014
   8 C :   -0.189394
   9 H :    0.126939
  10 H :    0.116090
  11 H :    0.131309
  12 O :   -0.504982
  13 H :    0.325865
  14 C :   -0.161723
  15 H :    0.127907
  16 H :    0.088214
  17 H :    0.120142
Sum of atomic charges:   -0.0000000

LOEWDIN ATOMIC CHARGES
----------------------
   0 O :   -0.116396
   1 H :    0.191821
   2 C :   -0.381750
   3 H :    0.109103
   4 H :    0.097516
   5 H :    0.098694
   6 O :   -0.111532
   7 H :    0.191575
   8 C :   -0.380669
   9 H :    0.108781
  10 H :    0.097503
  11 H :    0.099846
  12 O :   -0.112068
  13 H :    0.188700
  14 C :   -0.378974
  15 H :    0.108508
  16 H :    0.090102
  17 H :    0.099240

  Mayer bond orders larger than 0.100000
B(  0-O ,  1-H ) :   0.8405 B(  0-O ,  2-C ) :   0.9106 B(  2-C ,  3-H ) :   0.9345
B(  2-C ,  4-H ) :   0.9390 B(  2-C ,  5-H ) :   0.9388 B(  6-O ,  7-H ) :   0.8336
B(  6-O ,  8-C ) :   0.9045 B(  8-C ,  9-H ) :   0.9390 B(  8-C , 10-H ) :   0.9415
B(  8-C , 11-H ) :   0.9347 B( 12-O , 13-H ) :   0.8406 B( 12-O , 14-C ) :   0.9262
B( 14-C , 15-H ) :   0.9362 B( 14-C , 16-H ) :   0.9400 B( 14-C , 17-H ) :   0.9409

MP2 TOTAL ENERGY:     -346.527137929 Eh
FINAL SINGLE POINT ENERGY      -346.527137928625

DIPOLE MOMENT
-------------
                                X             Y             Z
Electronic contribution:     -0.59142       1.71695      -0.95899
Nuclear contribution   :     -0.15688      -2.74332       1.00932
                        -----------------------------------------
Total Dipole Moment    :     -0.74830      -1.02637       0.05034
                        -----------------------------------------
Magnitude (a.u.)       :      1.27119
Magnitude (Debye)      :      3.23111

Rotational constants in cm-1:     0.070195     0.029851     0.022868
Rotational constants in MHz :  2104.380986   894.905650   685.568071

                             ****ORCA TERMINATED NORMALLY****
TOTAL RUN TIME: 0 days 0 hours 1 minutes 14 seconds 179 msec
