                         Program Version 4.2.0 -  RELEASE  -
|  1> # 12h2o.su.etal.mol0,2,6,8,9
|  2> ! MP2 def2-TZVP EnGrad TightSCF
|  3>
|  4> %pal
|  5>     nprocs 6
|  6> end
|  7>
|  8> %maxcore 8000
|  9>
| 10> %scf
| 11>     ConvForced true
| 12> end
| 13>
| 14> *xyz 0 1
| 15> O   1.794470000   0.923410000   2.768350000
| 16> H   2.338250000   1.359750000   3.430940000
| 17> H   0.879480000   1.303000000   2.865760000
| 18> O   0.923410000  -1.794470000  -2.768350000
| 19> H   1.359750000  -2.338250000  -3.430940000
| 20> H   1.303000000  -0.879480000  -2.865760000
| 21> O   1.737840000   0.885520000  -0.052730000
| 22> H   2.090180000   1.032320000   0.841890000
| 23> H   0.839590000   1.284090000  -0.017130000
| 24> O   1.752130000   0.741530000  -2.896280000
| 25> H   2.036450000   0.920500000  -1.984040000
| 26> H   0.921210000   1.242140000  -2.984230000
| 27> O   0.741530000  -1.752130000   2.896280000
| 28> H   0.920500000  -2.036450000   1.984040000
| 29> H   1.242140000  -0.921210000   2.984230000
| 30> *
| 31>
| 32>                          ****END OF INPUT****

CARTESIAN COORDINATES (ANGSTROEM)
---------------------------------
  O      1.794470    0.923410    2.768350
  H      2.338250    1.359750    3.430940
  H      0.879480    1.303000    2.865760
  O      0.923410   -1.794470   -2.768350
  H      1.359750   -2.338250   -3.430940
  H      1.303000   -0.879480   -2.865760
  O      1.737840    0.885520   -0.052730
  H      2.090180    1.032320    0.841890
  H      0.839590    1.284090   -0.017130
  O      1.752130    0.741530   -2.896280
  H      2.036450    0.920500   -1.984040
  H      0.921210    1.242140   -2.984230
  O      0.741530   -1.752130    2.896280
  H      0.920500   -2.036450    1.984040
  H      1.242140   -0.921210    2.984230

 Total Charge           Charge          ....    0
 Multiplicity           Mult            ....    1
 Number of Electrons    NEL             ....   50
 Basis Dimension        Dim             ....  215

ORBITAL ENERGIES
----------------

  NO   OCC          E(Eh)            E(eV)
   0   2.0000     -20.627209      -561.2949
   1   2.0000     -20.577596      -559.9448
   2   2.0000     -20.565314      -559.6107
   3   2.0000     -20.534548      -558.7735
   4   2.0000     -20.502434      -557.8996
   5   2.0000      -1.407389       -38.2970
   6   2.0000      -1.361689       -37.0534
   7   2.0000      -1.350338       -36.7446
   8   2.0000      -1.317158       -35.8417
   9   2.0000      -1.284628       -34.9565
  10   2.0000      -0.772968       -21.0335
  11   2.0000      -0.731232       -19.8978
  12   2.0000      -0.711673       -19.3656
  13   2.0000      -0.690023       -18.7765
  14   2.0000      -0.673402       -18.3242
  15   2.0000      -0.644825       -17.5466
  16   2.0000      -0.612630       -16.6705
  17   2.0000      -0.588138       -16.0041
  18   2.0000      -0.567892       -15.4531
  19   2.0000      -0.545089       -14.8326
  20   2.0000      -0.535161       -14.5625
  21   2.0000      -0.523634       -14.2488
  22   2.0000      -0.492079       -13.3901
  23   2.0000      -0.482118       -13.1191
  24   2.0000      -0.452933       -12.3249
  25   0.0000       0.079695         2.1686
  26   0.0000       0.122395         3.3305
  27   0.0000       0.154336         4.1997
  28   0.0000       0.174212         4.7405
  29   0.0000       0.182750         4.9729

MULLIKEN ATOMIC CHARGES
-----------------------
   0 O :   -0.712803
   1 H :    0.368439
   2 H :    0.368644
   3 O :   -0.734741
   4 H :    0.319932
   5 H :    0.368134
   6 O :   -0.702756
   7 H :    0.376138
   8 H :    0.329236
   9 O :   -0.692341
  10 H :    0.385867
  11 H :    0.338874
  12 O :   -0.706543
  13 H :    0.343781
  14 H :    0.350141
Sum of atomic charges:   -0.0000000

LOEWDIN ATOMIC CHARGES
----------------------
   0 O :   -0.286109
   1 H :    0.169931
   2 H :    0.191322
   3 O :   -0.374371
   4 H :    0.145847
   5 H :    0.142269
   6 O :   -0.321078
   7 H :    0.153605
   8 H :    0.167504
   9 O :   -0.277655
  10 H :    0.158704
  11 H :    0.167034
  12 O :   -0.346800
  13 H :    0.166413
  14 H :    0.143384

  Mayer bond orders larger than 0.100000
B(  0-O ,  1-H ) :   0.8296 B(  0-O ,  2-H ) :   0.8223 B(  3-O ,  4-H ) :   0.8634
B(  3-O ,  5-H ) :   0.7823 B(  6-O ,  7-H ) :   0.8092 B(  6-O ,  8-H ) :   0.8507
B(  9-O , 10-H ) :   0.7994 B(  9-O , 11-H ) :   0.8484 B( 12-O , 13-H ) :   0.8488
B( 12-O , 14-H ) :   0.8322

MP2 TOTAL ENERGY:     -381.592205437 Eh
FINAL SINGLE POINT ENERGY      -381.592205436569

DIPOLE MOMENT
-------------
                                X             Y             Z
Electronic contribution:      0.20773       0.04687       0.27765
Nuclear contribution   :      0.02646       2.46270       0.77428
                        -----------------------------------------
Total Dipole Moment    :      0.23419       2.50957       1.05192
                        -----------------------------------------
Magnitude (a.u.)       :      2.73118
Magnitude (Debye)      :      6.94210

Rotational constants in cm-1:     0.097706     0.028835     0.022482
Rotational constants in MHz :  2929.155717   864.460421   674.007719

                             ****ORCA TERMINATED NORMALLY****
TOTAL RUN TIME: 0 days 0 hours 0 minutes 44 seconds 194 msec
