                         Program Version 4.2.0 -  RELEASE  -
|  1> # 12h2o.su.etal.mol2,3,4,5,9
|  2> ! MP2 def2-TZVP EnGrad TightSCF
|  3>
|  4> %pal
|  5>     nprocs 6
|  6> end
|  7>
|  8> %maxcore 8000
|  9>
| 10> %scf
| 11>     ConvForced true
| 12> end
| 13>
| 14> *xyz 0 1
| 15> O   0.923410000  -1.794470000  -2.768350000
| 16> H   1.359750000  -2.338250000  -3.430940000
| 17> H   1.303000000  -0.879480000  -2.865760000
| 18> O  -1.752130000  -0.741530000  -2.896280000
| 19> H  -2.036450000  -0.920500000  -1.984040000
| 20> H  -0.921210000  -1.242140000  -2.984230000
| 21> O  -0.885520000   1.737840000   0.052730000
| 22> H  -1.032320000   2.090180000  -0.841890000
| 23> H  -1.284090000   0.839590000   0.017130000
| 24> O   0.885520000  -1.737840000   0.052730000
| 25> H   1.284090000  -0.839590000   0.017130000
| 26> H   1.032320000  -2.090180000  -0.841890000
| 27> O   0.741530000  -1.752130000   2.896280000
| 28> H   0.920500000  -2.036450000   1.984040000
| 29> H   1.242140000  -0.921210000   2.984230000
| 30> *
| 31>
| 32>                          ****END OF INPUT****

CARTESIAN COORDINATES (ANGSTROEM)
---------------------------------
  O      0.923410   -1.794470   -2.768350
  H      1.359750   -2.338250   -3.430940
  H      1.303000   -0.879480   -2.865760
  O     -1.752130   -0.741530   -2.896280
  H     -2.036450   -0.920500   -1.984040
  H     -0.921210   -1.242140   -2.984230
  O     -0.885520    1.737840    0.052730
  H     -1.032320    2.090180   -0.841890
  H     -1.284090    0.839590    0.017130
  O      0.885520   -1.737840    0.052730
  H      1.284090   -0.839590    0.017130
  H      1.032320   -2.090180   -0.841890
  O      0.741530   -1.752130    2.896280
  H      0.920500   -2.036450    1.984040
  H      1.242140   -0.921210    2.984230

 Total Charge           Charge          ....    0
 Multiplicity           Mult            ....    1
 Number of Electrons    NEL             ....   50
 Basis Dimension        Dim             ....  215

ORBITAL ENERGIES
----------------

  NO   OCC          E(Eh)            E(eV)
   0   2.0000     -20.632144      -561.4292
   1   2.0000     -20.574360      -559.8568
   2   2.0000     -20.566355      -559.6390
   3   2.0000     -20.554508      -559.3166
   4   2.0000     -20.525895      -558.5380
   5   2.0000      -1.412311       -38.4309
   6   2.0000      -1.355716       -36.8909
   7   2.0000      -1.342167       -36.5222
   8   2.0000      -1.336703       -36.3735
   9   2.0000      -1.307761       -35.5860
  10   2.0000      -0.777962       -21.1694
  11   2.0000      -0.725866       -19.7518
  12   2.0000      -0.707987       -19.2653
  13   2.0000      -0.703870       -19.1533
  14   2.0000      -0.676843       -18.4178
  15   2.0000      -0.649674       -17.6785
  16   2.0000      -0.606786       -16.5115
  17   2.0000      -0.582276       -15.8445
  18   2.0000      -0.580579       -15.7984
  19   2.0000      -0.559600       -15.2275
  20   2.0000      -0.542782       -14.7699
  21   2.0000      -0.519080       -14.1249
  22   2.0000      -0.508942       -13.8490
  23   2.0000      -0.501239       -13.6394
  24   2.0000      -0.472385       -12.8542
  25   0.0000       0.073607         2.0030
  26   0.0000       0.116581         3.1723
  27   0.0000       0.142488         3.8773
  28   0.0000       0.153880         4.1873
  29   0.0000       0.177162         4.8208

MULLIKEN ATOMIC CHARGES
-----------------------
   0 O :   -0.715356
   1 H :    0.370418
   2 H :    0.369374
   3 O :   -0.699469
   4 H :    0.330438
   5 H :    0.357249
   6 O :   -0.681618
   7 H :    0.340383
   8 H :    0.339379
   9 O :   -0.709330
  10 H :    0.333110
  11 H :    0.372566
  12 O :   -0.695593
  13 H :    0.369280
  14 H :    0.319171
Sum of atomic charges:   -0.0000000

LOEWDIN ATOMIC CHARGES
----------------------
   0 O :   -0.286799
   1 H :    0.170842
   2 H :    0.191565
   3 O :   -0.342121
   4 H :    0.159033
   5 H :    0.146367
   6 O :   -0.336724
   7 H :    0.165539
   8 H :    0.169314
   9 O :   -0.323508
  10 H :    0.166963
  11 H :    0.151394
  12 O :   -0.341293
  13 H :    0.151607
  14 H :    0.157821

  Mayer bond orders larger than 0.100000
B(  0-O ,  1-H ) :   0.8284 B(  0-O ,  2-H ) :   0.8216 B(  3-O ,  4-H ) :   0.8551
B(  3-O ,  5-H ) :   0.8244 B(  6-O ,  7-H ) :   0.8497 B(  6-O ,  8-H ) :   0.8454
B(  9-O , 10-H ) :   0.8445 B(  9-O , 11-H ) :   0.8122 B( 12-O , 13-H ) :   0.8208
B( 12-O , 14-H ) :   0.8632

MP2 TOTAL ENERGY:     -381.586846739 Eh
FINAL SINGLE POINT ENERGY      -381.586846739046

DIPOLE MOMENT
-------------
                                X             Y             Z
Electronic contribution:     -0.14172      -0.16359      -0.03701
Nuclear contribution   :      1.69977       0.19829      -2.18115
                        -----------------------------------------
Total Dipole Moment    :      1.55806       0.03471      -2.21816
                        -----------------------------------------
Magnitude (a.u.)       :      2.71090
Magnitude (Debye)      :      6.89056

Rotational constants in cm-1:     0.065925     0.035892     0.025953
Rotational constants in MHz :  1976.385300  1076.021685   778.043127

                             ****ORCA TERMINATED NORMALLY****
TOTAL RUN TIME: 0 days 0 hours 0 minutes 49 seconds 979 msec
