                         Program Version 4.2.0 -  RELEASE  -
|  1> # 12meoh.boyd.etal.mol0,10,11
|  2> ! MP2 def2-TZVP EnGrad TightSCF
|  3>
|  4> %pal
|  5>     nprocs 6
|  6> end
|  7>
|  8> %maxcore 8000
|  9>
| 10> %scf
| 11>     ConvForced true
| 12> end
| 13>
| 14> *xyz 0 1
| 15> O  -1.776108874  -2.741384797  -1.019308298
| 16> H  -2.520094035  -2.452295987  -0.420778302
| 17> C  -2.174025166  -3.952700964  -1.647004581
| 18> H  -1.359803895  -4.272673416  -2.304149236
| 19> H  -3.075973971  -3.808692420  -2.256751112
| 20> H  -2.370225393  -4.752784761  -0.918966137
| 21> O  -5.201143618   0.064582726  -0.172223772
| 22> H  -4.686891530   0.869258890   0.107806143
| 23> C  -6.513192168   0.171391798   0.359883449
| 24> H  -7.049381312  -0.749234190   0.111361174
| 25> H  -7.057741163   1.017801101  -0.081819420
| 26> H  -6.514770575   0.292264928   1.453058834
| 27> O   3.252955559   0.588596242   1.858934315
| 28> H   3.621209177  -0.251605199   1.476063364
| 29> C   4.040824528   0.944288422   2.989639460
| 30> H   3.670521436   1.902573549   3.363847391
| 31> H   5.103749934   1.055868619   2.734277559
| 32> H   3.948540682   0.200279590   3.792908518
| 33> *
| 34>
| 35>                          ****END OF INPUT****

CARTESIAN COORDINATES (ANGSTROEM)
---------------------------------
  O     -1.776109   -2.741385   -1.019308
  H     -2.520094   -2.452296   -0.420778
  C     -2.174025   -3.952701   -1.647005
  H     -1.359804   -4.272673   -2.304149
  H     -3.075974   -3.808692   -2.256751
  H     -2.370225   -4.752785   -0.918966
  O     -5.201144    0.064583   -0.172224
  H     -4.686892    0.869259    0.107806
  C     -6.513192    0.171392    0.359883
  H     -7.049381   -0.749234    0.111361
  H     -7.057741    1.017801   -0.081819
  H     -6.514771    0.292265    1.453059
  O      3.252956    0.588596    1.858934
  H      3.621209   -0.251605    1.476063
  C      4.040825    0.944288    2.989639
  H      3.670521    1.902574    3.363847
  H      5.103750    1.055869    2.734278
  H      3.948541    0.200280    3.792909

 Total Charge           Charge          ....    0
 Multiplicity           Mult            ....    1
 Number of Electrons    NEL             ....   54
 Basis Dimension        Dim             ....  258

ORBITAL ENERGIES
----------------

  NO   OCC          E(Eh)            E(eV)
   0   2.0000     -20.561401      -559.5042
   1   2.0000     -20.553639      -559.2930
   2   2.0000     -20.546959      -559.1112
   3   2.0000     -11.274365      -306.7911
   4   2.0000     -11.268890      -306.6421
   5   2.0000     -11.262749      -306.4750
   6   2.0000      -1.351337       -36.7718
   7   2.0000      -1.342993       -36.5447
   8   2.0000      -1.336296       -36.3625
   9   2.0000      -0.922304       -25.0972
  10   2.0000      -0.916786       -24.9470
  11   2.0000      -0.909927       -24.7604
  12   2.0000      -0.685765       -18.6606
  13   2.0000      -0.678239       -18.4558
  14   2.0000      -0.671282       -18.2665
  15   2.0000      -0.620020       -16.8716
  16   2.0000      -0.613956       -16.7066
  17   2.0000      -0.607731       -16.5372
  18   2.0000      -0.595035       -16.1917
  19   2.0000      -0.587652       -15.9908
  20   2.0000      -0.581490       -15.8232
  21   2.0000      -0.503428       -13.6990
  22   2.0000      -0.496926       -13.5221
  23   2.0000      -0.490656       -13.3514
  24   2.0000      -0.452067       -12.3014
  25   2.0000      -0.445777       -12.1302
  26   2.0000      -0.438757       -11.9392
  27   0.0000       0.126425         3.4402
  28   0.0000       0.138923         3.7803
  29   0.0000       0.151953         4.1348
  30   0.0000       0.172376         4.6906
  31   0.0000       0.178681         4.8622

MULLIKEN ATOMIC CHARGES
-----------------------
   0 O :   -0.499659
   1 H :    0.327737
   2 C :   -0.171675
   3 H :    0.124851
   4 H :    0.111477
   5 H :    0.105084
   6 O :   -0.500396
   7 H :    0.326203
   8 C :   -0.173251
   9 H :    0.127977
  10 H :    0.111102
  11 H :    0.110550
  12 O :   -0.495567
  13 H :    0.322855
  14 C :   -0.172681
  15 H :    0.127941
  16 H :    0.108822
  17 H :    0.108630
Sum of atomic charges:    0.0000000

LOEWDIN ATOMIC CHARGES
----------------------
   0 O :   -0.109377
   1 H :    0.194751
   2 C :   -0.385277
   3 H :    0.108716
   4 H :    0.095820
   5 H :    0.093855
   6 O :   -0.108977
   7 H :    0.193026
   8 C :   -0.384509
   9 H :    0.110004
  10 H :    0.096188
  11 H :    0.095781
  12 O :   -0.108246
  13 H :    0.190784
  14 C :   -0.382486
  15 H :    0.109810
  16 H :    0.095116
  17 H :    0.095022

  Mayer bond orders larger than 0.100000
B(  0-O ,  1-H ) :   0.8366 B(  0-O ,  2-C ) :   0.9319 B(  2-C ,  3-H ) :   0.9379
B(  2-C ,  4-H ) :   0.9396 B(  2-C ,  5-H ) :   0.9385 B(  6-O ,  7-H ) :   0.8391
B(  6-O ,  8-C ) :   0.9238 B(  8-C ,  9-H ) :   0.9380 B(  8-C , 10-H ) :   0.9384
B(  8-C , 11-H ) :   0.9383 B( 12-O , 13-H ) :   0.8415 B( 12-O , 14-C ) :   0.9288
B( 14-C , 15-H ) :   0.9378 B( 14-C , 16-H ) :   0.9388 B( 14-C , 17-H ) :   0.9387

MP2 TOTAL ENERGY:     -346.521395424 Eh
FINAL SINGLE POINT ENERGY      -346.521395423843

DIPOLE MOMENT
-------------
                                X             Y             Z
Electronic contribution:      1.15898       0.97067      -1.40739
Nuclear contribution   :     -1.47941      -1.07065       2.13419
                        -----------------------------------------
Total Dipole Moment    :     -0.32043      -0.09999       0.72680
                        -----------------------------------------
Magnitude (a.u.)       :      0.80057
Magnitude (Debye)      :      2.03490

Rotational constants in cm-1:     0.040452     0.010164     0.008215
Rotational constants in MHz :  1212.706560   304.705299   246.273302

                             ****ORCA TERMINATED NORMALLY****
TOTAL RUN TIME: 0 days 0 hours 0 minutes 38 seconds 968 msec
