                         Program Version 4.2.0 -  RELEASE  -
|  1> # 12meoh.boyd.etal.mol8,9,10
|  2> ! MP2 def2-TZVP EnGrad TightSCF
|  3>
|  4> %pal
|  5>     nprocs 6
|  6> end
|  7>
|  8> %maxcore 8000
|  9>
| 10> %scf
| 11>     ConvForced true
| 12> end
| 13>
| 14> *xyz 0 1
| 15> O   3.570084754   2.361662577  -0.202416728
| 16> H   3.393280933   1.755669977   0.560634073
| 17> C   4.368082883   1.644741793  -1.143112807
| 18> H   4.552851717   2.311801738  -1.989632421
| 19> H   3.862427494   0.740851663  -1.508095690
| 20> H   5.333949674   1.357289092  -0.706288100
| 21> O   1.390610024   3.194080770  -1.536658882
| 22> H   2.162932299   2.881562730  -0.993525056
| 23> C   1.202977189   4.580367182  -1.302880219
| 24> H   0.374773115   4.915764831  -1.934164643
| 25> H   2.098649340   5.157710875  -1.570472348
| 26> H   0.950320401   4.800436015  -0.254328827
| 27> O  -5.201143618   0.064582726  -0.172223772
| 28> H  -4.686891530   0.869258890   0.107806143
| 29> C  -6.513192168   0.171391798   0.359883449
| 30> H  -7.049381312  -0.749234190   0.111361174
| 31> H  -7.057741163   1.017801101  -0.081819420
| 32> H  -6.514770575   0.292264928   1.453058834
| 33> *
| 34>
| 35>                          ****END OF INPUT****

CARTESIAN COORDINATES (ANGSTROEM)
---------------------------------
  O      3.570085    2.361663   -0.202417
  H      3.393281    1.755670    0.560634
  C      4.368083    1.644742   -1.143113
  H      4.552852    2.311802   -1.989632
  H      3.862427    0.740852   -1.508096
  H      5.333950    1.357289   -0.706288
  O      1.390610    3.194081   -1.536659
  H      2.162932    2.881563   -0.993525
  C      1.202977    4.580367   -1.302880
  H      0.374773    4.915765   -1.934165
  H      2.098649    5.157711   -1.570472
  H      0.950320    4.800436   -0.254329
  O     -5.201144    0.064583   -0.172224
  H     -4.686892    0.869259    0.107806
  C     -6.513192    0.171392    0.359883
  H     -7.049381   -0.749234    0.111361
  H     -7.057741    1.017801   -0.081819
  H     -6.514771    0.292265    1.453059

 Total Charge           Charge          ....    0
 Multiplicity           Mult            ....    1
 Number of Electrons    NEL             ....   54
 Basis Dimension        Dim             ....  258

ORBITAL ENERGIES
----------------

  NO   OCC          E(Eh)            E(eV)
   0   2.0000     -20.590034      -560.2833
   1   2.0000     -20.554236      -559.3092
   2   2.0000     -20.514461      -558.2269
   3   2.0000     -11.289100      -307.1920
   4   2.0000     -11.268721      -306.6375
   5   2.0000     -11.248704      -306.0928
   6   2.0000      -1.383635       -37.6506
   7   2.0000      -1.344369       -36.5821
   8   2.0000      -1.312601       -35.7177
   9   2.0000      -0.941069       -25.6078
  10   2.0000      -0.916404       -24.9366
  11   2.0000      -0.895526       -24.3685
  12   2.0000      -0.717603       -19.5270
  13   2.0000      -0.679161       -18.4809
  14   2.0000      -0.672727       -18.3058
  15   2.0000      -0.632358       -17.2073
  16   2.0000      -0.613935       -16.7060
  17   2.0000      -0.609877       -16.5956
  18   2.0000      -0.590414       -16.0660
  19   2.0000      -0.588461       -16.0128
  20   2.0000      -0.562829       -15.3154
  21   2.0000      -0.529142       -14.3987
  22   2.0000      -0.496875       -13.5207
  23   2.0000      -0.488291       -13.2871
  24   2.0000      -0.455872       -12.4049
  25   2.0000      -0.445476       -12.1220
  26   2.0000      -0.416632       -11.3371
  27   0.0000       0.119463         3.2508
  28   0.0000       0.138710         3.7745
  29   0.0000       0.163841         4.4583
  30   0.0000       0.171109         4.6561
  31   0.0000       0.178750         4.8640

MULLIKEN ATOMIC CHARGES
-----------------------
   0 O :   -0.514718
   1 H :    0.340973
   2 C :   -0.193350
   3 H :    0.145758
   4 H :    0.134091
   5 H :    0.125253
   6 O :   -0.534613
   7 H :    0.343384
   8 C :   -0.156904
   9 H :    0.118692
  10 H :    0.096615
  11 H :    0.094819
  12 O :   -0.495601
  13 H :    0.323248
  14 C :   -0.172356
  15 H :    0.128316
  16 H :    0.108688
  17 H :    0.107705
Sum of atomic charges:    0.0000000

LOEWDIN ATOMIC CHARGES
----------------------
   0 O :   -0.077516
   1 H :    0.196596
   2 C :   -0.370939
   3 H :    0.117090
   4 H :    0.104260
   5 H :    0.103323
   6 O :   -0.121650
   7 H :    0.157798
   8 C :   -0.396784
   9 H :    0.105069
  10 H :    0.091799
  11 H :    0.090956
  12 O :   -0.106364
  13 H :    0.191825
  14 C :   -0.385482
  15 H :    0.110081
  16 H :    0.095071
  17 H :    0.094869

  Mayer bond orders larger than 0.100000
B(  0-O ,  1-H ) :   0.8293 B(  0-O ,  2-C ) :   0.8670 B(  2-C ,  3-H ) :   0.9383
B(  2-C ,  4-H ) :   0.9398 B(  2-C ,  5-H ) :   0.9334 B(  6-O ,  7-H ) :   0.7879
B(  6-O ,  8-C ) :   0.9454 B(  8-C ,  9-H ) :   0.9408 B(  8-C , 10-H ) :   0.9366
B(  8-C , 11-H ) :   0.9423 B( 12-O , 13-H ) :   0.8410 B( 12-O , 14-C ) :   0.9292
B( 14-C , 15-H ) :   0.9377 B( 14-C , 16-H ) :   0.9390 B( 14-C , 17-H ) :   0.9385

MP2 TOTAL ENERGY:     -346.529977893 Eh
FINAL SINGLE POINT ENERGY      -346.529977892511

DIPOLE MOMENT
-------------
                                X             Y             Z
Electronic contribution:      1.08280      -1.25589       0.05239
Nuclear contribution   :     -0.33509       1.25615       0.93517
                        -----------------------------------------
Total Dipole Moment    :      0.74771       0.00026       0.98756
                        -----------------------------------------
Magnitude (a.u.)       :      1.23869
Magnitude (Debye)      :      3.14850

Rotational constants in cm-1:     0.101992     0.009213     0.008637
Rotational constants in MHz :  3057.656214   276.204405   258.934692

                             ****ORCA TERMINATED NORMALLY****
TOTAL RUN TIME: 0 days 0 hours 0 minutes 52 seconds 750 msec
