                         Program Version 4.2.0 -  RELEASE  -
|  1> # 12mecn.remya.etal.2.mol1,2,6
|  2> ! MP2 def2-TZVP EnGrad TightSCF
|  3>
|  4> %pal
|  5>     nprocs 6
|  6> end
|  7>
|  8> %maxcore 8000
|  9>
| 10> %scf
| 11>     ConvForced true
| 12> end
| 13>
| 14> *xyz 0 1
| 15> C  -4.697980000  -0.249690000   1.746215000
| 16> H  -4.927570000   0.755530000   2.111799000
| 17> H  -3.709180000  -0.561560000   2.093253000
| 18> H  -5.432280000  -0.961520000   2.128066000
| 19> C  -4.714100000  -0.247110000   0.301670000
| 20> N  -4.729750000  -0.234960000  -0.865260000
| 21> C  -4.219070000  -3.477410000  -1.501740000
| 22> H  -3.251530000  -3.803540000  -1.893830000
| 23> H  -4.452920000  -2.481700000  -1.890840000
| 24> H  -4.992170000  -4.178130000  -1.824640000
| 25> C  -4.154550000  -3.418790000  -0.058340000
| 26> N  -4.091140000  -3.354840000   1.104432000
| 27> C   5.300864000  -2.920090000   1.401103000
| 28> H   5.986071000  -2.139770000   1.737487000
| 29> H   5.636642000  -3.888750000   1.778233000
| 30> H   4.307359000  -2.697240000   1.799307000
| 31> C   5.234791000  -2.933140000  -0.043290000
| 32> N   5.170868000  -2.941760000  -1.207750000
| 33> *
| 34>
| 35>                          ****END OF INPUT****

CARTESIAN COORDINATES (ANGSTROEM)
---------------------------------
  C     -4.697980   -0.249690    1.746215
  H     -4.927570    0.755530    2.111799
  H     -3.709180   -0.561560    2.093253
  H     -5.432280   -0.961520    2.128066
  C     -4.714100   -0.247110    0.301670
  N     -4.729750   -0.234960   -0.865260
  C     -4.219070   -3.477410   -1.501740
  H     -3.251530   -3.803540   -1.893830
  H     -4.452920   -2.481700   -1.890840
  H     -4.992170   -4.178130   -1.824640
  C     -4.154550   -3.418790   -0.058340
  N     -4.091140   -3.354840    1.104432
  C      5.300864   -2.920090    1.401103
  H      5.986071   -2.139770    1.737487
  H      5.636642   -3.888750    1.778233
  H      4.307359   -2.697240    1.799307
  C      5.234791   -2.933140   -0.043290
  N      5.170868   -2.941760   -1.207750

 Total Charge           Charge          ....    0
 Multiplicity           Mult            ....    1
 Number of Electrons    NEL             ....   66
 Basis Dimension        Dim             ....  333

ORBITAL ENERGIES
----------------

  NO   OCC          E(Eh)            E(eV)
   0   2.0000     -15.573310      -423.7713
   1   2.0000     -15.570828      -423.7038
   2   2.0000     -15.570539      -423.6959
   3   2.0000     -11.284877      -307.0771
   4   2.0000     -11.282762      -307.0195
   5   2.0000     -11.282579      -307.0146
   6   2.0000     -11.280308      -306.9528
   7   2.0000     -11.273147      -306.7579
   8   2.0000     -11.271095      -306.7021
   9   2.0000      -1.218109       -33.1464
  10   2.0000      -1.214946       -33.0604
  11   2.0000      -1.213346       -33.0168
  12   2.0000      -1.043956       -28.4075
  13   2.0000      -1.036471       -28.2038
  14   2.0000      -1.033254       -28.1163
  15   2.0000      -0.701327       -19.0841
  16   2.0000      -0.694808       -18.9067
  17   2.0000      -0.690666       -18.7940
  18   2.0000      -0.632920       -17.2226
  19   2.0000      -0.631225       -17.1765
  20   2.0000      -0.630162       -17.1476
  21   2.0000      -0.622234       -16.9318
  22   2.0000      -0.618704       -16.8358
  23   2.0000      -0.615808       -16.7570
  24   2.0000      -0.558884       -15.2080
  25   2.0000      -0.556197       -15.1349
  26   2.0000      -0.555835       -15.1250
  27   2.0000      -0.462736       -12.5917
  28   2.0000      -0.458707       -12.4821
  29   2.0000      -0.458314       -12.4714
  30   2.0000      -0.457724       -12.4553
  31   2.0000      -0.456935       -12.4338
  32   2.0000      -0.452700       -12.3186
  33   0.0000       0.119107         3.2411
  34   0.0000       0.126386         3.4391
  35   0.0000       0.145414         3.9569
  36   0.0000       0.171142         4.6570
  37   0.0000       0.171539         4.6678

MULLIKEN ATOMIC CHARGES
-----------------------
   0 C :   -0.258196
   1 H :    0.171413
   2 H :    0.175572
   3 H :    0.178544
   4 C :   -0.117168
   5 N :   -0.149341
   6 C :   -0.287702
   7 H :    0.167753
   8 H :    0.206031
   9 H :    0.166114
  10 C :   -0.113858
  11 N :   -0.139162
  12 C :   -0.280664
  13 H :    0.172039
  14 H :    0.172496
  15 H :    0.172543
  16 C :   -0.145637
  17 N :   -0.090777
Sum of atomic charges:    0.0000000

LOEWDIN ATOMIC CHARGES
----------------------
   0 C :   -0.284527
   1 H :    0.150125
   2 H :    0.156720
   3 H :    0.155710
   4 C :   -0.209745
   5 N :    0.029221
   6 C :   -0.282203
   7 H :    0.152789
   8 H :    0.157482
   9 H :    0.150139
  10 C :   -0.209270
  11 N :    0.033560
  12 C :   -0.283817
  13 H :    0.151529
  14 H :    0.151453
  15 H :    0.153209
  16 C :   -0.218828
  17 N :    0.046454

  Mayer bond orders larger than 0.100000
B(  0-C ,  1-H ) :   0.9098 B(  0-C ,  2-H ) :   0.9129 B(  0-C ,  3-H ) :   0.9126
B(  0-C ,  4-C ) :   0.9121 B(  4-C ,  5-N ) :   2.7716 B(  6-C ,  7-H ) :   0.9146
B(  6-C ,  8-H ) :   0.9018 B(  6-C ,  9-H ) :   0.9160 B(  6-C , 10-C ) :   0.9004
B( 10-C , 11-N ) :   2.7946 B( 12-C , 13-H ) :   0.9169 B( 12-C , 14-H ) :   0.9161
B( 12-C , 15-H ) :   0.9167 B( 12-C , 16-C ) :   0.9026 B( 16-C , 17-N ) :   2.8372

MP2 TOTAL ENERGY:     -397.459266661 Eh
FINAL SINGLE POINT ENERGY      -397.459266661064

DIPOLE MOMENT
-------------
                                X             Y             Z
Electronic contribution:     -0.03901       0.10717      -3.11988
Nuclear contribution   :      0.05823      -0.16348       4.65120
                        -----------------------------------------
Total Dipole Moment    :      0.01922      -0.05631       1.53132
                        -----------------------------------------
Magnitude (a.u.)       :      1.53248
Magnitude (Debye)      :      3.89525

Rotational constants in cm-1:     0.045804     0.006124     0.005915
Rotational constants in MHz :  1373.172106   183.588656   177.335674

                             ****ORCA TERMINATED NORMALLY****
TOTAL RUN TIME: 0 days 0 hours 4 minutes 12 seconds 509 msec
