                         Program Version 4.2.0 -  RELEASE  -
|  1> # 12h2o.su.etal.mol1,2,4,5,6,7,10,11
|  2> ! MP2 def2-TZVP EnGrad TightSCF
|  3>
|  4> %pal
|  5>     nprocs 6
|  6> end
|  7>
|  8> %maxcore 8000
|  9>
| 10> %scf
| 11>     ConvForced true
| 12> end
| 13>
| 14> *xyz 0 1
| 15> O  -1.794470000  -0.923410000   2.768350000
| 16> H  -2.338250000  -1.359750000   3.430940000
| 17> H  -0.879480000  -1.303000000   2.865760000
| 18> O   0.923410000  -1.794470000  -2.768350000
| 19> H   1.359750000  -2.338250000  -3.430940000
| 20> H   1.303000000  -0.879480000  -2.865760000
| 21> O  -0.885520000   1.737840000   0.052730000
| 22> H  -1.032320000   2.090180000  -0.841890000
| 23> H  -1.284090000   0.839590000   0.017130000
| 24> O   0.885520000  -1.737840000   0.052730000
| 25> H   1.284090000  -0.839590000   0.017130000
| 26> H   1.032320000  -2.090180000  -0.841890000
| 27> O   1.737840000   0.885520000  -0.052730000
| 28> H   2.090180000   1.032320000   0.841890000
| 29> H   0.839590000   1.284090000  -0.017130000
| 30> O  -1.737840000  -0.885520000  -0.052730000
| 31> H  -2.090180000  -1.032320000   0.841890000
| 32> H  -0.839590000  -1.284090000  -0.017130000
| 33> O  -0.923410000   1.794470000  -2.768350000
| 34> H  -1.359750000   2.338250000  -3.430940000
| 35> H  -1.303000000   0.879480000  -2.865760000
| 36> O  -0.741530000   1.752130000   2.896280000
| 37> H  -0.920500000   2.036450000   1.984040000
| 38> H  -1.242140000   0.921210000   2.984230000
| 39> *
| 40>
| 41>                          ****END OF INPUT****

CARTESIAN COORDINATES (ANGSTROEM)
---------------------------------
  O     -1.794470   -0.923410    2.768350
  H     -2.338250   -1.359750    3.430940
  H     -0.879480   -1.303000    2.865760
  O      0.923410   -1.794470   -2.768350
  H      1.359750   -2.338250   -3.430940
  H      1.303000   -0.879480   -2.865760
  O     -0.885520    1.737840    0.052730
  H     -1.032320    2.090180   -0.841890
  H     -1.284090    0.839590    0.017130
  O      0.885520   -1.737840    0.052730
  H      1.284090   -0.839590    0.017130
  H      1.032320   -2.090180   -0.841890
  O      1.737840    0.885520   -0.052730
  H      2.090180    1.032320    0.841890
  H      0.839590    1.284090   -0.017130
  O     -1.737840   -0.885520   -0.052730
  H     -2.090180   -1.032320    0.841890
  H     -0.839590   -1.284090   -0.017130
  O     -0.923410    1.794470   -2.768350
  H     -1.359750    2.338250   -3.430940
  H     -1.303000    0.879480   -2.865760
  O     -0.741530    1.752130    2.896280
  H     -0.920500    2.036450    1.984040
  H     -1.242140    0.921210    2.984230

 Total Charge           Charge          ....    0
 Multiplicity           Mult            ....    1
 Number of Electrons    NEL             ....   80
 Basis Dimension        Dim             ....  344

ORBITAL ENERGIES
----------------

  NO   OCC          E(Eh)            E(eV)
   0   2.0000     -20.600910      -560.5793
   1   2.0000     -20.588867      -560.2516
   2   2.0000     -20.587936      -560.2262
   3   2.0000     -20.546183      -559.0901
   4   2.0000     -20.539620      -558.9115
   5   2.0000     -20.531188      -558.6820
   6   2.0000     -20.530971      -558.6761
   7   2.0000     -20.504035      -557.9431
   8   2.0000      -1.381310       -37.5874
   9   2.0000      -1.367264       -37.2051
  10   2.0000      -1.366027       -37.1715
  11   2.0000      -1.343248       -36.5516
  12   2.0000      -1.327272       -36.1169
  13   2.0000      -1.323530       -36.0151
  14   2.0000      -1.307531       -35.5797
  15   2.0000      -1.289027       -35.0762
  16   2.0000      -0.746666       -20.3178
  17   2.0000      -0.734586       -19.9891
  18   2.0000      -0.731550       -19.9065
  19   2.0000      -0.703413       -19.1408
  20   2.0000      -0.698832       -19.0162
  21   2.0000      -0.693225       -18.8636
  22   2.0000      -0.692372       -18.8404
  23   2.0000      -0.667712       -18.1694
  24   2.0000      -0.625743       -17.0273
  25   2.0000      -0.610952       -16.6249
  26   2.0000      -0.609135       -16.5754
  27   2.0000      -0.589685       -16.0461
  28   2.0000      -0.580111       -15.7856
  29   2.0000      -0.571836       -15.5604
  30   2.0000      -0.559558       -15.2264
  31   2.0000      -0.538877       -14.6636
  32   2.0000      -0.527260       -14.3475
  33   2.0000      -0.524272       -14.2662
  34   2.0000      -0.515702       -14.0330
  35   2.0000      -0.490204       -13.3391
  36   2.0000      -0.487751       -13.2724
  37   2.0000      -0.480654       -13.0793
  38   2.0000      -0.476202       -12.9581
  39   2.0000      -0.453940       -12.3523
  40   0.0000       0.099508         2.7077
  41   0.0000       0.113971         3.1013
  42   0.0000       0.130330         3.5464
  43   0.0000       0.161259         4.3881
  44   0.0000       0.190428         5.1818

MULLIKEN ATOMIC CHARGES
-----------------------
   0 O :   -0.716352
   1 H :    0.360791
   2 H :    0.377876
   3 O :   -0.703800
   4 H :    0.350207
   5 H :    0.366853
   6 O :   -0.755400
   7 H :    0.377192
   8 H :    0.357505
   9 O :   -0.740373
  10 H :    0.354495
  11 H :    0.373518
  12 O :   -0.727640
  13 H :    0.351411
  14 H :    0.378890
  15 O :   -0.736677
  16 H :    0.369090
  17 H :    0.365052
  18 O :   -0.705039
  19 H :    0.351399
  20 H :    0.368784
  21 O :   -0.728952
  22 H :    0.369585
  23 H :    0.341587
Sum of atomic charges:    0.0000000

LOEWDIN ATOMIC CHARGES
----------------------
   0 O :   -0.287872
   1 H :    0.166171
   2 H :    0.194512
   3 O :   -0.312652
   4 H :    0.162684
   5 H :    0.189131
   6 O :   -0.303297
   7 H :    0.150565
   8 H :    0.140711
   9 O :   -0.323543
  10 H :    0.138663
  11 H :    0.148705
  12 O :   -0.315009
  13 H :    0.167380
  14 H :    0.145868
  15 O :   -0.320637
  16 H :    0.146313
  17 H :    0.140621
  18 O :   -0.312875
  19 H :    0.163354
  20 H :    0.189850
  21 O :   -0.356741
  22 H :    0.148483
  23 H :    0.139615

  Mayer bond orders larger than 0.100000
B(  0-O ,  1-H ) :   0.8339 B(  0-O ,  2-H ) :   0.8148 B(  3-O ,  4-H ) :   0.8427
B(  3-O ,  5-H ) :   0.8239 B(  6-O ,  7-H ) :   0.8049 B(  6-O ,  8-H ) :   0.7522
B(  6-O , 14-H ) :   0.1016 B(  8-H , 15-O ) :   0.1219 B(  9-O , 10-H ) :   0.7733
B(  9-O , 11-H ) :   0.8116 B(  9-O , 17-H ) :   0.1129 B( 10-H , 12-O ) :   0.1121
B( 12-O , 13-H ) :   0.8402 B( 12-O , 14-H ) :   0.7616 B( 15-O , 16-H ) :   0.8170
B( 15-O , 17-H ) :   0.7654 B( 18-O , 19-H ) :   0.8423 B( 18-O , 20-H ) :   0.8227
B( 21-O , 22-H ) :   0.8195 B( 21-O , 23-H ) :   0.8357

MP2 TOTAL ENERGY:     -610.588533969 Eh
FINAL SINGLE POINT ENERGY      -610.588533969110

DIPOLE MOMENT
-------------
                                X             Y             Z
Electronic contribution:     -0.02925       0.01764      -0.16906
Nuclear contribution   :     -0.25668      -1.13412      -1.31870
                        -----------------------------------------
Total Dipole Moment    :     -0.28593      -1.11648      -1.48776
                        -----------------------------------------
Magnitude (a.u.)       :      1.88195
Magnitude (Debye)      :      4.78352

Rotational constants in cm-1:     0.033875     0.020949     0.017684
Rotational constants in MHz :  1015.551038   628.046106   530.155900

                             ****ORCA TERMINATED NORMALLY****
TOTAL RUN TIME: 0 days 0 hours 3 minutes 18 seconds 992 msec
