                         Program Version 4.2.0 -  RELEASE  -
|  1> # 12mecn.remya.etal.2.mol0,2,10
|  2> ! MP2 def2-TZVP EnGrad TightSCF
|  3>
|  4> %pal
|  5>     nprocs 6
|  6> end
|  7>
|  8> %maxcore 8000
|  9>
| 10> %scf
| 11>     ConvForced true
| 12> end
| 13>
| 14> *xyz 0 1
| 15> C  -0.869520000  -3.929380000   1.700199000
| 16> H  -0.057420000  -3.268850000   2.015352000
| 17> H  -0.697530000  -4.930670000   2.101524000
| 18> H  -1.821490000  -3.546590000   2.077146000
| 19> C  -0.916080000  -3.969960000   0.256749000
| 20> N  -0.955390000  -3.995980000  -0.909290000
| 21> C  -4.219070000  -3.477410000  -1.501740000
| 22> H  -3.251530000  -3.803540000  -1.893830000
| 23> H  -4.452920000  -2.481700000  -1.890840000
| 24> H  -4.992170000  -4.178130000  -1.824640000
| 25> C  -4.154550000  -3.418790000  -0.058340000
| 26> N  -4.091140000  -3.354840000   1.104432000
| 27> C   4.602033000   0.321019000  -1.784800000
| 28> H   4.827650000  -0.662160000  -2.207910000
| 29> H   5.320558000   1.057980000  -2.148500000
| 30> H   3.601982000   0.643751000  -2.087520000
| 31> C   4.654967000   0.244048000  -0.343060000
| 32> N   4.691648000   0.166590000   0.820757000
| 33> *
| 34>
| 35>                          ****END OF INPUT****

CARTESIAN COORDINATES (ANGSTROEM)
---------------------------------
  C     -0.869520   -3.929380    1.700199
  H     -0.057420   -3.268850    2.015352
  H     -0.697530   -4.930670    2.101524
  H     -1.821490   -3.546590    2.077146
  C     -0.916080   -3.969960    0.256749
  N     -0.955390   -3.995980   -0.909290
  C     -4.219070   -3.477410   -1.501740
  H     -3.251530   -3.803540   -1.893830
  H     -4.452920   -2.481700   -1.890840
  H     -4.992170   -4.178130   -1.824640
  C     -4.154550   -3.418790   -0.058340
  N     -4.091140   -3.354840    1.104432
  C      4.602033    0.321019   -1.784800
  H      4.827650   -0.662160   -2.207910
  H      5.320558    1.057980   -2.148500
  H      3.601982    0.643751   -2.087520
  C      4.654967    0.244048   -0.343060
  N      4.691648    0.166590    0.820757

 Total Charge           Charge          ....    0
 Multiplicity           Mult            ....    1
 Number of Electrons    NEL             ....   66
 Basis Dimension        Dim             ....  333

ORBITAL ENERGIES
----------------

  NO   OCC          E(Eh)            E(eV)
   0   2.0000     -15.573107      -423.7658
   1   2.0000     -15.571292      -423.7164
   2   2.0000     -15.570285      -423.6890
   3   2.0000     -11.284260      -307.0603
   4   2.0000     -11.283174      -307.0308
   5   2.0000     -11.282593      -307.0150
   6   2.0000     -11.280313      -306.9529
   7   2.0000     -11.272475      -306.7396
   8   2.0000     -11.269171      -306.6497
   9   2.0000      -1.218091       -33.1459
  10   2.0000      -1.214498       -33.0482
  11   2.0000      -1.213668       -33.0256
  12   2.0000      -1.043736       -28.4015
  13   2.0000      -1.036051       -28.1924
  14   2.0000      -1.032667       -28.1003
  15   2.0000      -0.699595       -19.0369
  16   2.0000      -0.694963       -18.9109
  17   2.0000      -0.689796       -18.7703
  18   2.0000      -0.633723       -17.2445
  19   2.0000      -0.630323       -17.1520
  20   2.0000      -0.629352       -17.1255
  21   2.0000      -0.622740       -16.9456
  22   2.0000      -0.619804       -16.8657
  23   2.0000      -0.613633       -16.6978
  24   2.0000      -0.559054       -15.2126
  25   2.0000      -0.556049       -15.1309
  26   2.0000      -0.555735       -15.1223
  27   2.0000      -0.459961       -12.5162
  28   2.0000      -0.459251       -12.4969
  29   2.0000      -0.457837       -12.4584
  30   2.0000      -0.457284       -12.4433
  31   2.0000      -0.456451       -12.4207
  32   2.0000      -0.455320       -12.3899
  33   0.0000       0.119643         3.2557
  34   0.0000       0.129086         3.5126
  35   0.0000       0.143870         3.9149
  36   0.0000       0.170469         4.6387
  37   0.0000       0.171593         4.6693

MULLIKEN ATOMIC CHARGES
-----------------------
   0 C :   -0.285311
   1 H :    0.171554
   2 H :    0.166179
   3 H :    0.205165
   4 C :   -0.103048
   5 N :   -0.154599
   6 C :   -0.287100
   7 H :    0.205168
   8 H :    0.166112
   9 H :    0.166801
  10 C :   -0.100904
  11 N :   -0.150023
  12 C :   -0.277773
  13 H :    0.173465
  14 H :    0.171455
  15 H :    0.172852
  16 C :   -0.145691
  17 N :   -0.094301
Sum of atomic charges:    0.0000000

LOEWDIN ATOMIC CHARGES
----------------------
   0 C :   -0.281572
   1 H :    0.152939
   2 H :    0.151932
   3 H :    0.157123
   4 C :   -0.207423
   5 N :    0.026273
   6 C :   -0.282579
   7 H :    0.156844
   8 H :    0.152889
   9 H :    0.149824
  10 C :   -0.207120
  11 N :    0.030869
  12 C :   -0.283151
  13 H :    0.153497
  14 H :    0.151355
  15 H :    0.153519
  16 C :   -0.219436
  17 N :    0.044218

  Mayer bond orders larger than 0.100000
B(  0-C ,  1-H ) :   0.9149 B(  0-C ,  2-H ) :   0.9143 B(  0-C ,  3-H ) :   0.9012
B(  0-C ,  4-C ) :   0.9017 B(  4-C ,  5-N ) :   2.7751 B(  6-C ,  7-H ) :   0.9015
B(  6-C ,  8-H ) :   0.9147 B(  6-C ,  9-H ) :   0.9164 B(  6-C , 10-C ) :   0.9026
B( 10-C , 11-N ) :   2.7694 B( 12-C , 13-H ) :   0.9154 B( 12-C , 14-H ) :   0.9170
B( 12-C , 15-H ) :   0.9162 B( 12-C , 16-C ) :   0.9019 B( 16-C , 17-N ) :   2.8382

MP2 TOTAL ENERGY:     -397.459900497 Eh
FINAL SINGLE POINT ENERGY      -397.459900497050

DIPOLE MOMENT
-------------
                                X             Y             Z
Electronic contribution:      0.16123      -0.15233       3.12415
Nuclear contribution   :     -0.23938       0.21876      -4.63497
                        -----------------------------------------
Total Dipole Moment    :     -0.07814       0.06643      -1.51082
                        -----------------------------------------
Magnitude (a.u.)       :      1.51430
Magnitude (Debye)      :      3.84904

Rotational constants in cm-1:     0.065868     0.008177     0.007759
Rotational constants in MHz :  1974.685297   245.129094   232.610040

                             ****ORCA TERMINATED NORMALLY****
TOTAL RUN TIME: 0 days 0 hours 2 minutes 53 seconds 666 msec
