                         Program Version 4.2.0 -  RELEASE  -
|  1> # 12meoh.boyd.etal.mol1,8,10
|  2> ! MP2 def2-TZVP EnGrad TightSCF
|  3>
|  4> %pal
|  5>     nprocs 6
|  6> end
|  7>
|  8> %maxcore 8000
|  9>
| 10> %scf
| 11>     ConvForced true
| 12> end
| 13>
| 14> *xyz 0 1
| 15> O   0.666045193  -2.600503172   0.138317521
| 16> H  -0.227115049  -2.712051982  -0.281868004
| 17> C   0.490021232  -1.851247678   1.341189459
| 18> H   1.466500502  -1.466176022   1.645844415
| 19> H   0.097564527  -2.488364683   2.146902740
| 20> H  -0.187588112  -1.000787499   1.200739571
| 21> O   3.570084754   2.361662577  -0.202416728
| 22> H   3.393280933   1.755669977   0.560634073
| 23> C   4.368082883   1.644741793  -1.143112807
| 24> H   4.552851717   2.311801738  -1.989632421
| 25> H   3.862427494   0.740851663  -1.508095690
| 26> H   5.333949674   1.357289092  -0.706288100
| 27> O  -5.201143618   0.064582726  -0.172223772
| 28> H  -4.686891530   0.869258890   0.107806143
| 29> C  -6.513192168   0.171391798   0.359883449
| 30> H  -7.049381312  -0.749234190   0.111361174
| 31> H  -7.057741163   1.017801101  -0.081819420
| 32> H  -6.514770575   0.292264928   1.453058834
| 33> *
| 34>
| 35>                          ****END OF INPUT****

CARTESIAN COORDINATES (ANGSTROEM)
---------------------------------
  O      0.666045   -2.600503    0.138318
  H     -0.227115   -2.712052   -0.281868
  C      0.490021   -1.851248    1.341189
  H      1.466501   -1.466176    1.645844
  H      0.097565   -2.488365    2.146903
  H     -0.187588   -1.000787    1.200740
  O      3.570085    2.361663   -0.202417
  H      3.393281    1.755670    0.560634
  C      4.368083    1.644742   -1.143113
  H      4.552852    2.311802   -1.989632
  H      3.862427    0.740852   -1.508096
  H      5.333950    1.357289   -0.706288
  O     -5.201144    0.064583   -0.172224
  H     -4.686892    0.869259    0.107806
  C     -6.513192    0.171392    0.359883
  H     -7.049381   -0.749234    0.111361
  H     -7.057741    1.017801   -0.081819
  H     -6.514771    0.292265    1.453059

 Total Charge           Charge          ....    0
 Multiplicity           Mult            ....    1
 Number of Electrons    NEL             ....   54
 Basis Dimension        Dim             ....  258

ORBITAL ENERGIES
----------------

  NO   OCC          E(Eh)            E(eV)
   0   2.0000     -20.561816      -559.5155
   1   2.0000     -20.558060      -559.4132
   2   2.0000     -20.554926      -559.3280
   3   2.0000     -11.274815      -306.8033
   4   2.0000     -11.273958      -306.7800
   5   2.0000     -11.268537      -306.6325
   6   2.0000      -1.351859       -36.7860
   7   2.0000      -1.346288       -36.6343
   8   2.0000      -1.344345       -36.5815
   9   2.0000      -0.922782       -25.1102
  10   2.0000      -0.921868       -25.0853
  11   2.0000      -0.916858       -24.9490
  12   2.0000      -0.686254       -18.6739
  13   2.0000      -0.682063       -18.5599
  14   2.0000      -0.679223       -18.4826
  15   2.0000      -0.620499       -16.8846
  16   2.0000      -0.618231       -16.8229
  17   2.0000      -0.614029       -16.7086
  18   2.0000      -0.595443       -16.2028
  19   2.0000      -0.591813       -16.1041
  20   2.0000      -0.587088       -15.9755
  21   2.0000      -0.503732       -13.7072
  22   2.0000      -0.502755       -13.6806
  23   2.0000      -0.498900       -13.5758
  24   2.0000      -0.452557       -12.3147
  25   2.0000      -0.450620       -12.2620
  26   2.0000      -0.447121       -12.1668
  27   0.0000       0.115994         3.1563
  28   0.0000       0.129332         3.5193
  29   0.0000       0.144340         3.9277
  30   0.0000       0.169536         4.6133
  31   0.0000       0.173520         4.7217

MULLIKEN ATOMIC CHARGES
-----------------------
   0 O :   -0.499217
   1 H :    0.326134
   2 C :   -0.172503
   3 H :    0.118844
   4 H :    0.112614
   5 H :    0.114135
   6 O :   -0.497923
   7 H :    0.319640
   8 C :   -0.176675
   9 H :    0.128052
  10 H :    0.117877
  11 H :    0.108994
  12 O :   -0.499051
  13 H :    0.322287
  14 C :   -0.172492
  15 H :    0.129570
  16 H :    0.110463
  17 H :    0.109250
Sum of atomic charges:   -0.0000000

LOEWDIN ATOMIC CHARGES
----------------------
   0 O :   -0.112869
   1 H :    0.191708
   2 C :   -0.378374
   3 H :    0.106056
   4 H :    0.096803
   5 H :    0.096660
   6 O :   -0.111132
   7 H :    0.186904
   8 C :   -0.378623
   9 H :    0.109978
  10 H :    0.097492
  11 H :    0.095382
  12 O :   -0.108281
  13 H :    0.191072
  14 C :   -0.384534
  15 H :    0.110559
  16 H :    0.095762
  17 H :    0.095437

  Mayer bond orders larger than 0.100000
B(  0-O ,  1-H ) :   0.8408 B(  0-O ,  2-C ) :   0.9297 B(  2-C ,  3-H ) :   0.9388
B(  2-C ,  4-H ) :   0.9384 B(  2-C ,  5-H ) :   0.9411 B(  6-O ,  7-H ) :   0.8448
B(  6-O ,  8-C ) :   0.9225 B(  8-C ,  9-H ) :   0.9375 B(  8-C , 10-H ) :   0.9377
B(  8-C , 11-H ) :   0.9395 B( 12-O , 13-H ) :   0.8417 B( 12-O , 14-C ) :   0.9254
B( 14-C , 15-H ) :   0.9375 B( 14-C , 16-H ) :   0.9392 B( 14-C , 17-H ) :   0.9385

MP2 TOTAL ENERGY:     -346.520680012 Eh
FINAL SINGLE POINT ENERGY      -346.520680011907

DIPOLE MOMENT
-------------
                                X             Y             Z
Electronic contribution:      0.95466      -0.21521      -1.14962
Nuclear contribution   :     -1.61298       0.31607       1.83226
                        -----------------------------------------
Total Dipole Moment    :     -0.65832       0.10086       0.68264
                        -----------------------------------------
Magnitude (a.u.)       :      0.95371
Magnitude (Debye)      :      2.42413

Rotational constants in cm-1:     0.051368     0.010061     0.008705
Rotational constants in MHz :  1539.982468   301.615947   260.972494

                             ****ORCA TERMINATED NORMALLY****
TOTAL RUN TIME: 0 days 0 hours 0 minutes 45 seconds 465 msec
