                         Program Version 4.2.0 -  RELEASE  -
|  1> # 12h2o.su.etal.mol0,2,3,4,6,10
|  2> ! MP2 def2-TZVP EnGrad TightSCF
|  3>
|  4> %pal
|  5>     nprocs 6
|  6> end
|  7>
|  8> %maxcore 8000
|  9>
| 10> %scf
| 11>     ConvForced true
| 12> end
| 13>
| 14> *xyz 0 1
| 15> O   1.794470000   0.923410000   2.768350000
| 16> H   2.338250000   1.359750000   3.430940000
| 17> H   0.879480000   1.303000000   2.865760000
| 18> O   0.923410000  -1.794470000  -2.768350000
| 19> H   1.359750000  -2.338250000  -3.430940000
| 20> H   1.303000000  -0.879480000  -2.865760000
| 21> O  -1.752130000  -0.741530000  -2.896280000
| 22> H  -2.036450000  -0.920500000  -1.984040000
| 23> H  -0.921210000  -1.242140000  -2.984230000
| 24> O  -0.885520000   1.737840000   0.052730000
| 25> H  -1.032320000   2.090180000  -0.841890000
| 26> H  -1.284090000   0.839590000   0.017130000
| 27> O   1.737840000   0.885520000  -0.052730000
| 28> H   2.090180000   1.032320000   0.841890000
| 29> H   0.839590000   1.284090000  -0.017130000
| 30> O  -0.923410000   1.794470000  -2.768350000
| 31> H  -1.359750000   2.338250000  -3.430940000
| 32> H  -1.303000000   0.879480000  -2.865760000
| 33> *
| 34>
| 35>                          ****END OF INPUT****

CARTESIAN COORDINATES (ANGSTROEM)
---------------------------------
  O      1.794470    0.923410    2.768350
  H      2.338250    1.359750    3.430940
  H      0.879480    1.303000    2.865760
  O      0.923410   -1.794470   -2.768350
  H      1.359750   -2.338250   -3.430940
  H      1.303000   -0.879480   -2.865760
  O     -1.752130   -0.741530   -2.896280
  H     -2.036450   -0.920500   -1.984040
  H     -0.921210   -1.242140   -2.984230
  O     -0.885520    1.737840    0.052730
  H     -1.032320    2.090180   -0.841890
  H     -1.284090    0.839590    0.017130
  O      1.737840    0.885520   -0.052730
  H      2.090180    1.032320    0.841890
  H      0.839590    1.284090   -0.017130
  O     -0.923410    1.794470   -2.768350
  H     -1.359750    2.338250   -3.430940
  H     -1.303000    0.879480   -2.865760

 Total Charge           Charge          ....    0
 Multiplicity           Mult            ....    1
 Number of Electrons    NEL             ....   60
 Basis Dimension        Dim             ....  258

ORBITAL ENERGIES
----------------

  NO   OCC          E(Eh)            E(eV)
   0   2.0000     -20.582989      -560.0916
   1   2.0000     -20.580115      -560.0134
   2   2.0000     -20.571510      -559.7792
   3   2.0000     -20.557200      -559.3899
   4   2.0000     -20.545631      -559.0751
   5   2.0000     -20.485201      -557.4307
   6   2.0000      -1.372423       -37.3455
   7   2.0000      -1.357706       -36.9451
   8   2.0000      -1.349433       -36.7199
   9   2.0000      -1.343291       -36.5528
  10   2.0000      -1.326295       -36.0903
  11   2.0000      -1.269624       -34.5482
  12   2.0000      -0.735769       -20.0213
  13   2.0000      -0.721221       -19.6254
  14   2.0000      -0.716296       -19.4914
  15   2.0000      -0.713355       -19.4114
  16   2.0000      -0.703374       -19.1398
  17   2.0000      -0.653422       -17.7805
  18   2.0000      -0.622962       -16.9516
  19   2.0000      -0.598140       -16.2762
  20   2.0000      -0.590290       -16.0626
  21   2.0000      -0.581450       -15.8221
  22   2.0000      -0.563880       -15.3440
  23   2.0000      -0.536253       -14.5922
  24   2.0000      -0.525112       -14.2890
  25   2.0000      -0.516808       -14.0631
  26   2.0000      -0.505095       -13.7443
  27   2.0000      -0.495161       -13.4740
  28   2.0000      -0.482164       -13.1203
  29   2.0000      -0.436368       -11.8742
  30   0.0000       0.100176         2.7259
  31   0.0000       0.126939         3.4542
  32   0.0000       0.135880         3.6975
  33   0.0000       0.158765         4.3202
  34   0.0000       0.190900         5.1946

MULLIKEN ATOMIC CHARGES
-----------------------
   0 O :   -0.691492
   1 H :    0.343392
   2 H :    0.356076
   3 O :   -0.703581
   4 H :    0.350807
   5 H :    0.380525
   6 O :   -0.697692
   7 H :    0.344889
   8 H :    0.381175
   9 O :   -0.697518
  10 H :    0.382548
  11 H :    0.325372
  12 O :   -0.742543
  13 H :    0.354756
  14 H :    0.345324
  15 O :   -0.736636
  16 H :    0.337353
  17 H :    0.367246
Sum of atomic charges:   -0.0000000

LOEWDIN ATOMIC CHARGES
----------------------
   0 O :   -0.310875
   1 H :    0.159141
   2 H :    0.185349
   3 O :   -0.310006
   4 H :    0.163509
   5 H :    0.195739
   6 O :   -0.279943
   7 H :    0.166172
   8 H :    0.156565
   9 O :   -0.302566
  10 H :    0.154375
  11 H :    0.163379
  12 O :   -0.375666
  13 H :    0.142427
  14 H :    0.135859
  15 O :   -0.339880
  16 H :    0.154011
  17 H :    0.142410

  Mayer bond orders larger than 0.100000
B(  0-O ,  1-H ) :   0.8465 B(  0-O ,  2-H ) :   0.8332 B(  3-O ,  4-H ) :   0.8422
B(  3-O ,  5-H ) :   0.8140 B(  6-O ,  7-H ) :   0.8452 B(  6-O ,  8-H ) :   0.7860
B(  6-O , 17-H ) :   0.1006 B(  9-O , 10-H ) :   0.7918 B(  9-O , 11-H ) :   0.8528
B( 12-O , 13-H ) :   0.8319 B( 12-O , 14-H ) :   0.8055 B( 15-O , 16-H ) :   0.8504
B( 15-O , 17-H ) :   0.7585

MP2 TOTAL ENERGY:     -457.921075138 Eh
FINAL SINGLE POINT ENERGY      -457.921075137574

DIPOLE MOMENT
-------------
                                X             Y             Z
Electronic contribution:      0.08654      -0.31765      -0.12199
Nuclear contribution   :     -0.76235       0.11304       0.05351
                        -----------------------------------------
Total Dipole Moment    :     -0.67581      -0.20461      -0.06848
                        -----------------------------------------
Magnitude (a.u.)       :      0.70942
Magnitude (Debye)      :      1.80320

Rotational constants in cm-1:     0.062626     0.025117     0.020432
Rotational constants in MHz :  1877.494613   752.989130   612.548113

                             ****ORCA TERMINATED NORMALLY****
TOTAL RUN TIME: 0 days 0 hours 1 minutes 0 seconds 771 msec
