                         Program Version 4.2.0 -  RELEASE  -
|  1> # Functional Basis-set
|  2> ! MP2 def2-TZVP
|  3>
|  4> # Type of calculation
|  5> ! Engrad
|  6>
|  7> # Options
|  8> ! TightSCF Grid4
|  9> %maxcore 2000
| 10>
| 11> %pal nprocs 12 end
| 12>
| 13> *xyz  0  1
| 14> O    -2.867666    -1.821372    -0.772018
| 15> H    -1.982241    -2.110818    -0.955241
| 16> H    -2.999116    -1.037472    -1.292291
| 17> O     0.043817    -1.866490    -0.767104
| 18> H     0.048987    -1.609614     0.152031
| 19> H     0.923713    -2.171052    -0.955827
| 20> O     2.930036    -1.852845    -0.941014
| 21> H     2.970082    -0.973048    -1.322711
| 22> H     3.610150    -2.363474    -1.348915
| 23> O    -2.935599     0.927315    -1.851481
| 24> H    -2.976890     1.307539    -0.971120
| 25> H    -3.617549     1.333190    -2.361278
| 26> O    -0.049937     0.768624    -1.864595
| 27> H    -0.051102    -0.150622    -1.608116
| 28> H    -0.930018     0.953578    -2.170817
| 29> O     2.861689     0.784646    -1.824610
| 30> H     1.975329     0.963600    -2.113946
| 31> H     2.990362     1.304807    -1.040165
| 32> O    -2.870860     1.809723     0.786711
| 33> H    -2.994629     1.024733     1.307312
| 34> H    -1.986549     2.104959     0.965905
| 35> O     0.041043     1.866434     0.769987
| 36> H     0.041900     1.609528    -0.149127
| 37> H     0.919901     2.177253     0.953121
| 38> O     2.927814     1.864104     0.922952
| 39> H     2.972441     0.984434     1.304398
| 40> H     3.610126     2.376036     1.325540
| 41> O    -2.921378    -0.938585     1.865604
| 42> H    -2.966858    -1.319314     0.985644
| 43> H    -3.599494    -1.345653     2.379560
| 44> O    -0.035371    -0.767829     1.868273
| 45> H    -0.040157     0.151604     1.612372
| 46> H    -0.914375    -0.955770     2.175766
| 47> O     2.876537    -0.774086     1.807503
| 48> H     3.001442    -1.293952     1.022253
| 49> H     1.993489    -0.957585     2.104019
| 50> *
| 51>
| 52>                          ****END OF INPUT****

CARTESIAN COORDINATES (ANGSTROEM)
---------------------------------
  O     -2.867666   -1.821372   -0.772018
  H     -1.982241   -2.110818   -0.955241
  H     -2.999116   -1.037472   -1.292291
  O      0.043817   -1.866490   -0.767104
  H      0.048987   -1.609614    0.152031
  H      0.923713   -2.171052   -0.955827
  O      2.930036   -1.852845   -0.941014
  H      2.970082   -0.973048   -1.322711
  H      3.610150   -2.363474   -1.348915
  O     -2.935599    0.927315   -1.851481
  H     -2.976890    1.307539   -0.971120
  H     -3.617549    1.333190   -2.361278
  O     -0.049937    0.768624   -1.864595
  H     -0.051102   -0.150622   -1.608116
  H     -0.930018    0.953578   -2.170817
  O      2.861689    0.784646   -1.824610
  H      1.975329    0.963600   -2.113946
  H      2.990362    1.304807   -1.040165
  O     -2.870860    1.809723    0.786711
  H     -2.994629    1.024733    1.307312
  H     -1.986549    2.104959    0.965905
  O      0.041043    1.866434    0.769987
  H      0.041900    1.609528   -0.149127
  H      0.919901    2.177253    0.953121
  O      2.927814    1.864104    0.922952
  H      2.972441    0.984434    1.304398
  H      3.610126    2.376036    1.325540
  O     -2.921378   -0.938585    1.865604
  H     -2.966858   -1.319314    0.985644
  H     -3.599494   -1.345653    2.379560
  O     -0.035371   -0.767829    1.868273
  H     -0.040157    0.151604    1.612372
  H     -0.914375   -0.955770    2.175766
  O      2.876537   -0.774086    1.807503
  H      3.001442   -1.293952    1.022253
  H      1.993489   -0.957585    2.104019

 Total Charge           Charge          ....    0
 Multiplicity           Mult            ....    1
 Number of Electrons    NEL             ....  120
 Basis Dimension        Dim             ....  516

ORBITAL ENERGIES
----------------

  NO   OCC          E(Eh)            E(eV)
   0   2.0000     -20.567982      -559.6832
   1   2.0000     -20.567977      -559.6831
   2   2.0000     -20.567976      -559.6831
   3   2.0000     -20.567963      -559.6827
   4   2.0000     -20.555748      -559.3503
   5   2.0000     -20.555740      -559.3501
   6   2.0000     -20.555715      -559.3494
   7   2.0000     -20.555595      -559.3462
   8   2.0000     -20.549028      -559.1675
   9   2.0000     -20.549004      -559.1668
  10   2.0000     -20.548992      -559.1665
  11   2.0000     -20.548925      -559.1647
  12   2.0000      -1.378226       -37.5034
  13   2.0000      -1.373738       -37.3813
  14   2.0000      -1.370355       -37.2892
  15   2.0000      -1.370345       -37.2890
  16   2.0000      -1.365463       -37.1562
  17   2.0000      -1.358386       -36.9636
  18   2.0000      -1.358332       -36.9621
  19   2.0000      -1.351307       -36.7709
  20   2.0000      -1.347989       -36.6807
  21   2.0000      -1.347933       -36.6791
  22   2.0000      -1.345237       -36.6058
  23   2.0000      -1.340260       -36.4703
  24   2.0000      -0.747660       -20.3449
  25   2.0000      -0.746443       -20.3117
  26   2.0000      -0.745941       -20.2981
  27   2.0000      -0.745906       -20.2971
  28   2.0000      -0.735673       -20.0187
  29   2.0000      -0.735341       -20.0097
  30   2.0000      -0.732934       -19.9441
  31   2.0000      -0.732898       -19.9432
  32   2.0000      -0.719445       -19.5771
  33   2.0000      -0.717649       -19.5282
  34   2.0000      -0.716616       -19.5001
  35   2.0000      -0.716571       -19.4989
  36   2.0000      -0.646351       -17.5881
  37   2.0000      -0.623403       -16.9637
  38   2.0000      -0.618661       -16.8346
  39   2.0000      -0.618651       -16.8344
  40   2.0000      -0.595186       -16.1958
  41   2.0000      -0.594841       -16.1864
  42   2.0000      -0.594802       -16.1854
  43   2.0000      -0.591940       -16.1075
  44   2.0000      -0.570894       -15.5348
  45   2.0000      -0.570852       -15.5337
  46   2.0000      -0.566651       -15.4194
  47   2.0000      -0.548144       -14.9158
  48   2.0000      -0.524325       -14.2676
  49   2.0000      -0.524304       -14.2670
  50   2.0000      -0.524283       -14.2665
  51   2.0000      -0.523596       -14.2478
  52   2.0000      -0.514938       -14.0122
  53   2.0000      -0.511131       -13.9086
  54   2.0000      -0.511082       -13.9072
  55   2.0000      -0.509044       -13.8518
  56   2.0000      -0.505485       -13.7549
  57   2.0000      -0.502510       -13.6740
  58   2.0000      -0.502464       -13.6727
  59   2.0000      -0.502076       -13.6622
  60   0.0000       0.115302         3.1375
  61   0.0000       0.131406         3.5757
  62   0.0000       0.144159         3.9228
  63   0.0000       0.144178         3.9233
  64   0.0000       0.182514         4.9664

MULLIKEN ATOMIC CHARGES
-----------------------
   0 O :   -0.725021
   1 H :    0.377989
   2 H :    0.365183
   3 O :   -0.747222
   4 H :    0.363517
   5 H :    0.375516
   6 O :   -0.741692
   7 H :    0.382344
   8 H :    0.349412
   9 O :   -0.741686
  10 H :    0.382352
  11 H :    0.349380
  12 O :   -0.747140
  13 H :    0.363530
  14 H :    0.375482
  15 O :   -0.725062
  16 H :    0.377888
  17 H :    0.365179
  18 O :   -0.725023
  19 H :    0.365197
  20 H :    0.377823
  21 O :   -0.747108
  22 H :    0.363609
  23 H :    0.375432
  24 O :   -0.741679
  25 H :    0.382316
  26 H :    0.349407
  27 O :   -0.741737
  28 H :    0.382387
  29 H :    0.349419
  30 O :   -0.747239
  31 H :    0.363691
  32 H :    0.375469
  33 O :   -0.724964
  34 H :    0.365192
  35 H :    0.377858
Sum of atomic charges:    0.0000000

LOEWDIN ATOMIC CHARGES
----------------------
   0 O :   -0.276196
   1 H :    0.143756
   2 H :    0.137912
   3 O :   -0.280932
   4 H :    0.132146
   5 H :    0.140969
   6 O :   -0.286586
   7 H :    0.138136
   8 H :    0.150965
   9 O :   -0.286616
  10 H :    0.138119
  11 H :    0.150949
  12 O :   -0.280821
  13 H :    0.132120
  14 H :    0.140935
  15 O :   -0.276337
  16 H :    0.143737
  17 H :    0.137824
  18 O :   -0.276311
  19 H :    0.137886
  20 H :    0.143753
  21 O :   -0.280837
  22 H :    0.132099
  23 H :    0.141003
  24 O :   -0.286580
  25 H :    0.138136
  26 H :    0.150962
  27 O :   -0.286550
  28 H :    0.138107
  29 H :    0.150962
  30 O :   -0.281064
  31 H :    0.132116
  32 H :    0.140873
  33 O :   -0.276322
  34 H :    0.137857
  35 H :    0.143830

  Mayer bond orders larger than 0.100000
B(  0-O ,  1-H ) :   0.8139 B(  0-O ,  2-H ) :   0.8149 B(  3-O ,  4-H ) :   0.7852
B(  3-O ,  5-H ) :   0.8100 B(  6-O ,  7-H ) :   0.7624 B(  6-O ,  8-H ) :   0.8467
B(  9-O , 10-H ) :   0.7624 B(  9-O , 11-H ) :   0.8467 B( 12-O , 13-H ) :   0.7852
B( 12-O , 14-H ) :   0.8099 B( 15-O , 16-H ) :   0.8139 B( 15-O , 17-H ) :   0.8148
B( 18-O , 19-H ) :   0.8148 B( 18-O , 20-H ) :   0.8140 B( 21-O , 22-H ) :   0.7852
B( 21-O , 23-H ) :   0.8101 B( 24-O , 25-H ) :   0.7624 B( 24-O , 26-H ) :   0.8467
B( 27-O , 28-H ) :   0.7623 B( 27-O , 29-H ) :   0.8466 B( 30-O , 31-H ) :   0.7852
B( 30-O , 32-H ) :   0.8100 B( 33-O , 34-H ) :   0.8149 B( 33-O , 35-H ) :   0.8140

MP2 TOTAL ENERGY:     -915.950886765 Eh
FINAL SINGLE POINT ENERGY      -915.950886765478

DIPOLE MOMENT
-------------
                                X             Y             Z
Electronic contribution:     -0.00011      -0.00050      -0.00020
Nuclear contribution   :     -0.00109       0.00300      -0.00171
                        -----------------------------------------
Total Dipole Moment    :     -0.00119       0.00251      -0.00191
                        -----------------------------------------
Magnitude (a.u.)       :      0.00337
Magnitude (Debye)      :      0.00856

Rotational constants in cm-1:     0.018857     0.010116     0.010115
Rotational constants in MHz :   565.307184   303.267699   303.243507

                             ****ORCA TERMINATED NORMALLY****
TOTAL RUN TIME: 0 days 0 hours 23 minutes 38 seconds 603 msec
