                         Program Version 4.2.0 -  RELEASE  -
|  1> # 12h2o.su.etal.mol0,1,7,8,9,10
|  2> ! MP2 def2-TZVP EnGrad TightSCF
|  3>
|  4> %pal
|  5>     nprocs 6
|  6> end
|  7>
|  8> %maxcore 8000
|  9>
| 10> %scf
| 11>     ConvForced true
| 12> end
| 13>
| 14> *xyz 0 1
| 15> O   1.794470000   0.923410000   2.768350000
| 16> H   2.338250000   1.359750000   3.430940000
| 17> H   0.879480000   1.303000000   2.865760000
| 18> O  -1.794470000  -0.923410000   2.768350000
| 19> H  -2.338250000  -1.359750000   3.430940000
| 20> H  -0.879480000  -1.303000000   2.865760000
| 21> O  -1.737840000  -0.885520000  -0.052730000
| 22> H  -2.090180000  -1.032320000   0.841890000
| 23> H  -0.839590000  -1.284090000  -0.017130000
| 24> O   1.752130000   0.741530000  -2.896280000
| 25> H   2.036450000   0.920500000  -1.984040000
| 26> H   0.921210000   1.242140000  -2.984230000
| 27> O   0.741530000  -1.752130000   2.896280000
| 28> H   0.920500000  -2.036450000   1.984040000
| 29> H   1.242140000  -0.921210000   2.984230000
| 30> O  -0.923410000   1.794470000  -2.768350000
| 31> H  -1.359750000   2.338250000  -3.430940000
| 32> H  -1.303000000   0.879480000  -2.865760000
| 33> *
| 34>
| 35>                          ****END OF INPUT****

CARTESIAN COORDINATES (ANGSTROEM)
---------------------------------
  O      1.794470    0.923410    2.768350
  H      2.338250    1.359750    3.430940
  H      0.879480    1.303000    2.865760
  O     -1.794470   -0.923410    2.768350
  H     -2.338250   -1.359750    3.430940
  H     -0.879480   -1.303000    2.865760
  O     -1.737840   -0.885520   -0.052730
  H     -2.090180   -1.032320    0.841890
  H     -0.839590   -1.284090   -0.017130
  O      1.752130    0.741530   -2.896280
  H      2.036450    0.920500   -1.984040
  H      0.921210    1.242140   -2.984230
  O      0.741530   -1.752130    2.896280
  H      0.920500   -2.036450    1.984040
  H      1.242140   -0.921210    2.984230
  O     -0.923410    1.794470   -2.768350
  H     -1.359750    2.338250   -3.430940
  H     -1.303000    0.879480   -2.865760

 Total Charge           Charge          ....    0
 Multiplicity           Mult            ....    1
 Number of Electrons    NEL             ....   60
 Basis Dimension        Dim             ....  258

ORBITAL ENERGIES
----------------

  NO   OCC          E(Eh)            E(eV)
   0   2.0000     -20.602184      -560.6139
   1   2.0000     -20.584447      -560.1313
   2   2.0000     -20.573608      -559.8363
   3   2.0000     -20.545822      -559.0802
   4   2.0000     -20.530656      -558.6676
   5   2.0000     -20.524717      -558.5059
   6   2.0000      -1.382544       -37.6209
   7   2.0000      -1.370895       -37.3039
   8   2.0000      -1.351377       -36.7728
   9   2.0000      -1.330572       -36.2067
  10   2.0000      -1.308508       -35.6063
  11   2.0000      -1.306985       -35.5649
  12   2.0000      -0.749200       -20.3868
  13   2.0000      -0.731959       -19.9176
  14   2.0000      -0.718399       -19.5486
  15   2.0000      -0.714020       -19.4295
  16   2.0000      -0.677910       -18.4469
  17   2.0000      -0.675750       -18.3881
  18   2.0000      -0.630550       -17.1581
  19   2.0000      -0.605996       -16.4900
  20   2.0000      -0.591898       -16.1064
  21   2.0000      -0.576720       -15.6934
  22   2.0000      -0.551833       -15.0161
  23   2.0000      -0.547817       -14.9069
  24   2.0000      -0.543010       -14.7761
  25   2.0000      -0.519824       -14.1451
  26   2.0000      -0.511645       -13.9226
  27   2.0000      -0.493373       -13.4254
  28   2.0000      -0.476172       -12.9573
  29   2.0000      -0.472486       -12.8570
  30   0.0000       0.091628         2.4933
  31   0.0000       0.121067         3.2944
  32   0.0000       0.132438         3.6038
  33   0.0000       0.156408         4.2561
  34   0.0000       0.175674         4.7803

MULLIKEN ATOMIC CHARGES
-----------------------
   0 O :   -0.704380
   1 H :    0.358145
   2 H :    0.372082
   3 O :   -0.739458
   4 H :    0.336594
   5 H :    0.365622
   6 O :   -0.696189
   7 H :    0.370726
   8 H :    0.307897
   9 O :   -0.708247
  10 H :    0.327620
  11 H :    0.357706
  12 O :   -0.696891
  13 H :    0.348455
  14 H :    0.378989
  15 O :   -0.695536
  16 H :    0.346834
  17 H :    0.370032
Sum of atomic charges:   -0.0000000

LOEWDIN ATOMIC CHARGES
----------------------
   0 O :   -0.311028
   1 H :    0.166568
   2 H :    0.192980
   3 O :   -0.342924
   4 H :    0.153342
   5 H :    0.141705
   6 O :   -0.349168
   7 H :    0.150299
   8 H :    0.156009
   9 O :   -0.350889
  10 H :    0.159397
  11 H :    0.147283
  12 O :   -0.279118
  13 H :    0.167803
  14 H :    0.155426
  15 O :   -0.310335
  16 H :    0.161095
  17 H :    0.191555

  Mayer bond orders larger than 0.100000
B(  0-O ,  1-H ) :   0.8383 B(  0-O ,  2-H ) :   0.8216 B(  3-O ,  4-H ) :   0.8507
B(  3-O ,  5-H ) :   0.7609 B(  6-O ,  7-H ) :   0.8093 B(  6-O ,  8-H ) :   0.8658
B(  9-O , 10-H ) :   0.8591 B(  9-O , 11-H ) :   0.8156 B( 12-O , 13-H ) :   0.8426
B( 12-O , 14-H ) :   0.7924 B( 15-O , 16-H ) :   0.8447 B( 15-O , 17-H ) :   0.8229

MP2 TOTAL ENERGY:     -457.914954901 Eh
FINAL SINGLE POINT ENERGY      -457.914954901397

DIPOLE MOMENT
-------------
                                X             Y             Z
Electronic contribution:      0.16651       0.17822       0.04179
Nuclear contribution   :     -0.11407       0.25770       1.40687
                        -----------------------------------------
Total Dipole Moment    :      0.05244       0.43591       1.44866
                        -----------------------------------------
Magnitude (a.u.)       :      1.51373
Magnitude (Debye)      :      3.84761

Rotational constants in cm-1:     0.048774     0.019716     0.016095
Rotational constants in MHz :  1462.204329   591.055940   482.525495

                             ****ORCA TERMINATED NORMALLY****
TOTAL RUN TIME: 0 days 0 hours 0 minutes 52 seconds 868 msec
