                         Program Version 4.2.0 -  RELEASE  -
|  1> # 12h2o.su.etal.mol0,1,3,6,7,8
|  2> ! MP2 def2-TZVP EnGrad TightSCF
|  3>
|  4> %pal
|  5>     nprocs 6
|  6> end
|  7>
|  8> %maxcore 8000
|  9>
| 10> %scf
| 11>     ConvForced true
| 12> end
| 13>
| 14> *xyz 0 1
| 15> O   1.794470000   0.923410000   2.768350000
| 16> H   2.338250000   1.359750000   3.430940000
| 17> H   0.879480000   1.303000000   2.865760000
| 18> O  -1.794470000  -0.923410000   2.768350000
| 19> H  -2.338250000  -1.359750000   3.430940000
| 20> H  -0.879480000  -1.303000000   2.865760000
| 21> O  -1.752130000  -0.741530000  -2.896280000
| 22> H  -2.036450000  -0.920500000  -1.984040000
| 23> H  -0.921210000  -1.242140000  -2.984230000
| 24> O   1.737840000   0.885520000  -0.052730000
| 25> H   2.090180000   1.032320000   0.841890000
| 26> H   0.839590000   1.284090000  -0.017130000
| 27> O  -1.737840000  -0.885520000  -0.052730000
| 28> H  -2.090180000  -1.032320000   0.841890000
| 29> H  -0.839590000  -1.284090000  -0.017130000
| 30> O   1.752130000   0.741530000  -2.896280000
| 31> H   2.036450000   0.920500000  -1.984040000
| 32> H   0.921210000   1.242140000  -2.984230000
| 33> *
| 34>
| 35>                          ****END OF INPUT****

CARTESIAN COORDINATES (ANGSTROEM)
---------------------------------
  O      1.794470    0.923410    2.768350
  H      2.338250    1.359750    3.430940
  H      0.879480    1.303000    2.865760
  O     -1.794470   -0.923410    2.768350
  H     -2.338250   -1.359750    3.430940
  H     -0.879480   -1.303000    2.865760
  O     -1.752130   -0.741530   -2.896280
  H     -2.036450   -0.920500   -1.984040
  H     -0.921210   -1.242140   -2.984230
  O      1.737840    0.885520   -0.052730
  H      2.090180    1.032320    0.841890
  H      0.839590    1.284090   -0.017130
  O     -1.737840   -0.885520   -0.052730
  H     -2.090180   -1.032320    0.841890
  H     -0.839590   -1.284090   -0.017130
  O      1.752130    0.741530   -2.896280
  H      2.036450    0.920500   -1.984040
  H      0.921210    1.242140   -2.984230

 Total Charge           Charge          ....    0
 Multiplicity           Mult            ....    1
 Number of Electrons    NEL             ....   60
 Basis Dimension        Dim             ....  258

ORBITAL ENERGIES
----------------

  NO   OCC          E(Eh)            E(eV)
   0   2.0000     -20.609410      -560.8106
   1   2.0000     -20.609410      -560.8106
   2   2.0000     -20.561265      -559.5005
   3   2.0000     -20.561264      -559.5004
   4   2.0000     -20.516354      -558.2784
   5   2.0000     -20.516353      -558.2784
   6   2.0000      -1.387543       -37.7570
   7   2.0000      -1.387146       -37.7462
   8   2.0000      -1.342826       -36.5401
   9   2.0000      -1.342199       -36.5231
  10   2.0000      -1.298494       -35.3338
  11   2.0000      -1.297732       -35.3131
  12   2.0000      -0.755565       -20.5600
  13   2.0000      -0.752686       -20.4816
  14   2.0000      -0.712943       -19.4002
  15   2.0000      -0.710669       -19.3383
  16   2.0000      -0.667952       -18.1759
  17   2.0000      -0.665498       -18.1091
  18   2.0000      -0.626159       -17.0387
  19   2.0000      -0.626035       -17.0353
  20   2.0000      -0.588293       -16.0083
  21   2.0000      -0.588253       -16.0072
  22   2.0000      -0.552002       -15.0207
  23   2.0000      -0.550451       -14.9785
  24   2.0000      -0.532201       -14.4819
  25   2.0000      -0.531773       -14.4703
  26   2.0000      -0.508128       -13.8269
  27   2.0000      -0.503813       -13.7094
  28   2.0000      -0.466027       -12.6812
  29   2.0000      -0.460002       -12.5173
  30   0.0000       0.074683         2.0322
  31   0.0000       0.110544         3.0081
  32   0.0000       0.135639         3.6909
  33   0.0000       0.160412         4.3650
  34   0.0000       0.169611         4.6154

MULLIKEN ATOMIC CHARGES
-----------------------
   0 O :   -0.701795
   1 H :    0.357110
   2 H :    0.357913
   3 O :   -0.701795
   4 H :    0.357110
   5 H :    0.357913
   6 O :   -0.705178
   7 H :    0.368463
   8 H :    0.328204
   9 O :   -0.712242
  10 H :    0.373658
  11 H :    0.333867
  12 O :   -0.712242
  13 H :    0.373658
  14 H :    0.333867
  15 O :   -0.705178
  16 H :    0.368463
  17 H :    0.328204
Sum of atomic charges:   -0.0000000

LOEWDIN ATOMIC CHARGES
----------------------
   0 O :   -0.312580
   1 H :    0.165945
   2 H :    0.185763
   3 O :   -0.312580
   4 H :    0.165945
   5 H :    0.185763
   6 O :   -0.343391
   7 H :    0.151113
   8 H :    0.159456
   9 O :   -0.326082
  10 H :    0.152615
  11 H :    0.167161
  12 O :   -0.326082
  13 H :    0.152615
  14 H :    0.167161
  15 O :   -0.343391
  16 H :    0.151113
  17 H :    0.159456

  Mayer bond orders larger than 0.100000
B(  0-O ,  1-H ) :   0.8388 B(  0-O ,  2-H ) :   0.8302 B(  3-O ,  4-H ) :   0.8388
B(  3-O ,  5-H ) :   0.8302 B(  6-O ,  7-H ) :   0.8200 B(  6-O ,  8-H ) :   0.8546
B(  9-O , 10-H ) :   0.8095 B(  9-O , 11-H ) :   0.8441 B( 12-O , 13-H ) :   0.8095
B( 12-O , 14-H ) :   0.8441 B( 15-O , 16-H ) :   0.8200 B( 15-O , 17-H ) :   0.8546

MP2 TOTAL ENERGY:     -457.909064091 Eh
FINAL SINGLE POINT ENERGY      -457.909064091323

DIPOLE MOMENT
-------------
                                X             Y             Z
Electronic contribution:      0.00000       0.00000       0.09386
Nuclear contribution   :     -0.00000       0.00000       4.18596
                        -----------------------------------------
Total Dipole Moment    :      0.00000       0.00000       4.27981
                        -----------------------------------------
Magnitude (a.u.)       :      4.27981
Magnitude (Debye)      :     10.87842

Rotational constants in cm-1:     0.040310     0.028804     0.016933
Rotational constants in MHz :  1208.463347   863.510988   507.629127

                             ****ORCA TERMINATED NORMALLY****
TOTAL RUN TIME: 0 days 0 hours 0 minutes 52 seconds 830 msec
