                         Program Version 4.2.0 -  RELEASE  -
|  1> # 12h2o.su.etal.mol0,1,5,10
|  2> ! MP2 def2-TZVP EnGrad TightSCF
|  3>
|  4> %pal
|  5>     nprocs 6
|  6> end
|  7>
|  8> %maxcore 8000
|  9>
| 10> %scf
| 11>     ConvForced true
| 12> end
| 13>
| 14> *xyz 0 1
| 15> O   1.794470000   0.923410000   2.768350000
| 16> H   2.338250000   1.359750000   3.430940000
| 17> H   0.879480000   1.303000000   2.865760000
| 18> O  -1.794470000  -0.923410000   2.768350000
| 19> H  -2.338250000  -1.359750000   3.430940000
| 20> H  -0.879480000  -1.303000000   2.865760000
| 21> O   0.885520000  -1.737840000   0.052730000
| 22> H   1.284090000  -0.839590000   0.017130000
| 23> H   1.032320000  -2.090180000  -0.841890000
| 24> O  -0.923410000   1.794470000  -2.768350000
| 25> H  -1.359750000   2.338250000  -3.430940000
| 26> H  -1.303000000   0.879480000  -2.865760000
| 27> *
| 28>
| 29>                          ****END OF INPUT****

CARTESIAN COORDINATES (ANGSTROEM)
---------------------------------
  O      1.794470    0.923410    2.768350
  H      2.338250    1.359750    3.430940
  H      0.879480    1.303000    2.865760
  O     -1.794470   -0.923410    2.768350
  H     -2.338250   -1.359750    3.430940
  H     -0.879480   -1.303000    2.865760
  O      0.885520   -1.737840    0.052730
  H      1.284090   -0.839590    0.017130
  H      1.032320   -2.090180   -0.841890
  O     -0.923410    1.794470   -2.768350
  H     -1.359750    2.338250   -3.430940
  H     -1.303000    0.879480   -2.865760

 Total Charge           Charge          ....    0
 Multiplicity           Mult            ....    1
 Number of Electrons    NEL             ....   40
 Basis Dimension        Dim             ....  172

ORBITAL ENERGIES
----------------

  NO   OCC          E(Eh)            E(eV)
   0   2.0000     -20.560345      -559.4754
   1   2.0000     -20.559894      -559.4632
   2   2.0000     -20.549096      -559.1693
   3   2.0000     -20.548935      -559.1650
   4   2.0000      -1.335687       -36.3459
   5   2.0000      -1.335200       -36.3326
   6   2.0000      -1.325148       -36.0591
   7   2.0000      -1.324274       -36.0353
   8   2.0000      -0.704088       -19.1592
   9   2.0000      -0.703627       -19.1467
  10   2.0000      -0.692216       -18.8361
  11   2.0000      -0.686862       -18.6905
  12   2.0000      -0.571759       -15.5584
  13   2.0000      -0.571666       -15.5558
  14   2.0000      -0.565157       -15.3787
  15   2.0000      -0.560662       -15.2564
  16   2.0000      -0.503512       -13.7013
  17   2.0000      -0.503319       -13.6960
  18   2.0000      -0.492969       -13.4144
  19   2.0000      -0.491231       -13.3671
  20   0.0000       0.112408         3.0588
  21   0.0000       0.126398         3.4395
  22   0.0000       0.151124         4.1123
  23   0.0000       0.153812         4.1854
  24   0.0000       0.202117         5.4999

MULLIKEN ATOMIC CHARGES
-----------------------
   0 O :   -0.689455
   1 H :    0.338215
   2 H :    0.352661
   3 O :   -0.689970
   4 H :    0.332550
   5 H :    0.356411
   6 O :   -0.681760
   7 H :    0.351464
   8 H :    0.330145
   9 O :   -0.682330
  10 H :    0.338124
  11 H :    0.343946
Sum of atomic charges:    0.0000000

LOEWDIN ATOMIC CHARGES
----------------------
   0 O :   -0.340351
   1 H :    0.157966
   2 H :    0.184051
   3 O :   -0.341219
   4 H :    0.155249
   5 H :    0.184637
   6 O :   -0.339332
   7 H :    0.176927
   8 H :    0.162289
   9 O :   -0.339101
  10 H :    0.157545
  11 H :    0.181340

  Mayer bond orders larger than 0.100000
B(  0-O ,  1-H ) :   0.8529 B(  0-O ,  2-H ) :   0.8369 B(  3-O ,  4-H ) :   0.8561
B(  3-O ,  5-H ) :   0.8337 B(  6-O ,  7-H ) :   0.8406 B(  6-O ,  8-H ) :   0.8567
B(  9-O , 10-H ) :   0.8536 B(  9-O , 11-H ) :   0.8447

MP2 TOTAL ENERGY:     -305.254000940 Eh
FINAL SINGLE POINT ENERGY      -305.254000939629

DIPOLE MOMENT
-------------
                                X             Y             Z
Electronic contribution:      0.04895      -0.00119       0.03142
Nuclear contribution   :     -0.22520       0.14541      -0.14168
                        -----------------------------------------
Total Dipole Moment    :     -0.17626       0.14422      -0.11026
                        -----------------------------------------
Magnitude (a.u.)       :      0.25303
Magnitude (Debye)      :      0.64315

Rotational constants in cm-1:     0.065735     0.031386     0.029024
Rotational constants in MHz :  1970.685535   940.927082   870.111085

                             ****ORCA TERMINATED NORMALLY****
TOTAL RUN TIME: 0 days 0 hours 0 minutes 12 seconds 539 msec
