                         Program Version 4.2.0 -  RELEASE  -
|  1> # 12meoh.boyd.etal.mol4,6,10
|  2> ! MP2 def2-TZVP EnGrad TightSCF
|  3>
|  4> %pal
|  5>     nprocs 6
|  6> end
|  7>
|  8> %maxcore 8000
|  9>
| 10> %scf
| 11>     ConvForced true
| 12> end
| 13>
| 14> *xyz 0 1
| 15> O  -1.358578914   1.232360421   1.189721000
| 16> H  -1.058250183   1.216459361   0.238591307
| 17> C  -0.389763452   1.957872567   1.943072362
| 18> H  -0.747220771   2.012806578   2.975200343
| 19> H  -0.260410585   2.982763209   1.565366540
| 20> H   0.585220638   1.453754179   1.934070793
| 21> O   2.622209273  -1.703002590  -1.445859723
| 22> H   1.828551432  -1.986513781  -0.909754968
| 23> C   2.781117675  -2.615822239  -2.525472890
| 24> H   3.691063626  -2.339003544  -3.065143454
| 25> H   1.934727323  -2.559520367  -3.223226661
| 26> H   2.879948338  -3.653846211  -2.177750170
| 27> O  -5.201143618   0.064582726  -0.172223772
| 28> H  -4.686891530   0.869258890   0.107806143
| 29> C  -6.513192168   0.171391798   0.359883449
| 30> H  -7.049381312  -0.749234190   0.111361174
| 31> H  -7.057741163   1.017801101  -0.081819420
| 32> H  -6.514770575   0.292264928   1.453058834
| 33> *
| 34>
| 35>                          ****END OF INPUT****

CARTESIAN COORDINATES (ANGSTROEM)
---------------------------------
  O     -1.358579    1.232360    1.189721
  H     -1.058250    1.216459    0.238591
  C     -0.389763    1.957873    1.943072
  H     -0.747221    2.012807    2.975200
  H     -0.260411    2.982763    1.565367
  H      0.585221    1.453754    1.934071
  O      2.622209   -1.703003   -1.445860
  H      1.828551   -1.986514   -0.909755
  C      2.781118   -2.615822   -2.525473
  H      3.691064   -2.339004   -3.065143
  H      1.934727   -2.559520   -3.223227
  H      2.879948   -3.653846   -2.177750
  O     -5.201144    0.064583   -0.172224
  H     -4.686892    0.869259    0.107806
  C     -6.513192    0.171392    0.359883
  H     -7.049381   -0.749234    0.111361
  H     -7.057741    1.017801   -0.081819
  H     -6.514771    0.292265    1.453059

 Total Charge           Charge          ....    0
 Multiplicity           Mult            ....    1
 Number of Electrons    NEL             ....   54
 Basis Dimension        Dim             ....  258

ORBITAL ENERGIES
----------------

  NO   OCC          E(Eh)            E(eV)
   0   2.0000     -20.561144      -559.4972
   1   2.0000     -20.558986      -559.4385
   2   2.0000     -20.550055      -559.1954
   3   2.0000     -11.273568      -306.7694
   4   2.0000     -11.272183      -306.7317
   5   2.0000     -11.265823      -306.5586
   6   2.0000      -1.348493       -36.6943
   7   2.0000      -1.347090       -36.6562
   8   2.0000      -1.340342       -36.4726
   9   2.0000      -0.921340       -25.0709
  10   2.0000      -0.920020       -25.0350
  11   2.0000      -0.913269       -24.8513
  12   2.0000      -0.683149       -18.5894
  13   2.0000      -0.681856       -18.5542
  14   2.0000      -0.675431       -18.3794
  15   2.0000      -0.619074       -16.8459
  16   2.0000      -0.617770       -16.8104
  17   2.0000      -0.610617       -16.6157
  18   2.0000      -0.592821       -16.1315
  19   2.0000      -0.592178       -16.1140
  20   2.0000      -0.585085       -15.9210
  21   2.0000      -0.503002       -13.6874
  22   2.0000      -0.500745       -13.6260
  23   2.0000      -0.493578       -13.4309
  24   2.0000      -0.452200       -12.3050
  25   2.0000      -0.449978       -12.2445
  26   2.0000      -0.441803       -12.0221
  27   0.0000       0.114848         3.1252
  28   0.0000       0.139079         3.7845
  29   0.0000       0.152469         4.1489
  30   0.0000       0.170876         4.6498
  31   0.0000       0.176365         4.7991

MULLIKEN ATOMIC CHARGES
-----------------------
   0 O :   -0.502489
   1 H :    0.325248
   2 C :   -0.175019
   3 H :    0.129052
   4 H :    0.110664
   5 H :    0.115152
   6 O :   -0.501807
   7 H :    0.323476
   8 C :   -0.171934
   9 H :    0.129121
  10 H :    0.110238
  11 H :    0.110929
  12 O :   -0.500327
  13 H :    0.327064
  14 C :   -0.171830
  15 H :    0.126089
  16 H :    0.106100
  17 H :    0.110271
Sum of atomic charges:   -0.0000000

LOEWDIN ATOMIC CHARGES
----------------------
   0 O :   -0.115135
   1 H :    0.192964
   2 C :   -0.379368
   3 H :    0.110160
   4 H :    0.096134
   5 H :    0.097129
   6 O :   -0.112754
   7 H :    0.193077
   8 C :   -0.382046
   9 H :    0.110216
  10 H :    0.095510
  11 H :    0.096012
  12 O :   -0.107602
  13 H :    0.192547
  14 C :   -0.385787
  15 H :    0.109193
  16 H :    0.094081
  17 H :    0.095671

  Mayer bond orders larger than 0.100000
B(  0-O ,  1-H ) :   0.8392 B(  0-O ,  2-C ) :   0.9201 B(  2-C ,  3-H ) :   0.9376
B(  2-C ,  4-H ) :   0.9388 B(  2-C ,  5-H ) :   0.9381 B(  6-O ,  7-H ) :   0.8403
B(  6-O ,  8-C ) :   0.9244 B(  8-C ,  9-H ) :   0.9373 B(  8-C , 10-H ) :   0.9391
B(  8-C , 11-H ) :   0.9393 B( 12-O , 13-H ) :   0.8364 B( 12-O , 14-C ) :   0.9325
B( 14-C , 15-H ) :   0.9379 B( 14-C , 16-H ) :   0.9396 B( 14-C , 17-H ) :   0.9384

MP2 TOTAL ENERGY:     -346.521635420 Eh
FINAL SINGLE POINT ENERGY      -346.521635420280

DIPOLE MOMENT
-------------
                                X             Y             Z
Electronic contribution:      0.32049       0.01312      -0.21589
Nuclear contribution   :     -0.31763       0.26223       0.23487
                        -----------------------------------------
Total Dipole Moment    :      0.00286       0.27535       0.01898
                        -----------------------------------------
Magnitude (a.u.)       :      0.27601
Magnitude (Debye)      :      0.70157

Rotational constants in cm-1:     0.053081     0.012422     0.010151
Rotational constants in MHz :  1591.323389   372.390274   304.320171

                             ****ORCA TERMINATED NORMALLY****
TOTAL RUN TIME: 0 days 0 hours 0 minutes 45 seconds 269 msec
