                         Program Version 4.2.0 -  RELEASE  -
|  1> # 12h2o.su.etal.mol0,1,3,4,7,9
|  2> ! MP2 def2-TZVP EnGrad TightSCF
|  3>
|  4> %pal
|  5>     nprocs 6
|  6> end
|  7>
|  8> %maxcore 8000
|  9>
| 10> %scf
| 11>     ConvForced true
| 12> end
| 13>
| 14> *xyz 0 1
| 15> O   1.794470000   0.923410000   2.768350000
| 16> H   2.338250000   1.359750000   3.430940000
| 17> H   0.879480000   1.303000000   2.865760000
| 18> O  -1.794470000  -0.923410000   2.768350000
| 19> H  -2.338250000  -1.359750000   3.430940000
| 20> H  -0.879480000  -1.303000000   2.865760000
| 21> O  -1.752130000  -0.741530000  -2.896280000
| 22> H  -2.036450000  -0.920500000  -1.984040000
| 23> H  -0.921210000  -1.242140000  -2.984230000
| 24> O  -0.885520000   1.737840000   0.052730000
| 25> H  -1.032320000   2.090180000  -0.841890000
| 26> H  -1.284090000   0.839590000   0.017130000
| 27> O  -1.737840000  -0.885520000  -0.052730000
| 28> H  -2.090180000  -1.032320000   0.841890000
| 29> H  -0.839590000  -1.284090000  -0.017130000
| 30> O   0.741530000  -1.752130000   2.896280000
| 31> H   0.920500000  -2.036450000   1.984040000
| 32> H   1.242140000  -0.921210000   2.984230000
| 33> *
| 34>
| 35>                          ****END OF INPUT****

CARTESIAN COORDINATES (ANGSTROEM)
---------------------------------
  O      1.794470    0.923410    2.768350
  H      2.338250    1.359750    3.430940
  H      0.879480    1.303000    2.865760
  O     -1.794470   -0.923410    2.768350
  H     -2.338250   -1.359750    3.430940
  H     -0.879480   -1.303000    2.865760
  O     -1.752130   -0.741530   -2.896280
  H     -2.036450   -0.920500   -1.984040
  H     -0.921210   -1.242140   -2.984230
  O     -0.885520    1.737840    0.052730
  H     -1.032320    2.090180   -0.841890
  H     -1.284090    0.839590    0.017130
  O     -1.737840   -0.885520   -0.052730
  H     -2.090180   -1.032320    0.841890
  H     -0.839590   -1.284090   -0.017130
  O      0.741530   -1.752130    2.896280
  H      0.920500   -2.036450    1.984040
  H      1.242140   -0.921210    2.984230

 Total Charge           Charge          ....    0
 Multiplicity           Mult            ....    1
 Number of Electrons    NEL             ....   60
 Basis Dimension        Dim             ....  258

ORBITAL ENERGIES
----------------

  NO   OCC          E(Eh)            E(eV)
   0   2.0000     -20.592745      -560.3571
   1   2.0000     -20.590284      -560.2901
   2   2.0000     -20.585147      -560.1503
   3   2.0000     -20.557499      -559.3980
   4   2.0000     -20.537225      -558.8463
   5   2.0000     -20.519377      -558.3606
   6   2.0000      -1.382734       -37.6261
   7   2.0000      -1.372583       -37.3499
   8   2.0000      -1.367349       -37.2075
   9   2.0000      -1.339112       -36.4391
  10   2.0000      -1.319049       -35.8932
  11   2.0000      -1.300448       -35.3870
  12   2.0000      -0.745772       -20.2935
  13   2.0000      -0.734946       -19.9989
  14   2.0000      -0.731216       -19.8974
  15   2.0000      -0.723822       -19.6962
  16   2.0000      -0.688953       -18.7474
  17   2.0000      -0.676498       -18.4085
  18   2.0000      -0.634583       -17.2679
  19   2.0000      -0.616876       -16.7861
  20   2.0000      -0.600920       -16.3519
  21   2.0000      -0.579321       -15.7641
  22   2.0000      -0.564126       -15.3506
  23   2.0000      -0.547956       -14.9106
  24   2.0000      -0.534935       -14.5563
  25   2.0000      -0.527405       -14.3514
  26   2.0000      -0.513394       -13.9702
  27   2.0000      -0.507369       -13.8062
  28   2.0000      -0.483514       -13.1571
  29   2.0000      -0.467750       -12.7281
  30   0.0000       0.086252         2.3470
  31   0.0000       0.121904         3.3172
  32   0.0000       0.146846         3.9959
  33   0.0000       0.150729         4.1015
  34   0.0000       0.183158         4.9840

MULLIKEN ATOMIC CHARGES
-----------------------
   0 O :   -0.705062
   1 H :    0.353970
   2 H :    0.379021
   3 O :   -0.739925
   4 H :    0.341926
   5 H :    0.369240
   6 O :   -0.693209
   7 H :    0.370848
   8 H :    0.318563
   9 O :   -0.725419
  10 H :    0.333023
  11 H :    0.361654
  12 O :   -0.716635
  13 H :    0.392760
  14 H :    0.329424
  15 O :   -0.696238
  16 H :    0.343861
  17 H :    0.382198
Sum of atomic charges:   -0.0000000

LOEWDIN ATOMIC CHARGES
----------------------
   0 O :   -0.310472
   1 H :    0.164976
   2 H :    0.195129
   3 O :   -0.340182
   4 H :    0.156402
   5 H :    0.142584
   6 O :   -0.338516
   7 H :    0.150629
   8 H :    0.157644
   9 O :   -0.365086
  10 H :    0.160378
  11 H :    0.141580
  12 O :   -0.283064
  13 H :    0.158450
  14 H :    0.165655
  15 O :   -0.278638
  16 H :    0.165614
  17 H :    0.156916

  Mayer bond orders larger than 0.100000
B(  0-O ,  1-H ) :   0.8405 B(  0-O ,  2-H ) :   0.8153 B(  3-O ,  4-H ) :   0.8481
B(  3-O ,  5-H ) :   0.7571 B(  5-H , 15-O ) :   0.1018 B(  6-O ,  7-H ) :   0.8194
B(  6-O ,  8-H ) :   0.8632 B(  9-O , 10-H ) :   0.8545 B(  9-O , 11-H ) :   0.8010
B( 12-O , 13-H ) :   0.7789 B( 12-O , 14-H ) :   0.8451 B( 15-O , 16-H ) :   0.8461
B( 15-O , 17-H ) :   0.7852

MP2 TOTAL ENERGY:     -457.923469746 Eh
FINAL SINGLE POINT ENERGY      -457.923469745943

DIPOLE MOMENT
-------------
                                X             Y             Z
Electronic contribution:      0.10124       0.12075       0.25229
Nuclear contribution   :      1.02107      -1.01903       1.26519
                        -----------------------------------------
Total Dipole Moment    :      1.12231      -0.89827       1.51748
                        -----------------------------------------
Magnitude (a.u.)       :      2.09027
Magnitude (Debye)      :      5.31303

Rotational constants in cm-1:     0.061114     0.025258     0.021832
Rotational constants in MHz :  1832.154515   757.228923   654.508088

                             ****ORCA TERMINATED NORMALLY****
TOTAL RUN TIME: 0 days 0 hours 1 minutes 3 seconds 731 msec
