                         Program Version 4.2.0 -  RELEASE  -
|  1> # 12h2o.su.etal.mol2,3,4,5,8,9,10,11
|  2> ! MP2 def2-TZVP EnGrad TightSCF
|  3>
|  4> %pal
|  5>     nprocs 6
|  6> end
|  7>
|  8> %maxcore 8000
|  9>
| 10> %scf
| 11>     ConvForced true
| 12> end
| 13>
| 14> *xyz 0 1
| 15> O   0.923410000  -1.794470000  -2.768350000
| 16> H   1.359750000  -2.338250000  -3.430940000
| 17> H   1.303000000  -0.879480000  -2.865760000
| 18> O  -1.752130000  -0.741530000  -2.896280000
| 19> H  -2.036450000  -0.920500000  -1.984040000
| 20> H  -0.921210000  -1.242140000  -2.984230000
| 21> O  -0.885520000   1.737840000   0.052730000
| 22> H  -1.032320000   2.090180000  -0.841890000
| 23> H  -1.284090000   0.839590000   0.017130000
| 24> O   0.885520000  -1.737840000   0.052730000
| 25> H   1.284090000  -0.839590000   0.017130000
| 26> H   1.032320000  -2.090180000  -0.841890000
| 27> O   1.752130000   0.741530000  -2.896280000
| 28> H   2.036450000   0.920500000  -1.984040000
| 29> H   0.921210000   1.242140000  -2.984230000
| 30> O   0.741530000  -1.752130000   2.896280000
| 31> H   0.920500000  -2.036450000   1.984040000
| 32> H   1.242140000  -0.921210000   2.984230000
| 33> O  -0.923410000   1.794470000  -2.768350000
| 34> H  -1.359750000   2.338250000  -3.430940000
| 35> H  -1.303000000   0.879480000  -2.865760000
| 36> O  -0.741530000   1.752130000   2.896280000
| 37> H  -0.920500000   2.036450000   1.984040000
| 38> H  -1.242140000   0.921210000   2.984230000
| 39> *
| 40>
| 41>                          ****END OF INPUT****

CARTESIAN COORDINATES (ANGSTROEM)
---------------------------------
  O      0.923410   -1.794470   -2.768350
  H      1.359750   -2.338250   -3.430940
  H      1.303000   -0.879480   -2.865760
  O     -1.752130   -0.741530   -2.896280
  H     -2.036450   -0.920500   -1.984040
  H     -0.921210   -1.242140   -2.984230
  O     -0.885520    1.737840    0.052730
  H     -1.032320    2.090180   -0.841890
  H     -1.284090    0.839590    0.017130
  O      0.885520   -1.737840    0.052730
  H      1.284090   -0.839590    0.017130
  H      1.032320   -2.090180   -0.841890
  O      1.752130    0.741530   -2.896280
  H      2.036450    0.920500   -1.984040
  H      0.921210    1.242140   -2.984230
  O      0.741530   -1.752130    2.896280
  H      0.920500   -2.036450    1.984040
  H      1.242140   -0.921210    2.984230
  O     -0.923410    1.794470   -2.768350
  H     -1.359750    2.338250   -3.430940
  H     -1.303000    0.879480   -2.865760
  O     -0.741530    1.752130    2.896280
  H     -0.920500    2.036450    1.984040
  H     -1.242140    0.921210    2.984230

 Total Charge           Charge          ....    0
 Multiplicity           Mult            ....    1
 Number of Electrons    NEL             ....   80
 Basis Dimension        Dim             ....  344

ORBITAL ENERGIES
----------------

  NO   OCC          E(Eh)            E(eV)
   0   2.0000     -20.600477      -560.5675
   1   2.0000     -20.600477      -560.5675
   2   2.0000     -20.592833      -560.3595
   3   2.0000     -20.592833      -560.3595
   4   2.0000     -20.573324      -559.8286
   5   2.0000     -20.573324      -559.8286
   6   2.0000     -20.524100      -558.4892
   7   2.0000     -20.524099      -558.4891
   8   2.0000      -1.400250       -38.1027
   9   2.0000      -1.389854       -37.8199
  10   2.0000      -1.379029       -37.5253
  11   2.0000      -1.369358       -37.2621
  12   2.0000      -1.353923       -36.8421
  13   2.0000      -1.353627       -36.8341
  14   2.0000      -1.306289       -35.5459
  15   2.0000      -1.305524       -35.5251
  16   2.0000      -0.761378       -20.7182
  17   2.0000      -0.760763       -20.7014
  18   2.0000      -0.750279       -20.4161
  19   2.0000      -0.744616       -20.2620
  20   2.0000      -0.724721       -19.7207
  21   2.0000      -0.722067       -19.6484
  22   2.0000      -0.676254       -18.4018
  23   2.0000      -0.673802       -18.3351
  24   2.0000      -0.659602       -17.9487
  25   2.0000      -0.634410       -17.2632
  26   2.0000      -0.622564       -16.9408
  27   2.0000      -0.608360       -16.5543
  28   2.0000      -0.597596       -16.2614
  29   2.0000      -0.588113       -16.0034
  30   2.0000      -0.549029       -14.9398
  31   2.0000      -0.547433       -14.8964
  32   2.0000      -0.543865       -14.7993
  33   2.0000      -0.541926       -14.7466
  34   2.0000      -0.536627       -14.6024
  35   2.0000      -0.535631       -14.5753
  36   2.0000      -0.519042       -14.1238
  37   2.0000      -0.515168       -14.0184
  38   2.0000      -0.473728       -12.8908
  39   2.0000      -0.467656       -12.7256
  40   0.0000       0.076272         2.0755
  41   0.0000       0.115925         3.1545
  42   0.0000       0.129233         3.5166
  43   0.0000       0.130056         3.5390
  44   0.0000       0.159668         4.3448

MULLIKEN ATOMIC CHARGES
-----------------------
   0 O :   -0.760755
   1 H :    0.359136
   2 H :    0.382456
   3 O :   -0.703636
   4 H :    0.354894
   5 H :    0.384611
   6 O :   -0.712017
   7 H :    0.376886
   8 H :    0.325157
   9 O :   -0.712017
  10 H :    0.325157
  11 H :    0.376886
  12 O :   -0.703636
  13 H :    0.354894
  14 H :    0.384611
  15 O :   -0.703370
  16 H :    0.368596
  17 H :    0.328042
  18 O :   -0.760755
  19 H :    0.359136
  20 H :    0.382456
  21 O :   -0.703370
  22 H :    0.368596
  23 H :    0.328042
Sum of atomic charges:   -0.0000000

LOEWDIN ATOMIC CHARGES
----------------------
   0 O :   -0.315293
   1 H :    0.163334
   2 H :    0.145370
   3 O :   -0.276813
   4 H :    0.169975
   5 H :    0.156108
   6 O :   -0.325237
   7 H :    0.152002
   8 H :    0.162564
   9 O :   -0.325237
  10 H :    0.162564
  11 H :    0.152002
  12 O :   -0.276813
  13 H :    0.169975
  14 H :    0.156108
  15 O :   -0.342418
  16 H :    0.150969
  17 H :    0.159439
  18 O :   -0.315293
  19 H :    0.163334
  20 H :    0.145370
  21 O :   -0.342418
  22 H :    0.150969
  23 H :    0.159439

  Mayer bond orders larger than 0.100000
B(  0-O ,  1-H ) :   0.8356 B(  0-O ,  2-H ) :   0.7335 B(  2-H , 12-O ) :   0.1132
B(  3-O ,  4-H ) :   0.8380 B(  3-O ,  5-H ) :   0.7844 B(  3-O , 20-H ) :   0.1132
B(  6-O ,  7-H ) :   0.8031 B(  6-O ,  8-H ) :   0.8474 B(  9-O , 10-H ) :   0.8474
B(  9-O , 11-H ) :   0.8031 B( 12-O , 13-H ) :   0.8380 B( 12-O , 14-H ) :   0.7844
B( 15-O , 16-H ) :   0.8209 B( 15-O , 17-H ) :   0.8547 B( 18-O , 19-H ) :   0.8356
B( 18-O , 20-H ) :   0.7335 B( 21-O , 22-H ) :   0.8209 B( 21-O , 23-H ) :   0.8547

MP2 TOTAL ENERGY:     -610.581835234 Eh
FINAL SINGLE POINT ENERGY      -610.581835233643

DIPOLE MOMENT
-------------
                                X             Y             Z
Electronic contribution:      0.00000       0.00000      -0.33809
Nuclear contribution   :     -0.00000      -0.00000      -2.81375
                        -----------------------------------------
Total Dipole Moment    :      0.00000       0.00000      -3.15184
                        -----------------------------------------
Magnitude (a.u.)       :      3.15184
Magnitude (Debye)      :      8.01133

Rotational constants in cm-1:     0.030711     0.017981     0.013813
Rotational constants in MHz :   920.683949   539.065246   414.105555

                             ****ORCA TERMINATED NORMALLY****
TOTAL RUN TIME: 0 days 0 hours 2 minutes 55 seconds 961 msec
