                         Program Version 4.2.0 -  RELEASE  -
|  1> # 12h2o.su.etal.mol2,4,5,7,8,9
|  2> ! MP2 def2-TZVP EnGrad TightSCF
|  3>
|  4> %pal
|  5>     nprocs 6
|  6> end
|  7>
|  8> %maxcore 8000
|  9>
| 10> %scf
| 11>     ConvForced true
| 12> end
| 13>
| 14> *xyz 0 1
| 15> O   0.923410000  -1.794470000  -2.768350000
| 16> H   1.359750000  -2.338250000  -3.430940000
| 17> H   1.303000000  -0.879480000  -2.865760000
| 18> O  -0.885520000   1.737840000   0.052730000
| 19> H  -1.032320000   2.090180000  -0.841890000
| 20> H  -1.284090000   0.839590000   0.017130000
| 21> O   0.885520000  -1.737840000   0.052730000
| 22> H   1.284090000  -0.839590000   0.017130000
| 23> H   1.032320000  -2.090180000  -0.841890000
| 24> O  -1.737840000  -0.885520000  -0.052730000
| 25> H  -2.090180000  -1.032320000   0.841890000
| 26> H  -0.839590000  -1.284090000  -0.017130000
| 27> O   1.752130000   0.741530000  -2.896280000
| 28> H   2.036450000   0.920500000  -1.984040000
| 29> H   0.921210000   1.242140000  -2.984230000
| 30> O   0.741530000  -1.752130000   2.896280000
| 31> H   0.920500000  -2.036450000   1.984040000
| 32> H   1.242140000  -0.921210000   2.984230000
| 33> *
| 34>
| 35>                          ****END OF INPUT****

CARTESIAN COORDINATES (ANGSTROEM)
---------------------------------
  O      0.923410   -1.794470   -2.768350
  H      1.359750   -2.338250   -3.430940
  H      1.303000   -0.879480   -2.865760
  O     -0.885520    1.737840    0.052730
  H     -1.032320    2.090180   -0.841890
  H     -1.284090    0.839590    0.017130
  O      0.885520   -1.737840    0.052730
  H      1.284090   -0.839590    0.017130
  H      1.032320   -2.090180   -0.841890
  O     -1.737840   -0.885520   -0.052730
  H     -2.090180   -1.032320    0.841890
  H     -0.839590   -1.284090   -0.017130
  O      1.752130    0.741530   -2.896280
  H      2.036450    0.920500   -1.984040
  H      0.921210    1.242140   -2.984230
  O      0.741530   -1.752130    2.896280
  H      0.920500   -2.036450    1.984040
  H      1.242140   -0.921210    2.984230

 Total Charge           Charge          ....    0
 Multiplicity           Mult            ....    1
 Number of Electrons    NEL             ....   60
 Basis Dimension        Dim             ....  258

ORBITAL ENERGIES
----------------

  NO   OCC          E(Eh)            E(eV)
   0   2.0000     -20.622832      -561.1758
   1   2.0000     -20.593888      -560.3882
   2   2.0000     -20.565410      -559.6133
   3   2.0000     -20.554004      -559.3029
   4   2.0000     -20.539823      -558.9170
   5   2.0000     -20.539753      -558.9151
   6   2.0000      -1.408387       -38.3242
   7   2.0000      -1.381950       -37.6048
   8   2.0000      -1.347994       -36.6808
   9   2.0000      -1.340896       -36.4876
  10   2.0000      -1.321637       -35.9636
  11   2.0000      -1.318357       -35.8743
  12   2.0000      -0.765419       -20.8281
  13   2.0000      -0.743177       -20.2229
  14   2.0000      -0.734473       -19.9860
  15   2.0000      -0.708828       -19.2882
  16   2.0000      -0.693434       -18.8693
  17   2.0000      -0.690953       -18.8018
  18   2.0000      -0.649042       -17.6613
  19   2.0000      -0.626001       -17.0344
  20   2.0000      -0.597940       -16.2708
  21   2.0000      -0.589689       -16.0463
  22   2.0000      -0.566231       -15.4079
  23   2.0000      -0.556487       -15.1428
  24   2.0000      -0.549230       -14.9453
  25   2.0000      -0.528678       -14.3861
  26   2.0000      -0.514951       -14.0125
  27   2.0000      -0.497180       -13.5290
  28   2.0000      -0.487182       -13.2569
  29   2.0000      -0.486024       -13.2254
  30   0.0000       0.072199         1.9646
  31   0.0000       0.123601         3.3634
  32   0.0000       0.141692         3.8556
  33   0.0000       0.145642         3.9631
  34   0.0000       0.177331         4.8254

MULLIKEN ATOMIC CHARGES
-----------------------
   0 O :   -0.735784
   1 H :    0.344575
   2 H :    0.370786
   3 O :   -0.719040
   4 H :    0.314663
   5 H :    0.359187
   6 O :   -0.724704
   7 H :    0.335316
   8 H :    0.394591
   9 O :   -0.716420
  10 H :    0.353398
  11 H :    0.377977
  12 O :   -0.674950
  13 H :    0.356612
  14 H :    0.365430
  15 O :   -0.694955
  16 H :    0.369747
  17 H :    0.323570
Sum of atomic charges:   -0.0000000

LOEWDIN ATOMIC CHARGES
----------------------
   0 O :   -0.337208
   1 H :    0.157991
   2 H :    0.143594
   3 O :   -0.364274
   4 H :    0.150546
   5 H :    0.142000
   6 O :   -0.282078
   7 H :    0.166824
   8 H :    0.159036
   9 O :   -0.308725
  10 H :    0.168771
  11 H :    0.146167
  12 O :   -0.264799
  13 H :    0.172017
  14 H :    0.179061
  15 O :   -0.338804
  16 H :    0.149954
  17 H :    0.159927

  Mayer bond orders larger than 0.100000
B(  0-O ,  1-H ) :   0.8467 B(  0-O ,  2-H ) :   0.7680 B(  3-O ,  4-H ) :   0.8647
B(  3-O ,  5-H ) :   0.7779 B(  5-H ,  9-O ) :   0.1078 B(  6-O ,  7-H ) :   0.8393
B(  6-O ,  8-H ) :   0.7774 B(  9-O , 10-H ) :   0.8390 B(  9-O , 11-H ) :   0.7806
B( 12-O , 13-H ) :   0.8366 B( 12-O , 14-H ) :   0.8302 B( 15-O , 16-H ) :   0.8215
B( 15-O , 17-H ) :   0.8603

MP2 TOTAL ENERGY:     -457.923414709 Eh
FINAL SINGLE POINT ENERGY      -457.923414709318

DIPOLE MOMENT
-------------
                                X             Y             Z
Electronic contribution:     -0.00688      -0.26281      -0.17156
Nuclear contribution   :      1.24423       0.87566      -1.40687
                        -----------------------------------------
Total Dipole Moment    :      1.23735       0.61285      -1.57843
                        -----------------------------------------
Magnitude (a.u.)       :      2.09716
Magnitude (Debye)      :      5.33054

Rotational constants in cm-1:     0.051710     0.030542     0.024819
Rotational constants in MHz :  1550.239232   915.640307   744.058191

                             ****ORCA TERMINATED NORMALLY****
TOTAL RUN TIME: 0 days 0 hours 1 minutes 7 seconds 5 msec
