                         Program Version 4.2.0 -  RELEASE  -
|  1> # 12h2o.su.etal.mol0,1,4,5,7,8,11
|  2> ! MP2 def2-TZVP EnGrad TightSCF
|  3>
|  4> %pal
|  5>     nprocs 6
|  6> end
|  7>
|  8> %maxcore 8000
|  9>
| 10> %scf
| 11>     ConvForced true
| 12> end
| 13>
| 14> *xyz 0 1
| 15> O   1.794470000   0.923410000   2.768350000
| 16> H   2.338250000   1.359750000   3.430940000
| 17> H   0.879480000   1.303000000   2.865760000
| 18> O  -1.794470000  -0.923410000   2.768350000
| 19> H  -2.338250000  -1.359750000   3.430940000
| 20> H  -0.879480000  -1.303000000   2.865760000
| 21> O  -0.885520000   1.737840000   0.052730000
| 22> H  -1.032320000   2.090180000  -0.841890000
| 23> H  -1.284090000   0.839590000   0.017130000
| 24> O   0.885520000  -1.737840000   0.052730000
| 25> H   1.284090000  -0.839590000   0.017130000
| 26> H   1.032320000  -2.090180000  -0.841890000
| 27> O  -1.737840000  -0.885520000  -0.052730000
| 28> H  -2.090180000  -1.032320000   0.841890000
| 29> H  -0.839590000  -1.284090000  -0.017130000
| 30> O   1.752130000   0.741530000  -2.896280000
| 31> H   2.036450000   0.920500000  -1.984040000
| 32> H   0.921210000   1.242140000  -2.984230000
| 33> O  -0.741530000   1.752130000   2.896280000
| 34> H  -0.920500000   2.036450000   1.984040000
| 35> H  -1.242140000   0.921210000   2.984230000
| 36> *
| 37>
| 38>                          ****END OF INPUT****

CARTESIAN COORDINATES (ANGSTROEM)
---------------------------------
  O      1.794470    0.923410    2.768350
  H      2.338250    1.359750    3.430940
  H      0.879480    1.303000    2.865760
  O     -1.794470   -0.923410    2.768350
  H     -2.338250   -1.359750    3.430940
  H     -0.879480   -1.303000    2.865760
  O     -0.885520    1.737840    0.052730
  H     -1.032320    2.090180   -0.841890
  H     -1.284090    0.839590    0.017130
  O      0.885520   -1.737840    0.052730
  H      1.284090   -0.839590    0.017130
  H      1.032320   -2.090180   -0.841890
  O     -1.737840   -0.885520   -0.052730
  H     -2.090180   -1.032320    0.841890
  H     -0.839590   -1.284090   -0.017130
  O      1.752130    0.741530   -2.896280
  H      2.036450    0.920500   -1.984040
  H      0.921210    1.242140   -2.984230
  O     -0.741530    1.752130    2.896280
  H     -0.920500    2.036450    1.984040
  H     -1.242140    0.921210    2.984230

 Total Charge           Charge          ....    0
 Multiplicity           Mult            ....    1
 Number of Electrons    NEL             ....   70
 Basis Dimension        Dim             ....  301

ORBITAL ENERGIES
----------------

  NO   OCC          E(Eh)            E(eV)
   0   2.0000     -20.613730      -560.9281
   1   2.0000     -20.593875      -560.3878
   2   2.0000     -20.573095      -559.8224
   3   2.0000     -20.554372      -559.3129
   4   2.0000     -20.547507      -559.1261
   5   2.0000     -20.542683      -558.9948
   6   2.0000     -20.512856      -558.1832
   7   2.0000      -1.394328       -37.9416
   8   2.0000      -1.375075       -37.4177
   9   2.0000      -1.352044       -36.7910
  10   2.0000      -1.345910       -36.6241
  11   2.0000      -1.335475       -36.3401
  12   2.0000      -1.326591       -36.0984
  13   2.0000      -1.293882       -35.2083
  14   2.0000      -0.759601       -20.6698
  15   2.0000      -0.731804       -19.9134
  16   2.0000      -0.714964       -19.4552
  17   2.0000      -0.711671       -19.3655
  18   2.0000      -0.711219       -19.3533
  19   2.0000      -0.699898       -19.0452
  20   2.0000      -0.679780       -18.4978
  21   2.0000      -0.640355       -17.4249
  22   2.0000      -0.615824       -16.7574
  23   2.0000      -0.599765       -16.3204
  24   2.0000      -0.589611       -16.0441
  25   2.0000      -0.589453       -16.0398
  26   2.0000      -0.564427       -15.3588
  27   2.0000      -0.548638       -14.9292
  28   2.0000      -0.532048       -14.4778
  29   2.0000      -0.526184       -14.3182
  30   2.0000      -0.516900       -14.0656
  31   2.0000      -0.505378       -13.7520
  32   2.0000      -0.493630       -13.4324
  33   2.0000      -0.482415       -13.1272
  34   2.0000      -0.463841       -12.6217
  35   0.0000       0.086531         2.3546
  36   0.0000       0.107430         2.9233
  37   0.0000       0.135971         3.7000
  38   0.0000       0.164806         4.4846
  39   0.0000       0.170731         4.6458

MULLIKEN ATOMIC CHARGES
-----------------------
   0 O :   -0.746756
   1 H :    0.323642
   2 H :    0.370581
   3 O :   -0.725283
   4 H :    0.365397
   5 H :    0.384268
   6 O :   -0.731904
   7 H :    0.329978
   8 H :    0.359613
   9 O :   -0.692850
  10 H :    0.367712
  11 H :    0.361833
  12 O :   -0.724839
  13 H :    0.372485
  14 H :    0.357536
  15 O :   -0.673876
  16 H :    0.338519
  17 H :    0.336870
  18 O :   -0.716878
  19 H :    0.385996
  20 H :    0.357956
Sum of atomic charges:   -0.0000000

LOEWDIN ATOMIC CHARGES
----------------------
   0 O :   -0.380418
   1 H :    0.147844
   2 H :    0.141844
   3 O :   -0.288726
   4 H :    0.168612
   5 H :    0.196766
   6 O :   -0.343109
   7 H :    0.158356
   8 H :    0.143193
   9 O :   -0.289182
  10 H :    0.180829
  11 H :    0.174765
  12 O :   -0.315761
  13 H :    0.147718
  14 H :    0.140298
  15 O :   -0.328364
  16 H :    0.163410
  17 H :    0.165851
  18 O :   -0.287985
  19 H :    0.158025
  20 H :    0.146034

  Mayer bond orders larger than 0.100000
B(  0-O ,  1-H ) :   0.8610 B(  0-O ,  2-H ) :   0.7648 B(  2-H , 18-O ) :   0.1063
B(  3-O ,  4-H ) :   0.8314 B(  3-O ,  5-H ) :   0.8094 B(  6-O ,  7-H ) :   0.8533
B(  6-O ,  8-H ) :   0.7601 B(  8-H , 12-O ) :   0.1159 B(  9-O , 10-H ) :   0.8216
B(  9-O , 11-H ) :   0.8340 B( 12-O , 13-H ) :   0.8149 B( 12-O , 14-H ) :   0.7848
B( 15-O , 16-H ) :   0.8502 B( 15-O , 17-H ) :   0.8520 B( 18-O , 19-H ) :   0.8008
B( 18-O , 20-H ) :   0.8182

MP2 TOTAL ENERGY:     -534.250506339 Eh
FINAL SINGLE POINT ENERGY      -534.250506339461

DIPOLE MOMENT
-------------
                                X             Y             Z
Electronic contribution:     -0.13237      -0.35984      -0.08904
Nuclear contribution   :     -0.56623      -0.34326       0.49091
                        -----------------------------------------
Total Dipole Moment    :     -0.69860      -0.70309       0.40187
                        -----------------------------------------
Magnitude (a.u.)       :      1.06952
Magnitude (Debye)      :      2.71851

Rotational constants in cm-1:     0.039152     0.023391     0.020861
Rotational constants in MHz :  1173.757964   701.246052   625.387658

                             ****ORCA TERMINATED NORMALLY****
TOTAL RUN TIME: 0 days 0 hours 1 minutes 47 seconds 181 msec
