                         Program Version 4.2.0 -  RELEASE  -
|  1> # 12mecn.remya.etal.2.mol4,6,8
|  2> ! MP2 def2-TZVP EnGrad TightSCF
|  3>
|  4> %pal
|  5>     nprocs 6
|  6> end
|  7>
|  8> %maxcore 8000
|  9>
| 10> %scf
| 11>     ConvForced true
| 12> end
| 13>
| 14> *xyz 0 1
| 15> C  -1.509690000  -0.693960000  -1.610140000
| 16> H  -1.327010000  -1.692700000  -2.017370000
| 17> H  -0.742170000  -0.000650000  -1.964400000
| 18> H  -2.491920000  -0.334310000  -1.929350000
| 19> C  -1.473570000  -0.748120000  -0.167200000
| 20> N  -1.447490000  -0.793720000   0.998938000
| 21> C   5.300864000  -2.920090000   1.401103000
| 22> H   5.986071000  -2.139770000   1.737487000
| 23> H   5.636642000  -3.888750000   1.778233000
| 24> H   4.307359000  -2.697240000   1.799307000
| 25> C   5.234791000  -2.933140000  -0.043290000
| 26> N   5.170868000  -2.941760000  -1.207750000
| 27> C   1.912641000  -2.468050000  -1.750510000
| 28> H   2.876947000  -2.793500000  -2.151200000
| 29> H   1.688016000  -1.463720000  -2.122170000
| 30> H   1.123460000  -3.154780000  -2.069590000
| 31> C   1.977850000  -2.444240000  -0.306900000
| 32> N   2.036566000  -2.426130000   0.858249000
| 33> *
| 34>
| 35>                          ****END OF INPUT****

CARTESIAN COORDINATES (ANGSTROEM)
---------------------------------
  C     -1.509690   -0.693960   -1.610140
  H     -1.327010   -1.692700   -2.017370
  H     -0.742170   -0.000650   -1.964400
  H     -2.491920   -0.334310   -1.929350
  C     -1.473570   -0.748120   -0.167200
  N     -1.447490   -0.793720    0.998938
  C      5.300864   -2.920090    1.401103
  H      5.986071   -2.139770    1.737487
  H      5.636642   -3.888750    1.778233
  H      4.307359   -2.697240    1.799307
  C      5.234791   -2.933140   -0.043290
  N      5.170868   -2.941760   -1.207750
  C      1.912641   -2.468050   -1.750510
  H      2.876947   -2.793500   -2.151200
  H      1.688016   -1.463720   -2.122170
  H      1.123460   -3.154780   -2.069590
  C      1.977850   -2.444240   -0.306900
  N      2.036566   -2.426130    0.858249

 Total Charge           Charge          ....    0
 Multiplicity           Mult            ....    1
 Number of Electrons    NEL             ....   66
 Basis Dimension        Dim             ....  333

ORBITAL ENERGIES
----------------

  NO   OCC          E(Eh)            E(eV)
   0   2.0000     -15.572036      -423.7366
   1   2.0000     -15.571406      -423.7195
   2   2.0000     -15.570627      -423.6983
   3   2.0000     -11.288855      -307.1854
   4   2.0000     -11.283675      -307.0444
   5   2.0000     -11.280739      -306.9645
   6   2.0000     -11.277353      -306.8724
   7   2.0000     -11.277306      -306.8711
   8   2.0000     -11.270327      -306.6812
   9   2.0000      -1.218061       -33.1451
  10   2.0000      -1.213377       -33.0177
  11   2.0000      -1.212018       -32.9807
  12   2.0000      -1.047204       -28.4959
  13   2.0000      -1.039196       -28.2780
  14   2.0000      -1.033847       -28.1324
  15   2.0000      -0.701748       -19.0955
  16   2.0000      -0.696723       -18.9588
  17   2.0000      -0.692050       -18.8316
  18   2.0000      -0.640720       -17.4349
  19   2.0000      -0.636977       -17.3330
  20   2.0000      -0.630141       -17.1470
  21   2.0000      -0.625661       -17.0251
  22   2.0000      -0.621945       -16.9240
  23   2.0000      -0.614349       -16.7173
  24   2.0000      -0.559248       -15.2179
  25   2.0000      -0.555075       -15.1044
  26   2.0000      -0.552750       -15.0411
  27   2.0000      -0.462551       -12.5867
  28   2.0000      -0.460604       -12.5337
  29   2.0000      -0.458087       -12.4652
  30   2.0000      -0.456870       -12.4321
  31   2.0000      -0.454747       -12.3743
  32   2.0000      -0.448679       -12.2092
  33   0.0000       0.101747         2.7687
  34   0.0000       0.135559         3.6887
  35   0.0000       0.146839         3.9957
  36   0.0000       0.154395         4.2013
  37   0.0000       0.165089         4.4923

MULLIKEN ATOMIC CHARGES
-----------------------
   0 C :   -0.285548
   1 H :    0.165122
   2 H :    0.169413
   3 H :    0.181854
   4 C :   -0.152599
   5 N :   -0.078226
   6 C :   -0.287553
   7 H :    0.166133
   8 H :    0.166469
   9 H :    0.209179
  10 C :   -0.099936
  11 N :   -0.153886
  12 C :   -0.298761
  13 H :    0.217314
  14 H :    0.157377
  15 H :    0.163535
  16 C :   -0.102611
  17 N :   -0.137279
Sum of atomic charges:    0.0000000

LOEWDIN ATOMIC CHARGES
----------------------
   0 C :   -0.287489
   1 H :    0.149175
   2 H :    0.150675
   3 H :    0.153838
   4 C :   -0.224075
   5 N :    0.057324
   6 C :   -0.281612
   7 H :    0.150937
   8 H :    0.151150
   9 H :    0.158206
  10 C :   -0.205916
  11 N :    0.028013
  12 C :   -0.286432
  13 H :    0.158081
  14 H :    0.148424
  15 H :    0.148494
  16 C :   -0.211917
  17 N :    0.043125

  Mayer bond orders larger than 0.100000
B(  0-C ,  1-H ) :   0.9189 B(  0-C ,  2-H ) :   0.9225 B(  0-C ,  3-H ) :   0.9114
B(  0-C ,  4-C ) :   0.8963 B(  4-C ,  5-N ) :   2.8293 B(  6-C ,  7-H ) :   0.9157
B(  6-C ,  8-H ) :   0.9145 B(  6-C ,  9-H ) :   0.9004 B(  6-C , 10-C ) :   0.9023
B( 10-C , 11-N ) :   2.7701 B( 12-C , 13-H ) :   0.8937 B( 12-C , 14-H ) :   0.9187
B( 12-C , 15-H ) :   0.9234 B( 12-C , 16-C ) :   0.8947 B( 16-C , 17-N ) :   2.7549

MP2 TOTAL ENERGY:     -397.458129819 Eh
FINAL SINGLE POINT ENERGY      -397.458129818511

DIPOLE MOMENT
-------------
                                X             Y             Z
Electronic contribution:      0.10404      -0.13114       3.24975
Nuclear contribution   :     -0.12975       0.18215      -4.60724
                        -----------------------------------------
Total Dipole Moment    :     -0.02571       0.05101      -1.35749
                        -----------------------------------------
Magnitude (a.u.)       :      1.35870
Magnitude (Debye)      :      3.45353

Rotational constants in cm-1:     0.096682     0.016062     0.014071
Rotational constants in MHz :  2898.468178   481.524471   421.833640

                             ****ORCA TERMINATED NORMALLY****
TOTAL RUN TIME: 0 days 0 hours 3 minutes 43 seconds 79 msec
