                         Program Version 4.2.0 -  RELEASE  -
|  1> # 12meoh.boyd.etal.mol2,7,9
|  2> ! MP2 def2-TZVP EnGrad TightSCF
|  3>
|  4> %pal
|  5>     nprocs 6
|  6> end
|  7>
|  8> %maxcore 8000
|  9>
| 10> %scf
| 11>     ConvForced true
| 12> end
| 13>
| 14> *xyz 0 1
| 15> O  -3.839777402   2.233595098   0.660436763
| 16> H  -2.958345897   1.907036203   0.973588449
| 17> C  -3.600368059   3.168790682  -0.390480452
| 18> H  -4.551709193   3.344148967  -0.901254863
| 19> H  -2.868237594   2.789240199  -1.113617525
| 20> H  -3.243594915   4.128998607   0.009549480
| 21> O   4.310535586  -1.588322800   0.656128299
| 22> H   3.804372199  -1.630404735  -0.196849819
| 23> C   4.312298137  -2.894980854   1.222112691
| 24> H   4.713177833  -2.819907076   2.237066773
| 25> H   4.957796734  -3.574699304   0.648211180
| 26> H   3.302735989  -3.324433205   1.269756773
| 27> O   1.390610024   3.194080770  -1.536658882
| 28> H   2.162932299   2.881562730  -0.993525056
| 29> C   1.202977189   4.580367182  -1.302880219
| 30> H   0.374773115   4.915764831  -1.934164643
| 31> H   2.098649340   5.157710875  -1.570472348
| 32> H   0.950320401   4.800436015  -0.254328827
| 33> *
| 34>
| 35>                          ****END OF INPUT****

CARTESIAN COORDINATES (ANGSTROEM)
---------------------------------
  O     -3.839777    2.233595    0.660437
  H     -2.958346    1.907036    0.973588
  C     -3.600368    3.168791   -0.390480
  H     -4.551709    3.344149   -0.901255
  H     -2.868238    2.789240   -1.113618
  H     -3.243595    4.128999    0.009549
  O      4.310536   -1.588323    0.656128
  H      3.804372   -1.630405   -0.196850
  C      4.312298   -2.894981    1.222113
  H      4.713178   -2.819907    2.237067
  H      4.957797   -3.574699    0.648211
  H      3.302736   -3.324433    1.269757
  O      1.390610    3.194081   -1.536659
  H      2.162932    2.881563   -0.993525
  C      1.202977    4.580367   -1.302880
  H      0.374773    4.915765   -1.934165
  H      2.098649    5.157711   -1.570472
  H      0.950320    4.800436   -0.254329

 Total Charge           Charge          ....    0
 Multiplicity           Mult            ....    1
 Number of Electrons    NEL             ....   54
 Basis Dimension        Dim             ....  258

ORBITAL ENERGIES
----------------

  NO   OCC          E(Eh)            E(eV)
   0   2.0000     -20.561870      -559.5169
   1   2.0000     -20.560435      -559.4779
   2   2.0000     -20.553226      -559.2817
   3   2.0000     -11.275497      -306.8219
   4   2.0000     -11.274101      -306.7839
   5   2.0000     -11.267814      -306.6128
   6   2.0000      -1.352567       -36.8052
   7   2.0000      -1.350113       -36.7385
   8   2.0000      -1.342667       -36.5358
   9   2.0000      -0.923567       -25.1315
  10   2.0000      -0.922131       -25.0925
  11   2.0000      -0.915771       -24.9194
  12   2.0000      -0.687034       -18.6951
  13   2.0000      -0.684730       -18.6324
  14   2.0000      -0.677732       -18.4420
  15   2.0000      -0.621223       -16.9043
  16   2.0000      -0.619609       -16.8604
  17   2.0000      -0.612890       -16.6776
  18   2.0000      -0.596672       -16.2363
  19   2.0000      -0.593714       -16.1558
  20   2.0000      -0.586253       -15.9527
  21   2.0000      -0.503773       -13.7084
  22   2.0000      -0.503578       -13.7030
  23   2.0000      -0.497728       -13.5439
  24   2.0000      -0.452874       -12.3233
  25   2.0000      -0.451975       -12.2989
  26   2.0000      -0.445478       -12.1221
  27   0.0000       0.118972         3.2374
  28   0.0000       0.131322         3.5734
  29   0.0000       0.146867         3.9965
  30   0.0000       0.161803         4.4029
  31   0.0000       0.175440         4.7740

MULLIKEN ATOMIC CHARGES
-----------------------
   0 O :   -0.498327
   1 H :    0.322047
   2 C :   -0.177238
   3 H :    0.127237
   4 H :    0.120282
   5 H :    0.105692
   6 O :   -0.499576
   7 H :    0.322312
   8 C :   -0.174108
   9 H :    0.129325
  10 H :    0.110500
  11 H :    0.111566
  12 O :   -0.502189
  13 H :    0.325230
  14 C :   -0.172892
  15 H :    0.128563
  16 H :    0.112905
  17 H :    0.108670
Sum of atomic charges:   -0.0000000

LOEWDIN ATOMIC CHARGES
----------------------
   0 O :   -0.111699
   1 H :    0.188449
   2 C :   -0.378878
   3 H :    0.109044
   4 H :    0.098281
   5 H :    0.094726
   6 O :   -0.110833
   7 H :    0.189629
   8 C :   -0.380824
   9 H :    0.110092
  10 H :    0.095842
  11 H :    0.096103
  12 O :   -0.107436
  13 H :    0.191971
  14 C :   -0.386223
  15 H :    0.110018
  16 H :    0.096498
  17 H :    0.095239

  Mayer bond orders larger than 0.100000
B(  0-O ,  1-H ) :   0.8436 B(  0-O ,  2-C ) :   0.9263 B(  2-C ,  3-H ) :   0.9375
B(  2-C ,  4-H ) :   0.9408 B(  2-C ,  5-H ) :   0.9378 B(  6-O ,  7-H ) :   0.8427
B(  6-O ,  8-C ) :   0.9247 B(  8-C ,  9-H ) :   0.9377 B(  8-C , 10-H ) :   0.9384
B(  8-C , 11-H ) :   0.9402 B( 12-O , 13-H ) :   0.8399 B( 12-O , 14-C ) :   0.9236
B( 14-C , 15-H ) :   0.9375 B( 14-C , 16-H ) :   0.9405 B( 14-C , 17-H ) :   0.9375

MP2 TOTAL ENERGY:     -346.521090121 Eh
FINAL SINGLE POINT ENERGY      -346.521090121034

DIPOLE MOMENT
-------------
                                X             Y             Z
Electronic contribution:     -0.22976      -1.23122       0.30423
Nuclear contribution   :      0.98781       1.20450      -0.42043
                        -----------------------------------------
Total Dipole Moment    :      0.75804      -0.02672      -0.11620
                        -----------------------------------------
Magnitude (a.u.)       :      0.76736
Magnitude (Debye)      :      1.95048

Rotational constants in cm-1:     0.043141     0.011261     0.009049
Rotational constants in MHz :  1293.339251   337.597001   271.282371

                             ****ORCA TERMINATED NORMALLY****
TOTAL RUN TIME: 0 days 0 hours 0 minutes 45 seconds 408 msec
