                         Program Version 4.2.0 -  RELEASE  -
|  1> # 12h2o.su.etal.mol3,5,6
|  2> ! MP2 def2-TZVP EnGrad TightSCF
|  3>
|  4> %pal
|  5>     nprocs 6
|  6> end
|  7>
|  8> %maxcore 8000
|  9>
| 10> %scf
| 11>     ConvForced true
| 12> end
| 13>
| 14> *xyz 0 1
| 15> O  -1.752130000  -0.741530000  -2.896280000
| 16> H  -2.036450000  -0.920500000  -1.984040000
| 17> H  -0.921210000  -1.242140000  -2.984230000
| 18> O   0.885520000  -1.737840000   0.052730000
| 19> H   1.284090000  -0.839590000   0.017130000
| 20> H   1.032320000  -2.090180000  -0.841890000
| 21> O   1.737840000   0.885520000  -0.052730000
| 22> H   2.090180000   1.032320000   0.841890000
| 23> H   0.839590000   1.284090000  -0.017130000
| 24> *
| 25>
| 26>                          ****END OF INPUT****

CARTESIAN COORDINATES (ANGSTROEM)
---------------------------------
  O     -1.752130   -0.741530   -2.896280
  H     -2.036450   -0.920500   -1.984040
  H     -0.921210   -1.242140   -2.984230
  O      0.885520   -1.737840    0.052730
  H      1.284090   -0.839590    0.017130
  H      1.032320   -2.090180   -0.841890
  O      1.737840    0.885520   -0.052730
  H      2.090180    1.032320    0.841890
  H      0.839590    1.284090   -0.017130

 Total Charge           Charge          ....    0
 Multiplicity           Mult            ....    1
 Number of Electrons    NEL             ....   30
 Basis Dimension        Dim             ....  129

ORBITAL ENERGIES
----------------

  NO   OCC          E(Eh)            E(eV)
   0   2.0000     -20.601821      -560.6040
   1   2.0000     -20.561769      -559.5142
   2   2.0000     -20.539619      -558.9114
   3   2.0000      -1.382417       -37.6175
   4   2.0000      -1.340906       -36.4879
   5   2.0000      -1.320504       -35.9327
   6   2.0000      -0.740104       -20.1392
   7   2.0000      -0.703861       -19.1530
   8   2.0000      -0.696322       -18.9479
   9   2.0000      -0.621668       -16.9165
  10   2.0000      -0.578776       -15.7493
  11   2.0000      -0.572943       -15.5906
  12   2.0000      -0.528852       -14.3908
  13   2.0000      -0.505989       -13.7687
  14   2.0000      -0.487323       -13.2607
  15   0.0000       0.094897         2.5823
  16   0.0000       0.127300         3.4640
  17   0.0000       0.167491         4.5577
  18   0.0000       0.192376         5.2348
  19   0.0000       0.220617         6.0033

MULLIKEN ATOMIC CHARGES
-----------------------
   0 O :   -0.675483
   1 H :    0.341135
   2 H :    0.332078
   3 O :   -0.710464
   4 H :    0.353916
   5 H :    0.321019
   6 O :   -0.681266
   7 H :    0.358666
   8 H :    0.360399
Sum of atomic charges:    0.0000000

LOEWDIN ATOMIC CHARGES
----------------------
   0 O :   -0.331593
   1 H :    0.166179
   2 H :    0.163329
   3 O :   -0.360066
   4 H :    0.141552
   5 H :    0.154273
   6 O :   -0.289335
   7 H :    0.174027
   8 H :    0.181632

  Mayer bond orders larger than 0.100000
B(  0-O ,  1-H ) :   0.8499 B(  0-O ,  2-H ) :   0.8551 B(  3-O ,  4-H ) :   0.7995
B(  3-O ,  5-H ) :   0.8615 B(  6-O ,  7-H ) :   0.8371 B(  6-O ,  8-H ) :   0.8332

MP2 TOTAL ENERGY:     -228.947798900 Eh
FINAL SINGLE POINT ENERGY      -228.947798899797

DIPOLE MOMENT
-------------
                                X             Y             Z
Electronic contribution:      0.01399       0.21254      -0.06644
Nuclear contribution   :      0.45452       0.34268       0.68611
                        -----------------------------------------
Total Dipole Moment    :      0.46851       0.55522       0.61967
                        -----------------------------------------
Magnitude (a.u.)       :      0.95486
Magnitude (Debye)      :      2.42706

Rotational constants in cm-1:     0.267740     0.075789     0.060085
Rotational constants in MHz :  8026.637695  2272.105127  1801.312476

                             ****ORCA TERMINATED NORMALLY****
TOTAL RUN TIME: 0 days 0 hours 0 minutes 27 seconds 285 msec
