                         Program Version 3.0.3 - RELEASE   -
|  1> ! B3LYP Def2-TZVP def2-TZVP/J RIJCOSX TightSCF Grid4 D3BJ
|  2>
|  3> %pal nprocs 12 end
|  4>
|  5> %scf
|  6>         maxiter 400
|  7> end
|  8>
|  9> * xyz  0  1
| 10> O  3.108883	0.699081	-3.260634
| 11> H  3.625333	0.155265	-2.577598
| 12> H  3.753523	1.219737	-3.756929
| 13> O  -2.440673	-0.101930	-0.439589
| 14> H  -2.084205	-0.681150	0.284166
| 15> H  -3.186978	0.366854	-0.003321
| 16> O  -0.488260	-0.676745	-2.300455
| 17> H  -1.376037	-0.453470	-1.950902
| 18> H  0.091847	0.076993	-2.016196
| 19> O  1.533809	-1.436277	-4.037914
| 20> H  0.650151	-1.183865	-3.696878
| 21> H  2.073977	-0.619415	-3.959887
| 22> O  2.486096	-2.908251	-2.101959
| 23> H  2.102955	-2.398789	-2.889896
| 24> H  2.778197	-3.757159	-2.461252
| 25> O  -3.919023	1.310298	1.340665
| 26> H  -4.824414	1.649301	1.313651
| 27> H  -3.343026	2.096960	1.619577
| 28> O  0.385328	0.566417	2.200360
| 29> H  -0.007439	0.907541	3.036306
| 30> H  -0.009876	1.145548	1.495535
| 31> O  -3.133806	-0.393408	3.367855
| 32> H  -2.608956	-1.050352	2.865920
| 33> H  -3.581440	0.126139	2.662823
| 34> O  -1.377063	1.428523	4.059110
| 35> H  -2.062850	0.704105	3.893071
| 36> H  -1.379634	1.596100	5.010680
| 37> O  1.199549	1.212750	-1.429869
| 38> H  1.871037	1.290524	-2.147011
| 39> H  1.655512	0.702360	-0.706138
| 40> O  -2.272820	3.198645	2.080499
| 41> H  -1.623436	3.025336	1.365307
| 42> H  -1.887614	2.756058	2.867742
| 43> O  -1.275380	-1.474135	1.590992
| 44> H  -0.617597	-0.786868	1.877606
| 45> H  -0.726700	-2.111786	1.088806
| 46> O  -0.777373	1.933678	0.197297
| 47> H  -0.075747	1.978733	-0.491101
| 48> H  -1.406429	1.235867	-0.124677
| 49> O  4.161275	-0.811064	-1.439981
| 50> H  3.725573	-0.567165	-0.595222
| 51> H  3.745591	-1.676664	-1.652836
| 52> O  2.240463	-0.352772	0.477742
| 53> H  1.865735	0.007678	1.311586
| 54> H  1.636227	-1.111582	0.257904
| 55> O  0.527459	-2.273482	-0.333623
| 56> H  1.196568	-2.793591	-0.832971
| 57> H  0.075057	-1.772114	-1.061635
| 58> **                         ****END OF INPUT****

CARTESIAN COORDINATES (ANGSTROEM)
---------------------------------
  O      3.108883    0.699081   -3.260634
  H      3.625333    0.155265   -2.577598
  H      3.753523    1.219737   -3.756929
  O     -2.440673   -0.101930   -0.439589
  H     -2.084205   -0.681150    0.284166
  H     -3.186978    0.366854   -0.003321
  O     -0.488260   -0.676745   -2.300455
  H     -1.376037   -0.453470   -1.950902
  H      0.091847    0.076993   -2.016196
  O      1.533809   -1.436277   -4.037914
  H      0.650151   -1.183865   -3.696878
  H      2.073977   -0.619415   -3.959887
  O      2.486096   -2.908251   -2.101959
  H      2.102955   -2.398789   -2.889896
  H      2.778197   -3.757159   -2.461252
  O     -3.919023    1.310298    1.340665
  H     -4.824414    1.649301    1.313651
  H     -3.343026    2.096960    1.619577
  O      0.385328    0.566417    2.200360
  H     -0.007439    0.907541    3.036306
  H     -0.009876    1.145548    1.495535
  O     -3.133806   -0.393408    3.367855
  H     -2.608956   -1.050352    2.865920
  H     -3.581440    0.126139    2.662823
  O     -1.377063    1.428523    4.059110
  H     -2.062850    0.704105    3.893071
  H     -1.379634    1.596100    5.010680
  O      1.199549    1.212750   -1.429869
  H      1.871037    1.290524   -2.147011
  H      1.655512    0.702360   -0.706138
  O     -2.272820    3.198645    2.080499
  H     -1.623436    3.025336    1.365307
  H     -1.887614    2.756058    2.867742
  O     -1.275380   -1.474135    1.590992
  H     -0.617597   -0.786868    1.877606
  H     -0.726700   -2.111786    1.088806
  O     -0.777373    1.933678    0.197297
  H     -0.075747    1.978733   -0.491101
  H     -1.406429    1.235867   -0.124677
  O      4.161275   -0.811064   -1.439981
  H      3.725573   -0.567165   -0.595222
  H      3.745591   -1.676664   -1.652836
  O      2.240463   -0.352772    0.477742
  H      1.865735    0.007678    1.311586
  H      1.636227   -1.111582    0.257904
  O      0.527459   -2.273482   -0.333623
  H      1.196568   -2.793591   -0.832971
  H      0.075057   -1.772114   -1.061635

 Total Charge           Charge          ....    0
 Multiplicity           Mult            ....    1
 Number of Electrons    NEL             ....  160
 Basis Dimension        Dim             ....  688

ORBITAL ENERGIES
----------------

  NO   OCC          E(Eh)            E(eV)
   0   2.0000     -19.145031      -520.9628
   1   2.0000     -19.144526      -520.9490
   2   2.0000     -19.143892      -520.9318
   3   2.0000     -19.143306      -520.9158
   4   2.0000     -19.132140      -520.6120
   5   2.0000     -19.132034      -520.6091
   6   2.0000     -19.130506      -520.5675
   7   2.0000     -19.130055      -520.5553
   8   2.0000     -19.129952      -520.5525
   9   2.0000     -19.129050      -520.5279
  10   2.0000     -19.128731      -520.5192
  11   2.0000     -19.127713      -520.4915
  12   2.0000     -19.124825      -520.4129
  13   2.0000     -19.124293      -520.3985
  14   2.0000     -19.124221      -520.3965
  15   2.0000     -19.123082      -520.3655
  16   2.0000      -1.044209       -28.4144
  17   2.0000      -1.038954       -28.2714
  18   2.0000      -1.030516       -28.0418
  19   2.0000      -1.029554       -28.0156
  20   2.0000      -1.028888       -27.9975
  21   2.0000      -1.021088       -27.7852
  22   2.0000      -1.020245       -27.7623
  23   2.0000      -1.019298       -27.7365
  24   2.0000      -1.009590       -27.4723
  25   2.0000      -1.009259       -27.4633
  26   2.0000      -1.006270       -27.3820
  27   2.0000      -1.002208       -27.2715
  28   2.0000      -1.001782       -27.2599
  29   2.0000      -1.001369       -27.2486
  30   2.0000      -0.994029       -27.0489
  31   2.0000      -0.986593       -26.8465
  32   2.0000      -0.561436       -15.2774
  33   2.0000      -0.556457       -15.1420
  34   2.0000      -0.553177       -15.0527
  35   2.0000      -0.550939       -14.9918
  36   2.0000      -0.548245       -14.9185
  37   2.0000      -0.546026       -14.8581
  38   2.0000      -0.543803       -14.7976
  39   2.0000      -0.542242       -14.7551
  40   2.0000      -0.535103       -14.5609
  41   2.0000      -0.532101       -14.4792
  42   2.0000      -0.530330       -14.4310
  43   2.0000      -0.527170       -14.3450
  44   2.0000      -0.526833       -14.3359
  45   2.0000      -0.524176       -14.2635
  46   2.0000      -0.520597       -14.1662
  47   2.0000      -0.518847       -14.1185
  48   2.0000      -0.477918       -13.0048
  49   2.0000      -0.459160       -12.4944
  50   2.0000      -0.445091       -12.1116
  51   2.0000      -0.442341       -12.0367
  52   2.0000      -0.434011       -11.8100
  53   2.0000      -0.428395       -11.6572
  54   2.0000      -0.421716       -11.4755
  55   2.0000      -0.416364       -11.3299
  56   2.0000      -0.406033       -11.0487
  57   2.0000      -0.403888       -10.9904
  58   2.0000      -0.400611       -10.9012
  59   2.0000      -0.396946       -10.8015
  60   2.0000      -0.382966       -10.4210
  61   2.0000      -0.379461       -10.3256
  62   2.0000      -0.371488       -10.1087
  63   2.0000      -0.355355        -9.6697
  64   2.0000      -0.340785        -9.2732
  65   2.0000      -0.339663        -9.2427
  66   2.0000      -0.338507        -9.2112
  67   2.0000      -0.336813        -9.1651
  68   2.0000      -0.332435        -9.0460
  69   2.0000      -0.331959        -9.0331
  70   2.0000      -0.330208        -8.9854
  71   2.0000      -0.327461        -8.9107
  72   2.0000      -0.326928        -8.8962
  73   2.0000      -0.325706        -8.8629
  74   2.0000      -0.321906        -8.7595
  75   2.0000      -0.320801        -8.7294
  76   2.0000      -0.319258        -8.6875
  77   2.0000      -0.318636        -8.6705
  78   2.0000      -0.318451        -8.6655
  79   2.0000      -0.317306        -8.6343
  80   0.0000      -0.002100        -0.0571
  81   0.0000       0.009906         0.2696
  82   0.0000       0.029132         0.7927
  83   0.0000       0.029236         0.7955
  84   0.0000       0.046305         1.2600

MULLIKEN ATOMIC CHARGES
-----------------------
   0 O :   -0.727449
   1 H :    0.374004
   2 H :    0.332375
   3 O :   -0.723638
   4 H :    0.358252
   5 H :    0.362667
   6 O :   -0.728608
   7 H :    0.375183
   8 H :    0.348688
   9 O :   -0.679620
  10 H :    0.370304
  11 H :    0.355738
  12 O :   -0.726645
  13 H :    0.366605
  14 H :    0.333622
  15 O :   -0.728305
  16 H :    0.335492
  17 H :    0.361874
  18 O :   -0.732771
  19 H :    0.366487
  20 H :    0.349909
  21 O :   -0.677373
  22 H :    0.369066
  23 H :    0.348602
  24 O :   -0.726970
  25 H :    0.367002
  26 H :    0.334017
  27 O :   -0.743222
  28 H :    0.370867
  29 H :    0.351021
  30 O :   -0.670841
  31 H :    0.371907
  32 H :    0.350177
  33 O :   -0.728284
  34 H :    0.350262
  35 H :    0.370849
  36 O :   -0.740501
  37 H :    0.385328
  38 H :    0.341684
  39 O :   -0.681117
  40 H :    0.373346
  41 H :    0.349841
  42 O :   -0.731298
  43 H :    0.378330
  44 H :    0.355541
  45 O :   -0.726590
  46 H :    0.362824
  47 H :    0.351367
Sum of atomic charges:   -0.0000000

LOEWDIN ATOMIC CHARGES
----------------------
   0 O :   -0.297439
   1 H :    0.138209
   2 H :    0.157573
   3 O :   -0.295499
   4 H :    0.135188
   5 H :    0.141282
   6 O :   -0.292066
   7 H :    0.151735
   8 H :    0.128360
   9 O :   -0.268124
  10 H :    0.150999
  11 H :    0.141343
  12 O :   -0.297394
  13 H :    0.139090
  14 H :    0.158023
  15 O :   -0.295186
  16 H :    0.158775
  17 H :    0.139388
  18 O :   -0.290176
  19 H :    0.142841
  20 H :    0.131370
  21 O :   -0.273501
  22 H :    0.151173
  23 H :    0.138526
  24 O :   -0.299050
  25 H :    0.141376
  26 H :    0.158417
  27 O :   -0.285613
  28 H :    0.141977
  29 H :    0.132545
  30 O :   -0.269535
  31 H :    0.144877
  32 H :    0.140604
  33 O :   -0.291472
  34 H :    0.133657
  35 H :    0.153046
  36 O :   -0.282098
  37 H :    0.146213
  38 H :    0.132491
  39 O :   -0.269517
  40 H :    0.150151
  41 H :    0.141406
  42 O :   -0.285194
  43 H :    0.150046
  44 H :    0.134845
  45 O :   -0.294471
  46 H :    0.143863
  47 H :    0.136948

  Mayer bond orders larger than 0.1
B(  0-O ,  1-H ) :   0.7298 B(  0-O ,  2-H ) :   0.8894 B(  0-O , 28-H ) :   0.1031
B(  1-H , 39-O ) :   0.1768 B(  3-O ,  4-H ) :   0.7872 B(  3-O ,  5-H ) :   0.8247
B(  3-O , 38-H ) :   0.1574 B(  4-H , 33-O ) :   0.1326 B(  6-O ,  7-H ) :   0.8325
B(  6-O ,  8-H ) :   0.7805 B(  6-O , 47-H ) :   0.1354 B(  8-H , 27-O ) :   0.1372
B(  9-O , 10-H ) :   0.8348 B(  9-O , 11-H ) :   0.8288 B(  9-O , 13-H ) :   0.1862
B( 12-O , 13-H ) :   0.7294 B( 12-O , 14-H ) :   0.8905 B( 15-O , 16-H ) :   0.8891
B( 15-O , 17-H ) :   0.7249 B( 17-H , 30-O ) :   0.1986 B( 18-O , 19-H ) :   0.8165
B( 18-O , 20-H ) :   0.7792 B( 18-O , 34-H ) :   0.1406 B( 20-H , 36-O ) :   0.1392
B( 21-O , 22-H ) :   0.8392 B( 21-O , 23-H ) :   0.8295 B( 21-O , 25-H ) :   0.1794
B( 24-O , 25-H ) :   0.7359 B( 24-O , 26-H ) :   0.8895 B( 27-O , 28-H ) :   0.8065
B( 27-O , 29-H ) :   0.7694 B( 29-H , 42-O ) :   0.1504 B( 30-O , 31-H ) :   0.8315
B( 30-O , 32-H ) :   0.8382 B( 33-O , 34-H ) :   0.7812 B( 33-O , 35-H ) :   0.8344
B( 36-O , 37-H ) :   0.8073 B( 36-O , 38-H ) :   0.7759 B( 39-O , 40-H ) :   0.8331
B( 39-O , 41-H ) :   0.8297 B( 42-O , 43-H ) :   0.8196 B( 42-O , 44-H ) :   0.7790
B( 44-H , 45-O ) :   0.1449 B( 45-O , 46-H ) :   0.8252 B( 45-O , 47-H ) :   0.7869

Dispersion correction           -0.060997656
FINAL SINGLE POINT ENERGY     -1223.136020053489

DIPOLE MOMENT
-------------
                                X             Y             Z
Electronic contribution:      0.05137      -0.02063      -0.02445
Nuclear contribution   :      0.10652       0.19517       0.07095
                        -----------------------------------------
Total Dipole Moment    :      0.15789       0.17453       0.04650
                        -----------------------------------------
Magnitude (a.u.)       :      0.23990
Magnitude (Debye)      :      0.60978

                             ****ORCA TERMINATED NORMALLY****
TOTAL RUN TIME: 0 days 0 hours 1 minutes 54 seconds 897 msec
