                         Program Version 3.0.3 - RELEASE   -
|  1> ! wB97X-D3 MA-Def2-TZVP def2-TZVP/J RIJCOSX TightSCF Grid4
|  2>
|  3> %pal nprocs 1 end
|  4>
|  5> %scf
|  6>         maxiter 400
|  7> end
|  8>
|  9> * xyz  0  1
| 10> O  2.998958	0.510510	-3.197062
| 11> H  3.521012	-0.065511	-2.494855
| 12> H  3.678480	0.947449	-3.742386
| 13> O  -2.251660	0.172326	-0.376611
| 14> H  -1.880394	-0.475566	0.313349
| 15> H  -3.109474	0.480148	0.037896
| 16> O  -0.437804	-0.551660	-2.173738
| 17> H  -1.321743	-0.308181	-1.780758
| 18> H  0.156301	0.237316	-1.933861
| 19> O  1.373132	-1.549507	-3.929290
| 20> H  0.529044	-1.239433	-3.501555
| 21> H  1.963961	-0.745730	-3.862571
| 22> O  2.435285	-3.007246	-2.112464
| 23> H  1.997812	-2.481976	-2.906035
| 24> H  2.673789	-3.883090	-2.467134
| 25> O  -4.051709	1.108132	1.331190
| 26> H  -4.972220	1.417837	1.248978
| 27> H  -3.489158	1.943686	1.615868
| 28> O  0.448564	0.664142	2.175015
| 29> H  -0.013520	0.945657	3.017030
| 30> H  0.077972	1.312900	1.486128
| 31> O  -2.992611	-0.517858	3.249225
| 32> H  -2.406331	-1.086770	2.680414
| 33> H  -3.550674	-0.024802	2.583124
| 34> O  -1.411290	1.371059	3.945850
| 35> H  -2.068113	0.578481	3.753848
| 36> H  -1.416395	1.505271	4.911271
| 37> O  1.227243	1.362464	-1.404589
| 38> H  1.891405	1.336765	-2.153204
| 39> H  1.674987	0.802335	-0.683548
| 40> O  -2.517409	3.017098	2.075880
| 41> H  -1.794946	3.007534	1.391781
| 42> H  -2.088528	2.573244	2.862188
| 43> O  -1.123656	-1.354423	1.476893
| 44> H  -0.475124	-0.639391	1.795487
| 45> H  -0.551735	-1.972677	0.943760
| 46> O  -0.650582	2.181502	0.296533
| 47> H  0.043152	2.220533	-0.418387
| 48> H  -1.291454	1.462867	-0.027980
| 49> O  4.100485	-0.965010	-1.419145
| 50> H  3.656898	-0.673909	-0.577144
| 51> H  3.649929	-1.834018	-1.621026
| 52> O  2.244519	-0.258311	0.431339
| 53> H  1.869542	0.085084	1.287474
| 54> H  1.642226	-1.045751	0.205698
| 55> O  0.609625	-2.184374	-0.362869
| 56> H  1.244204	-2.754167	-0.887656
| 57> H  0.161369	-1.626524	-1.085626
| 58> **                         ****END OF INPUT****

CARTESIAN COORDINATES (ANGSTROEM)
---------------------------------
  O      2.998958    0.510510   -3.197062
  H      3.521012   -0.065511   -2.494855
  H      3.678480    0.947449   -3.742386
  O     -2.251660    0.172326   -0.376611
  H     -1.880394   -0.475566    0.313349
  H     -3.109474    0.480148    0.037896
  O     -0.437804   -0.551660   -2.173738
  H     -1.321743   -0.308181   -1.780758
  H      0.156301    0.237316   -1.933861
  O      1.373132   -1.549507   -3.929290
  H      0.529044   -1.239433   -3.501555
  H      1.963961   -0.745730   -3.862571
  O      2.435285   -3.007246   -2.112464
  H      1.997812   -2.481976   -2.906035
  H      2.673789   -3.883090   -2.467134
  O     -4.051709    1.108132    1.331190
  H     -4.972220    1.417837    1.248978
  H     -3.489158    1.943686    1.615868
  O      0.448564    0.664142    2.175015
  H     -0.013520    0.945657    3.017030
  H      0.077972    1.312900    1.486128
  O     -2.992611   -0.517858    3.249225
  H     -2.406331   -1.086770    2.680414
  H     -3.550674   -0.024802    2.583124
  O     -1.411290    1.371059    3.945850
  H     -2.068113    0.578481    3.753848
  H     -1.416395    1.505271    4.911271
  O      1.227243    1.362464   -1.404589
  H      1.891405    1.336765   -2.153204
  H      1.674987    0.802335   -0.683548
  O     -2.517409    3.017098    2.075880
  H     -1.794946    3.007534    1.391781
  H     -2.088528    2.573244    2.862188
  O     -1.123656   -1.354423    1.476893
  H     -0.475124   -0.639391    1.795487
  H     -0.551735   -1.972677    0.943760
  O     -0.650582    2.181502    0.296533
  H      0.043152    2.220533   -0.418387
  H     -1.291454    1.462867   -0.027980
  O      4.100485   -0.965010   -1.419145
  H      3.656898   -0.673909   -0.577144
  H      3.649929   -1.834018   -1.621026
  O      2.244519   -0.258311    0.431339
  H      1.869542    0.085084    1.287474
  H      1.642226   -1.045751    0.205698
  O      0.609625   -2.184374   -0.362869
  H      1.244204   -2.754167   -0.887656
  H      0.161369   -1.626524   -1.085626

 Total Charge           Charge          ....    0
 Multiplicity           Mult            ....    1
 Number of Electrons    NEL             ....  160
 Basis Dimension        Dim             ....  752

ORBITAL ENERGIES
----------------

  NO   OCC          E(Eh)            E(eV)
   0   2.0000     -19.254117      -523.9312
   1   2.0000     -19.254069      -523.9298
   2   2.0000     -19.253666      -523.9189
   3   2.0000     -19.253319      -523.9094
   4   2.0000     -19.241710      -523.5936
   5   2.0000     -19.241705      -523.5934
   6   2.0000     -19.241478      -523.5872
   7   2.0000     -19.240901      -523.5715
   8   2.0000     -19.240606      -523.5635
   9   2.0000     -19.240555      -523.5621
  10   2.0000     -19.240542      -523.5618
  11   2.0000     -19.240372      -523.5571
  12   2.0000     -19.238118      -523.4958
  13   2.0000     -19.238080      -523.4948
  14   2.0000     -19.237970      -523.4918
  15   2.0000     -19.237637      -523.4827
  16   2.0000      -1.162093       -31.6222
  17   2.0000      -1.155428       -31.4408
  18   2.0000      -1.145001       -31.1571
  19   2.0000      -1.142813       -31.0975
  20   2.0000      -1.142620       -31.0923
  21   2.0000      -1.134307       -30.8661
  22   2.0000      -1.134002       -30.8578
  23   2.0000      -1.133793       -30.8521
  24   2.0000      -1.122308       -30.5395
  25   2.0000      -1.122108       -30.5341
  26   2.0000      -1.118694       -30.4412
  27   2.0000      -1.113064       -30.2880
  28   2.0000      -1.112853       -30.2823
  29   2.0000      -1.112646       -30.2766
  30   2.0000      -1.103425       -30.0257
  31   2.0000      -1.093208       -29.7477
  32   2.0000      -0.660689       -17.9783
  33   2.0000      -0.659781       -17.9536
  34   2.0000      -0.658629       -17.9222
  35   2.0000      -0.657025       -17.8786
  36   2.0000      -0.655024       -17.8241
  37   2.0000      -0.648256       -17.6400
  38   2.0000      -0.647867       -17.6294
  39   2.0000      -0.645688       -17.5701
  40   2.0000      -0.637909       -17.3584
  41   2.0000      -0.633441       -17.2368
  42   2.0000      -0.632782       -17.2189
  43   2.0000      -0.630066       -17.1450
  44   2.0000      -0.626607       -17.0508
  45   2.0000      -0.622090       -16.9279
  46   2.0000      -0.621124       -16.9017
  47   2.0000      -0.619962       -16.8700
  48   2.0000      -0.594781       -16.1848
  49   2.0000      -0.573124       -15.5955
  50   2.0000      -0.550579       -14.9820
  51   2.0000      -0.549161       -14.9434
  52   2.0000      -0.541272       -14.7288
  53   2.0000      -0.533969       -14.5300
  54   2.0000      -0.527710       -14.3597
  55   2.0000      -0.525317       -14.2946
  56   2.0000      -0.509838       -13.8734
  57   2.0000      -0.504540       -13.7292
  58   2.0000      -0.504491       -13.7279
  59   2.0000      -0.503049       -13.6887
  60   2.0000      -0.483331       -13.1521
  61   2.0000      -0.479283       -13.0420
  62   2.0000      -0.471779       -12.8378
  63   2.0000      -0.450997       -12.2722
  64   2.0000      -0.438876       -11.9424
  65   2.0000      -0.436284       -11.8719
  66   2.0000      -0.435953       -11.8629
  67   2.0000      -0.433909       -11.8073
  68   2.0000      -0.431067       -11.7299
  69   2.0000      -0.428823       -11.6689
  70   2.0000      -0.426863       -11.6155
  71   2.0000      -0.426635       -11.6093
  72   2.0000      -0.425477       -11.5778
  73   2.0000      -0.424440       -11.5496
  74   2.0000      -0.421828       -11.4785
  75   2.0000      -0.420056       -11.4303
  76   2.0000      -0.419356       -11.4113
  77   2.0000      -0.418975       -11.4009
  78   2.0000      -0.418187       -11.3794
  79   2.0000      -0.417427       -11.3588
  80   0.0000       0.052034         1.4159
  81   0.0000       0.059828         1.6280
  82   0.0000       0.074504         2.0274
  83   0.0000       0.075308         2.0492
  84   0.0000       0.091487         2.4895

MULLIKEN ATOMIC CHARGES
-----------------------
   0 O :   -0.842330
   1 H :    0.419694
   2 H :    0.361193
   3 O :   -0.844770
   4 H :    0.429278
   5 H :    0.426534
   6 O :   -0.899532
   7 H :    0.447370
   8 H :    0.423698
   9 O :   -0.755868
  10 H :    0.432280
  11 H :    0.417672
  12 O :   -0.846316
  13 H :    0.423210
  14 H :    0.361401
  15 O :   -0.860374
  16 H :    0.362596
  17 H :    0.424317
  18 O :   -0.842207
  19 H :    0.424674
  20 H :    0.432430
  21 O :   -0.752843
  22 H :    0.432287
  23 H :    0.418879
  24 O :   -0.862928
  25 H :    0.426554
  26 H :    0.362462
  27 O :   -0.858528
  28 H :    0.434811
  29 H :    0.423105
  30 O :   -0.750228
  31 H :    0.432810
  32 H :    0.416385
  33 O :   -0.906846
  34 H :    0.420349
  35 H :    0.447632
  36 O :   -0.906939
  37 H :    0.447447
  38 H :    0.416592
  39 O :   -0.751975
  40 H :    0.430878
  41 H :    0.417825
  42 O :   -0.899497
  43 H :    0.445148
  44 H :    0.426503
  45 O :   -0.860985
  46 H :    0.433890
  47 H :    0.422261
Sum of atomic charges:   -0.0000000

LOEWDIN ATOMIC CHARGES
----------------------
   0 O :   -0.417935
   1 H :    0.194677
   2 H :    0.195353
   3 O :   -0.414543
   4 H :    0.196732
   5 H :    0.201423
   6 O :   -0.411888
   7 H :    0.208165
   8 H :    0.195316
   9 O :   -0.357949
  10 H :    0.206227
  11 H :    0.200866
  12 O :   -0.417188
  13 H :    0.195146
  14 H :    0.195338
  15 O :   -0.416481
  16 H :    0.195635
  17 H :    0.195020
  18 O :   -0.415062
  19 H :    0.202337
  20 H :    0.196615
  21 O :   -0.357102
  22 H :    0.205788
  23 H :    0.200617
  24 O :   -0.417014
  25 H :    0.195800
  26 H :    0.195530
  27 O :   -0.414834
  28 H :    0.202977
  29 H :    0.196432
  30 O :   -0.357035
  31 H :    0.205940
  32 H :    0.199997
  33 O :   -0.411019
  34 H :    0.195467
  35 H :    0.208440
  36 O :   -0.411495
  37 H :    0.208981
  38 H :    0.195495
  39 O :   -0.356567
  40 H :    0.206169
  41 H :    0.200977
  42 O :   -0.410204
  43 H :    0.208830
  44 H :    0.195663
  45 O :   -0.414863
  46 H :    0.202412
  47 H :    0.196817

  Mayer bond orders larger than 0.1
B(  0-O ,  1-H ) :   0.7100 B(  0-O ,  2-H ) :   0.8708 B(  1-H , 39-O ) :   0.1655
B(  3-O ,  4-H ) :   0.7861 B(  3-O ,  5-H ) :   0.7998 B(  6-O ,  7-H ) :   0.8043
B(  6-O ,  8-H ) :   0.7842 B(  9-O , 10-H ) :   0.8232 B(  9-O , 11-H ) :   0.8345
B(  9-O , 13-H ) :   0.1612 B( 12-O , 13-H ) :   0.7105 B( 12-O , 14-H ) :   0.8705
B( 15-O , 16-H ) :   0.8691 B( 15-O , 17-H ) :   0.7115 B( 17-H , 30-O ) :   0.1578
B( 18-O , 19-H ) :   0.8035 B( 18-O , 20-H ) :   0.7872 B( 21-O , 22-H ) :   0.8226
B( 21-O , 23-H ) :   0.8357 B( 21-O , 25-H ) :   0.1548 B( 24-O , 25-H ) :   0.7122
B( 24-O , 26-H ) :   0.8692 B( 27-O , 28-H ) :   0.8039 B( 27-O , 29-H ) :   0.7861
B( 30-O , 31-H ) :   0.8221 B( 30-O , 32-H ) :   0.8355 B( 33-O , 34-H ) :   0.7833
B( 33-O , 35-H ) :   0.8059 B( 36-O , 37-H ) :   0.8060 B( 36-O , 38-H ) :   0.7860
B( 39-O , 40-H ) :   0.8243 B( 39-O , 41-H ) :   0.8354 B( 42-O , 43-H ) :   0.8069
B( 42-O , 44-H ) :   0.7840 B( 45-O , 46-H ) :   0.8032 B( 45-O , 47-H ) :   0.7854

Dispersion correction           -0.033082512
FINAL SINGLE POINT ENERGY     -1223.307937481427

DIPOLE MOMENT
-------------
                                X             Y             Z
Electronic contribution:     -0.00203      -0.00114       0.01392
Nuclear contribution   :      0.00008       0.00160      -0.01810
                        -----------------------------------------
Total Dipole Moment    :     -0.00195       0.00046      -0.00418
                        -----------------------------------------
Magnitude (a.u.)       :      0.00463
Magnitude (Debye)      :      0.01178

                             ****ORCA TERMINATED NORMALLY****
TOTAL RUN TIME: 0 days 1 hours 6 minutes 16 seconds 487 msec
