                         Program Version 4.2.0 -  RELEASE  -
|  1> # 12h2o.su.etal.mol0,1,2,3,5,8,10
|  2> ! MP2 def2-TZVP EnGrad TightSCF
|  3>
|  4> %pal
|  5>     nprocs 6
|  6> end
|  7>
|  8> %maxcore 8000
|  9>
| 10> %scf
| 11>     ConvForced true
| 12> end
| 13>
| 14> *xyz 0 1
| 15> O   1.794470000   0.923410000   2.768350000
| 16> H   2.338250000   1.359750000   3.430940000
| 17> H   0.879480000   1.303000000   2.865760000
| 18> O  -1.794470000  -0.923410000   2.768350000
| 19> H  -2.338250000  -1.359750000   3.430940000
| 20> H  -0.879480000  -1.303000000   2.865760000
| 21> O   0.923410000  -1.794470000  -2.768350000
| 22> H   1.359750000  -2.338250000  -3.430940000
| 23> H   1.303000000  -0.879480000  -2.865760000
| 24> O  -1.752130000  -0.741530000  -2.896280000
| 25> H  -2.036450000  -0.920500000  -1.984040000
| 26> H  -0.921210000  -1.242140000  -2.984230000
| 27> O   0.885520000  -1.737840000   0.052730000
| 28> H   1.284090000  -0.839590000   0.017130000
| 29> H   1.032320000  -2.090180000  -0.841890000
| 30> O   1.752130000   0.741530000  -2.896280000
| 31> H   2.036450000   0.920500000  -1.984040000
| 32> H   0.921210000   1.242140000  -2.984230000
| 33> O  -0.923410000   1.794470000  -2.768350000
| 34> H  -1.359750000   2.338250000  -3.430940000
| 35> H  -1.303000000   0.879480000  -2.865760000
| 36> *
| 37>
| 38>                          ****END OF INPUT****

CARTESIAN COORDINATES (ANGSTROEM)
---------------------------------
  O      1.794470    0.923410    2.768350
  H      2.338250    1.359750    3.430940
  H      0.879480    1.303000    2.865760
  O     -1.794470   -0.923410    2.768350
  H     -2.338250   -1.359750    3.430940
  H     -0.879480   -1.303000    2.865760
  O      0.923410   -1.794470   -2.768350
  H      1.359750   -2.338250   -3.430940
  H      1.303000   -0.879480   -2.865760
  O     -1.752130   -0.741530   -2.896280
  H     -2.036450   -0.920500   -1.984040
  H     -0.921210   -1.242140   -2.984230
  O      0.885520   -1.737840    0.052730
  H      1.284090   -0.839590    0.017130
  H      1.032320   -2.090180   -0.841890
  O      1.752130    0.741530   -2.896280
  H      2.036450    0.920500   -1.984040
  H      0.921210    1.242140   -2.984230
  O     -0.923410    1.794470   -2.768350
  H     -1.359750    2.338250   -3.430940
  H     -1.303000    0.879480   -2.865760

 Total Charge           Charge          ....    0
 Multiplicity           Mult            ....    1
 Number of Electrons    NEL             ....   70
 Basis Dimension        Dim             ....  301

ORBITAL ENERGIES
----------------

  NO   OCC          E(Eh)            E(eV)
   0   2.0000     -20.577215      -559.9345
   1   2.0000     -20.568204      -559.6893
   2   2.0000     -20.566157      -559.6336
   3   2.0000     -20.564546      -559.5897
   4   2.0000     -20.551305      -559.2294
   5   2.0000     -20.546764      -559.1059
   6   2.0000     -20.530172      -558.6544
   7   2.0000      -1.372814       -37.3562
   8   2.0000      -1.357468       -36.9386
   9   2.0000      -1.349257       -36.7152
  10   2.0000      -1.339836       -36.4588
  11   2.0000      -1.326827       -36.1048
  12   2.0000      -1.326678       -36.1007
  13   2.0000      -1.308881       -35.6165
  14   2.0000      -0.735147       -20.0044
  15   2.0000      -0.729072       -19.8391
  16   2.0000      -0.715495       -19.4696
  17   2.0000      -0.709348       -19.3023
  18   2.0000      -0.708180       -19.2706
  19   2.0000      -0.694505       -18.8984
  20   2.0000      -0.678857       -18.4726
  21   2.0000      -0.628974       -17.1153
  22   2.0000      -0.598547       -16.2873
  23   2.0000      -0.592225       -16.1153
  24   2.0000      -0.576357       -15.6835
  25   2.0000      -0.565028       -15.3752
  26   2.0000      -0.563329       -15.3290
  27   2.0000      -0.551279       -15.0011
  28   2.0000      -0.519648       -14.1403
  29   2.0000      -0.511717       -13.9245
  30   2.0000      -0.508007       -13.8236
  31   2.0000      -0.506686       -13.7876
  32   2.0000      -0.497254       -13.5310
  33   2.0000      -0.494666       -13.4605
  34   2.0000      -0.475603       -12.9418
  35   0.0000       0.103146         2.8068
  36   0.0000       0.124412         3.3854
  37   0.0000       0.146431         3.9846
  38   0.0000       0.152809         4.1581
  39   0.0000       0.156926         4.2702

MULLIKEN ATOMIC CHARGES
-----------------------
   0 O :   -0.690278
   1 H :    0.339106
   2 H :    0.352664
   3 O :   -0.693170
   4 H :    0.333566
   5 H :    0.358550
   6 O :   -0.754506
   7 H :    0.350805
   8 H :    0.380051
   9 O :   -0.712638
  10 H :    0.364693
  11 H :    0.377483
  12 O :   -0.695869
  13 H :    0.320828
  14 H :    0.363067
  15 O :   -0.706787
  16 H :    0.351324
  17 H :    0.382434
  18 O :   -0.742904
  19 H :    0.341131
  20 H :    0.380448
Sum of atomic charges:   -0.0000000

LOEWDIN ATOMIC CHARGES
----------------------
   0 O :   -0.340715
   1 H :    0.158332
   2 H :    0.183995
   3 O :   -0.342617
   4 H :    0.155683
   5 H :    0.185373
   6 O :   -0.314727
   7 H :    0.159151
   8 H :    0.145306
   9 O :   -0.283818
  10 H :    0.175755
  11 H :    0.153373
  12 O :   -0.346243
  13 H :    0.161003
  14 H :    0.146338
  15 O :   -0.281087
  16 H :    0.168620
  17 H :    0.156161
  18 O :   -0.340960
  19 H :    0.155696
  20 H :    0.145380

  Mayer bond orders larger than 0.100000
B(  0-O ,  1-H ) :   0.8523 B(  0-O ,  2-H ) :   0.8368 B(  3-O ,  4-H ) :   0.8555
B(  3-O ,  5-H ) :   0.8321 B(  6-O ,  7-H ) :   0.8402 B(  6-O ,  8-H ) :   0.7350
B(  8-H , 15-O ) :   0.1122 B(  9-O , 10-H ) :   0.8321 B(  9-O , 11-H ) :   0.7914
B(  9-O , 20-H ) :   0.1093 B( 12-O , 13-H ) :   0.8567 B( 12-O , 14-H ) :   0.8186
B( 15-O , 16-H ) :   0.8408 B( 15-O , 17-H ) :   0.7755 B( 18-O , 19-H ) :   0.8483
B( 18-O , 20-H ) :   0.7481

MP2 TOTAL ENERGY:     -534.247373461 Eh
FINAL SINGLE POINT ENERGY      -534.247373460896

DIPOLE MOMENT
-------------
                                X             Y             Z
Electronic contribution:     -0.11094      -0.08481      -0.25046
Nuclear contribution   :      0.45394       0.45439       0.59793
                        -----------------------------------------
Total Dipole Moment    :      0.34300       0.36959       0.34747
                        -----------------------------------------
Magnitude (a.u.)       :      0.61236
Magnitude (Debye)      :      1.55649

Rotational constants in cm-1:     0.034509     0.016997     0.015837
Rotational constants in MHz :  1034.554971   509.559646   474.790880

                             ****ORCA TERMINATED NORMALLY****
TOTAL RUN TIME: 0 days 0 hours 3 minutes 13 seconds 408 msec
