                         Program Version 4.2.0 -  RELEASE  -
|  1> # 12h2o.su.etal.mol0,2,6,10,11
|  2> ! MP2 def2-TZVP EnGrad TightSCF
|  3>
|  4> %pal
|  5>     nprocs 6
|  6> end
|  7>
|  8> %maxcore 8000
|  9>
| 10> %scf
| 11>     ConvForced true
| 12> end
| 13>
| 14> *xyz 0 1
| 15> O   1.794470000   0.923410000   2.768350000
| 16> H   2.338250000   1.359750000   3.430940000
| 17> H   0.879480000   1.303000000   2.865760000
| 18> O   0.923410000  -1.794470000  -2.768350000
| 19> H   1.359750000  -2.338250000  -3.430940000
| 20> H   1.303000000  -0.879480000  -2.865760000
| 21> O   1.737840000   0.885520000  -0.052730000
| 22> H   2.090180000   1.032320000   0.841890000
| 23> H   0.839590000   1.284090000  -0.017130000
| 24> O  -0.923410000   1.794470000  -2.768350000
| 25> H  -1.359750000   2.338250000  -3.430940000
| 26> H  -1.303000000   0.879480000  -2.865760000
| 27> O  -0.741530000   1.752130000   2.896280000
| 28> H  -0.920500000   2.036450000   1.984040000
| 29> H  -1.242140000   0.921210000   2.984230000
| 30> *
| 31>
| 32>                          ****END OF INPUT****

CARTESIAN COORDINATES (ANGSTROEM)
---------------------------------
  O      1.794470    0.923410    2.768350
  H      2.338250    1.359750    3.430940
  H      0.879480    1.303000    2.865760
  O      0.923410   -1.794470   -2.768350
  H      1.359750   -2.338250   -3.430940
  H      1.303000   -0.879480   -2.865760
  O      1.737840    0.885520   -0.052730
  H      2.090180    1.032320    0.841890
  H      0.839590    1.284090   -0.017130
  O     -0.923410    1.794470   -2.768350
  H     -1.359750    2.338250   -3.430940
  H     -1.303000    0.879480   -2.865760
  O     -0.741530    1.752130    2.896280
  H     -0.920500    2.036450    1.984040
  H     -1.242140    0.921210    2.984230

 Total Charge           Charge          ....    0
 Multiplicity           Mult            ....    1
 Number of Electrons    NEL             ....   50
 Basis Dimension        Dim             ....  215

ORBITAL ENERGIES
----------------

  NO   OCC          E(Eh)            E(eV)
   0   2.0000     -20.607851      -560.7681
   1   2.0000     -20.566428      -559.6410
   2   2.0000     -20.546466      -559.0978
   3   2.0000     -20.540354      -558.9314
   4   2.0000     -20.518344      -558.3325
   5   2.0000      -1.393259       -37.9125
   6   2.0000      -1.341713       -36.5099
   7   2.0000      -1.325552       -36.0701
   8   2.0000      -1.321847       -35.9693
   9   2.0000      -1.296598       -35.2822
  10   2.0000      -0.750456       -20.4210
  11   2.0000      -0.711911       -19.3721
  12   2.0000      -0.709972       -19.3193
  13   2.0000      -0.689745       -18.7689
  14   2.0000      -0.666053       -18.1242
  15   2.0000      -0.630013       -17.1435
  16   2.0000      -0.578405       -15.7392
  17   2.0000      -0.577098       -15.7036
  18   2.0000      -0.558476       -15.1969
  19   2.0000      -0.545995       -14.8573
  20   2.0000      -0.527050       -14.3418
  21   2.0000      -0.509873       -13.8744
  22   2.0000      -0.489862       -13.3298
  23   2.0000      -0.486511       -13.2386
  24   2.0000      -0.463739       -12.6190
  25   0.0000       0.094696         2.5768
  26   0.0000       0.120274         3.2728
  27   0.0000       0.151722         4.1286
  28   0.0000       0.164069         4.4645
  29   0.0000       0.168239         4.5780

MULLIKEN ATOMIC CHARGES
-----------------------
   0 O :   -0.729915
   1 H :    0.334701
   2 H :    0.365376
   3 O :   -0.691738
   4 H :    0.332347
   5 H :    0.358326
   6 O :   -0.691929
   7 H :    0.366537
   8 H :    0.307664
   9 O :   -0.689425
  10 H :    0.338982
  11 H :    0.351679
  12 O :   -0.676521
  13 H :    0.357352
  14 H :    0.366567
Sum of atomic charges:   -0.0000000

LOEWDIN ATOMIC CHARGES
----------------------
   0 O :   -0.338026
   1 H :    0.152749
   2 H :    0.142466
   3 O :   -0.342041
   4 H :    0.155160
   5 H :    0.185294
   6 O :   -0.346750
   7 H :    0.148759
   8 H :    0.155150
   9 O :   -0.340325
  10 H :    0.158239
  11 H :    0.183522
  12 O :   -0.267516
  13 H :    0.173014
  14 H :    0.180305

  Mayer bond orders larger than 0.100000
B(  0-O ,  1-H ) :   0.8517 B(  0-O ,  2-H ) :   0.7748 B(  3-O ,  4-H ) :   0.8563
B(  3-O ,  5-H ) :   0.8324 B(  6-O ,  7-H ) :   0.8130 B(  6-O ,  8-H ) :   0.8646
B(  9-O , 10-H ) :   0.8523 B(  9-O , 11-H ) :   0.8373 B( 12-O , 13-H ) :   0.8365
B( 12-O , 14-H ) :   0.8317

MP2 TOTAL ENERGY:     -381.581229473 Eh
FINAL SINGLE POINT ENERGY      -381.581229472740

DIPOLE MOMENT
-------------
                                X             Y             Z
Electronic contribution:     -0.04525      -0.04768       0.29941
Nuclear contribution   :     -1.32903       0.67812      -0.54442
                        -----------------------------------------
Total Dipole Moment    :     -1.37428       0.63044      -0.24501
                        -----------------------------------------
Magnitude (a.u.)       :      1.53171
Magnitude (Debye)      :      3.89330

Rotational constants in cm-1:     0.069264     0.025286     0.020703
Rotational constants in MHz :  2076.488567   758.064353   620.645526

                             ****ORCA TERMINATED NORMALLY****
TOTAL RUN TIME: 0 days 0 hours 1 minutes 5 seconds 275 msec
