                         Program Version 4.2.0 -  RELEASE  -
|  1> # 12h2o.su.etal.mol0,1,2,4,5,8,10,11
|  2> ! MP2 def2-TZVP EnGrad TightSCF
|  3>
|  4> %pal
|  5>     nprocs 6
|  6> end
|  7>
|  8> %maxcore 8000
|  9>
| 10> %scf
| 11>     ConvForced true
| 12> end
| 13>
| 14> *xyz 0 1
| 15> O   1.794470000   0.923410000   2.768350000
| 16> H   2.338250000   1.359750000   3.430940000
| 17> H   0.879480000   1.303000000   2.865760000
| 18> O  -1.794470000  -0.923410000   2.768350000
| 19> H  -2.338250000  -1.359750000   3.430940000
| 20> H  -0.879480000  -1.303000000   2.865760000
| 21> O   0.923410000  -1.794470000  -2.768350000
| 22> H   1.359750000  -2.338250000  -3.430940000
| 23> H   1.303000000  -0.879480000  -2.865760000
| 24> O  -0.885520000   1.737840000   0.052730000
| 25> H  -1.032320000   2.090180000  -0.841890000
| 26> H  -1.284090000   0.839590000   0.017130000
| 27> O   0.885520000  -1.737840000   0.052730000
| 28> H   1.284090000  -0.839590000   0.017130000
| 29> H   1.032320000  -2.090180000  -0.841890000
| 30> O   1.752130000   0.741530000  -2.896280000
| 31> H   2.036450000   0.920500000  -1.984040000
| 32> H   0.921210000   1.242140000  -2.984230000
| 33> O  -0.923410000   1.794470000  -2.768350000
| 34> H  -1.359750000   2.338250000  -3.430940000
| 35> H  -1.303000000   0.879480000  -2.865760000
| 36> O  -0.741530000   1.752130000   2.896280000
| 37> H  -0.920500000   2.036450000   1.984040000
| 38> H  -1.242140000   0.921210000   2.984230000
| 39> *
| 40>
| 41>                          ****END OF INPUT****

CARTESIAN COORDINATES (ANGSTROEM)
---------------------------------
  O      1.794470    0.923410    2.768350
  H      2.338250    1.359750    3.430940
  H      0.879480    1.303000    2.865760
  O     -1.794470   -0.923410    2.768350
  H     -2.338250   -1.359750    3.430940
  H     -0.879480   -1.303000    2.865760
  O      0.923410   -1.794470   -2.768350
  H      1.359750   -2.338250   -3.430940
  H      1.303000   -0.879480   -2.865760
  O     -0.885520    1.737840    0.052730
  H     -1.032320    2.090180   -0.841890
  H     -1.284090    0.839590    0.017130
  O      0.885520   -1.737840    0.052730
  H      1.284090   -0.839590    0.017130
  H      1.032320   -2.090180   -0.841890
  O      1.752130    0.741530   -2.896280
  H      2.036450    0.920500   -1.984040
  H      0.921210    1.242140   -2.984230
  O     -0.923410    1.794470   -2.768350
  H     -1.359750    2.338250   -3.430940
  H     -1.303000    0.879480   -2.865760
  O     -0.741530    1.752130    2.896280
  H     -0.920500    2.036450    1.984040
  H     -1.242140    0.921210    2.984230

 Total Charge           Charge          ....    0
 Multiplicity           Mult            ....    1
 Number of Electrons    NEL             ....   80
 Basis Dimension        Dim             ....  344

ORBITAL ENERGIES
----------------

  NO   OCC          E(Eh)            E(eV)
   0   2.0000     -20.630226      -561.3770
   1   2.0000     -20.584408      -560.1302
   2   2.0000     -20.575257      -559.8812
   3   2.0000     -20.563154      -559.5519
   4   2.0000     -20.545584      -559.0738
   5   2.0000     -20.529635      -558.6398
   6   2.0000     -20.519821      -558.3727
   7   2.0000     -20.498323      -557.7877
   8   2.0000      -1.410689       -38.3868
   9   2.0000      -1.373486       -37.3745
  10   2.0000      -1.353508       -36.8308
  11   2.0000      -1.345077       -36.6014
  12   2.0000      -1.329912       -36.1888
  13   2.0000      -1.320877       -35.9429
  14   2.0000      -1.298204       -35.3259
  15   2.0000      -1.279487       -34.8166
  16   2.0000      -0.776252       -21.1229
  17   2.0000      -0.735481       -20.0135
  18   2.0000      -0.720327       -19.6011
  19   2.0000      -0.716544       -19.4982
  20   2.0000      -0.713721       -19.4213
  21   2.0000      -0.686396       -18.6778
  22   2.0000      -0.667558       -18.1652
  23   2.0000      -0.665100       -18.0983
  24   2.0000      -0.650310       -17.6958
  25   2.0000      -0.618309       -16.8250
  26   2.0000      -0.603043       -16.4096
  27   2.0000      -0.589954       -16.0535
  28   2.0000      -0.575947       -15.6723
  29   2.0000      -0.566065       -15.4034
  30   2.0000      -0.553079       -15.0500
  31   2.0000      -0.543781       -14.7970
  32   2.0000      -0.525706       -14.3052
  33   2.0000      -0.519450       -14.1349
  34   2.0000      -0.512649       -13.9499
  35   2.0000      -0.508133       -13.8270
  36   2.0000      -0.491895       -13.3851
  37   2.0000      -0.469387       -12.7727
  38   2.0000      -0.465410       -12.6644
  39   2.0000      -0.449222       -12.2239
  40   0.0000       0.081968         2.2305
  41   0.0000       0.122942         3.3454
  42   0.0000       0.134898         3.6708
  43   0.0000       0.155758         4.2384
  44   0.0000       0.163925         4.4606

MULLIKEN ATOMIC CHARGES
-----------------------
   0 O :   -0.739301
   1 H :    0.317339
   2 H :    0.369205
   3 O :   -0.707485
   4 H :    0.348955
   5 H :    0.381223
   6 O :   -0.741903
   7 H :    0.337139
   8 H :    0.365939
   9 O :   -0.716474
  10 H :    0.368001
  11 H :    0.349000
  12 O :   -0.705744
  13 H :    0.325275
  14 H :    0.365151
  15 O :   -0.699463
  16 H :    0.360804
  17 H :    0.375722
  18 O :   -0.723101
  19 H :    0.370232
  20 H :    0.379088
  21 O :   -0.719282
  22 H :    0.380355
  23 H :    0.359324
Sum of atomic charges:   -0.0000000

LOEWDIN ATOMIC CHARGES
----------------------
   0 O :   -0.377516
   1 H :    0.144943
   2 H :    0.141958
   3 O :   -0.313241
   4 H :    0.162158
   5 H :    0.195682
   6 O :   -0.344484
   7 H :    0.153503
   8 H :    0.141537
   9 O :   -0.324194
  10 H :    0.149797
  11 H :    0.172983
  12 O :   -0.350009
  13 H :    0.160688
  14 H :    0.147834
  15 O :   -0.278042
  16 H :    0.172854
  17 H :    0.153401
  18 O :   -0.287612
  19 H :    0.171012
  20 H :    0.195316
  21 O :   -0.291083
  22 H :    0.155163
  23 H :    0.147354

  Mayer bond orders larger than 0.100000
B(  0-O ,  1-H ) :   0.8641 B(  0-O ,  2-H ) :   0.7667 B(  2-H , 21-O ) :   0.1051
B(  3-O ,  4-H ) :   0.8437 B(  3-O ,  5-H ) :   0.8137 B(  6-O ,  7-H ) :   0.8503
B(  6-O ,  8-H ) :   0.7610 B(  9-O , 10-H ) :   0.8168 B(  9-O , 11-H ) :   0.8341
B( 12-O , 13-H ) :   0.8515 B( 12-O , 14-H ) :   0.8140 B( 15-O , 16-H ) :   0.8341
B( 15-O , 17-H ) :   0.8038 B( 18-O , 19-H ) :   0.8285 B( 18-O , 20-H ) :   0.8135
B( 21-O , 22-H ) :   0.8076 B( 21-O , 23-H ) :   0.8089

MP2 TOTAL ENERGY:     -610.568703015 Eh
FINAL SINGLE POINT ENERGY      -610.568703015468

DIPOLE MOMENT
-------------
                                X             Y             Z
Electronic contribution:     -0.31228       0.25312      -0.29398
Nuclear contribution   :     -1.02062       0.11069      -1.54856
                        -----------------------------------------
Total Dipole Moment    :     -1.33290       0.36381      -1.84254
                        -----------------------------------------
Magnitude (a.u.)       :      2.30303
Magnitude (Debye)      :      5.85383

Rotational constants in cm-1:     0.032359     0.015422     0.013773
Rotational constants in MHz :   970.093054   462.338618   412.899415

                             ****ORCA TERMINATED NORMALLY****
TOTAL RUN TIME: 0 days 0 hours 2 minutes 47 seconds 186 msec
