                         Program Version 4.2.0 -  RELEASE  -
|  1> # 12h2o.su.etal.mol1,4,6,7
|  2> ! MP2 def2-TZVP EnGrad TightSCF
|  3>
|  4> %pal
|  5>     nprocs 6
|  6> end
|  7>
|  8> %maxcore 8000
|  9>
| 10> %scf
| 11>     ConvForced true
| 12> end
| 13>
| 14> *xyz 0 1
| 15> O  -1.794470000  -0.923410000   2.768350000
| 16> H  -2.338250000  -1.359750000   3.430940000
| 17> H  -0.879480000  -1.303000000   2.865760000
| 18> O  -0.885520000   1.737840000   0.052730000
| 19> H  -1.032320000   2.090180000  -0.841890000
| 20> H  -1.284090000   0.839590000   0.017130000
| 21> O   1.737840000   0.885520000  -0.052730000
| 22> H   2.090180000   1.032320000   0.841890000
| 23> H   0.839590000   1.284090000  -0.017130000
| 24> O  -1.737840000  -0.885520000  -0.052730000
| 25> H  -2.090180000  -1.032320000   0.841890000
| 26> H  -0.839590000  -1.284090000  -0.017130000
| 27> *
| 28>
| 29>                          ****END OF INPUT****

CARTESIAN COORDINATES (ANGSTROEM)
---------------------------------
  O     -1.794470   -0.923410    2.768350
  H     -2.338250   -1.359750    3.430940
  H     -0.879480   -1.303000    2.865760
  O     -0.885520    1.737840    0.052730
  H     -1.032320    2.090180   -0.841890
  H     -1.284090    0.839590    0.017130
  O      1.737840    0.885520   -0.052730
  H      2.090180    1.032320    0.841890
  H      0.839590    1.284090   -0.017130
  O     -1.737840   -0.885520   -0.052730
  H     -2.090180   -1.032320    0.841890
  H     -0.839590   -1.284090   -0.017130

 Total Charge           Charge          ....    0
 Multiplicity           Mult            ....    1
 Number of Electrons    NEL             ....   40
 Basis Dimension        Dim             ....  172

ORBITAL ENERGIES
----------------

  NO   OCC          E(Eh)            E(eV)
   0   2.0000     -20.602253      -560.6158
   1   2.0000     -20.570679      -559.7566
   2   2.0000     -20.547682      -559.1308
   3   2.0000     -20.521229      -558.4110
   4   2.0000      -1.380693       -37.5706
   5   2.0000      -1.355373       -36.8816
   6   2.0000      -1.332325       -36.2544
   7   2.0000      -1.301286       -35.4098
   8   2.0000      -0.747113       -20.3300
   9   2.0000      -0.717239       -19.5171
  10   2.0000      -0.701143       -19.0791
  11   2.0000      -0.675531       -18.3821
  12   2.0000      -0.623866       -16.9763
  13   2.0000      -0.598365       -16.2824
  14   2.0000      -0.576791       -15.6953
  15   2.0000      -0.548805       -14.9337
  16   2.0000      -0.540693       -14.7130
  17   2.0000      -0.509409       -13.8617
  18   2.0000      -0.488370       -13.2892
  19   2.0000      -0.469656       -12.7800
  20   0.0000       0.091842         2.4991
  21   0.0000       0.142058         3.8656
  22   0.0000       0.166275         4.5246
  23   0.0000       0.180015         4.8984
  24   0.0000       0.194891         5.3032

MULLIKEN ATOMIC CHARGES
-----------------------
   0 O :   -0.693889
   1 H :    0.355995
   2 H :    0.354499
   3 O :   -0.714203
   4 H :    0.344642
   5 H :    0.374543
   6 O :   -0.722351
   7 H :    0.321955
   8 H :    0.354560
   9 O :   -0.701739
  10 H :    0.379942
  11 H :    0.346046
Sum of atomic charges:    0.0000000

LOEWDIN ATOMIC CHARGES
----------------------
   0 O :   -0.308674
   1 H :    0.165350
   2 H :    0.185896
   3 O :   -0.311587
   4 H :    0.165128
   5 H :    0.146325
   6 O :   -0.367514
   7 H :    0.154935
   8 H :    0.140365
   9 O :   -0.296952
  10 H :    0.153818
  11 H :    0.172909

  Mayer bond orders larger than 0.100000
B(  0-O ,  1-H ) :   0.8397 B(  0-O ,  2-H ) :   0.8342 B(  3-O ,  4-H ) :   0.8454
B(  3-O ,  5-H ) :   0.7736 B(  3-O ,  8-H ) :   0.1013 B(  6-O ,  7-H ) :   0.8617
B(  6-O ,  8-H ) :   0.7860 B(  9-O , 10-H ) :   0.8018 B(  9-O , 11-H ) :   0.8387

MP2 TOTAL ENERGY:     -305.278998289 Eh
FINAL SINGLE POINT ENERGY      -305.278998288826

DIPOLE MOMENT
-------------
                                X             Y             Z
Electronic contribution:     -0.38894      -0.00600      -0.00902
Nuclear contribution   :     -0.14496      -1.13354       1.40687
                        -----------------------------------------
Total Dipole Moment    :     -0.53390      -1.13954       1.39785
                        -----------------------------------------
Magnitude (a.u.)       :      1.88085
Magnitude (Debye)      :      4.78073

Rotational constants in cm-1:     0.149775     0.059254     0.053661
Rotational constants in MHz :  4490.154422  1776.393685  1608.722260

                             ****ORCA TERMINATED NORMALLY****
TOTAL RUN TIME: 0 days 0 hours 0 minutes 25 seconds 147 msec
