                         Program Version 4.2.0 -  RELEASE  -
|  1> ! MP2 def2-TZVP EnGrad TightSCF FrozenCore
|  2>
|  3> %pal
|  4>     nprocs 8
|  5> end
|  6>
|  7> %maxcore 8000
|  8>
|  9> %scf
| 10>     ConvForced true
| 11> end
| 12>
| 13> *xyz 0 1
| 14> O          0.00000        0.00000        0.00000
| 15> H          0.96500        0.00000        0.00000
| 16> H         -0.26130        0.00000       -0.94929
| 17> O         -1.18075        0.00883       -2.49184
| 18> H         -2.07038        0.23410       -2.14264
| 19> H         -1.29810       -0.85602       -2.90494
| 20> O         -3.46819        0.52237       -1.01168
| 21> H         -4.40367        0.39261       -1.20882
| 22> H         -3.26223       -0.09058       -0.26255
| 23> O         -2.55242       -0.79430        1.19300
| 24> H         -2.46143        0.08825        1.60138
| 25> H         -1.63104       -0.97168        0.93584
| 26> O         -1.87259        2.00329        1.14339
| 27> H         -1.06239        1.59422        0.79080
| 28> H         -2.45692        2.01937        0.36893
| 29> *
| 30>
| 31>
| 32>                          ****END OF INPUT****

CARTESIAN COORDINATES (ANGSTROEM)
---------------------------------
  O      0.000000    0.000000    0.000000
  H      0.965000    0.000000    0.000000
  H     -0.261300    0.000000   -0.949290
  O     -1.180750    0.008830   -2.491840
  H     -2.070380    0.234100   -2.142640
  H     -1.298100   -0.856020   -2.904940
  O     -3.468190    0.522370   -1.011680
  H     -4.403670    0.392610   -1.208820
  H     -3.262230   -0.090580   -0.262550
  O     -2.552420   -0.794300    1.193000
  H     -2.461430    0.088250    1.601380
  H     -1.631040   -0.971680    0.935840
  O     -1.872590    2.003290    1.143390
  H     -1.062390    1.594220    0.790800
  H     -2.456920    2.019370    0.368930

 Total Charge           Charge          ....    0
 Multiplicity           Mult            ....    1
 Number of Electrons    NEL             ....   50
 Basis Dimension        Dim             ....  215

ORBITAL ENERGIES
----------------

  NO   OCC          E(Eh)            E(eV)
   0   2.0000     -20.574517      -559.8611
   1   2.0000     -20.570135      -559.7418
   2   2.0000     -20.569619      -559.7278
   3   2.0000     -20.557515      -559.3984
   4   2.0000     -20.545011      -559.0582
   5   2.0000      -1.371229       -37.3130
   6   2.0000      -1.358559       -36.9683
   7   2.0000      -1.351573       -36.7782
   8   2.0000      -1.339494       -36.4495
   9   2.0000      -1.328679       -36.1552
  10   2.0000      -0.740646       -20.1540
  11   2.0000      -0.730309       -19.8727
  12   2.0000      -0.719465       -19.5776
  13   2.0000      -0.699984       -19.0475
  14   2.0000      -0.693247       -18.8642
  15   2.0000      -0.629247       -17.1227
  16   2.0000      -0.603662       -16.4265
  17   2.0000      -0.595619       -16.2076
  18   2.0000      -0.582621       -15.8539
  19   2.0000      -0.560975       -15.2649
  20   2.0000      -0.523542       -14.2463
  21   2.0000      -0.520358       -14.1597
  22   2.0000      -0.513852       -13.9826
  23   2.0000      -0.506092       -13.7715
  24   2.0000      -0.487061       -13.2536
  25   0.0000       0.110911         3.0181
  26   0.0000       0.143143         3.8951
  27   0.0000       0.158136         4.3031
  28   0.0000       0.197086         5.3630
  29   0.0000       0.217278         5.9124

MULLIKEN ATOMIC CHARGES
-----------------------
   0 O :   -0.746787
   1 H :    0.348979
   2 H :    0.380510
   3 O :   -0.719525
   4 H :    0.388709
   5 H :    0.344489
   6 O :   -0.749597
   7 H :    0.351205
   8 H :    0.377502
   9 O :   -0.714372
  10 H :    0.371007
  11 H :    0.368307
  12 O :   -0.715363
  13 H :    0.359350
  14 H :    0.355584
Sum of atomic charges:   -0.0000000

LOEWDIN ATOMIC CHARGES
----------------------
   0 O :   -0.326600
   1 H :    0.162555
   2 H :    0.151308
   3 O :   -0.306050
   4 H :    0.154024
   5 H :    0.161781
   6 O :   -0.317688
   7 H :    0.163317
   8 H :    0.150315
   9 O :   -0.297392
  10 H :    0.158319
  11 H :    0.158120
  12 O :   -0.316853
  13 H :    0.150472
  14 H :    0.154370

  Mayer bond orders larger than 0.100000
B(  0-O ,  1-H ) :   0.8429 B(  0-O ,  2-H ) :   0.7643 B(  3-O ,  4-H ) :   0.7774
B(  3-O ,  5-H ) :   0.8452 B(  6-O ,  7-H ) :   0.8405 B(  6-O ,  8-H ) :   0.7437
B(  8-H ,  9-O ) :   0.1114 B(  9-O , 10-H ) :   0.8019 B(  9-O , 11-H ) :   0.8169
B( 12-O , 13-H ) :   0.8179 B( 12-O , 14-H ) :   0.8312

MP2 TOTAL ENERGY:     -381.626226529 Eh
FINAL SINGLE POINT ENERGY      -381.626226528652

DIPOLE MOMENT
-------------
                                X             Y             Z
Electronic contribution:     -0.06001       0.08863       0.15957
Nuclear contribution   :      0.17100      -0.89072      -1.19613
                        -----------------------------------------
Total Dipole Moment    :      0.11099      -0.80209      -1.03655
                        -----------------------------------------
Magnitude (a.u.)       :      1.31534
Magnitude (Debye)      :      3.34332

Rotational constants in cm-1:     0.084206     0.066252     0.054079
Rotational constants in MHz :  2524.422220  1986.170552  1621.234886

                             ****ORCA TERMINATED NORMALLY****
TOTAL RUN TIME: 0 days 0 hours 0 minutes 43 seconds 238 msec
