                         Program Version 4.2.0 -  RELEASE  -
|  1> # Functional Basis-set
|  2> ! MP2 def2-SVP
|  3>
|  4> # Type of calculation
|  5> ! OPT
|  6>
|  7> # Options
|  8> ! TightSCF Grid4
|  9>
| 10> %pal nprocs 12 end
| 11>
| 12> *xyz  0  1
| 13>  C                  0.00000000    0.00000000   -1.22619100
| 14>  H                  0.00000000    1.00880600   -1.58285700
| 15>  H                 -0.87365100   -0.50440300   -1.58285700
| 16>  H                  0.87365100   -0.50440300   -1.58285700
| 17>  C                  0.00000000    0.00000000    0.31380900
| 18>  N                  0.00000000    0.00000000    1.46040900
| 19> *
| 20>
| 21>                          ****END OF INPUT****
 Total Charge           Charge          ....    0
 Multiplicity           Mult            ....    1
 Number of Electrons    NEL             ....   22
MP2 TOTAL ENERGY:     -132.242806537 Eh
FINAL SINGLE POINT ENERGY      -132.242806536779
MP2 TOTAL ENERGY:     -132.249144077 Eh
FINAL SINGLE POINT ENERGY      -132.249144077108
MP2 TOTAL ENERGY:     -132.249358148 Eh
FINAL SINGLE POINT ENERGY      -132.249358147768
MP2 TOTAL ENERGY:     -132.249388399 Eh
FINAL SINGLE POINT ENERGY      -132.249388399148
MP2 TOTAL ENERGY:     -132.249398466 Eh
FINAL SINGLE POINT ENERGY      -132.249398465535
                    ***********************HURRAY********************

CARTESIAN COORDINATES (ANGSTROEM)
---------------------------------
  C      0.000000    0.000000   -1.194694
  H     -0.000000    1.030050   -1.572651
  H     -0.892049   -0.515025   -1.572651
  H      0.892049   -0.515025   -1.572651
  C     -0.000000   -0.000000    0.267880
  N     -0.000000    0.000000    1.444223

 Multiplicity           Mult            ....    1
 Number of Electrons    NEL             ....   22
 Basis Dimension        Dim             ....   57

ORBITAL ENERGIES
----------------

  NO   OCC          E(Eh)            E(eV)
   0   2.0000     -15.579324      -423.9350
   1   2.0000     -11.294435      -307.3372
   2   2.0000     -11.289957      -307.2153
   3   2.0000      -1.198378       -32.6095
   4   2.0000      -1.029390       -28.0111
   5   2.0000      -0.696087       -18.9415
   6   2.0000      -0.627606       -17.0780
   7   2.0000      -0.627606       -17.0780
   8   2.0000      -0.553535       -15.0624
   9   2.0000      -0.457202       -12.4411
  10   2.0000      -0.457202       -12.4411
  11   0.0000       0.159769         4.3475
  12   0.0000       0.185321         5.0428
  13   0.0000       0.185321         5.0428
  14   0.0000       0.261825         7.1246
  15   0.0000       0.261825         7.1246

MULLIKEN ATOMIC CHARGES
-----------------------
   0 C :    0.007489
   1 H :    0.087137
   2 H :    0.087137
   3 H :    0.087137
   4 C :   -0.215938
   5 N :   -0.052963
Sum of atomic charges:   -0.0000000

LOEWDIN ATOMIC CHARGES
----------------------
   0 C :   -0.065082
   1 H :    0.057302
   2 H :    0.057302
   3 H :    0.057302
   4 C :   -0.030850
   5 N :   -0.075974

  Mayer bond orders larger than 0.100000
B(  0-C ,  1-H ) :   0.9221 B(  0-C ,  2-H ) :   0.9221 B(  0-C ,  3-H ) :   0.9221
B(  0-C ,  4-C ) :   0.9930 B(  4-C ,  5-N ) :   2.8071

MP2 TOTAL ENERGY:     -132.249398685 Eh
FINAL SINGLE POINT ENERGY      -132.249398684854

DIPOLE MOMENT
-------------
                                X             Y             Z
Electronic contribution:      0.00000      -0.00000       3.28044
Nuclear contribution   :     -0.00000       0.00000      -4.71655
                        -----------------------------------------
Total Dipole Moment    :     -0.00000      -0.00000      -1.43611
                        -----------------------------------------
Magnitude (a.u.)       :      1.43611
Magnitude (Debye)      :      3.65030

Rotational constants in cm-1:     5.254107     0.301866     0.301866
Rotational constants in MHz : 157514.158765  9049.716516  9049.716516

                             ****ORCA TERMINATED NORMALLY****
TOTAL RUN TIME: 0 days 0 hours 0 minutes 32 seconds 218 msec
