                         Program Version 4.2.0 -  RELEASE  -
|  1> # Functional Basis-set
|  2> ! MP2 def2-TZVP
|  3>
|  4> # Type of calculation
|  5> ! OPT
|  6>
|  7> # Options
|  8> ! TightSCF Grid4
|  9>
| 10> %pal nprocs 12 end
| 11>
| 12> *xyz  0  1
| 13>  C                  0.00000000    0.00000000   -1.22619100
| 14>  H                  0.00000000    1.00880600   -1.58285700
| 15>  H                 -0.87365100   -0.50440300   -1.58285700
| 16>  H                  0.87365100   -0.50440300   -1.58285700
| 17>  C                  0.00000000    0.00000000    0.31380900
| 18>  N                  0.00000000    0.00000000    1.46040900
| 19> *
| 20>
| 21>                          ****END OF INPUT****
 Total Charge           Charge          ....    0
 Multiplicity           Mult            ....    1
 Number of Electrons    NEL             ....   22
MP2 TOTAL ENERGY:     -132.478075226 Eh
FINAL SINGLE POINT ENERGY      -132.478075225748
MP2 TOTAL ENERGY:     -132.483010886 Eh
FINAL SINGLE POINT ENERGY      -132.483010886016
MP2 TOTAL ENERGY:     -132.483278163 Eh
FINAL SINGLE POINT ENERGY      -132.483278163029
MP2 TOTAL ENERGY:     -132.483309556 Eh
FINAL SINGLE POINT ENERGY      -132.483309556489
MP2 TOTAL ENERGY:     -132.483321514 Eh
FINAL SINGLE POINT ENERGY      -132.483321513836
                    ***********************HURRAY********************

CARTESIAN COORDINATES (ANGSTROEM)
---------------------------------
  C     -0.000000    0.000000   -1.194119
  H     -0.000000    1.023424   -1.566951
  H     -0.886311   -0.511712   -1.566951
  H      0.886311   -0.511712   -1.566951
  C     -0.000000   -0.000000    0.262971
  N      0.000000    0.000000    1.431455

 Multiplicity           Mult            ....    1
 Number of Electrons    NEL             ....   22
 Basis Dimension        Dim             ....  111

ORBITAL ENERGIES
----------------

  NO   OCC          E(Eh)            E(eV)
   0   2.0000     -15.574632      -423.8073
   1   2.0000     -11.285585      -307.0964
   2   2.0000     -11.281980      -306.9983
   3   2.0000      -1.213886       -33.0315
   4   2.0000      -1.042608       -28.3708
   5   2.0000      -0.701404       -19.0862
   6   2.0000      -0.631465       -17.1830
   7   2.0000      -0.631465       -17.1830
   8   2.0000      -0.556344       -15.1389
   9   2.0000      -0.458363       -12.4727
  10   2.0000      -0.458363       -12.4727
  11   0.0000       0.118737         3.2310
  12   0.0000       0.171351         4.6627
  13   0.0000       0.171351         4.6627
  14   0.0000       0.201751         5.4899
  15   0.0000       0.223467         6.0808

MULLIKEN ATOMIC CHARGES
-----------------------
   0 C :   -0.281841
   1 H :    0.171776
   2 H :    0.171776
   3 H :    0.171776
   4 C :   -0.140513
   5 N :   -0.092974
Sum of atomic charges:   -0.0000000

LOEWDIN ATOMIC CHARGES
----------------------
   0 C :   -0.282646
   1 H :    0.150141
   2 H :    0.150141
   3 H :    0.150141
   4 C :   -0.213190
   5 N :    0.045414

  Mayer bond orders larger than 0.100000
B(  0-C ,  1-H ) :   0.9175 B(  0-C ,  2-H ) :   0.9175 B(  0-C ,  3-H ) :   0.9175
B(  0-C ,  4-C ) :   0.9011 B(  4-C ,  5-N ) :   2.8331

MP2 TOTAL ENERGY:     -132.483321823 Eh
FINAL SINGLE POINT ENERGY      -132.483321823497

DIPOLE MOMENT
-------------
                                X             Y             Z
Electronic contribution:     -0.00000      -0.00000       3.15007
Nuclear contribution   :      0.00000       0.00000      -4.68590
                        -----------------------------------------
Total Dipole Moment    :     -0.00000      -0.00000      -1.53583
                        -----------------------------------------
Magnitude (a.u.)       :      1.53583
Magnitude (Debye)      :      3.90378

Rotational constants in cm-1:     5.322361     0.305104     0.305104
Rotational constants in MHz : 159560.360978  9146.794931  9146.794931

                             ****ORCA TERMINATED NORMALLY****
TOTAL RUN TIME: 0 days 0 hours 0 minutes 45 seconds 203 msec
