                         Program Version 4.2.0 -  RELEASE  -
|  1> # 12mecn.remya.etal.2.mol6,10,11
|  2> ! MP2 def2-TZVP EnGrad TightSCF
|  3>
|  4> %pal
|  5>     nprocs 6
|  6> end
|  7>
|  8> %maxcore 8000
|  9>
| 10> %scf
| 11>     ConvForced true
| 12> end
| 13>
| 14> *xyz 0 1
| 15> C   5.300864000  -2.920090000   1.401103000
| 16> H   5.986071000  -2.139770000   1.737487000
| 17> H   5.636642000  -3.888750000   1.778233000
| 18> H   4.307359000  -2.697240000   1.799307000
| 19> C   5.234791000  -2.933140000  -0.043290000
| 20> N   5.170868000  -2.941760000  -1.207750000
| 21> C   4.602033000   0.321019000  -1.784800000
| 22> H   4.827650000  -0.662160000  -2.207910000
| 23> H   5.320558000   1.057980000  -2.148500000
| 24> H   3.601982000   0.643751000  -2.087520000
| 25> C   4.654967000   0.244048000  -0.343060000
| 26> N   4.691648000   0.166590000   0.820757000
| 27> C   4.214163000   3.378139000   1.593627000
| 28> H   3.242643000   3.657109000   2.012358000
| 29> H   4.969258000   4.086643000   1.941290000
| 30> H   4.482966000   2.372549000   1.931698000
| 31> C   4.130759000   3.388436000   0.150192000
| 32> N   4.050180000   3.381449000  -1.013420000
| 33> *
| 34>
| 35>                          ****END OF INPUT****

CARTESIAN COORDINATES (ANGSTROEM)
---------------------------------
  C      5.300864   -2.920090    1.401103
  H      5.986071   -2.139770    1.737487
  H      5.636642   -3.888750    1.778233
  H      4.307359   -2.697240    1.799307
  C      5.234791   -2.933140   -0.043290
  N      5.170868   -2.941760   -1.207750
  C      4.602033    0.321019   -1.784800
  H      4.827650   -0.662160   -2.207910
  H      5.320558    1.057980   -2.148500
  H      3.601982    0.643751   -2.087520
  C      4.654967    0.244048   -0.343060
  N      4.691648    0.166590    0.820757
  C      4.214163    3.378139    1.593627
  H      3.242643    3.657109    2.012358
  H      4.969258    4.086643    1.941290
  H      4.482966    2.372549    1.931698
  C      4.130759    3.388436    0.150192
  N      4.050180    3.381449   -1.013420

 Total Charge           Charge          ....    0
 Multiplicity           Mult            ....    1
 Number of Electrons    NEL             ....   66
 Basis Dimension        Dim             ....  333

ORBITAL ENERGIES
----------------

  NO   OCC          E(Eh)            E(eV)
   0   2.0000     -15.571083      -423.7107
   1   2.0000     -15.569631      -423.6712
   2   2.0000     -15.568794      -423.6484
   3   2.0000     -11.285504      -307.0942
   4   2.0000     -11.282172      -307.0035
   5   2.0000     -11.281393      -306.9823
   6   2.0000     -11.273172      -306.7586
   7   2.0000     -11.272811      -306.7488
   8   2.0000     -11.259810      -306.3950
   9   2.0000      -1.219876       -33.1945
  10   2.0000      -1.215352       -33.0714
  11   2.0000      -1.212771       -33.0012
  12   2.0000      -1.035970       -28.1902
  13   2.0000      -1.034969       -28.1629
  14   2.0000      -1.026169       -27.9235
  15   2.0000      -0.694876       -18.9085
  16   2.0000      -0.693805       -18.8794
  17   2.0000      -0.684497       -18.6261
  18   2.0000      -0.632089       -17.2000
  19   2.0000      -0.624003       -16.9800
  20   2.0000      -0.623069       -16.9546
  21   2.0000      -0.619747       -16.8642
  22   2.0000      -0.609804       -16.5936
  23   2.0000      -0.608469       -16.5573
  24   2.0000      -0.561111       -15.2686
  25   2.0000      -0.556141       -15.1334
  26   2.0000      -0.554633       -15.0923
  27   2.0000      -0.462909       -12.5964
  28   2.0000      -0.459640       -12.5074
  29   2.0000      -0.458369       -12.4729
  30   2.0000      -0.457588       -12.4516
  31   2.0000      -0.456349       -12.4179
  32   2.0000      -0.450654       -12.2629
  33   0.0000       0.124985         3.4010
  34   0.0000       0.137243         3.7346
  35   0.0000       0.157544         4.2870
  36   0.0000       0.172165         4.6849
  37   0.0000       0.173923         4.7327

MULLIKEN ATOMIC CHARGES
-----------------------
   0 C :   -0.257239
   1 H :    0.179342
   2 H :    0.171964
   3 H :    0.171011
   4 C :   -0.121959
   5 N :   -0.142448
   6 C :   -0.263512
   7 H :    0.207566
   8 H :    0.174076
   9 H :    0.170681
  10 C :   -0.072795
  11 N :   -0.216123
  12 C :   -0.288438
  13 H :    0.166546
  14 H :    0.166635
  15 H :    0.201077
  16 C :   -0.113624
  17 N :   -0.132761
Sum of atomic charges:    0.0000000

LOEWDIN ATOMIC CHARGES
----------------------
   0 C :   -0.285916
   1 H :    0.154657
   2 H :    0.148389
   3 H :    0.156051
   4 C :   -0.210085
   5 N :    0.032447
   6 C :   -0.281981
   7 H :    0.155153
   8 H :    0.154720
   9 H :    0.156830
  10 C :   -0.200251
  11 N :    0.017464
  12 C :   -0.283718
  13 H :    0.152436
  14 H :    0.149786
  15 H :    0.155703
  16 C :   -0.210293
  17 N :    0.038606

  Mayer bond orders larger than 0.100000
B(  0-C ,  1-H ) :   0.9119 B(  0-C ,  2-H ) :   0.9098 B(  0-C ,  3-H ) :   0.9144
B(  0-C ,  4-C ) :   0.9129 B(  4-C ,  5-N ) :   2.7753 B(  6-C ,  7-H ) :   0.8933
B(  6-C ,  8-H ) :   0.9115 B(  6-C ,  9-H ) :   0.9107 B(  6-C , 10-C ) :   0.9121
B( 10-C , 11-N ) :   2.7058 B( 12-C , 13-H ) :   0.9152 B( 12-C , 14-H ) :   0.9166
B( 12-C , 15-H ) :   0.9038 B( 12-C , 16-C ) :   0.9002 B( 16-C , 17-N ) :   2.7912

MP2 TOTAL ENERGY:     -397.467739373 Eh
FINAL SINGLE POINT ENERGY      -397.467739373089

DIPOLE MOMENT
-------------
                                X             Y             Z
Electronic contribution:     -0.18433      -0.21482      -3.18863
Nuclear contribution   :      0.29597       0.31181       4.66934
                        -----------------------------------------
Total Dipole Moment    :      0.11164       0.09699       1.48072
                        -----------------------------------------
Magnitude (a.u.)       :      1.48808
Magnitude (Debye)      :      3.78241

Rotational constants in cm-1:     0.094805     0.019754     0.016501
Rotational constants in MHz :  2842.192982   592.207661   494.691602

                             ****ORCA TERMINATED NORMALLY****
TOTAL RUN TIME: 0 days 0 hours 3 minutes 59 seconds 389 msec
