                         Program Version 3.0.3 - RELEASE   -
|  1> ! B3LYP Def2-TZVP def2-TZVP/J RIJCOSX TightSCF Grid4 D3BJ COSMO
|  2>
|  3> %pal nprocs 12 end
|  4>
|  5> %scf
|  6>         maxiter 400
|  7> end
|  8>
|  9> %cosmo
| 10>         SMD true
| 11>         solvent "WATER"
| 12> end
| 13>
| 14> * xyz  0  1
| 15> O  0.528254	2.158112	0.163610
| 16> H  -0.377110	1.968469	-0.302058
| 17> H  0.670695	3.123488	0.107304
| 18> O  -1.863140	-0.345830	1.158438
| 19> H  -1.054454	-0.029107	1.723257
| 20> H  -2.577775	-0.555056	1.791531
| 21> O  -1.672198	1.360857	-0.926409
| 22> H  -1.927422	0.796940	-0.140682
| 23> H  -1.238760	0.677215	-1.538834
| 24> O  1.740492	-1.356448	0.921144
| 25> H  0.943659	-1.831704	0.547603
| 26> H  1.989409	-0.763043	0.155778
| 27> O  -0.353042	-0.519487	-2.303934
| 28> H  -0.492561	-1.268765	-1.657696
| 29> H  0.556143	-0.199198	-2.038303
| 30> O  1.934162	0.381827	-1.147005
| 31> H  1.514639	1.180591	-0.682771
| 32> H  2.732617	0.723760	-1.594496
| 33> O  -0.591247	-2.204091	-0.187589
| 34> H  -1.192571	-1.602002	0.365344
| 35> H  -0.977890	-3.099033	-0.118942
| 36> O  0.320376	0.470497	2.268883
| 37> H  0.913698	-0.240058	1.850415
| 38> H  0.429020	1.232838	1.630198
| 39> **                         ****END OF INPUT****

CARTESIAN COORDINATES (ANGSTROEM)
---------------------------------
  O      0.528254    2.158112    0.163610
  H     -0.377110    1.968469   -0.302058
  H      0.670695    3.123488    0.107304
  O     -1.863140   -0.345830    1.158438
  H     -1.054454   -0.029107    1.723257
  H     -2.577775   -0.555056    1.791531
  O     -1.672198    1.360857   -0.926409
  H     -1.927422    0.796940   -0.140682
  H     -1.238760    0.677215   -1.538834
  O      1.740492   -1.356448    0.921144
  H      0.943659   -1.831704    0.547603
  H      1.989409   -0.763043    0.155778
  O     -0.353042   -0.519487   -2.303934
  H     -0.492561   -1.268765   -1.657696
  H      0.556143   -0.199198   -2.038303
  O      1.934162    0.381827   -1.147005
  H      1.514639    1.180591   -0.682771
  H      2.732617    0.723760   -1.594496
  O     -0.591247   -2.204091   -0.187589
  H     -1.192571   -1.602002    0.365344
  H     -0.977890   -3.099033   -0.118942
  O      0.320376    0.470497    2.268883
  H      0.913698   -0.240058    1.850415
  H      0.429020    1.232838    1.630198

 Total Charge           Charge          ....    0
 Multiplicity           Mult            ....    1
 Number of Electrons    NEL             ....   80
 Basis Dimension        Dim             ....  344

ORBITAL ENERGIES
----------------

  NO   OCC          E(Eh)            E(eV)
   0   2.0000     -19.131840      -520.6038
   1   2.0000     -19.131776      -520.6021
   2   2.0000     -19.131599      -520.5973
   3   2.0000     -19.131495      -520.5945
   4   2.0000     -19.116312      -520.1813
   5   2.0000     -19.116235      -520.1792
   6   2.0000     -19.114584      -520.1343
   7   2.0000     -19.114223      -520.1244
   8   2.0000      -1.029226       -28.0067
   9   2.0000      -1.017047       -27.6753
  10   2.0000      -1.009294       -27.4643
  11   2.0000      -1.003735       -27.3130
  12   2.0000      -0.996654       -27.1203
  13   2.0000      -0.991200       -26.9719
  14   2.0000      -0.983059       -26.7504
  15   2.0000      -0.971562       -26.4375
  16   2.0000      -0.544465       -14.8156
  17   2.0000      -0.543759       -14.7964
  18   2.0000      -0.526918       -14.3382
  19   2.0000      -0.523140       -14.2354
  20   2.0000      -0.516674       -14.0594
  21   2.0000      -0.509767       -13.8715
  22   2.0000      -0.508030       -13.8242
  23   2.0000      -0.507875       -13.8200
  24   2.0000      -0.458394       -12.4735
  25   2.0000      -0.430567       -11.7163
  26   2.0000      -0.419330       -11.4106
  27   2.0000      -0.409206       -11.1350
  28   2.0000      -0.402829       -10.9615
  29   2.0000      -0.387715       -10.5503
  30   2.0000      -0.381325       -10.3764
  31   2.0000      -0.359930        -9.7942
  32   2.0000      -0.327955        -8.9241
  33   2.0000      -0.326776        -8.8920
  34   2.0000      -0.323479        -8.8023
  35   2.0000      -0.319968        -8.7068
  36   2.0000      -0.315431        -8.5833
  37   2.0000      -0.312339        -8.4992
  38   2.0000      -0.308618        -8.3979
  39   2.0000      -0.307769        -8.3748
  40   0.0000       0.017333         0.4717
  41   0.0000       0.048719         1.3257
  42   0.0000       0.065379         1.7790
  43   0.0000       0.082185         2.2364
  44   0.0000       0.103495         2.8163

MULLIKEN ATOMIC CHARGES
-----------------------
   0 O :   -0.750940
   1 H :    0.378382
   2 H :    0.388592
   3 O :   -0.750800
   4 H :    0.378156
   5 H :    0.388750
   6 O :   -0.760716
   7 H :    0.373850
   8 H :    0.377090
   9 O :   -0.767869
  10 H :    0.370495
  11 H :    0.373188
  12 O :   -0.767398
  13 H :    0.373183
  14 H :    0.370403
  15 O :   -0.743244
  16 H :    0.375909
  17 H :    0.386673
  18 O :   -0.744043
  19 H :    0.374991
  20 H :    0.386430
  21 O :   -0.760717
  22 H :    0.375984
  23 H :    0.373651
Sum of atomic charges:    0.0000000

LOEWDIN ATOMIC CHARGES
----------------------
   0 O :   -0.284677
   1 H :    0.148703
   2 H :    0.187191
   3 O :   -0.284762
   4 H :    0.148945
   5 H :    0.187160
   6 O :   -0.333881
   7 H :    0.144657
   8 H :    0.145537
   9 O :   -0.348147
  10 H :    0.145064
  11 H :    0.145076
  12 O :   -0.347187
  13 H :    0.145983
  14 H :    0.144909
  15 O :   -0.286393
  16 H :    0.148947
  17 H :    0.188413
  18 O :   -0.288652
  19 H :    0.148998
  20 H :    0.188349
  21 O :   -0.334630
  22 H :    0.145314
  23 H :    0.145085

  Mayer bond orders larger than 0.1
B(  0-O ,  1-H ) :   0.7127 B(  0-O ,  2-H ) :   0.8480 B(  0-O , 16-H ) :   0.1454
B(  0-O , 23-H ) :   0.1098 B(  1-H ,  6-O ) :   0.1939 B(  3-O ,  4-H ) :   0.7126
B(  3-O ,  5-H ) :   0.8477 B(  3-O ,  7-H ) :   0.1095 B(  3-O , 19-H ) :   0.1464
B(  4-H , 21-O ) :   0.1942 B(  6-O ,  7-H ) :   0.7992 B(  6-O ,  8-H ) :   0.7669
B(  8-H , 12-O ) :   0.1510 B(  9-O , 10-H ) :   0.7998 B(  9-O , 11-H ) :   0.7990
B(  9-O , 22-H ) :   0.1540 B( 10-H , 18-O ) :   0.1148 B( 11-H , 15-O ) :   0.1127
B( 12-O , 13-H ) :   0.8007 B( 12-O , 14-H ) :   0.8001 B( 13-H , 18-O ) :   0.1102
B( 14-H , 15-O ) :   0.1145 B( 15-O , 16-H ) :   0.7508 B( 15-O , 17-H ) :   0.8502
B( 18-O , 19-H ) :   0.7507 B( 18-O , 20-H ) :   0.8505 B( 21-O , 22-H ) :   0.7655
B( 21-O , 23-H ) :   0.7992

Dispersion correction           -0.025942699
FINAL SINGLE POINT ENERGY      -611.576458964640

DIPOLE MOMENT
-------------
                                X             Y             Z
Electronic contribution:     -0.03310       0.05097       0.02958
Nuclear contribution   :     -0.14648       0.18683       0.16928
                        -----------------------------------------
Total Dipole Moment    :     -0.17958       0.23780       0.19886
                        -----------------------------------------
Magnitude (a.u.)       :      0.35825
Magnitude (Debye)      :      0.91060

                             ****ORCA TERMINATED NORMALLY****
TOTAL RUN TIME: 0 days 0 hours 1 minutes 15 seconds 904 msec
