                         Program Version 3.0.3 - RELEASE   -
|  1> ! wB97X-D3 MA-Def2-TZVP def2-TZVP/J RIJCOSX TightSCF Grid4
|  2>
|  3> %pal nprocs 1 end
|  4>
|  5> %scf
|  6>         maxiter 400
|  7> end
|  8>
|  9> * xyz  0  1
| 10> O  0.535765	2.160074	0.128320
| 11> H  -0.415213	1.914285	-0.332478
| 12> H  0.622931	3.130519	0.109060
| 13> O  -1.850951	-0.377899	1.171740
| 14> H  -0.983288	-0.022494	1.715635
| 15> H  -2.563922	-0.509904	1.822780
| 16> O  -1.603135	1.376444	-0.880310
| 17> H  -1.908180	0.793254	-0.129531
| 18> H  -1.224282	0.694500	-1.540533
| 19> O  1.723431	-1.331828	0.950746
| 20> H  0.974710	-1.854739	0.560945
| 21> H  2.003832	-0.774190	0.177699
| 22> O  -0.377724	-0.487068	-2.287618
| 23> H  -0.501838	-1.263759	-1.680824
| 24> H  0.552012	-0.210481	-2.075972
| 25> O  1.973761	0.414701	-1.155116
| 26> H  1.530825	1.203682	-0.685812
| 27> H  2.778843	0.761398	-1.579387
| 28> O  -0.628202	-2.239515	-0.181330
| 29> H  -1.217202	-1.621136	0.374300
| 30> H  -1.035498	-3.123207	-0.136246
| 31> O  0.251813	0.453782	2.222896
| 32> H  0.897910	-0.251976	1.863074
| 33> H  0.418597	1.226329	1.612747
| 34> **                         ****END OF INPUT****

CARTESIAN COORDINATES (ANGSTROEM)
---------------------------------
  O      0.535765    2.160074    0.128320
  H     -0.415213    1.914285   -0.332478
  H      0.622931    3.130519    0.109060
  O     -1.850951   -0.377899    1.171740
  H     -0.983288   -0.022494    1.715635
  H     -2.563922   -0.509904    1.822780
  O     -1.603135    1.376444   -0.880310
  H     -1.908180    0.793254   -0.129531
  H     -1.224282    0.694500   -1.540533
  O      1.723431   -1.331828    0.950746
  H      0.974710   -1.854739    0.560945
  H      2.003832   -0.774190    0.177699
  O     -0.377724   -0.487068   -2.287618
  H     -0.501838   -1.263759   -1.680824
  H      0.552012   -0.210481   -2.075972
  O      1.973761    0.414701   -1.155116
  H      1.530825    1.203682   -0.685812
  H      2.778843    0.761398   -1.579387
  O     -0.628202   -2.239515   -0.181330
  H     -1.217202   -1.621136    0.374300
  H     -1.035498   -3.123207   -0.136246
  O      0.251813    0.453782    2.222896
  H      0.897910   -0.251976    1.863074
  H      0.418597    1.226329    1.612747

 Total Charge           Charge          ....    0
 Multiplicity           Mult            ....    1
 Number of Electrons    NEL             ....   80
 Basis Dimension        Dim             ....  376

ORBITAL ENERGIES
----------------

  NO   OCC          E(Eh)            E(eV)
   0   2.0000     -19.256513      -523.9964
   1   2.0000     -19.256352      -523.9920
   2   2.0000     -19.247788      -523.7589
   3   2.0000     -19.247307      -523.7458
   4   2.0000     -19.229101      -523.2504
   5   2.0000     -19.228847      -523.2435
   6   2.0000     -19.222227      -523.0634
   7   2.0000     -19.221826      -523.0525
   8   2.0000      -1.155709       -31.4485
   9   2.0000      -1.146218       -31.1902
  10   2.0000      -1.135709       -30.9042
  11   2.0000      -1.127979       -30.6939
  12   2.0000      -1.117115       -30.3982
  13   2.0000      -1.111217       -30.2377
  14   2.0000      -1.100471       -29.9453
  15   2.0000      -1.090241       -29.6670
  16   2.0000      -0.667142       -18.1539
  17   2.0000      -0.665973       -18.1221
  18   2.0000      -0.642038       -17.4707
  19   2.0000      -0.638300       -17.3690
  20   2.0000      -0.626592       -17.0504
  21   2.0000      -0.617730       -16.8093
  22   2.0000      -0.615663       -16.7530
  23   2.0000      -0.614124       -16.7112
  24   2.0000      -0.573143       -15.5960
  25   2.0000      -0.539098       -14.6696
  26   2.0000      -0.530347       -14.4315
  27   2.0000      -0.513784       -13.9808
  28   2.0000      -0.504281       -13.7222
  29   2.0000      -0.496788       -13.5183
  30   2.0000      -0.486859       -13.2481
  31   2.0000      -0.458022       -12.4634
  32   2.0000      -0.438242       -11.9252
  33   2.0000      -0.435943       -11.8626
  34   2.0000      -0.431226       -11.7343
  35   2.0000      -0.426736       -11.6121
  36   2.0000      -0.413781       -11.2595
  37   2.0000      -0.411020       -11.1844
  38   2.0000      -0.400907       -10.9092
  39   2.0000      -0.399610       -10.8739
  40   0.0000       0.051395         1.3985
  41   0.0000       0.066351         1.8055
  42   0.0000       0.084338         2.2950
  43   0.0000       0.088975         2.4211
  44   0.0000       0.113359         3.0847

MULLIKEN ATOMIC CHARGES
-----------------------
   0 O :   -0.876154
   1 H :    0.422206
   2 H :    0.360688
   3 O :   -0.872818
   4 H :    0.420573
   5 H :    0.360763
   6 O :   -0.766766
   7 H :    0.414565
   8 H :    0.454486
   9 O :   -0.761156
  10 H :    0.398168
  11 H :    0.399634
  12 O :   -0.763398
  13 H :    0.400997
  14 H :    0.397751
  15 O :   -0.802766
  16 H :    0.399857
  17 H :    0.358825
  18 O :   -0.802767
  19 H :    0.398476
  20 H :    0.358887
  21 O :   -0.769307
  22 H :    0.454728
  23 H :    0.414527
Sum of atomic charges:   -0.0000000

LOEWDIN ATOMIC CHARGES
----------------------
   0 O :   -0.433896
   1 H :    0.188379
   2 H :    0.192170
   3 O :   -0.433008
   4 H :    0.188745
   5 H :    0.192264
   6 O :   -0.346187
   7 H :    0.198521
   8 H :    0.201811
   9 O :   -0.383889
  10 H :    0.196362
  11 H :    0.195736
  12 O :   -0.383017
  13 H :    0.196649
  14 H :    0.196379
  15 O :   -0.401623
  16 H :    0.196154
  17 H :    0.195572
  18 O :   -0.402395
  19 H :    0.196240
  20 H :    0.195686
  21 O :   -0.347657
  22 H :    0.202175
  23 H :    0.198830

  Mayer bond orders larger than 0.1
B(  0-O ,  1-H ) :   0.6442 B(  0-O ,  2-H ) :   0.8716 B(  1-H ,  6-O ) :   0.2489
B(  3-O ,  4-H ) :   0.6455 B(  3-O ,  5-H ) :   0.8717 B(  3-O , 19-H ) :   0.1001
B(  4-H , 21-O ) :   0.2494 B(  6-O ,  7-H ) :   0.8394 B(  6-O ,  8-H ) :   0.7763
B(  9-O , 10-H ) :   0.8519 B(  9-O , 11-H ) :   0.8483 B( 12-O , 13-H ) :   0.8481
B( 12-O , 14-H ) :   0.8515 B( 15-O , 16-H ) :   0.7730 B( 15-O , 17-H ) :   0.8740
B( 18-O , 19-H ) :   0.7739 B( 18-O , 20-H ) :   0.8742 B( 21-O , 22-H ) :   0.7758
B( 21-O , 23-H ) :   0.8391

Dispersion correction           -0.012557492
FINAL SINGLE POINT ENERGY      -611.633054236169

DIPOLE MOMENT
-------------
                                X             Y             Z
Electronic contribution:      0.00035      -0.00382      -0.01054
Nuclear contribution   :     -0.09928       0.12877       0.11387
                        -----------------------------------------
Total Dipole Moment    :     -0.09893       0.12494       0.10333
                        -----------------------------------------
Magnitude (a.u.)       :      0.18994
Magnitude (Debye)      :      0.48278

                             ****ORCA TERMINATED NORMALLY****
TOTAL RUN TIME: 0 days 0 hours 5 minutes 31 seconds 592 msec
