                         Program Version 3.0.3 - RELEASE   -
|  1> ! wB97X-D3 Def2-TZVP def2-TZVP/J RIJCOSX TightSCF Grid4 COSMO
|  2>
|  3> %pal nprocs 12 end
|  4>
|  5> %scf
|  6>         maxiter 400
|  7> end
|  8>
|  9> %cosmo
| 10>         SMD true
| 11>         solvent "WATER"
| 12> end
| 13>
| 14> * xyz  0  1
| 15> O  0.531003	2.246906	0.195966
| 16> H  -0.333254	2.024242	-0.265391
| 17> H  0.618590	3.211649	0.165244
| 18> O  -1.960002	-0.330218	1.229284
| 19> H  -1.145136	-0.038547	1.745413
| 20> H  -2.672627	-0.432544	1.878421
| 21> O  -1.653707	1.290994	-0.946039
| 22> H  -1.932186	0.757878	-0.166085
| 23> H  -1.223242	0.626681	-1.544867
| 24> O  1.793771	-1.400150	0.854589
| 25> H  0.986024	-1.853313	0.519384
| 26> H  2.020309	-0.787400	0.117454
| 27> O  -0.283337	-0.609607	-2.345333
| 28> H  -0.445052	-1.301565	-1.662295
| 29> H  0.590789	-0.244593	-2.074810
| 30> O  1.956604	0.445998	-1.163368
| 31> H  1.556060	1.231411	-0.706048
| 32> H  2.742253	0.778660	-1.623357
| 33> O  -0.632104	-2.192669	-0.140047
| 34> H  -1.245356	-1.627671	0.400384
| 35> H  -1.022229	-3.080363	-0.132136
| 36> O  0.330044	0.416034	2.231183
| 37> H  0.928484	-0.269198	1.831917
| 38> H  0.449297	1.198159	1.645321
| 39> **                         ****END OF INPUT****

CARTESIAN COORDINATES (ANGSTROEM)
---------------------------------
  O      0.531003    2.246906    0.195966
  H     -0.333254    2.024242   -0.265391
  H      0.618590    3.211649    0.165244
  O     -1.960002   -0.330218    1.229284
  H     -1.145136   -0.038547    1.745413
  H     -2.672627   -0.432544    1.878421
  O     -1.653707    1.290994   -0.946039
  H     -1.932186    0.757878   -0.166085
  H     -1.223242    0.626681   -1.544867
  O      1.793771   -1.400150    0.854589
  H      0.986024   -1.853313    0.519384
  H      2.020309   -0.787400    0.117454
  O     -0.283337   -0.609607   -2.345333
  H     -0.445052   -1.301565   -1.662295
  H      0.590789   -0.244593   -2.074810
  O      1.956604    0.445998   -1.163368
  H      1.556060    1.231411   -0.706048
  H      2.742253    0.778660   -1.623357
  O     -0.632104   -2.192669   -0.140047
  H     -1.245356   -1.627671    0.400384
  H     -1.022229   -3.080363   -0.132136
  O      0.330044    0.416034    2.231183
  H      0.928484   -0.269198    1.831917
  H      0.449297    1.198159    1.645321

 Total Charge           Charge          ....    0
 Multiplicity           Mult            ....    1
 Number of Electrons    NEL             ....   80
 Basis Dimension        Dim             ....  344

ORBITAL ENERGIES
----------------

  NO   OCC          E(Eh)            E(eV)
   0   2.0000     -19.240764      -523.5678
   1   2.0000     -19.240425      -523.5586
   2   2.0000     -19.239813      -523.5419
   3   2.0000     -19.238060      -523.4942
   4   2.0000     -19.225048      -523.1402
   5   2.0000     -19.224104      -523.1145
   6   2.0000     -19.222970      -523.0836
   7   2.0000     -19.222224      -523.0633
   8   2.0000      -1.148302       -31.2469
   9   2.0000      -1.137367       -30.9493
  10   2.0000      -1.130412       -30.7601
  11   2.0000      -1.124523       -30.5998
  12   2.0000      -1.119315       -30.4581
  13   2.0000      -1.113338       -30.2955
  14   2.0000      -1.105510       -30.0825
  15   2.0000      -1.095919       -29.8215
  16   2.0000      -0.652993       -17.7688
  17   2.0000      -0.652776       -17.7629
  18   2.0000      -0.635182       -17.2842
  19   2.0000      -0.630610       -17.1598
  20   2.0000      -0.626044       -17.0355
  21   2.0000      -0.622374       -16.9357
  22   2.0000      -0.620599       -16.8873
  23   2.0000      -0.618128       -16.8201
  24   2.0000      -0.560004       -15.2385
  25   2.0000      -0.535518       -14.5722
  26   2.0000      -0.519269       -14.1300
  27   2.0000      -0.509402       -13.8615
  28   2.0000      -0.504609       -13.7311
  29   2.0000      -0.490108       -13.3365
  30   2.0000      -0.482335       -13.1250
  31   2.0000      -0.461832       -12.5671
  32   2.0000      -0.429882       -11.6977
  33   2.0000      -0.428502       -11.6601
  34   2.0000      -0.424948       -11.5634
  35   2.0000      -0.421816       -11.4782
  36   2.0000      -0.417051       -11.3485
  37   2.0000      -0.415494       -11.3062
  38   2.0000      -0.410578       -11.1724
  39   2.0000      -0.409200       -11.1349
  40   0.0000       0.099524         2.7082
  41   0.0000       0.137125         3.7314
  42   0.0000       0.152652         4.1539
  43   0.0000       0.172292         4.6883
  44   0.0000       0.186451         5.0736

MULLIKEN ATOMIC CHARGES
-----------------------
   0 O :   -0.770392
   1 H :    0.381541
   2 H :    0.408101
   3 O :   -0.774801
   4 H :    0.384668
   5 H :    0.407059
   6 O :   -0.772973
   7 H :    0.378386
   8 H :    0.375609
   9 O :   -0.770471
  10 H :    0.375661
  11 H :    0.376223
  12 O :   -0.772555
  13 H :    0.375210
  14 H :    0.374305
  15 O :   -0.763544
  16 H :    0.374809
  17 H :    0.407437
  18 O :   -0.763570
  19 H :    0.374563
  20 H :    0.407506
  21 O :   -0.769425
  22 H :    0.378670
  23 H :    0.377980
Sum of atomic charges:   -0.0000000

LOEWDIN ATOMIC CHARGES
----------------------
   0 O :   -0.282374
   1 H :    0.145752
   2 H :    0.186950
   3 O :   -0.284414
   4 H :    0.142522
   5 H :    0.186149
   6 O :   -0.328281
   7 H :    0.139331
   8 H :    0.139639
   9 O :   -0.336382
  10 H :    0.140324
  11 H :    0.140396
  12 O :   -0.341435
  13 H :    0.139470
  14 H :    0.139591
  15 O :   -0.278708
  16 H :    0.145569
  17 H :    0.188204
  18 O :   -0.278035
  19 H :    0.145575
  20 H :    0.188598
  21 O :   -0.319994
  22 H :    0.139707
  23 H :    0.141849

  Mayer bond orders larger than 0.1
B(  0-O ,  1-H ) :   0.7563 B(  0-O ,  2-H ) :   0.8385 B(  0-O , 16-H ) :   0.1165
B(  1-H ,  6-O ) :   0.1431 B(  3-O ,  4-H ) :   0.7476 B(  3-O ,  5-H ) :   0.8391
B(  3-O , 19-H ) :   0.1173 B(  4-H , 21-O ) :   0.1499 B(  6-O ,  7-H ) :   0.8082
B(  6-O ,  8-H ) :   0.7888 B(  8-H , 12-O ) :   0.1266 B(  9-O , 10-H ) :   0.8128
B(  9-O , 11-H ) :   0.8120 B(  9-O , 22-H ) :   0.1287 B( 12-O , 13-H ) :   0.8111
B( 12-O , 14-H ) :   0.8128 B( 15-O , 16-H ) :   0.7803 B( 15-O , 17-H ) :   0.8397
B( 18-O , 19-H ) :   0.7796 B( 18-O , 20-H ) :   0.8396 B( 21-O , 22-H ) :   0.7841
B( 21-O , 23-H ) :   0.8115

Dispersion correction           -0.012268183
FINAL SINGLE POINT ENERGY      -611.676690077996

DIPOLE MOMENT
-------------
                                X             Y             Z
Electronic contribution:     -0.01089       0.05447       0.06556
Nuclear contribution   :     -0.24290       0.38198       0.24644
                        -----------------------------------------
Total Dipole Moment    :     -0.25379       0.43645       0.31201
                        -----------------------------------------
Magnitude (a.u.)       :      0.59350
Magnitude (Debye)      :      1.50857

                             ****ORCA TERMINATED NORMALLY****
TOTAL RUN TIME: 0 days 0 hours 1 minutes 8 seconds 777 msec
