                         Program Version 3.0.3 - RELEASE   -
|  1> ! B3LYP Def2-TZVP def2-TZVP/J RIJCOSX TightSCF Grid4 D3BJ COSMO
|  2>
|  3> %pal nprocs 12 end
|  4>
|  5> %scf
|  6>         maxiter 400
|  7> end
|  8>
|  9> %cosmo
| 10>         SMD true
| 11>         solvent "WATER"
| 12> end
| 13>
| 14> * xyz  0  1
| 15> O  0.531003	2.246906	0.195966
| 16> H  -0.333254	2.024242	-0.265391
| 17> H  0.618590	3.211649	0.165244
| 18> O  -1.960002	-0.330218	1.229284
| 19> H  -1.145136	-0.038547	1.745413
| 20> H  -2.672627	-0.432544	1.878421
| 21> O  -1.653707	1.290994	-0.946039
| 22> H  -1.932186	0.757878	-0.166085
| 23> H  -1.223242	0.626681	-1.544867
| 24> O  1.793771	-1.400150	0.854589
| 25> H  0.986024	-1.853313	0.519384
| 26> H  2.020309	-0.787400	0.117454
| 27> O  -0.283337	-0.609607	-2.345333
| 28> H  -0.445052	-1.301565	-1.662295
| 29> H  0.590789	-0.244593	-2.074810
| 30> O  1.956604	0.445998	-1.163368
| 31> H  1.556060	1.231411	-0.706048
| 32> H  2.742253	0.778660	-1.623357
| 33> O  -0.632104	-2.192669	-0.140047
| 34> H  -1.245356	-1.627671	0.400384
| 35> H  -1.022229	-3.080363	-0.132136
| 36> O  0.330044	0.416034	2.231183
| 37> H  0.928484	-0.269198	1.831917
| 38> H  0.449297	1.198159	1.645321
| 39> **                         ****END OF INPUT****

CARTESIAN COORDINATES (ANGSTROEM)
---------------------------------
  O      0.531003    2.246906    0.195966
  H     -0.333254    2.024242   -0.265391
  H      0.618590    3.211649    0.165244
  O     -1.960002   -0.330218    1.229284
  H     -1.145136   -0.038547    1.745413
  H     -2.672627   -0.432544    1.878421
  O     -1.653707    1.290994   -0.946039
  H     -1.932186    0.757878   -0.166085
  H     -1.223242    0.626681   -1.544867
  O      1.793771   -1.400150    0.854589
  H      0.986024   -1.853313    0.519384
  H      2.020309   -0.787400    0.117454
  O     -0.283337   -0.609607   -2.345333
  H     -0.445052   -1.301565   -1.662295
  H      0.590789   -0.244593   -2.074810
  O      1.956604    0.445998   -1.163368
  H      1.556060    1.231411   -0.706048
  H      2.742253    0.778660   -1.623357
  O     -0.632104   -2.192669   -0.140047
  H     -1.245356   -1.627671    0.400384
  H     -1.022229   -3.080363   -0.132136
  O      0.330044    0.416034    2.231183
  H      0.928484   -0.269198    1.831917
  H      0.449297    1.198159    1.645321

 Total Charge           Charge          ....    0
 Multiplicity           Mult            ....    1
 Number of Electrons    NEL             ....   80
 Basis Dimension        Dim             ....  344

ORBITAL ENERGIES
----------------

  NO   OCC          E(Eh)            E(eV)
   0   2.0000     -19.132511      -520.6221
   1   2.0000     -19.132210      -520.6139
   2   2.0000     -19.131620      -520.5979
   3   2.0000     -19.129880      -520.5505
   4   2.0000     -19.115882      -520.1696
   5   2.0000     -19.114906      -520.1430
   6   2.0000     -19.114010      -520.1186
   7   2.0000     -19.113198      -520.0966
   8   2.0000      -1.031099       -28.0576
   9   2.0000      -1.020910       -27.7804
  10   2.0000      -1.013861       -27.5886
  11   2.0000      -1.007679       -27.4203
  12   2.0000      -1.003144       -27.2969
  13   2.0000      -0.996897       -27.1269
  14   2.0000      -0.988981       -26.9116
  15   2.0000      -0.979872       -26.6637
  16   2.0000      -0.548319       -14.9205
  17   2.0000      -0.548181       -14.9167
  18   2.0000      -0.530845       -14.4450
  19   2.0000      -0.527129       -14.3439
  20   2.0000      -0.521027       -14.1779
  21   2.0000      -0.517839       -14.0911
  22   2.0000      -0.516097       -14.0437
  23   2.0000      -0.513837       -13.9822
  24   2.0000      -0.454120       -12.3572
  25   2.0000      -0.430772       -11.7219
  26   2.0000      -0.416826       -11.3424
  27   2.0000      -0.405971       -11.0470
  28   2.0000      -0.400734       -10.9045
  29   2.0000      -0.389758       -10.6059
  30   2.0000      -0.381025       -10.3682
  31   2.0000      -0.361697        -9.8423
  32   2.0000      -0.330156        -8.9840
  33   2.0000      -0.328816        -8.9475
  34   2.0000      -0.325461        -8.8563
  35   2.0000      -0.322485        -8.7753
  36   2.0000      -0.317261        -8.6331
  37   2.0000      -0.315892        -8.5958
  38   2.0000      -0.310611        -8.4521
  39   2.0000      -0.309338        -8.4175
  40   0.0000       0.017339         0.4718
  41   0.0000       0.049231         1.3396
  42   0.0000       0.064719         1.7611
  43   0.0000       0.081653         2.2219
  44   0.0000       0.102179         2.7804

MULLIKEN ATOMIC CHARGES
-----------------------
   0 O :   -0.742042
   1 H :    0.377293
   2 H :    0.386415
   3 O :   -0.745646
   4 H :    0.379834
   5 H :    0.385271
   6 O :   -0.761973
   7 H :    0.370961
   8 H :    0.368261
   9 O :   -0.760282
  10 H :    0.369538
  11 H :    0.369676
  12 O :   -0.762454
  13 H :    0.368963
  14 H :    0.368069
  15 O :   -0.735160
  16 H :    0.371636
  17 H :    0.385896
  18 O :   -0.735265
  19 H :    0.371327
  20 H :    0.385956
  21 O :   -0.757416
  22 H :    0.370995
  23 H :    0.370147
Sum of atomic charges:   -0.0000000

LOEWDIN ATOMIC CHARGES
----------------------
   0 O :   -0.277685
   1 H :    0.144959
   2 H :    0.183881
   3 O :   -0.279629
   4 H :    0.141729
   5 H :    0.183038
   6 O :   -0.327007
   7 H :    0.138138
   8 H :    0.138128
   9 O :   -0.335174
  10 H :    0.139368
  11 H :    0.139365
  12 O :   -0.340295
  13 H :    0.138469
  14 H :    0.138622
  15 O :   -0.274034
  16 H :    0.145262
  17 H :    0.185194
  18 O :   -0.273340
  19 H :    0.145290
  20 H :    0.185571
  21 O :   -0.318580
  22 H :    0.138207
  23 H :    0.140521

  Mayer bond orders larger than 0.1
B(  0-O ,  1-H ) :   0.7516 B(  0-O ,  2-H ) :   0.8515 B(  0-O , 16-H ) :   0.1222
B(  1-H ,  6-O ) :   0.1514 B(  3-O ,  4-H ) :   0.7433 B(  3-O ,  5-H ) :   0.8521
B(  3-O ,  7-H ) :   0.1015 B(  3-O , 19-H ) :   0.1228 B(  4-H , 21-O ) :   0.1582
B(  6-O ,  7-H ) :   0.8090 B(  6-O ,  8-H ) :   0.7882 B(  8-H , 12-O ) :   0.1366
B(  9-O , 10-H ) :   0.8129 B(  9-O , 11-H ) :   0.8122 B(  9-O , 22-H ) :   0.1386
B( 10-H , 18-O ) :   0.1008 B( 11-H , 15-O ) :   0.1012 B( 12-O , 13-H ) :   0.8112
B( 12-O , 14-H ) :   0.8129 B( 13-H , 18-O ) :   0.1036 B( 14-H , 15-O ) :   0.1033
B( 15-O , 16-H ) :   0.7763 B( 15-O , 17-H ) :   0.8528 B( 18-O , 19-H ) :   0.7757
B( 18-O , 20-H ) :   0.8528 B( 21-O , 22-H ) :   0.7840 B( 21-O , 23-H ) :   0.8128

Dispersion correction           -0.025248018
FINAL SINGLE POINT ENERGY      -611.583714009718

DIPOLE MOMENT
-------------
                                X             Y             Z
Electronic contribution:     -0.00746       0.04949       0.06323
Nuclear contribution   :     -0.24290       0.38198       0.24644
                        -----------------------------------------
Total Dipole Moment    :     -0.25036       0.43147       0.30967
                        -----------------------------------------
Magnitude (a.u.)       :      0.58715
Magnitude (Debye)      :      1.49241

                             ****ORCA TERMINATED NORMALLY****
TOTAL RUN TIME: 0 days 0 hours 1 minutes 7 seconds 921 msec
