                         Program Version 3.0.3 - RELEASE   -
|  1> ! wB97X-D3 Def2-TZVP def2-TZVP/J RIJCOSX TightSCF Grid4 COSMO
|  2>
|  3> %pal nprocs 12 end
|  4>
|  5> %scf
|  6>         maxiter 400
|  7> end
|  8>
|  9> %cosmo
| 10>         SMD true
| 11>         solvent "WATER"
| 12> end
| 13>
| 14> * xyz  0  1
| 15> O  0.528254	2.158112	0.163610
| 16> H  -0.377110	1.968469	-0.302058
| 17> H  0.670695	3.123488	0.107304
| 18> O  -1.863140	-0.345830	1.158438
| 19> H  -1.054454	-0.029107	1.723257
| 20> H  -2.577775	-0.555056	1.791531
| 21> O  -1.672198	1.360857	-0.926409
| 22> H  -1.927422	0.796940	-0.140682
| 23> H  -1.238760	0.677215	-1.538834
| 24> O  1.740492	-1.356448	0.921144
| 25> H  0.943659	-1.831704	0.547603
| 26> H  1.989409	-0.763043	0.155778
| 27> O  -0.353042	-0.519487	-2.303934
| 28> H  -0.492561	-1.268765	-1.657696
| 29> H  0.556143	-0.199198	-2.038303
| 30> O  1.934162	0.381827	-1.147005
| 31> H  1.514639	1.180591	-0.682771
| 32> H  2.732617	0.723760	-1.594496
| 33> O  -0.591247	-2.204091	-0.187589
| 34> H  -1.192571	-1.602002	0.365344
| 35> H  -0.977890	-3.099033	-0.118942
| 36> O  0.320376	0.470497	2.268883
| 37> H  0.913698	-0.240058	1.850415
| 38> H  0.429020	1.232838	1.630198
| 39> **                         ****END OF INPUT****

CARTESIAN COORDINATES (ANGSTROEM)
---------------------------------
  O      0.528254    2.158112    0.163610
  H     -0.377110    1.968469   -0.302058
  H      0.670695    3.123488    0.107304
  O     -1.863140   -0.345830    1.158438
  H     -1.054454   -0.029107    1.723257
  H     -2.577775   -0.555056    1.791531
  O     -1.672198    1.360857   -0.926409
  H     -1.927422    0.796940   -0.140682
  H     -1.238760    0.677215   -1.538834
  O      1.740492   -1.356448    0.921144
  H      0.943659   -1.831704    0.547603
  H      1.989409   -0.763043    0.155778
  O     -0.353042   -0.519487   -2.303934
  H     -0.492561   -1.268765   -1.657696
  H      0.556143   -0.199198   -2.038303
  O      1.934162    0.381827   -1.147005
  H      1.514639    1.180591   -0.682771
  H      2.732617    0.723760   -1.594496
  O     -0.591247   -2.204091   -0.187589
  H     -1.192571   -1.602002    0.365344
  H     -0.977890   -3.099033   -0.118942
  O      0.320376    0.470497    2.268883
  H      0.913698   -0.240058    1.850415
  H      0.429020    1.232838    1.630198

 Total Charge           Charge          ....    0
 Multiplicity           Mult            ....    1
 Number of Electrons    NEL             ....   80
 Basis Dimension        Dim             ....  344

ORBITAL ENERGIES
----------------

  NO   OCC          E(Eh)            E(eV)
   0   2.0000     -19.240013      -523.5474
   1   2.0000     -19.239979      -523.5465
   2   2.0000     -19.239767      -523.5407
   3   2.0000     -19.239641      -523.5372
   4   2.0000     -19.225511      -523.1528
   5   2.0000     -19.225384      -523.1493
   6   2.0000     -19.223708      -523.1037
   7   2.0000     -19.223323      -523.0932
   8   2.0000      -1.146550       -31.1992
   9   2.0000      -1.133560       -30.8457
  10   2.0000      -1.125942       -30.6384
  11   2.0000      -1.120736       -30.4968
  12   2.0000      -1.112771       -30.2800
  13   2.0000      -1.107649       -30.1407
  14   2.0000      -1.099645       -29.9229
  15   2.0000      -1.087589       -29.5948
  16   2.0000      -0.649148       -17.6642
  17   2.0000      -0.648552       -17.6480
  18   2.0000      -0.631449       -17.1826
  19   2.0000      -0.626562       -17.0496
  20   2.0000      -0.622362       -16.9353
  21   2.0000      -0.614509       -16.7216
  22   2.0000      -0.612672       -16.6716
  23   2.0000      -0.612499       -16.6669
  24   2.0000      -0.564326       -15.3561
  25   2.0000      -0.535400       -14.5690
  26   2.0000      -0.522820       -14.2266
  27   2.0000      -0.511937       -13.9305
  28   2.0000      -0.506507       -13.7828
  29   2.0000      -0.487984       -13.2787
  30   2.0000      -0.482230       -13.1222
  31   2.0000      -0.460065       -12.5190
  32   2.0000      -0.427257       -11.6262
  33   2.0000      -0.425933       -11.5902
  34   2.0000      -0.422369       -11.4932
  35   2.0000      -0.418800       -11.3961
  36   2.0000      -0.414519       -11.2796
  37   2.0000      -0.411000       -11.1839
  38   2.0000      -0.408159       -11.1066
  39   2.0000      -0.407293       -11.0830
  40   0.0000       0.099640         2.7113
  41   0.0000       0.136618         3.7176
  42   0.0000       0.153404         4.1743
  43   0.0000       0.172928         4.7056
  44   0.0000       0.187777         5.1097

MULLIKEN ATOMIC CHARGES
-----------------------
   0 O :   -0.781313
   1 H :    0.384275
   2 H :    0.410183
   3 O :   -0.781287
   4 H :    0.384123
   5 H :    0.410442
   6 O :   -0.772838
   7 H :    0.382144
   8 H :    0.385182
   9 O :   -0.779096
  10 H :    0.377398
  11 H :    0.380472
  12 O :   -0.779194
  13 H :    0.380735
  14 H :    0.377387
  15 O :   -0.772489
  16 H :    0.379832
  17 H :    0.407972
  18 O :   -0.772791
  19 H :    0.378362
  20 H :    0.407680
  21 O :   -0.772987
  22 H :    0.383772
  23 H :    0.382033
Sum of atomic charges:   -0.0000000

LOEWDIN ATOMIC CHARGES
----------------------
   0 O :   -0.290245
   1 H :    0.150049
   2 H :    0.190548
   3 O :   -0.290350
   4 H :    0.150323
   5 H :    0.190563
   6 O :   -0.335691
   7 H :    0.146090
   8 H :    0.147252
   9 O :   -0.349674
  10 H :    0.146276
  11 H :    0.146322
  12 O :   -0.348738
  13 H :    0.147246
  14 H :    0.146103
  15 O :   -0.291622
  16 H :    0.149575
  17 H :    0.191610
  18 O :   -0.293830
  19 H :    0.149568
  20 H :    0.191534
  21 O :   -0.336481
  22 H :    0.147030
  23 H :    0.146543

  Mayer bond orders larger than 0.1
B(  0-O ,  1-H ) :   0.7169 B(  0-O ,  2-H ) :   0.8351 B(  0-O , 16-H ) :   0.1383
B(  0-O , 23-H ) :   0.1014 B(  1-H ,  6-O ) :   0.1848 B(  3-O ,  4-H ) :   0.7167
B(  3-O ,  5-H ) :   0.8348 B(  3-O ,  7-H ) :   0.1010 B(  3-O , 19-H ) :   0.1396
B(  4-H , 21-O ) :   0.1852 B(  6-O ,  7-H ) :   0.7987 B(  6-O ,  8-H ) :   0.7678
B(  8-H , 12-O ) :   0.1399 B(  9-O , 10-H ) :   0.7999 B(  9-O , 11-H ) :   0.7989
B(  9-O , 22-H ) :   0.1432 B( 10-H , 18-O ) :   0.1064 B( 11-H , 15-O ) :   0.1042
B( 12-O , 13-H ) :   0.8003 B( 12-O , 14-H ) :   0.8001 B( 13-H , 18-O ) :   0.1020
B( 14-H , 15-O ) :   0.1062 B( 15-O , 16-H ) :   0.7552 B( 15-O , 17-H ) :   0.8375
B( 18-O , 19-H ) :   0.7554 B( 18-O , 20-H ) :   0.8379 B( 21-O , 22-H ) :   0.7665
B( 21-O , 23-H ) :   0.7985

Dispersion correction           -0.012550421
FINAL SINGLE POINT ENERGY      -611.667310901067

DIPOLE MOMENT
-------------
                                X             Y             Z
Electronic contribution:     -0.03596       0.05439       0.03278
Nuclear contribution   :     -0.14648       0.18683       0.16928
                        -----------------------------------------
Total Dipole Moment    :     -0.18244       0.24122       0.20205
                        -----------------------------------------
Magnitude (a.u.)       :      0.36373
Magnitude (Debye)      :      0.92452

                             ****ORCA TERMINATED NORMALLY****
TOTAL RUN TIME: 0 days 0 hours 1 minutes 10 seconds 418 msec
