                         Program Version 3.0.3 - RELEASE   -
|  1> ! wB97X-D3 MA-Def2-TZVP def2-TZVP/J RIJCOSX TightSCF Grid4
|  2>
|  3> %pal nprocs 1 end
|  4>
|  5> %scf
|  6>         maxiter 400
|  7> end
|  8>
|  9> %cosmo
| 10>         SMD true
| 11>         solvent "WATER"
| 12> end
| 13>
| 14> * xyz  0  1
| 15> O  0.531003	2.246906	0.195966
| 16> H  -0.333254	2.024242	-0.265391
| 17> H  0.618590	3.211649	0.165244
| 18> O  -1.960002	-0.330218	1.229284
| 19> H  -1.145136	-0.038547	1.745413
| 20> H  -2.672627	-0.432544	1.878421
| 21> O  -1.653707	1.290994	-0.946039
| 22> H  -1.932186	0.757878	-0.166085
| 23> H  -1.223242	0.626681	-1.544867
| 24> O  1.793771	-1.400150	0.854589
| 25> H  0.986024	-1.853313	0.519384
| 26> H  2.020309	-0.787400	0.117454
| 27> O  -0.283337	-0.609607	-2.345333
| 28> H  -0.445052	-1.301565	-1.662295
| 29> H  0.590789	-0.244593	-2.074810
| 30> O  1.956604	0.445998	-1.163368
| 31> H  1.556060	1.231411	-0.706048
| 32> H  2.742253	0.778660	-1.623357
| 33> O  -0.632104	-2.192669	-0.140047
| 34> H  -1.245356	-1.627671	0.400384
| 35> H  -1.022229	-3.080363	-0.132136
| 36> O  0.330044	0.416034	2.231183
| 37> H  0.928484	-0.269198	1.831917
| 38> H  0.449297	1.198159	1.645321
| 39> **                         ****END OF INPUT****

CARTESIAN COORDINATES (ANGSTROEM)
---------------------------------
  O      0.531003    2.246906    0.195966
  H     -0.333254    2.024242   -0.265391
  H      0.618590    3.211649    0.165244
  O     -1.960002   -0.330218    1.229284
  H     -1.145136   -0.038547    1.745413
  H     -2.672627   -0.432544    1.878421
  O     -1.653707    1.290994   -0.946039
  H     -1.932186    0.757878   -0.166085
  H     -1.223242    0.626681   -1.544867
  O      1.793771   -1.400150    0.854589
  H      0.986024   -1.853313    0.519384
  H      2.020309   -0.787400    0.117454
  O     -0.283337   -0.609607   -2.345333
  H     -0.445052   -1.301565   -1.662295
  H      0.590789   -0.244593   -2.074810
  O      1.956604    0.445998   -1.163368
  H      1.556060    1.231411   -0.706048
  H      2.742253    0.778660   -1.623357
  O     -0.632104   -2.192669   -0.140047
  H     -1.245356   -1.627671    0.400384
  H     -1.022229   -3.080363   -0.132136
  O      0.330044    0.416034    2.231183
  H      0.928484   -0.269198    1.831917
  H      0.449297    1.198159    1.645321

 Total Charge           Charge          ....    0
 Multiplicity           Mult            ....    1
 Number of Electrons    NEL             ....   80
 Basis Dimension        Dim             ....  376

ORBITAL ENERGIES
----------------

  NO   OCC          E(Eh)            E(eV)
   0   2.0000     -19.242814      -523.6236
   1   2.0000     -19.242481      -523.6145
   2   2.0000     -19.241790      -523.5957
   3   2.0000     -19.240056      -523.5485
   4   2.0000     -19.227552      -523.2083
   5   2.0000     -19.226651      -523.1838
   6   2.0000     -19.225532      -523.1533
   7   2.0000     -19.224840      -523.1345
   8   2.0000      -1.149750       -31.2863
   9   2.0000      -1.138689       -30.9853
  10   2.0000      -1.131846       -30.7991
  11   2.0000      -1.126165       -30.6445
  12   2.0000      -1.120691       -30.4955
  13   2.0000      -1.114932       -30.3388
  14   2.0000      -1.107221       -30.1290
  15   2.0000      -1.097509       -29.8647
  16   2.0000      -0.654279       -17.8038
  17   2.0000      -0.654049       -17.7976
  18   2.0000      -0.636504       -17.3202
  19   2.0000      -0.631914       -17.1953
  20   2.0000      -0.627492       -17.0749
  21   2.0000      -0.623873       -16.9764
  22   2.0000      -0.622029       -16.9263
  23   2.0000      -0.619619       -16.8607
  24   2.0000      -0.561430       -15.2773
  25   2.0000      -0.537057       -14.6141
  26   2.0000      -0.520639       -14.1673
  27   2.0000      -0.510874       -13.9016
  28   2.0000      -0.506105       -13.7718
  29   2.0000      -0.491555       -13.3759
  30   2.0000      -0.483820       -13.1654
  31   2.0000      -0.463390       -12.6095
  32   2.0000      -0.431320       -11.7368
  33   2.0000      -0.429915       -11.6986
  34   2.0000      -0.426301       -11.6002
  35   2.0000      -0.423182       -11.5154
  36   2.0000      -0.418638       -11.3917
  37   2.0000      -0.417160       -11.3515
  38   2.0000      -0.412205       -11.2167
  39   2.0000      -0.410760       -11.1773
  40   0.0000       0.066617         1.8128
  41   0.0000       0.091349         2.4857
  42   0.0000       0.098181         2.6716
  43   0.0000       0.107318         2.9203
  44   0.0000       0.113285         3.0827

MULLIKEN ATOMIC CHARGES
-----------------------
   0 O :   -0.848801
   1 H :    0.432461
   2 H :    0.417830
   3 O :   -0.855247
   4 H :    0.437724
   5 H :    0.417509
   6 O :   -0.864538
   7 H :    0.427421
   8 H :    0.423936
   9 O :   -0.804735
  10 H :    0.409546
  11 H :    0.412313
  12 O :   -0.804076
  13 H :    0.409895
  14 H :    0.409675
  15 O :   -0.834809
  16 H :    0.413100
  17 H :    0.417322
  18 O :   -0.836368
  19 H :    0.413427
  20 H :    0.417098
  21 O :   -0.866587
  22 H :    0.429971
  23 H :    0.425932
Sum of atomic charges:   -0.0000000

LOEWDIN ATOMIC CHARGES
----------------------
   0 O :   -0.377389
   1 H :    0.194790
   2 H :    0.215355
   3 O :   -0.379932
   4 H :    0.191176
   5 H :    0.214852
   6 O :   -0.415144
   7 H :    0.191501
   8 H :    0.190458
   9 O :   -0.420722
  10 H :    0.191558
  11 H :    0.191598
  12 O :   -0.425317
  13 H :    0.190623
  14 H :    0.190859
  15 O :   -0.372858
  16 H :    0.195553
  17 H :    0.216135
  18 O :   -0.372438
  19 H :    0.195902
  20 H :    0.216604
  21 O :   -0.407410
  22 H :    0.190367
  23 H :    0.193881

  Mayer bond orders larger than 0.1
B(  0-O ,  1-H ) :   0.7704 B(  0-O ,  2-H ) :   0.8329 B(  3-O ,  4-H ) :   0.7615
B(  3-O ,  5-H ) :   0.8324 B(  6-O ,  7-H ) :   0.8198 B(  6-O ,  8-H ) :   0.8000
B(  9-O , 10-H ) :   0.8226 B(  9-O , 11-H ) :   0.8212 B( 12-O , 13-H ) :   0.8198
B( 12-O , 14-H ) :   0.8216 B( 15-O , 16-H ) :   0.7951 B( 15-O , 17-H ) :   0.8333
B( 18-O , 19-H ) :   0.7942 B( 18-O , 20-H ) :   0.8334 B( 21-O , 22-H ) :   0.7954
B( 21-O , 23-H ) :   0.8224

Dispersion correction           -0.012268183
FINAL SINGLE POINT ENERGY      -611.680411651427

DIPOLE MOMENT
-------------
                                X             Y             Z
Electronic contribution:     -0.01583       0.06181       0.07128
Nuclear contribution   :     -0.24290       0.38198       0.24644
                        -----------------------------------------
Total Dipole Moment    :     -0.25873       0.44379       0.31773
                        -----------------------------------------
Magnitude (a.u.)       :      0.60402
Magnitude (Debye)      :      1.53530

                             ****ORCA TERMINATED NORMALLY****
TOTAL RUN TIME: 0 days 0 hours 6 minutes 2 seconds 474 msec
