                         Program Version 3.0.3 - RELEASE   -
|  1> ! wB97X-D3 Def2-TZVP def2-TZVP/J RIJCOSX TightSCF Grid4
|  2>
|  3> %pal nprocs 12 end
|  4>
|  5> %scf
|  6>         maxiter 400
|  7> end
|  8>
|  9> * xyz  0  1
| 10> O  0.535765	2.160074	0.128320
| 11> H  -0.415213	1.914285	-0.332478
| 12> H  0.622931	3.130519	0.109060
| 13> O  -1.850951	-0.377899	1.171740
| 14> H  -0.983288	-0.022494	1.715635
| 15> H  -2.563922	-0.509904	1.822780
| 16> O  -1.603135	1.376444	-0.880310
| 17> H  -1.908180	0.793254	-0.129531
| 18> H  -1.224282	0.694500	-1.540533
| 19> O  1.723431	-1.331828	0.950746
| 20> H  0.974710	-1.854739	0.560945
| 21> H  2.003832	-0.774190	0.177699
| 22> O  -0.377724	-0.487068	-2.287618
| 23> H  -0.501838	-1.263759	-1.680824
| 24> H  0.552012	-0.210481	-2.075972
| 25> O  1.973761	0.414701	-1.155116
| 26> H  1.530825	1.203682	-0.685812
| 27> H  2.778843	0.761398	-1.579387
| 28> O  -0.628202	-2.239515	-0.181330
| 29> H  -1.217202	-1.621136	0.374300
| 30> H  -1.035498	-3.123207	-0.136246
| 31> O  0.251813	0.453782	2.222896
| 32> H  0.897910	-0.251976	1.863074
| 33> H  0.418597	1.226329	1.612747
| 34> **                         ****END OF INPUT****

CARTESIAN COORDINATES (ANGSTROEM)
---------------------------------
  O      0.535765    2.160074    0.128320
  H     -0.415213    1.914285   -0.332478
  H      0.622931    3.130519    0.109060
  O     -1.850951   -0.377899    1.171740
  H     -0.983288   -0.022494    1.715635
  H     -2.563922   -0.509904    1.822780
  O     -1.603135    1.376444   -0.880310
  H     -1.908180    0.793254   -0.129531
  H     -1.224282    0.694500   -1.540533
  O      1.723431   -1.331828    0.950746
  H      0.974710   -1.854739    0.560945
  H      2.003832   -0.774190    0.177699
  O     -0.377724   -0.487068   -2.287618
  H     -0.501838   -1.263759   -1.680824
  H      0.552012   -0.210481   -2.075972
  O      1.973761    0.414701   -1.155116
  H      1.530825    1.203682   -0.685812
  H      2.778843    0.761398   -1.579387
  O     -0.628202   -2.239515   -0.181330
  H     -1.217202   -1.621136    0.374300
  H     -1.035498   -3.123207   -0.136246
  O      0.251813    0.453782    2.222896
  H      0.897910   -0.251976    1.863074
  H      0.418597    1.226329    1.612747

 Total Charge           Charge          ....    0
 Multiplicity           Mult            ....    1
 Number of Electrons    NEL             ....   80
 Basis Dimension        Dim             ....  344

ORBITAL ENERGIES
----------------

  NO   OCC          E(Eh)            E(eV)
   0   2.0000     -19.253204      -523.9063
   1   2.0000     -19.253041      -523.9019
   2   2.0000     -19.244734      -523.6758
   3   2.0000     -19.244250      -523.6627
   4   2.0000     -19.226085      -523.1684
   5   2.0000     -19.225854      -523.1621
   6   2.0000     -19.218787      -522.9698
   7   2.0000     -19.218382      -522.9588
   8   2.0000      -1.153310       -31.3831
   9   2.0000      -1.143868       -31.1262
  10   2.0000      -1.133327       -30.8394
  11   2.0000      -1.125542       -30.6276
  12   2.0000      -1.114685       -30.3321
  13   2.0000      -1.108644       -30.1677
  14   2.0000      -1.097865       -29.8744
  15   2.0000      -1.087764       -29.5996
  16   2.0000      -0.664908       -18.0931
  17   2.0000      -0.663726       -18.0609
  18   2.0000      -0.639814       -17.4102
  19   2.0000      -0.636098       -17.3091
  20   2.0000      -0.624159       -16.9842
  21   2.0000      -0.615240       -16.7415
  22   2.0000      -0.613195       -16.6859
  23   2.0000      -0.611584       -16.6421
  24   2.0000      -0.570727       -15.5303
  25   2.0000      -0.536563       -14.6006
  26   2.0000      -0.527979       -14.3670
  27   2.0000      -0.511348       -13.9145
  28   2.0000      -0.501825       -13.6554
  29   2.0000      -0.494322       -13.4512
  30   2.0000      -0.484362       -13.1802
  31   2.0000      -0.455403       -12.3921
  32   2.0000      -0.435735       -11.8569
  33   2.0000      -0.433357       -11.7922
  34   2.0000      -0.428823       -11.6689
  35   2.0000      -0.424340       -11.5469
  36   2.0000      -0.411330       -11.1929
  37   2.0000      -0.408523       -11.1165
  38   2.0000      -0.398365       -10.8401
  39   2.0000      -0.397103       -10.8057
  40   0.0000       0.080530         2.1913
  41   0.0000       0.104823         2.8524
  42   0.0000       0.125816         3.4236
  43   0.0000       0.137264         3.7351
  44   0.0000       0.185048         5.0354

MULLIKEN ATOMIC CHARGES
-----------------------
   0 O :   -0.785065
   1 H :    0.374165
   2 H :    0.354426
   3 O :   -0.784024
   4 H :    0.373547
   5 H :    0.354479
   6 O :   -0.688102
   7 H :    0.365860
   8 H :    0.390760
   9 O :   -0.705727
  10 H :    0.357358
  11 H :    0.360562
  12 O :   -0.706669
  13 H :    0.361368
  14 H :    0.357947
  15 O :   -0.741137
  16 H :    0.365361
  17 H :    0.352270
  18 O :   -0.740482
  19 H :    0.364224
  20 H :    0.352125
  21 O :   -0.688744
  22 H :    0.390082
  23 H :    0.365417
Sum of atomic charges:   -0.0000000

LOEWDIN ATOMIC CHARGES
----------------------
   0 O :   -0.331482
   1 H :    0.139069
   2 H :    0.158890
   3 O :   -0.330598
   4 H :    0.139395
   5 H :    0.158984
   6 O :   -0.258499
   7 H :    0.145470
   8 H :    0.151974
   9 O :   -0.299680
  10 H :    0.145126
  11 H :    0.144797
  12 O :   -0.298743
  13 H :    0.145741
  14 H :    0.145144
  15 O :   -0.304881
  16 H :    0.143580
  17 H :    0.164825
  18 O :   -0.305743
  19 H :    0.143627
  20 H :    0.164938
  21 O :   -0.259903
  22 H :    0.152237
  23 H :    0.145731

  Mayer bond orders larger than 0.1
B(  0-O ,  1-H ) :   0.6341 B(  0-O ,  2-H ) :   0.8775 B(  0-O , 16-H ) :   0.1531
B(  1-H ,  6-O ) :   0.2874 B(  3-O ,  4-H ) :   0.6355 B(  3-O ,  5-H ) :   0.8775
B(  3-O , 19-H ) :   0.1530 B(  4-H , 21-O ) :   0.2861 B(  6-O ,  7-H ) :   0.8178
B(  6-O ,  8-H ) :   0.7565 B(  8-H , 12-O ) :   0.1464 B(  9-O , 10-H ) :   0.8350
B(  9-O , 11-H ) :   0.8311 B(  9-O , 22-H ) :   0.1478 B( 12-O , 13-H ) :   0.8311
B( 12-O , 14-H ) :   0.8346 B( 15-O , 16-H ) :   0.7529 B( 15-O , 17-H ) :   0.8798
B( 18-O , 19-H ) :   0.7539 B( 18-O , 20-H ) :   0.8800 B( 21-O , 22-H ) :   0.7560
B( 21-O , 23-H ) :   0.8178

Dispersion correction           -0.012557492
FINAL SINGLE POINT ENERGY      -611.629225007116

DIPOLE MOMENT
-------------
                                X             Y             Z
Electronic contribution:      0.00156      -0.00523      -0.01160
Nuclear contribution   :     -0.09928       0.12877       0.11387
                        -----------------------------------------
Total Dipole Moment    :     -0.09773       0.12353       0.10227
                        -----------------------------------------
Magnitude (a.u.)       :      0.18780
Magnitude (Debye)      :      0.47735

                             ****ORCA TERMINATED NORMALLY****
TOTAL RUN TIME: 0 days 0 hours 1 minutes 5 seconds 807 msec
