                         Program Version 3.0.3 - RELEASE   -
|  1> ! wB97X-D3 MA-Def2-TZVP def2-TZVP/J RIJCOSX TightSCF Grid4
|  2>
|  3> %pal nprocs 1 end
|  4>
|  5> %scf
|  6>         maxiter 400
|  7> end
|  8>
|  9> * xyz  0  1
| 10> O  0.552584	2.276967	0.147284
| 11> H  -0.336025	1.999273	-0.289116
| 12> H  0.582073	3.242293	0.134809
| 13> O  -1.947786	-0.386186	1.217680
| 14> H  -1.093917	-0.062130	1.696353
| 15> H  -2.640068	-0.438383	1.889775
| 16> O  -1.595906	1.351226	-0.890194
| 17> H  -1.944375	0.793575	-0.162278
| 18> H  -1.232270	0.687413	-1.537749
| 19> O  1.766949	-1.372897	0.878167
| 20> H  1.014098	-1.886905	0.521506
| 21> H  2.034766	-0.802654	0.128988
| 22> O  -0.312690	-0.571443	-2.286782
| 23> H  -0.455420	-1.311474	-1.661457
| 24> H  0.590744	-0.261974	-2.074844
| 25> O  2.011541	0.484894	-1.173570
| 26> H  1.585976	1.258263	-0.714895
| 27> H  2.795029	0.826613	-1.623387
| 28> O  -0.676789	-2.274959	-0.124525
| 29> H  -1.272053	-1.676942	0.404205
| 30> H  -1.087606	-3.149479	-0.108015
| 31> O  0.260409	0.407036	2.184500
| 32> H  0.906230	-0.273482	1.845847
| 33> H  0.449502	1.202129	1.642482
| 34> **                         ****END OF INPUT****

CARTESIAN COORDINATES (ANGSTROEM)
---------------------------------
  O      0.552584    2.276967    0.147284
  H     -0.336025    1.999273   -0.289116
  H      0.582073    3.242293    0.134809
  O     -1.947786   -0.386186    1.217680
  H     -1.093917   -0.062130    1.696353
  H     -2.640068   -0.438383    1.889775
  O     -1.595906    1.351226   -0.890194
  H     -1.944375    0.793575   -0.162278
  H     -1.232270    0.687413   -1.537749
  O      1.766949   -1.372897    0.878167
  H      1.014098   -1.886905    0.521506
  H      2.034766   -0.802654    0.128988
  O     -0.312690   -0.571443   -2.286782
  H     -0.455420   -1.311474   -1.661457
  H      0.590744   -0.261974   -2.074844
  O      2.011541    0.484894   -1.173570
  H      1.585976    1.258263   -0.714895
  H      2.795029    0.826613   -1.623387
  O     -0.676789   -2.274959   -0.124525
  H     -1.272053   -1.676942    0.404205
  H     -1.087606   -3.149479   -0.108015
  O      0.260409    0.407036    2.184500
  H      0.906230   -0.273482    1.845847
  H      0.449502    1.202129    1.642482

 Total Charge           Charge          ....    0
 Multiplicity           Mult            ....    1
 Number of Electrons    NEL             ....   80
 Basis Dimension        Dim             ....  376

ORBITAL ENERGIES
----------------

  NO   OCC          E(Eh)            E(eV)
   0   2.0000     -19.258247      -524.0435
   1   2.0000     -19.256717      -524.0019
   2   2.0000     -19.251479      -523.8594
   3   2.0000     -19.250444      -523.8312
   4   2.0000     -19.224984      -523.1384
   5   2.0000     -19.223016      -523.0848
   6   2.0000     -19.219250      -522.9824
   7   2.0000     -19.216730      -522.9138
   8   2.0000      -1.158737       -31.5308
   9   2.0000      -1.152502       -31.3612
  10   2.0000      -1.141031       -31.0490
  11   2.0000      -1.134116       -30.8609
  12   2.0000      -1.121075       -30.5060
  13   2.0000      -1.114736       -30.3335
  14   2.0000      -1.102977       -30.0135
  15   2.0000      -1.097132       -29.8545
  16   2.0000      -0.672383       -18.2965
  17   2.0000      -0.671151       -18.2630
  18   2.0000      -0.647643       -17.6233
  19   2.0000      -0.645050       -17.5527
  20   2.0000      -0.628255       -17.0957
  21   2.0000      -0.624154       -16.9841
  22   2.0000      -0.619540       -16.8585
  23   2.0000      -0.617613       -16.8061
  24   2.0000      -0.567555       -15.4439
  25   2.0000      -0.538010       -14.6400
  26   2.0000      -0.531829       -14.4718
  27   2.0000      -0.506267       -13.7762
  28   2.0000      -0.504924       -13.7397
  29   2.0000      -0.492265       -13.3952
  30   2.0000      -0.485800       -13.2193
  31   2.0000      -0.458090       -12.4653
  32   2.0000      -0.441703       -12.0194
  33   2.0000      -0.439666       -11.9639
  34   2.0000      -0.435463       -11.8495
  35   2.0000      -0.431979       -11.7547
  36   2.0000      -0.415223       -11.2988
  37   2.0000      -0.413393       -11.2490
  38   2.0000      -0.400159       -10.8889
  39   2.0000      -0.397772       -10.8239
  40   0.0000       0.051274         1.3952
  41   0.0000       0.067168         1.8277
  42   0.0000       0.082685         2.2500
  43   0.0000       0.088217         2.4005
  44   0.0000       0.114101         3.1048

MULLIKEN ATOMIC CHARGES
-----------------------
   0 O :   -0.828298
   1 H :    0.424128
   2 H :    0.360354
   3 O :   -0.824103
   4 H :    0.422704
   5 H :    0.359427
   6 O :   -0.802535
   7 H :    0.407388
   8 H :    0.435032
   9 O :   -0.735321
  10 H :    0.392660
  11 H :    0.394250
  12 O :   -0.740928
  13 H :    0.391913
  14 H :    0.389540
  15 O :   -0.789829
  16 H :    0.392848
  17 H :    0.359005
  18 O :   -0.794756
  19 H :    0.392579
  20 H :    0.358097
  21 O :   -0.809370
  22 H :    0.438150
  23 H :    0.407066
Sum of atomic charges:   -0.0000000

LOEWDIN ATOMIC CHARGES
----------------------
   0 O :   -0.403352
   1 H :    0.187357
   2 H :    0.189712
   3 O :   -0.401382
   4 H :    0.183490
   5 H :    0.189804
   6 O :   -0.361725
   7 H :    0.189962
   8 H :    0.194713
   9 O :   -0.373675
  10 H :    0.189329
  11 H :    0.188043
  12 O :   -0.379462
  13 H :    0.187174
  14 H :    0.186859
  15 O :   -0.381384
  16 H :    0.192878
  17 H :    0.192131
  18 O :   -0.383589
  19 H :    0.191247
  20 H :    0.192007
  21 O :   -0.355394
  22 H :    0.192887
  23 H :    0.192371

  Mayer bond orders larger than 0.1
B(  0-O ,  1-H ) :   0.7196 B(  0-O ,  2-H ) :   0.8751 B(  1-H ,  6-O ) :   0.1517
B(  3-O ,  4-H ) :   0.7129 B(  3-O ,  5-H ) :   0.8753 B(  4-H , 21-O ) :   0.1636
B(  6-O ,  7-H ) :   0.8552 B(  6-O ,  8-H ) :   0.8098 B(  9-O , 10-H ) :   0.8652
B(  9-O , 11-H ) :   0.8626 B( 12-O , 13-H ) :   0.8621 B( 12-O , 14-H ) :   0.8659
B( 15-O , 16-H ) :   0.8009 B( 15-O , 17-H ) :   0.8746 B( 18-O , 19-H ) :   0.7983
B( 18-O , 20-H ) :   0.8751 B( 21-O , 22-H ) :   0.8014 B( 21-O , 23-H ) :   0.8578

Dispersion correction           -0.012220329
FINAL SINGLE POINT ENERGY      -611.645058045268

DIPOLE MOMENT
-------------
                                X             Y             Z
Electronic contribution:      0.03953      -0.02116       0.01501
Nuclear contribution   :     -0.18307       0.26374       0.15574
                        -----------------------------------------
Total Dipole Moment    :     -0.14354       0.24258       0.17075
                        -----------------------------------------
Magnitude (a.u.)       :      0.32955
Magnitude (Debye)      :      0.83766

                             ****ORCA TERMINATED NORMALLY****
TOTAL RUN TIME: 0 days 0 hours 6 minutes 5 seconds 688 msec
