                         Program Version 3.0.3 - RELEASE   -
|  1> ! wB97X-D3 Def2-TZVP def2-TZVP/J RIJCOSX TightSCF Grid4
|  2>
|  3> %pal nprocs 12 end
|  4>
|  5> %scf
|  6>         maxiter 400
|  7> end
|  8>
|  9> * xyz  0  1
| 10> O  0.552584	2.276967	0.147284
| 11> H  -0.336025	1.999273	-0.289116
| 12> H  0.582073	3.242293	0.134809
| 13> O  -1.947786	-0.386186	1.217680
| 14> H  -1.093917	-0.062130	1.696353
| 15> H  -2.640068	-0.438383	1.889775
| 16> O  -1.595906	1.351226	-0.890194
| 17> H  -1.944375	0.793575	-0.162278
| 18> H  -1.232270	0.687413	-1.537749
| 19> O  1.766949	-1.372897	0.878167
| 20> H  1.014098	-1.886905	0.521506
| 21> H  2.034766	-0.802654	0.128988
| 22> O  -0.312690	-0.571443	-2.286782
| 23> H  -0.455420	-1.311474	-1.661457
| 24> H  0.590744	-0.261974	-2.074844
| 25> O  2.011541	0.484894	-1.173570
| 26> H  1.585976	1.258263	-0.714895
| 27> H  2.795029	0.826613	-1.623387
| 28> O  -0.676789	-2.274959	-0.124525
| 29> H  -1.272053	-1.676942	0.404205
| 30> H  -1.087606	-3.149479	-0.108015
| 31> O  0.260409	0.407036	2.184500
| 32> H  0.906230	-0.273482	1.845847
| 33> H  0.449502	1.202129	1.642482
| 34> **                         ****END OF INPUT****

CARTESIAN COORDINATES (ANGSTROEM)
---------------------------------
  O      0.552584    2.276967    0.147284
  H     -0.336025    1.999273   -0.289116
  H      0.582073    3.242293    0.134809
  O     -1.947786   -0.386186    1.217680
  H     -1.093917   -0.062130    1.696353
  H     -2.640068   -0.438383    1.889775
  O     -1.595906    1.351226   -0.890194
  H     -1.944375    0.793575   -0.162278
  H     -1.232270    0.687413   -1.537749
  O      1.766949   -1.372897    0.878167
  H      1.014098   -1.886905    0.521506
  H      2.034766   -0.802654    0.128988
  O     -0.312690   -0.571443   -2.286782
  H     -0.455420   -1.311474   -1.661457
  H      0.590744   -0.261974   -2.074844
  O      2.011541    0.484894   -1.173570
  H      1.585976    1.258263   -0.714895
  H      2.795029    0.826613   -1.623387
  O     -0.676789   -2.274959   -0.124525
  H     -1.272053   -1.676942    0.404205
  H     -1.087606   -3.149479   -0.108015
  O      0.260409    0.407036    2.184500
  H      0.906230   -0.273482    1.845847
  H      0.449502    1.202129    1.642482

 Total Charge           Charge          ....    0
 Multiplicity           Mult            ....    1
 Number of Electrons    NEL             ....   80
 Basis Dimension        Dim             ....  344

ORBITAL ENERGIES
----------------

  NO   OCC          E(Eh)            E(eV)
   0   2.0000     -19.254721      -523.9476
   1   2.0000     -19.253171      -523.9054
   2   2.0000     -19.248184      -523.7697
   3   2.0000     -19.247195      -523.7428
   4   2.0000     -19.221528      -523.0444
   5   2.0000     -19.219573      -522.9912
   6   2.0000     -19.215571      -522.8823
   7   2.0000     -19.212913      -522.8099
   8   2.0000      -1.156196       -31.4617
   9   2.0000      -1.150011       -31.2934
  10   2.0000      -1.138506       -30.9803
  11   2.0000      -1.131645       -30.7936
  12   2.0000      -1.118287       -30.4301
  13   2.0000      -1.111936       -30.2573
  14   2.0000      -1.100118       -29.9357
  15   2.0000      -1.094354       -29.7789
  16   2.0000      -0.670016       -18.2321
  17   2.0000      -0.668775       -18.1983
  18   2.0000      -0.645273       -17.5588
  19   2.0000      -0.642698       -17.4887
  20   2.0000      -0.625558       -17.0223
  21   2.0000      -0.621419       -16.9097
  22   2.0000      -0.616842       -16.7851
  23   2.0000      -0.614850       -16.7309
  24   2.0000      -0.564948       -15.3730
  25   2.0000      -0.535281       -14.5657
  26   2.0000      -0.529289       -14.4027
  27   2.0000      -0.503603       -13.7037
  28   2.0000      -0.502266       -13.6674
  29   2.0000      -0.489580       -13.3222
  30   2.0000      -0.483087       -13.1455
  31   2.0000      -0.455196       -12.3865
  32   2.0000      -0.439032       -11.9467
  33   2.0000      -0.437005       -11.8915
  34   2.0000      -0.432827       -11.7778
  35   2.0000      -0.429414       -11.6850
  36   2.0000      -0.412417       -11.2224
  37   2.0000      -0.410661       -11.1746
  38   2.0000      -0.397418       -10.8143
  39   2.0000      -0.395032       -10.7494
  40   0.0000       0.081530         2.2185
  41   0.0000       0.105474         2.8701
  42   0.0000       0.125444         3.4135
  43   0.0000       0.136675         3.7191
  44   0.0000       0.183496         4.9932

MULLIKEN ATOMIC CHARGES
-----------------------
   0 O :   -0.757446
   1 H :    0.375655
   2 H :    0.353257
   3 O :   -0.758079
   4 H :    0.375745
   5 H :    0.352780
   6 O :   -0.705998
   7 H :    0.360104
   8 H :    0.381448
   9 O :   -0.701314
  10 H :    0.354879
  11 H :    0.356231
  12 O :   -0.704492
  13 H :    0.354532
  14 H :    0.352427
  15 O :   -0.728659
  16 H :    0.362567
  17 H :    0.352864
  18 O :   -0.729561
  19 H :    0.362588
  20 H :    0.351712
  21 O :   -0.705256
  22 H :    0.384195
  23 H :    0.359821
Sum of atomic charges:    0.0000000

LOEWDIN ATOMIC CHARGES
----------------------
   0 O :   -0.305743
   1 H :    0.137912
   2 H :    0.158496
   3 O :   -0.303019
   4 H :    0.134353
   5 H :    0.158255
   6 O :   -0.274448
   7 H :    0.138318
   8 H :    0.145254
   9 O :   -0.290732
  10 H :    0.139053
  11 H :    0.138006
  12 O :   -0.296919
  13 H :    0.136994
  14 H :    0.136579
  15 O :   -0.286524
  16 H :    0.141463
  17 H :    0.162630
  18 O :   -0.288828
  19 H :    0.139883
  20 H :    0.162345
  21 O :   -0.267729
  22 H :    0.143811
  23 H :    0.140591

  Mayer bond orders larger than 0.1
B(  0-O ,  1-H ) :   0.7045 B(  0-O ,  2-H ) :   0.8807 B(  0-O , 16-H ) :   0.1238
B(  1-H ,  6-O ) :   0.2091 B(  3-O ,  4-H ) :   0.6983 B(  3-O ,  5-H ) :   0.8808
B(  3-O , 19-H ) :   0.1272 B(  4-H , 21-O ) :   0.2157 B(  6-O ,  7-H ) :   0.8344
B(  6-O ,  8-H ) :   0.7874 B(  8-H , 12-O ) :   0.1202 B(  9-O , 10-H ) :   0.8461
B(  9-O , 11-H ) :   0.8433 B(  9-O , 22-H ) :   0.1280 B( 12-O , 13-H ) :   0.8425
B( 12-O , 14-H ) :   0.8464 B( 15-O , 16-H ) :   0.7834 B( 15-O , 17-H ) :   0.8812
B( 18-O , 19-H ) :   0.7804 B( 18-O , 20-H ) :   0.8820 B( 21-O , 22-H ) :   0.7787
B( 21-O , 23-H ) :   0.8371

Dispersion correction           -0.012220329
FINAL SINGLE POINT ENERGY      -611.640821198251

DIPOLE MOMENT
-------------
                                X             Y             Z
Electronic contribution:      0.04044      -0.02217       0.01325
Nuclear contribution   :     -0.18307       0.26374       0.15574
                        -----------------------------------------
Total Dipole Moment    :     -0.14263       0.24157       0.16899
                        -----------------------------------------
Magnitude (a.u.)       :      0.32750
Magnitude (Debye)      :      0.83244

                             ****ORCA TERMINATED NORMALLY****
TOTAL RUN TIME: 0 days 0 hours 1 minutes 5 seconds 55 msec
