                         Program Version 4.2.0 -  RELEASE  -
|  1> # 12meoh.boyd.etal.mol3
|  2> ! MP2 def2-TZVP EnGrad TightSCF
|  3>
|  4> %pal
|  5>     nprocs 6
|  6> end
|  7>
|  8> %maxcore 8000
|  9>
| 10> %scf
| 11>     ConvForced true
| 12> end
| 13>
| 14> *xyz 0 1
| 15> O  -3.821405976  -2.118091637   0.596795346
| 16> H  -4.342989117  -1.344303030   0.251966383
| 17> C  -3.443883586  -1.809641231   1.934889393
| 18> H  -2.831494349  -2.637429600   2.305201764
| 19> H  -4.325601146  -1.719364371   2.585074667
| 20> H  -2.858527126  -0.882644791   1.996110694
| 21> *
| 22>
| 23>                          ****END OF INPUT****

CARTESIAN COORDINATES (ANGSTROEM)
---------------------------------
  O     -3.821406   -2.118092    0.596795
  H     -4.342989   -1.344303    0.251966
  C     -3.443884   -1.809641    1.934889
  H     -2.831494   -2.637430    2.305202
  H     -4.325601   -1.719364    2.585075
  H     -2.858527   -0.882645    1.996111

 Total Charge           Charge          ....    0
 Multiplicity           Mult            ....    1
 Number of Electrons    NEL             ....   18
 Basis Dimension        Dim             ....   86

ORBITAL ENERGIES
----------------

  NO   OCC          E(Eh)            E(eV)
   0   2.0000     -20.557827      -559.4069
   1   2.0000     -11.271779      -306.7207
   2   2.0000      -1.346894       -36.6508
   3   2.0000      -0.919282       -25.0149
   4   2.0000      -0.681298       -18.5390
   5   2.0000      -0.617651       -16.8071
   6   2.0000      -0.590177       -16.0595
   7   2.0000      -0.500832       -13.6283
   8   2.0000      -0.449619       -12.2347
   9   0.0000       0.134787         3.6677
  10   0.0000       0.176019         4.7897
  11   0.0000       0.228986         6.2310
  12   0.0000       0.230335         6.2677
  13   0.0000       0.254281         6.9193

MULLIKEN ATOMIC CHARGES
-----------------------
   0 O :   -0.494840
   1 H :    0.320948
   2 C :   -0.174742
   3 H :    0.129368
   4 H :    0.109400
   5 H :    0.109866
Sum of atomic charges:   -0.0000000

LOEWDIN ATOMIC CHARGES
----------------------
   0 O :   -0.109723
   1 H :    0.190615
   2 C :   -0.382061
   3 H :    0.110460
   4 H :    0.095458
   5 H :    0.095250

  Mayer bond orders larger than 0.100000
B(  0-O ,  1-H ) :   0.8429 B(  0-O ,  2-C ) :   0.9264 B(  2-C ,  3-H ) :   0.9377
B(  2-C ,  4-H ) :   0.9391 B(  2-C ,  5-H ) :   0.9385

MP2 TOTAL ENERGY:     -115.506628200 Eh
FINAL SINGLE POINT ENERGY      -115.506628200101

DIPOLE MOMENT
-------------
                                X             Y             Z
Electronic contribution:     -0.39063      -0.51432      -1.67350
Nuclear contribution   :      0.22667       1.11241       2.00460
                        -----------------------------------------
Total Dipole Moment    :     -0.16396       0.59809       0.33110
                        -----------------------------------------
Magnitude (a.u.)       :      0.70301
Magnitude (Debye)      :      1.78691

Rotational constants in cm-1:     4.182593     0.822637     0.791464
Rotational constants in MHz : 125390.970223 24662.040979 23727.485142

                             ****ORCA TERMINATED NORMALLY****
TOTAL RUN TIME: 0 days 0 hours 0 minutes 7 seconds 524 msec
