                         Program Version 4.2.0 -  RELEASE  -
|  1> # 12meoh.boyd.etal.mol0,9,10
|  2> ! MP2 def2-TZVP EnGrad TightSCF
|  3>
|  4> %pal
|  5>     nprocs 6
|  6> end
|  7>
|  8> %maxcore 8000
|  9>
| 10> %scf
| 11>     ConvForced true
| 12> end
| 13>
| 14> *xyz 0 1
| 15> O  -1.776108874  -2.741384797  -1.019308298
| 16> H  -2.520094035  -2.452295987  -0.420778302
| 17> C  -2.174025166  -3.952700964  -1.647004581
| 18> H  -1.359803895  -4.272673416  -2.304149236
| 19> H  -3.075973971  -3.808692420  -2.256751112
| 20> H  -2.370225393  -4.752784761  -0.918966137
| 21> O   1.390610024   3.194080770  -1.536658882
| 22> H   2.162932299   2.881562730  -0.993525056
| 23> C   1.202977189   4.580367182  -1.302880219
| 24> H   0.374773115   4.915764831  -1.934164643
| 25> H   2.098649340   5.157710875  -1.570472348
| 26> H   0.950320401   4.800436015  -0.254328827
| 27> O  -5.201143618   0.064582726  -0.172223772
| 28> H  -4.686891530   0.869258890   0.107806143
| 29> C  -6.513192168   0.171391798   0.359883449
| 30> H  -7.049381312  -0.749234190   0.111361174
| 31> H  -7.057741163   1.017801101  -0.081819420
| 32> H  -6.514770575   0.292264928   1.453058834
| 33> *
| 34>
| 35>                          ****END OF INPUT****

CARTESIAN COORDINATES (ANGSTROEM)
---------------------------------
  O     -1.776109   -2.741385   -1.019308
  H     -2.520094   -2.452296   -0.420778
  C     -2.174025   -3.952701   -1.647005
  H     -1.359804   -4.272673   -2.304149
  H     -3.075974   -3.808692   -2.256751
  H     -2.370225   -4.752785   -0.918966
  O      1.390610    3.194081   -1.536659
  H      2.162932    2.881563   -0.993525
  C      1.202977    4.580367   -1.302880
  H      0.374773    4.915765   -1.934165
  H      2.098649    5.157711   -1.570472
  H      0.950320    4.800436   -0.254329
  O     -5.201144    0.064583   -0.172224
  H     -4.686892    0.869259    0.107806
  C     -6.513192    0.171392    0.359883
  H     -7.049381   -0.749234    0.111361
  H     -7.057741    1.017801   -0.081819
  H     -6.514771    0.292265    1.453059

 Total Charge           Charge          ....    0
 Multiplicity           Mult            ....    1
 Number of Electrons    NEL             ....   54
 Basis Dimension        Dim             ....  258

ORBITAL ENERGIES
----------------

  NO   OCC          E(Eh)            E(eV)
   0   2.0000     -20.561182      -559.4982
   1   2.0000     -20.554709      -559.3221
   2   2.0000     -20.545808      -559.0799
   3   2.0000     -11.274319      -306.7898
   4   2.0000     -11.269757      -306.6657
   5   2.0000     -11.261494      -306.4408
   6   2.0000      -1.351124       -36.7659
   7   2.0000      -1.345443       -36.6114
   8   2.0000      -1.335124       -36.3306
   9   2.0000      -0.922221       -25.0949
  10   2.0000      -0.917529       -24.9672
  11   2.0000      -0.908689       -24.7267
  12   2.0000      -0.685605       -18.6562
  13   2.0000      -0.680331       -18.5127
  14   2.0000      -0.670085       -18.2339
  15   2.0000      -0.619929       -16.8691
  16   2.0000      -0.614979       -16.7344
  17   2.0000      -0.606501       -16.5037
  18   2.0000      -0.594848       -16.1866
  19   2.0000      -0.589914       -16.0524
  20   2.0000      -0.580253       -15.7895
  21   2.0000      -0.503271       -13.6947
  22   2.0000      -0.496925       -13.5220
  23   2.0000      -0.489406       -13.3174
  24   2.0000      -0.451904       -12.2969
  25   2.0000      -0.446125       -12.1397
  26   2.0000      -0.437564       -11.9067
  27   0.0000       0.126633         3.4458
  28   0.0000       0.137516         3.7420
  29   0.0000       0.152526         4.1504
  30   0.0000       0.172775         4.7015
  31   0.0000       0.177348         4.8259

MULLIKEN ATOMIC CHARGES
-----------------------
   0 O :   -0.499095
   1 H :    0.326912
   2 C :   -0.171487
   3 H :    0.125609
   4 H :    0.111375
   5 H :    0.104503
   6 O :   -0.494140
   7 H :    0.322391
   8 C :   -0.171392
   9 H :    0.128528
  10 H :    0.108405
  11 H :    0.106208
  12 O :   -0.499531
  13 H :    0.326046
  14 C :   -0.173366
  15 H :    0.128200
  16 H :    0.111055
  17 H :    0.109778
Sum of atomic charges:    0.0000000

LOEWDIN ATOMIC CHARGES
----------------------
   0 O :   -0.109180
   1 H :    0.194364
   2 C :   -0.385139
   3 H :    0.108978
   4 H :    0.095810
   5 H :    0.093662
   6 O :   -0.104192
   7 H :    0.191048
   8 C :   -0.386527
   9 H :    0.110227
  10 H :    0.095008
  11 H :    0.094436
  12 O :   -0.108573
  13 H :    0.193000
  14 C :   -0.384664
  15 H :    0.110069
  16 H :    0.096160
  17 H :    0.095515

  Mayer bond orders larger than 0.100000
B(  0-O ,  1-H ) :   0.8371 B(  0-O ,  2-C ) :   0.9317 B(  2-C ,  3-H ) :   0.9379
B(  2-C ,  4-H ) :   0.9397 B(  2-C ,  5-H ) :   0.9384 B(  6-O ,  7-H ) :   0.8413
B(  6-O ,  8-C ) :   0.9302 B(  8-C ,  9-H ) :   0.9376 B(  8-C , 10-H ) :   0.9401
B(  8-C , 11-H ) :   0.9372 B( 12-O , 13-H ) :   0.8391 B( 12-O , 14-C ) :   0.9243
B( 14-C , 15-H ) :   0.9380 B( 14-C , 16-H ) :   0.9383 B( 14-C , 17-H ) :   0.9382

MP2 TOTAL ENERGY:     -346.521055820 Eh
FINAL SINGLE POINT ENERGY      -346.521055819563

DIPOLE MOMENT
-------------
                                X             Y             Z
Electronic contribution:      2.35678      -0.46887      -0.39356
Nuclear contribution   :     -2.81315       1.10203       1.32123
                        -----------------------------------------
Total Dipole Moment    :     -0.45637       0.63316       0.92767
                        -----------------------------------------
Magnitude (a.u.)       :      1.21233
Magnitude (Debye)      :      3.08149

Rotational constants in cm-1:     0.033707     0.013215     0.009586
Rotational constants in MHz :  1010.522401   396.177226   287.384906

                             ****ORCA TERMINATED NORMALLY****
TOTAL RUN TIME: 0 days 0 hours 0 minutes 39 seconds 603 msec
