                         Program Version 4.2.0 -  RELEASE  -
|  1> # 12meoh.boyd.etal.mol4,8
|  2> ! MP2 def2-TZVP EnGrad TightSCF
|  3>
|  4> %pal
|  5>     nprocs 6
|  6> end
|  7>
|  8> %maxcore 8000
|  9>
| 10> %scf
| 11>     ConvForced true
| 12> end
| 13>
| 14> *xyz 0 1
| 15> O  -1.358578914   1.232360421   1.189721000
| 16> H  -1.058250183   1.216459361   0.238591307
| 17> C  -0.389763452   1.957872567   1.943072362
| 18> H  -0.747220771   2.012806578   2.975200343
| 19> H  -0.260410585   2.982763209   1.565366540
| 20> H   0.585220638   1.453754179   1.934070793
| 21> O   3.570084754   2.361662577  -0.202416728
| 22> H   3.393280933   1.755669977   0.560634073
| 23> C   4.368082883   1.644741793  -1.143112807
| 24> H   4.552851717   2.311801738  -1.989632421
| 25> H   3.862427494   0.740851663  -1.508095690
| 26> H   5.333949674   1.357289092  -0.706288100
| 27> *
| 28>
| 29>                          ****END OF INPUT****

CARTESIAN COORDINATES (ANGSTROEM)
---------------------------------
  O     -1.358579    1.232360    1.189721
  H     -1.058250    1.216459    0.238591
  C     -0.389763    1.957873    1.943072
  H     -0.747221    2.012807    2.975200
  H     -0.260411    2.982763    1.565367
  H      0.585221    1.453754    1.934071
  O      3.570085    2.361663   -0.202417
  H      3.393281    1.755670    0.560634
  C      4.368083    1.644742   -1.143113
  H      4.552852    2.311802   -1.989632
  H      3.862427    0.740852   -1.508096
  H      5.333950    1.357289   -0.706288

 Total Charge           Charge          ....    0
 Multiplicity           Mult            ....    1
 Number of Electrons    NEL             ....   36
 Basis Dimension        Dim             ....  172

ORBITAL ENERGIES
----------------

  NO   OCC          E(Eh)            E(eV)
   0   2.0000     -20.563302      -559.5559
   1   2.0000     -20.556890      -559.3814
   2   2.0000     -11.276749      -306.8559
   3   2.0000     -11.271330      -306.7085
   4   2.0000      -1.352638       -36.8071
   5   2.0000      -1.344430       -36.5838
   6   2.0000      -0.925042       -25.1717
   7   2.0000      -0.918615       -24.9968
   8   2.0000      -0.687545       -18.7090
   9   2.0000      -0.679523       -18.4908
  10   2.0000      -0.622356       -16.9352
  11   2.0000      -0.616219       -16.7682
  12   2.0000      -0.595142       -16.1946
  13   2.0000      -0.589321       -16.0362
  14   2.0000      -0.507028       -13.7969
  15   2.0000      -0.499570       -13.5940
  16   2.0000      -0.455406       -12.3922
  17   2.0000      -0.448686       -12.2094
  18   0.0000       0.112601         3.0640
  19   0.0000       0.149075         4.0565
  20   0.0000       0.163355         4.4451
  21   0.0000       0.191671         5.2156
  22   0.0000       0.221923         6.0388

MULLIKEN ATOMIC CHARGES
-----------------------
   0 O :   -0.498665
   1 H :    0.322774
   2 C :   -0.162418
   3 H :    0.128746
   4 H :    0.118055
   5 H :    0.090366
   6 O :   -0.497151
   7 H :    0.320366
   8 C :   -0.176200
   9 H :    0.131261
  10 H :    0.109965
  11 H :    0.112899
Sum of atomic charges:    0.0000000

LOEWDIN ATOMIC CHARGES
----------------------
   0 O :   -0.112413
   1 H :    0.192464
   2 C :   -0.379596
   3 H :    0.110074
   4 H :    0.098578
   5 H :    0.090417
   6 O :   -0.110398
   7 H :    0.186182
   8 C :   -0.378086
   9 H :    0.110952
  10 H :    0.095360
  11 H :    0.096464

  Mayer bond orders larger than 0.100000
B(  0-O ,  1-H ) :   0.8411 B(  0-O ,  2-C ) :   0.9271 B(  2-C ,  3-H ) :   0.9368
B(  2-C ,  4-H ) :   0.9396 B(  2-C ,  5-H ) :   0.9398 B(  6-O ,  7-H ) :   0.8431
B(  6-O ,  8-C ) :   0.9232 B(  8-C ,  9-H ) :   0.9374 B(  8-C , 10-H ) :   0.9372
B(  8-C , 11-H ) :   0.9407

MP2 TOTAL ENERGY:     -231.014076820 Eh
FINAL SINGLE POINT ENERGY      -231.014076819563

DIPOLE MOMENT
-------------
                                X             Y             Z
Electronic contribution:     -2.29089       0.10268       0.24428
Nuclear contribution   :      3.09145      -0.45860      -0.45620
                        -----------------------------------------
Total Dipole Moment    :      0.80056      -0.35592      -0.21193
                        -----------------------------------------
Magnitude (a.u.)       :      0.90138
Magnitude (Debye)      :      2.29112

Rotational constants in cm-1:     0.572776     0.035597     0.034157
Rotational constants in MHz : 17171.377708  1067.183874  1024.009039

                             ****ORCA TERMINATED NORMALLY****
TOTAL RUN TIME: 0 days 0 hours 0 minutes 19 seconds 6 msec
