                         Program Version 4.2.0 -  RELEASE  -
|  1> ! MP2 def2-TZVP EnGrad TightSCF FrozenCore
|  2>
|  3> %pal
|  4>     nprocs 12
|  5> end
|  6>
|  7> %maxcore 8000
|  8>
|  9> %scf
| 10>     ConvForced true
| 11> end
| 12>
| 13> *xyz 0 1
| 14> C     3.785807    -1.761629    -0.725499
| 15> H     3.142000    -2.629785    -0.884181
| 16> H     3.810479    -1.534815     0.344467
| 17> H     4.797228    -1.974115    -1.081416
| 18> C     3.239260    -0.609764    -1.436959
| 19> N     2.819403     0.314178    -2.003581
| 20> C    -3.651054     1.989548     0.799495
| 21> H    -2.611246     2.030778     1.136939
| 22> H    -4.225119     1.393526     1.512991
| 23> H    -4.062876     3.000242     0.740789
| 24> C    -3.692496     1.354103    -0.514442
| 25> N    -3.716616     0.842919    -1.558199
| 26> C     0.377155    -0.892913     2.500200
| 27> H    -0.397490    -1.405445     3.075544
| 28> H     0.055627     0.135529     2.309701
| 29> H     1.323986    -0.877162     3.044542
| 30> C     0.559309    -1.564600     1.217420
| 31> N     0.688078    -2.104498     0.195125
| 32> C    -0.387749     0.183244    -2.199394
| 33> H    -1.417049     0.170455    -2.569911
| 34> H    -0.022404    -0.836451    -2.043505
| 35> H     0.269159     0.676987    -2.919288
| 36> C    -0.344018     0.898908    -0.928041
| 37> N    -0.324032     1.475101     0.081965
| 38> C    -2.651481    -2.332537    -0.730288
| 39> H    -3.273040    -3.230755    -0.688101
| 40> H    -1.615514    -2.618677    -0.936479
| 41> H    -3.022121    -1.673823    -1.521846
| 42> C    -2.709224    -1.625421     0.545835
| 43> N    -2.756635    -1.059998     1.560346
| 44> C     2.643461     2.781134     0.375441
| 45> H     3.451754     3.499125     0.536647
| 46> H     1.693333     3.205575     0.707708
| 47> H     2.567628     2.543364    -0.689736
| 48> C     2.915880     1.551267     1.113677
| 49> N     3.150739     0.574784     1.698696
| 50> *
| 51>
| 52>                          ****END OF INPUT****

CARTESIAN COORDINATES (ANGSTROEM)
---------------------------------
  C      3.785807   -1.761629   -0.725499
  H      3.142000   -2.629785   -0.884181
  H      3.810479   -1.534815    0.344467
  H      4.797228   -1.974115   -1.081416
  C      3.239260   -0.609764   -1.436959
  N      2.819403    0.314178   -2.003581
  C     -3.651054    1.989548    0.799495
  H     -2.611246    2.030778    1.136939
  H     -4.225119    1.393526    1.512991
  H     -4.062876    3.000242    0.740789
  C     -3.692496    1.354103   -0.514442
  N     -3.716616    0.842919   -1.558199
  C      0.377155   -0.892913    2.500200
  H     -0.397490   -1.405445    3.075544
  H      0.055627    0.135529    2.309701
  H      1.323986   -0.877162    3.044542
  C      0.559309   -1.564600    1.217420
  N      0.688078   -2.104498    0.195125
  C     -0.387749    0.183244   -2.199394
  H     -1.417049    0.170455   -2.569911
  H     -0.022404   -0.836451   -2.043505
  H      0.269159    0.676987   -2.919288
  C     -0.344018    0.898908   -0.928041
  N     -0.324032    1.475101    0.081965
  C     -2.651481   -2.332537   -0.730288
  H     -3.273040   -3.230755   -0.688101
  H     -1.615514   -2.618677   -0.936479
  H     -3.022121   -1.673823   -1.521846
  C     -2.709224   -1.625421    0.545835
  N     -2.756635   -1.059998    1.560346
  C      2.643461    2.781134    0.375441
  H      3.451754    3.499125    0.536647
  H      1.693333    3.205575    0.707708
  H      2.567628    2.543364   -0.689736
  C      2.915880    1.551267    1.113677
  N      3.150739    0.574784    1.698696

 Total Charge           Charge          ....    0
 Multiplicity           Mult            ....    1
 Number of Electrons    NEL             ....  132
 Basis Dimension        Dim             ....  666

ORBITAL ENERGIES
----------------

  NO   OCC          E(Eh)            E(eV)
   0   2.0000     -15.566477      -423.5854
   1   2.0000     -15.565295      -423.5532
   2   2.0000     -15.563459      -423.5032
   3   2.0000     -15.563314      -423.4993
   4   2.0000     -15.561924      -423.4615
   5   2.0000     -15.561354      -423.4460
   6   2.0000     -11.280359      -306.9542
   7   2.0000     -11.280137      -306.9481
   8   2.0000     -11.279471      -306.9300
   9   2.0000     -11.279259      -306.9242
  10   2.0000     -11.278613      -306.9067
  11   2.0000     -11.278375      -306.9002
  12   2.0000     -11.267965      -306.6169
  13   2.0000     -11.264423      -306.5205
  14   2.0000     -11.263342      -306.4911
  15   2.0000     -11.263093      -306.4844
  16   2.0000     -11.257728      -306.3384
  17   2.0000     -11.254158      -306.2412
  18   2.0000      -1.218522       -33.1577
  19   2.0000      -1.215607       -33.0784
  20   2.0000      -1.213892       -33.0317
  21   2.0000      -1.212543       -32.9950
  22   2.0000      -1.211064       -32.9547
  23   2.0000      -1.210261       -32.9329
  24   2.0000      -1.028395       -27.9840
  25   2.0000      -1.023792       -27.8588
  26   2.0000      -1.023498       -27.8508
  27   2.0000      -1.021894       -27.8072
  28   2.0000      -1.018908       -27.7259
  29   2.0000      -1.015552       -27.6346
  30   2.0000      -0.688323       -18.7302
  31   2.0000      -0.684124       -18.6160
  32   2.0000      -0.682807       -18.5801
  33   2.0000      -0.680650       -18.5214
  34   2.0000      -0.678481       -18.4624
  35   2.0000      -0.675289       -18.3756
  36   2.0000      -0.628012       -17.0891
  37   2.0000      -0.625140       -17.0109
  38   2.0000      -0.621031       -16.8991
  39   2.0000      -0.617063       -16.7911
  40   2.0000      -0.615132       -16.7386
  41   2.0000      -0.614594       -16.7240
  42   2.0000      -0.611244       -16.6328
  43   2.0000      -0.607865       -16.5408
  44   2.0000      -0.605578       -16.4786
  45   2.0000      -0.602071       -16.3832
  46   2.0000      -0.600757       -16.3474
  47   2.0000      -0.596642       -16.2355
  48   2.0000      -0.557932       -15.1821
  49   2.0000      -0.554910       -15.0999
  50   2.0000      -0.553104       -15.0507
  51   2.0000      -0.551868       -15.0171
  52   2.0000      -0.551172       -14.9981
  53   2.0000      -0.549663       -14.9571
  54   2.0000      -0.465676       -12.6717
  55   2.0000      -0.464527       -12.6404
  56   2.0000      -0.461496       -12.5579
  57   2.0000      -0.458163       -12.4673
  58   2.0000      -0.456852       -12.4316
  59   2.0000      -0.455149       -12.3852
  60   2.0000      -0.454575       -12.3696
  61   2.0000      -0.452470       -12.3123
  62   2.0000      -0.451834       -12.2950
  63   2.0000      -0.450106       -12.2480
  64   2.0000      -0.447856       -12.1868
  65   2.0000      -0.447144       -12.1674
  66   0.0000       0.130276         3.5450
  67   0.0000       0.146248         3.9796
  68   0.0000       0.151031         4.1097
  69   0.0000       0.155648         4.2354
  70   0.0000       0.161309         4.3894

MULLIKEN ATOMIC CHARGES
-----------------------
   0 C :   -0.287123
   1 H :    0.181095
   2 H :    0.194517
   3 H :    0.168584
   4 C :   -0.075029
   5 N :   -0.181698
   6 C :   -0.273168
   7 H :    0.192965
   8 H :    0.177934
   9 H :    0.167505
  10 C :   -0.096678
  11 N :   -0.170412
  12 C :   -0.270853
  13 H :    0.180515
  14 H :    0.184149
  15 H :    0.187609
  16 C :   -0.055552
  17 N :   -0.226322
  18 C :   -0.294691
  19 H :    0.197849
  20 H :    0.178076
  21 H :    0.190135
  22 C :   -0.031560
  23 N :   -0.238296
  24 C :   -0.296321
  25 H :    0.173753
  26 H :    0.187918
  27 H :    0.191567
  28 C :   -0.097602
  29 N :   -0.159133
  30 C :   -0.287422
  31 H :    0.168966
  32 H :    0.179652
  33 H :    0.194148
  34 C :   -0.072599
  35 N :   -0.182477
Sum of atomic charges:   -0.0000000

LOEWDIN ATOMIC CHARGES
----------------------
   0 C :   -0.284590
   1 H :    0.152596
   2 H :    0.155395
   3 H :    0.146844
   4 C :   -0.198267
   5 N :    0.028753
   6 C :   -0.283573
   7 H :    0.155561
   8 H :    0.153502
   9 H :    0.147042
  10 C :   -0.200988
  11 N :    0.022472
  12 C :   -0.285884
  13 H :    0.150663
  14 H :    0.155783
  15 H :    0.151000
  16 C :   -0.194266
  17 N :    0.017713
  18 C :   -0.286357
  19 H :    0.149935
  20 H :    0.151395
  21 H :    0.153841
  22 C :   -0.193381
  23 N :    0.025826
  24 C :   -0.282760
  25 H :    0.149672
  26 H :    0.151940
  27 H :    0.152947
  28 C :   -0.202416
  29 N :    0.038831
  30 C :   -0.284552
  31 H :    0.146902
  32 H :    0.152343
  33 H :    0.155233
  34 C :   -0.197747
  35 N :    0.028592

  Mayer bond orders larger than 0.100000
B(  0-C ,  1-H ) :   0.9143 B(  0-C ,  2-H ) :   0.9090 B(  0-C ,  3-H ) :   0.9101
B(  0-C ,  4-C ) :   0.8943 B(  4-C ,  5-N ) :   2.7327 B(  6-C ,  7-H ) :   0.9056
B(  6-C ,  8-H ) :   0.9124 B(  6-C ,  9-H ) :   0.9108 B(  6-C , 10-C ) :   0.9069
B( 10-C , 11-N ) :   2.7440 B( 12-C , 13-H ) :   0.9043 B( 12-C , 14-H ) :   0.9126
B( 12-C , 15-H ) :   0.9066 B( 12-C , 16-C ) :   0.9013 B( 16-C , 17-N ) :   2.6737
B( 18-C , 19-H ) :   0.9022 B( 18-C , 20-H ) :   0.9164 B( 18-C , 21-H ) :   0.9039
B( 18-C , 22-C ) :   0.8906 B( 22-C , 23-N ) :   2.6337 B( 24-C , 25-H ) :   0.9079
B( 24-C , 26-H ) :   0.9120 B( 24-C , 27-H ) :   0.9097 B( 24-C , 28-C ) :   0.8920
B( 28-C , 29-N ) :   2.7472 B( 30-C , 31-H ) :   0.9101 B( 30-C , 32-H ) :   0.9145
B( 30-C , 33-H ) :   0.9094 B( 30-C , 34-C ) :   0.8948 B( 34-C , 35-N ) :   2.7303

MP2 TOTAL ENERGY:     -794.959023307 Eh
FINAL SINGLE POINT ENERGY      -794.959023306684

DIPOLE MOMENT
-------------
                                X             Y             Z
Electronic contribution:     -0.30200       0.12952       0.02782
Nuclear contribution   :      0.46651      -0.12600       0.07520
                        -----------------------------------------
Total Dipole Moment    :      0.16450       0.00351       0.10302
                        -----------------------------------------
Magnitude (a.u.)       :      0.19413
Magnitude (Debye)      :      0.49344

Rotational constants in cm-1:     0.016278     0.007898     0.007420
Rotational constants in MHz :   488.008969   236.785275   222.445810

                             ****ORCA TERMINATED NORMALLY****
TOTAL RUN TIME: 0 days 0 hours 47 minutes 29 seconds 947 msec
