                         Program Version 4.2.0 -  RELEASE  -
|  1> # 12meoh.boyd.etal.mol1,9,10
|  2> ! MP2 def2-TZVP EnGrad TightSCF
|  3>
|  4> %pal
|  5>     nprocs 6
|  6> end
|  7>
|  8> %maxcore 8000
|  9>
| 10> %scf
| 11>     ConvForced true
| 12> end
| 13>
| 14> *xyz 0 1
| 15> O   0.666045193  -2.600503172   0.138317521
| 16> H  -0.227115049  -2.712051982  -0.281868004
| 17> C   0.490021232  -1.851247678   1.341189459
| 18> H   1.466500502  -1.466176022   1.645844415
| 19> H   0.097564527  -2.488364683   2.146902740
| 20> H  -0.187588112  -1.000787499   1.200739571
| 21> O   1.390610024   3.194080770  -1.536658882
| 22> H   2.162932299   2.881562730  -0.993525056
| 23> C   1.202977189   4.580367182  -1.302880219
| 24> H   0.374773115   4.915764831  -1.934164643
| 25> H   2.098649340   5.157710875  -1.570472348
| 26> H   0.950320401   4.800436015  -0.254328827
| 27> O  -5.201143618   0.064582726  -0.172223772
| 28> H  -4.686891530   0.869258890   0.107806143
| 29> C  -6.513192168   0.171391798   0.359883449
| 30> H  -7.049381312  -0.749234190   0.111361174
| 31> H  -7.057741163   1.017801101  -0.081819420
| 32> H  -6.514770575   0.292264928   1.453058834
| 33> *
| 34>
| 35>                          ****END OF INPUT****

CARTESIAN COORDINATES (ANGSTROEM)
---------------------------------
  O      0.666045   -2.600503    0.138318
  H     -0.227115   -2.712052   -0.281868
  C      0.490021   -1.851248    1.341189
  H      1.466501   -1.466176    1.645844
  H      0.097565   -2.488365    2.146903
  H     -0.187588   -1.000787    1.200740
  O      1.390610    3.194081   -1.536659
  H      2.162932    2.881563   -0.993525
  C      1.202977    4.580367   -1.302880
  H      0.374773    4.915765   -1.934165
  H      2.098649    5.157711   -1.570472
  H      0.950320    4.800436   -0.254329
  O     -5.201144    0.064583   -0.172224
  H     -4.686892    0.869259    0.107806
  C     -6.513192    0.171392    0.359883
  H     -7.049381   -0.749234    0.111361
  H     -7.057741    1.017801   -0.081819
  H     -6.514771    0.292265    1.453059

 Total Charge           Charge          ....    0
 Multiplicity           Mult            ....    1
 Number of Electrons    NEL             ....   54
 Basis Dimension        Dim             ....  258

ORBITAL ENERGIES
----------------

  NO   OCC          E(Eh)            E(eV)
   0   2.0000     -20.559746      -559.4591
   1   2.0000     -20.557940      -559.4100
   2   2.0000     -20.552160      -559.2527
   3   2.0000     -11.273231      -306.7602
   4   2.0000     -11.272540      -306.7414
   5   2.0000     -11.268024      -306.6185
   6   2.0000      -1.349813       -36.7303
   7   2.0000      -1.348657       -36.6988
   8   2.0000      -1.340354       -36.4729
   9   2.0000      -0.921101       -25.0644
  10   2.0000      -0.920395       -25.0452
  11   2.0000      -0.915966       -24.9247
  12   2.0000      -0.684344       -18.6220
  13   2.0000      -0.683420       -18.5968
  14   2.0000      -0.676170       -18.3995
  15   2.0000      -0.618766       -16.8375
  16   2.0000      -0.617933       -16.8148
  17   2.0000      -0.612361       -16.6632
  18   2.0000      -0.593543       -16.1511
  19   2.0000      -0.592977       -16.1357
  20   2.0000      -0.585758       -15.9393
  21   2.0000      -0.501888       -13.6571
  22   2.0000      -0.499981       -13.6052
  23   2.0000      -0.496741       -13.5170
  24   2.0000      -0.450651       -12.2628
  25   2.0000      -0.449230       -12.2242
  26   2.0000      -0.444770       -12.1028
  27   0.0000       0.127239         3.4623
  28   0.0000       0.133751         3.6396
  29   0.0000       0.144877         3.9423
  30   0.0000       0.172502         4.6940
  31   0.0000       0.173778         4.7287

MULLIKEN ATOMIC CHARGES
-----------------------
   0 O :   -0.498512
   1 H :    0.325283
   2 C :   -0.173921
   3 H :    0.124116
   4 H :    0.109370
   5 H :    0.113598
   6 O :   -0.496124
   7 H :    0.323147
   8 C :   -0.171620
   9 H :    0.128754
  10 H :    0.109748
  11 H :    0.106132
  12 O :   -0.497727
  13 H :    0.322515
  14 C :   -0.172562
  15 H :    0.129457
  16 H :    0.109751
  17 H :    0.108595
Sum of atomic charges:    0.0000000

LOEWDIN ATOMIC CHARGES
----------------------
   0 O :   -0.112676
   1 H :    0.191316
   2 C :   -0.378445
   3 H :    0.107599
   4 H :    0.095648
   5 H :    0.096518
   6 O :   -0.105100
   7 H :    0.191263
   8 C :   -0.386342
   9 H :    0.110298
  10 H :    0.095492
  11 H :    0.094414
  12 O :   -0.107578
  13 H :    0.191278
  14 C :   -0.384868
  15 H :    0.110500
  16 H :    0.095495
  17 H :    0.095189

  Mayer bond orders larger than 0.100000
B(  0-O ,  1-H ) :   0.8413 B(  0-O ,  2-C ) :   0.9299 B(  2-C ,  3-H ) :   0.9384
B(  2-C ,  4-H ) :   0.9378 B(  2-C ,  5-H ) :   0.9412 B(  6-O ,  7-H ) :   0.8409
B(  6-O ,  8-C ) :   0.9290 B(  8-C ,  9-H ) :   0.9375 B(  8-C , 10-H ) :   0.9402
B(  8-C , 11-H ) :   0.9372 B( 12-O , 13-H ) :   0.8415 B( 12-O , 14-C ) :   0.9267
B( 14-C , 15-H ) :   0.9376 B( 14-C , 16-H ) :   0.9391 B( 14-C , 17-H ) :   0.9385

MP2 TOTAL ENERGY:     -346.519985133 Eh
FINAL SINGLE POINT ENERGY      -346.519985132987

DIPOLE MOMENT
-------------
                                X             Y             Z
Electronic contribution:      2.09838      -2.96503      -2.61987
Nuclear contribution   :     -2.54715       4.11632       3.63899
                        -----------------------------------------
Total Dipole Moment    :     -0.44877       1.15129       1.01913
                        -----------------------------------------
Magnitude (a.u.)       :      1.60171
Magnitude (Debye)      :      4.07123

Rotational constants in cm-1:     0.026434     0.014921     0.009834
Rotational constants in MHz :   792.481355   447.331239   294.820155

                             ****ORCA TERMINATED NORMALLY****
TOTAL RUN TIME: 0 days 0 hours 0 minutes 43 seconds 953 msec
