                         Program Version 4.2.0 -  RELEASE  -
|  1> ! MP2 def2-TZVP EnGrad TightSCF FrozenCore
|  2>
|  3> %pal
|  4>     nprocs 8
|  5> end
|  6>
|  7> %maxcore 8000
|  8>
|  9> %scf
| 10>     ConvForced true
| 11> end
| 12>
| 13> *xyz 0 1
| 14> O          0.00000        0.00000        0.00000
| 15> H          0.98610        0.00000        0.00000
| 16> H         -0.26108        0.00000       -0.92880
| 17> O         -0.45306        1.76514        2.26334
| 18> H         -0.47364        1.37778        1.36948
| 19> H         -1.20102        1.32551        2.71865
| 20> O          1.68079        0.37710        3.09244
| 21> H          0.92291        0.99332        2.89120
| 22> H          2.09000        0.71938        3.89644
| 23> O         -0.30738       -1.67784        2.37145
| 24> H         -0.29589       -1.30788        1.46987
| 25> H          0.46000       -1.24591        2.78698
| 26> O          2.67271        0.05048        0.54111
| 27> H          2.52162        0.16934        1.50503
| 28> H          3.22610       -0.73722        0.46978
| 29> O         -2.15908       -0.01397        3.57567
| 30> H         -1.64205       -0.75532        3.18667
| 31> H         -3.08257       -0.28767        3.53171
| 32> *
| 33>
| 34>
| 35>                          ****END OF INPUT****

CARTESIAN COORDINATES (ANGSTROEM)
---------------------------------
  O      0.000000    0.000000    0.000000
  H      0.986100    0.000000    0.000000
  H     -0.261080    0.000000   -0.928800
  O     -0.453060    1.765140    2.263340
  H     -0.473640    1.377780    1.369480
  H     -1.201020    1.325510    2.718650
  O      1.680790    0.377100    3.092440
  H      0.922910    0.993320    2.891200
  H      2.090000    0.719380    3.896440
  O     -0.307380   -1.677840    2.371450
  H     -0.295890   -1.307880    1.469870
  H      0.460000   -1.245910    2.786980
  O      2.672710    0.050480    0.541110
  H      2.521620    0.169340    1.505030
  H      3.226100   -0.737220    0.469780
  O     -2.159080   -0.013970    3.575670
  H     -1.642050   -0.755320    3.186670
  H     -3.082570   -0.287670    3.531710

 Total Charge           Charge          ....    0
 Multiplicity           Mult            ....    1
 Number of Electrons    NEL             ....   60
 Basis Dimension        Dim             ....  258

ORBITAL ENERGIES
----------------

  NO   OCC          E(Eh)            E(eV)
   0   2.0000     -20.572770      -559.8135
   1   2.0000     -20.568436      -559.6956
   2   2.0000     -20.567950      -559.6824
   3   2.0000     -20.549210      -559.1724
   4   2.0000     -20.548774      -559.1606
   5   2.0000     -20.543668      -559.0216
   6   2.0000      -1.369685       -37.2710
   7   2.0000      -1.356876       -36.9225
   8   2.0000      -1.350033       -36.7363
   9   2.0000      -1.341119       -36.4937
  10   2.0000      -1.332639       -36.2629
  11   2.0000      -1.322225       -35.9796
  12   2.0000      -0.742840       -20.2137
  13   2.0000      -0.728838       -19.8327
  14   2.0000      -0.718134       -19.5414
  15   2.0000      -0.714240       -19.4355
  16   2.0000      -0.698282       -19.0012
  17   2.0000      -0.694655       -18.9025
  18   2.0000      -0.635503       -17.2929
  19   2.0000      -0.602365       -16.3912
  20   2.0000      -0.594036       -16.1645
  21   2.0000      -0.578910       -15.7529
  22   2.0000      -0.575185       -15.6516
  23   2.0000      -0.551164       -14.9979
  24   2.0000      -0.521654       -14.1949
  25   2.0000      -0.517631       -14.0855
  26   2.0000      -0.514151       -13.9908
  27   2.0000      -0.499190       -13.5837
  28   2.0000      -0.493653       -13.4330
  29   2.0000      -0.489636       -13.3237
  30   0.0000       0.114600         3.1184
  31   0.0000       0.145876         3.9695
  32   0.0000       0.150118         4.0849
  33   0.0000       0.162846         4.4313
  34   0.0000       0.228292         6.2121

MULLIKEN ATOMIC CHARGES
-----------------------
   0 O :   -0.747548
   1 H :    0.388254
   2 H :    0.350558
   3 O :   -0.732113
   4 H :    0.364138
   5 H :    0.388435
   6 O :   -0.764509
   7 H :    0.396393
   8 H :    0.352976
   9 O :   -0.726021
  10 H :    0.366824
  11 H :    0.367214
  12 O :   -0.718657
  13 H :    0.382427
  14 H :    0.346200
  15 O :   -0.729423
  16 H :    0.377007
  17 H :    0.337846
Sum of atomic charges:    0.0000000

LOEWDIN ATOMIC CHARGES
----------------------
   0 O :   -0.316256
   1 H :    0.153520
   2 H :    0.163400
   3 O :   -0.296112
   4 H :    0.150247
   5 H :    0.154637
   6 O :   -0.318383
   7 H :    0.152581
   8 H :    0.163243
   9 O :   -0.304228
  10 H :    0.150398
  11 H :    0.153275
  12 O :   -0.305923
  13 H :    0.153273
  14 H :    0.162622
  15 O :   -0.326053
  16 H :    0.151138
  17 H :    0.158620

  Mayer bond orders larger than 0.100000
B(  0-O ,  1-H ) :   0.7572 B(  0-O ,  2-H ) :   0.8412 B(  3-O ,  4-H ) :   0.8100
B(  3-O ,  5-H ) :   0.7814 B(  3-O ,  7-H ) :   0.1232 B(  6-O ,  7-H ) :   0.7215
B(  6-O ,  8-H ) :   0.8389 B(  9-O , 10-H ) :   0.8094 B(  9-O , 11-H ) :   0.8148
B( 12-O , 13-H ) :   0.7743 B( 12-O , 14-H ) :   0.8440 B( 15-O , 16-H ) :   0.7718
B( 15-O , 17-H ) :   0.8491

MP2 TOTAL ENERGY:     -457.960669969 Eh
FINAL SINGLE POINT ENERGY      -457.960669968867

DIPOLE MOMENT
-------------
                                X             Y             Z
Electronic contribution:      0.02854       0.13814       0.06167
Nuclear contribution   :      0.31839      -0.62468      -0.65841
                        -----------------------------------------
Total Dipole Moment    :      0.34694      -0.48654      -0.59674
                        -----------------------------------------
Magnitude (a.u.)       :      0.84450
Magnitude (Debye)      :      2.14655

Rotational constants in cm-1:     0.074705     0.038400     0.036751
Rotational constants in MHz :  2239.599605  1151.210586  1101.778079

                             ****ORCA TERMINATED NORMALLY****
TOTAL RUN TIME: 0 days 0 hours 1 minutes 19 seconds 987 msec
