                         Program Version 4.2.0 -  RELEASE  -
|  1> # 12h2o.su.etal.mol0,1,2,3,4,5,8,10,11
|  2> ! MP2 def2-TZVP EnGrad TightSCF
|  3>
|  4> %pal
|  5>     nprocs 6
|  6> end
|  7>
|  8> %maxcore 8000
|  9>
| 10> %scf
| 11>     ConvForced true
| 12> end
| 13>
| 14> *xyz 0 1
| 15> O   1.794470000   0.923410000   2.768350000
| 16> H   2.338250000   1.359750000   3.430940000
| 17> H   0.879480000   1.303000000   2.865760000
| 18> O  -1.794470000  -0.923410000   2.768350000
| 19> H  -2.338250000  -1.359750000   3.430940000
| 20> H  -0.879480000  -1.303000000   2.865760000
| 21> O   0.923410000  -1.794470000  -2.768350000
| 22> H   1.359750000  -2.338250000  -3.430940000
| 23> H   1.303000000  -0.879480000  -2.865760000
| 24> O  -1.752130000  -0.741530000  -2.896280000
| 25> H  -2.036450000  -0.920500000  -1.984040000
| 26> H  -0.921210000  -1.242140000  -2.984230000
| 27> O  -0.885520000   1.737840000   0.052730000
| 28> H  -1.032320000   2.090180000  -0.841890000
| 29> H  -1.284090000   0.839590000   0.017130000
| 30> O   0.885520000  -1.737840000   0.052730000
| 31> H   1.284090000  -0.839590000   0.017130000
| 32> H   1.032320000  -2.090180000  -0.841890000
| 33> O   1.752130000   0.741530000  -2.896280000
| 34> H   2.036450000   0.920500000  -1.984040000
| 35> H   0.921210000   1.242140000  -2.984230000
| 36> O  -0.923410000   1.794470000  -2.768350000
| 37> H  -1.359750000   2.338250000  -3.430940000
| 38> H  -1.303000000   0.879480000  -2.865760000
| 39> O  -0.741530000   1.752130000   2.896280000
| 40> H  -0.920500000   2.036450000   1.984040000
| 41> H  -1.242140000   0.921210000   2.984230000
| 42> *
| 43>
| 44>                          ****END OF INPUT****

CARTESIAN COORDINATES (ANGSTROEM)
---------------------------------
  O      1.794470    0.923410    2.768350
  H      2.338250    1.359750    3.430940
  H      0.879480    1.303000    2.865760
  O     -1.794470   -0.923410    2.768350
  H     -2.338250   -1.359750    3.430940
  H     -0.879480   -1.303000    2.865760
  O      0.923410   -1.794470   -2.768350
  H      1.359750   -2.338250   -3.430940
  H      1.303000   -0.879480   -2.865760
  O     -1.752130   -0.741530   -2.896280
  H     -2.036450   -0.920500   -1.984040
  H     -0.921210   -1.242140   -2.984230
  O     -0.885520    1.737840    0.052730
  H     -1.032320    2.090180   -0.841890
  H     -1.284090    0.839590    0.017130
  O      0.885520   -1.737840    0.052730
  H      1.284090   -0.839590    0.017130
  H      1.032320   -2.090180   -0.841890
  O      1.752130    0.741530   -2.896280
  H      2.036450    0.920500   -1.984040
  H      0.921210    1.242140   -2.984230
  O     -0.923410    1.794470   -2.768350
  H     -1.359750    2.338250   -3.430940
  H     -1.303000    0.879480   -2.865760
  O     -0.741530    1.752130    2.896280
  H     -0.920500    2.036450    1.984040
  H     -1.242140    0.921210    2.984230

 Total Charge           Charge          ....    0
 Multiplicity           Mult            ....    1
 Number of Electrons    NEL             ....   90
 Basis Dimension        Dim             ....  387

ORBITAL ENERGIES
----------------

  NO   OCC          E(Eh)            E(eV)
   0   2.0000     -20.589171      -560.2598
   1   2.0000     -20.585666      -560.1645
   2   2.0000     -20.582720      -560.0843
   3   2.0000     -20.580679      -560.0287
   4   2.0000     -20.577349      -559.9381
   5   2.0000     -20.560335      -559.4752
   6   2.0000     -20.535184      -558.7908
   7   2.0000     -20.531146      -558.6809
   8   2.0000     -20.500885      -557.8574
   9   2.0000      -1.387667       -37.7603
  10   2.0000      -1.376472       -37.4557
  11   2.0000      -1.366512       -37.1847
  12   2.0000      -1.358773       -36.9741
  13   2.0000      -1.355404       -36.8824
  14   2.0000      -1.341771       -36.5114
  15   2.0000      -1.322267       -35.9807
  16   2.0000      -1.313942       -35.7542
  17   2.0000      -1.281976       -34.8843
  18   2.0000      -0.750037       -20.4096
  19   2.0000      -0.746827       -20.3222
  20   2.0000      -0.737087       -20.0572
  21   2.0000      -0.731394       -19.9022
  22   2.0000      -0.725558       -19.7434
  23   2.0000      -0.712056       -19.3760
  24   2.0000      -0.687646       -18.7118
  25   2.0000      -0.683952       -18.6113
  26   2.0000      -0.667795       -18.1716
  27   2.0000      -0.646247       -17.5853
  28   2.0000      -0.620386       -16.8816
  29   2.0000      -0.609905       -16.5963
  30   2.0000      -0.605299       -16.4710
  31   2.0000      -0.591464       -16.0946
  32   2.0000      -0.580962       -15.8088
  33   2.0000      -0.561802       -15.2874
  34   2.0000      -0.559297       -15.2193
  35   2.0000      -0.532769       -14.4974
  36   2.0000      -0.531736       -14.4693
  37   2.0000      -0.528137       -14.3713
  38   2.0000      -0.526485       -14.3264
  39   2.0000      -0.519939       -14.1483
  40   2.0000      -0.515409       -14.0250
  41   2.0000      -0.506224       -13.7751
  42   2.0000      -0.480663       -13.0795
  43   2.0000      -0.471096       -12.8192
  44   2.0000      -0.451811       -12.2944
  45   0.0000       0.092303         2.5117
  46   0.0000       0.124345         3.3836
  47   0.0000       0.134039         3.6474
  48   0.0000       0.142748         3.8844
  49   0.0000       0.151637         4.1262

MULLIKEN ATOMIC CHARGES
-----------------------
   0 O :   -0.741228
   1 H :    0.318436
   2 H :    0.369891
   3 O :   -0.709448
   4 H :    0.350594
   5 H :    0.380542
   6 O :   -0.757228
   7 H :    0.353952
   8 H :    0.381066
   9 O :   -0.706877
  10 H :    0.356572
  11 H :    0.384169
  12 O :   -0.715543
  13 H :    0.374135
  14 H :    0.334645
  15 O :   -0.705031
  16 H :    0.332271
  17 H :    0.362222
  18 O :   -0.707833
  19 H :    0.361047
  20 H :    0.382297
  21 O :   -0.758432
  22 H :    0.355880
  23 H :    0.382526
  24 O :   -0.719527
  25 H :    0.382188
  26 H :    0.358710
Sum of atomic charges:    0.0000000

LOEWDIN ATOMIC CHARGES
----------------------
   0 O :   -0.378352
   1 H :    0.145432
   2 H :    0.142046
   3 O :   -0.314180
   4 H :    0.162813
   5 H :    0.195280
   6 O :   -0.315086
   7 H :    0.160731
   8 H :    0.145382
   9 O :   -0.278678
  10 H :    0.170614
  11 H :    0.156094
  12 O :   -0.324589
  13 H :    0.151401
  14 H :    0.165523
  15 O :   -0.347557
  16 H :    0.164100
  17 H :    0.145790
  18 O :   -0.278732
  19 H :    0.172702
  20 H :    0.155205
  21 O :   -0.314970
  22 H :    0.161779
  23 H :    0.145527
  24 O :   -0.290909
  25 H :    0.155634
  26 H :    0.147000

  Mayer bond orders larger than 0.100000
B(  0-O ,  1-H ) :   0.8636 B(  0-O ,  2-H ) :   0.7658 B(  2-H , 24-O ) :   0.1057
B(  3-O ,  4-H ) :   0.8427 B(  3-O ,  5-H ) :   0.8142 B(  6-O ,  7-H ) :   0.8382
B(  6-O ,  8-H ) :   0.7341 B(  8-H , 18-O ) :   0.1122 B(  9-O , 10-H ) :   0.8368
B(  9-O , 11-H ) :   0.7828 B(  9-O , 23-H ) :   0.1138 B( 12-O , 13-H ) :   0.8053
B( 12-O , 14-H ) :   0.8417 B( 15-O , 16-H ) :   0.8467 B( 15-O , 17-H ) :   0.8195
B( 18-O , 19-H ) :   0.8338 B( 18-O , 20-H ) :   0.7871 B( 21-O , 22-H ) :   0.8375
B( 21-O , 23-H ) :   0.7333 B( 24-O , 25-H ) :   0.8055 B( 24-O , 26-H ) :   0.8106

MP2 TOTAL ENERGY:     -686.910678594 Eh
FINAL SINGLE POINT ENERGY      -686.910678594343

DIPOLE MOMENT
-------------
                                X             Y             Z
Electronic contribution:     -0.26188      -0.02782      -0.41267
Nuclear contribution   :     -0.56566      -0.45497      -0.86245
                        -----------------------------------------
Total Dipole Moment    :     -0.82753      -0.48279      -1.27512
                        -----------------------------------------
Magnitude (a.u.)       :      1.59494
Magnitude (Debye)      :      4.05400

Rotational constants in cm-1:     0.027670     0.013015     0.012544
Rotational constants in MHz :   829.526809   390.171000   376.049279

                             ****ORCA TERMINATED NORMALLY****
TOTAL RUN TIME: 0 days 0 hours 6 minutes 14 seconds 481 msec
