                         Program Version 4.2.0 -  RELEASE  -
|  1> # 12mecn.remya.etal.2.mol3,5
|  2> ! MP2 def2-TZVP EnGrad TightSCF
|  3>
|  4> %pal
|  5>     nprocs 6
|  6> end
|  7>
|  8> %maxcore 8000
|  9>
| 10> %scf
| 11>     ConvForced true
| 12> end
| 13>
| 14> *xyz 0 1
| 15> C  -5.181310000   2.853865000  -1.626100000
| 16> H  -5.488260000   3.811434000  -2.053310000
| 17> H  -5.857590000   2.068112000  -1.968630000
| 18> H  -4.170750000   2.611402000  -1.966640000
| 19> C  -5.187260000   2.919160000  -0.181450000
| 20> N  -5.181700000   2.970641000   0.983640000
| 21> C  -1.955700000   2.515080000   1.698463000
| 22> H  -2.923830000   2.883163000   2.049269000
| 23> H  -1.154850000   3.171830000   2.050990000
| 24> H  -1.790380000   1.506115000   2.087896000
| 25> C  -1.948230000   2.482156000   0.253672000
| 26> N  -1.937550000   2.462523000  -0.913150000
| 27> *
| 28>
| 29>                          ****END OF INPUT****

CARTESIAN COORDINATES (ANGSTROEM)
---------------------------------
  C     -5.181310    2.853865   -1.626100
  H     -5.488260    3.811434   -2.053310
  H     -5.857590    2.068112   -1.968630
  H     -4.170750    2.611402   -1.966640
  C     -5.187260    2.919160   -0.181450
  N     -5.181700    2.970641    0.983640
  C     -1.955700    2.515080    1.698463
  H     -2.923830    2.883163    2.049269
  H     -1.154850    3.171830    2.050990
  H     -1.790380    1.506115    2.087896
  C     -1.948230    2.482156    0.253672
  N     -1.937550    2.462523   -0.913150

 Total Charge           Charge          ....    0
 Multiplicity           Mult            ....    1
 Number of Electrons    NEL             ....   44
 Basis Dimension        Dim             ....  222

ORBITAL ENERGIES
----------------

  NO   OCC          E(Eh)            E(eV)
   0   2.0000     -15.571506      -423.7222
   1   2.0000     -15.571398      -423.7193
   2   2.0000     -11.283424      -307.0376
   3   2.0000     -11.283393      -307.0367
   4   2.0000     -11.272114      -306.7298
   5   2.0000     -11.271440      -306.7115
   6   2.0000      -1.218570       -33.1590
   7   2.0000      -1.214302       -33.0428
   8   2.0000      -1.036488       -28.2043
   9   2.0000      -1.033614       -28.1261
  10   2.0000      -0.695625       -18.9289
  11   2.0000      -0.690931       -18.8012
  12   2.0000      -0.630983       -17.1699
  13   2.0000      -0.623281       -16.9603
  14   2.0000      -0.621256       -16.9052
  15   2.0000      -0.613914       -16.7054
  16   2.0000      -0.559558       -15.2263
  17   2.0000      -0.556239       -15.1360
  18   2.0000      -0.460632       -12.5344
  19   2.0000      -0.459253       -12.4969
  20   2.0000      -0.457184       -12.4406
  21   2.0000      -0.456187       -12.4135
  22   0.0000       0.128205         3.4886
  23   0.0000       0.142483         3.8772
  24   0.0000       0.169254         4.6056
  25   0.0000       0.172547         4.6953
  26   0.0000       0.178579         4.8594

MULLIKEN ATOMIC CHARGES
-----------------------
   0 C :   -0.287140
   1 H :    0.166647
   2 H :    0.166160
   3 H :    0.206329
   4 C :   -0.102083
   5 N :   -0.150087
   6 C :   -0.284749
   7 H :    0.205300
   8 H :    0.167026
   9 H :    0.166693
  10 C :   -0.101615
  11 N :   -0.152481
Sum of atomic charges:   -0.0000000

LOEWDIN ATOMIC CHARGES
----------------------
   0 C :   -0.282338
   1 H :    0.151285
   2 H :    0.150560
   3 H :    0.157364
   4 C :   -0.206798
   5 N :    0.030092
   6 C :   -0.282406
   7 H :    0.156903
   8 H :    0.151305
   9 H :    0.152958
  10 C :   -0.207812
  11 N :    0.028885

  Mayer bond orders larger than 0.100000
B(  0-C ,  1-H ) :   0.9145 B(  0-C ,  2-H ) :   0.9162 B(  0-C ,  3-H ) :   0.9012
B(  0-C ,  4-C ) :   0.9026 B(  4-C ,  5-N ) :   2.7719 B(  6-C ,  7-H ) :   0.9013
B(  6-C ,  8-H ) :   0.9162 B(  6-C ,  9-H ) :   0.9146 B(  6-C , 10-C ) :   0.9013
B( 10-C , 11-N ) :   2.7695

MP2 TOTAL ENERGY:     -264.976188435 Eh
FINAL SINGLE POINT ENERGY      -264.976188434832

DIPOLE MOMENT
-------------
                                X             Y             Z
Electronic contribution:     -0.00920       0.09441       0.01417
Nuclear contribution   :      0.00380      -0.13574      -0.01331
                        -----------------------------------------
Total Dipole Moment    :     -0.00540      -0.04134       0.00086
                        -----------------------------------------
Magnitude (a.u.)       :      0.04170
Magnitude (Debye)      :      0.10598

Rotational constants in cm-1:     0.166671     0.068875     0.049661
Rotational constants in MHz :  4996.679691  2064.833294  1488.803841

                             ****ORCA TERMINATED NORMALLY****
TOTAL RUN TIME: 0 days 0 hours 1 minutes 23 seconds 454 msec
