                         Program Version 4.2.0 -  RELEASE  -
|  1> # 12mecn.remya.etal.2.mol0,1
|  2> ! MP2 def2-TZVP EnGrad TightSCF
|  3>
|  4> %pal
|  5>     nprocs 6
|  6> end
|  7>
|  8> %maxcore 8000
|  9>
| 10> %scf
| 11>     ConvForced true
| 12> end
| 13>
| 14> *xyz 0 1
| 15> C  -0.869520000  -3.929380000   1.700199000
| 16> H  -0.057420000  -3.268850000   2.015352000
| 17> H  -0.697530000  -4.930670000   2.101524000
| 18> H  -1.821490000  -3.546590000   2.077146000
| 19> C  -0.916080000  -3.969960000   0.256749000
| 20> N  -0.955390000  -3.995980000  -0.909290000
| 21> C  -4.697980000  -0.249690000   1.746215000
| 22> H  -4.927570000   0.755530000   2.111799000
| 23> H  -3.709180000  -0.561560000   2.093253000
| 24> H  -5.432280000  -0.961520000   2.128066000
| 25> C  -4.714100000  -0.247110000   0.301670000
| 26> N  -4.729750000  -0.234960000  -0.865260000
| 27> *
| 28>
| 29>                          ****END OF INPUT****

CARTESIAN COORDINATES (ANGSTROEM)
---------------------------------
  C     -0.869520   -3.929380    1.700199
  H     -0.057420   -3.268850    2.015352
  H     -0.697530   -4.930670    2.101524
  H     -1.821490   -3.546590    2.077146
  C     -0.916080   -3.969960    0.256749
  N     -0.955390   -3.995980   -0.909290
  C     -4.697980   -0.249690    1.746215
  H     -4.927570    0.755530    2.111799
  H     -3.709180   -0.561560    2.093253
  H     -5.432280   -0.961520    2.128066
  C     -4.714100   -0.247110    0.301670
  N     -4.729750   -0.234960   -0.865260

 Total Charge           Charge          ....    0
 Multiplicity           Mult            ....    1
 Number of Electrons    NEL             ....   44
 Basis Dimension        Dim             ....  222

ORBITAL ENERGIES
----------------

  NO   OCC          E(Eh)            E(eV)
   0   2.0000     -15.573786      -423.7843
   1   2.0000     -15.573779      -423.7841
   2   2.0000     -11.288548      -307.1770
   3   2.0000     -11.288531      -307.1765
   4   2.0000     -11.279827      -306.9397
   5   2.0000     -11.279818      -306.9394
   6   2.0000      -1.214443       -33.0467
   7   2.0000      -1.214354       -33.0442
   8   2.0000      -1.047088       -28.4927
   9   2.0000      -1.046946       -28.4889
  10   2.0000      -0.702778       -19.1236
  11   2.0000      -0.702563       -19.1177
  12   2.0000      -0.637817       -17.3559
  13   2.0000      -0.635934       -17.3046
  14   2.0000      -0.634987       -17.2789
  15   2.0000      -0.633322       -17.2336
  16   2.0000      -0.555491       -15.1157
  17   2.0000      -0.555369       -15.1124
  18   2.0000      -0.458247       -12.4695
  19   2.0000      -0.457678       -12.4540
  20   2.0000      -0.457538       -12.4502
  21   2.0000      -0.456944       -12.4341
  22   0.0000       0.092459         2.5159
  23   0.0000       0.131560         3.5799
  24   0.0000       0.161796         4.4027
  25   0.0000       0.168489         4.5848
  26   0.0000       0.168872         4.5952

MULLIKEN ATOMIC CHARGES
-----------------------
   0 C :   -0.280448
   1 H :    0.172962
   2 H :    0.174640
   3 H :    0.161934
   4 C :   -0.144553
   5 N :   -0.084516
   6 C :   -0.281604
   7 H :    0.175078
   8 H :    0.162659
   9 H :    0.172808
  10 C :   -0.144246
  11 N :   -0.084713
Sum of atomic charges:    0.0000000

LOEWDIN ATOMIC CHARGES
----------------------
   0 C :   -0.285112
   1 H :    0.152498
   2 H :    0.151941
   3 H :    0.149237
   4 C :   -0.221011
   5 N :    0.052457
   6 C :   -0.285314
   7 H :    0.153380
   8 H :    0.149339
   9 H :    0.151206
  10 C :   -0.221036
  11 N :    0.052415

  Mayer bond orders larger than 0.100000
B(  0-C ,  1-H ) :   0.9173 B(  0-C ,  2-H ) :   0.9168 B(  0-C ,  3-H ) :   0.9194
B(  0-C ,  4-C ) :   0.9006 B(  4-C ,  5-N ) :   2.8303 B(  6-C ,  7-H ) :   0.9159
B(  6-C ,  8-H ) :   0.9195 B(  6-C ,  9-H ) :   0.9179 B(  6-C , 10-C ) :   0.9005
B( 10-C , 11-N ) :   2.8303

MP2 TOTAL ENERGY:     -264.964632336 Eh
FINAL SINGLE POINT ENERGY      -264.964632335844

DIPOLE MOMENT
-------------
                                X             Y             Z
Electronic contribution:     -0.14536      -0.07596      -6.30410
Nuclear contribution   :      0.21381       0.10144       9.27867
                        -----------------------------------------
Total Dipole Moment    :      0.06845       0.02548       2.97457
                        -----------------------------------------
Magnitude (a.u.)       :      2.97546
Magnitude (Debye)      :      7.56303

Rotational constants in cm-1:     0.154309     0.028721     0.024441
Rotational constants in MHz :  4626.066754   861.047023   732.729229

                             ****ORCA TERMINATED NORMALLY****
TOTAL RUN TIME: 0 days 0 hours 0 minutes 49 seconds 380 msec
