                         Program Version 3.0.3 - RELEASE   -
|  1> ! wB97X-D3 Def2-TZVP def2-TZVP/J RIJCOSX TightSCF Grid4
|  2>
|  3> %pal nprocs 12 end
|  4>
|  5> %scf
|  6>         maxiter 400
|  7> end
|  8>
|  9> * xyz  0  1
| 10> O  0.555783	0.002361	-1.853259
| 11> H  -0.261039	0.096739	-2.394431
| 12> H  0.463634	0.720148	-1.173534
| 13> O  -2.830278	-1.527679	-0.873606
| 14> H  -1.998713	-1.964864	-0.592676
| 15> H  -3.067564	-0.940577	-0.123794
| 16> O  2.351748	-2.213003	0.720253
| 17> H  2.716348	-1.588448	0.013173
| 18> H  2.974851	-2.949414	0.775272
| 19> O  -2.049100	0.281403	-2.575290
| 20> H  -2.400738	-0.454010	-1.974903
| 21> H  -2.529277	0.201164	-3.410157
| 22> O  -3.075479	0.411367	1.123509
| 23> H  -2.222402	0.249569	1.609697
| 24> H  -3.769761	0.458936	1.793697
| 25> O  1.894978	-0.211760	2.640001
| 26> H  2.138879	-1.014595	2.130608
| 27> H  2.326096	0.506499	2.132394
| 28> O  -0.209353	-1.942148	-0.152911
| 29> H  0.628878	-2.347419	0.164550
| 30> H  0.092724	-1.293768	-0.842372
| 31> O  -0.617534	-0.134611	1.828833
| 32> H  -0.502380	-0.853982	1.153163
| 33> H  0.239281	-0.150236	2.345785
| 34> O  2.791685	1.635420	0.739541
| 35> H  3.304455	2.438071	0.900147
| 36> H  1.872268	1.927836	0.490766
| 37> O  3.127812	-0.466615	-1.056421
| 38> H  3.177563	0.342990	-0.503762
| 39> H  2.333277	-0.330450	-1.613652
| 40> O  0.244381	1.809661	0.157417
| 41> H  -0.074401	1.144869	0.821379
| 42> H  -0.607124	2.226476	-0.170810
| 43> O  -2.172614	2.349773	-0.701753
| 44> H  -2.658045	1.821889	-0.034326
| 45> H  -2.192705	1.765796	-1.491771
| 46> **                         ****END OF INPUT****

CARTESIAN COORDINATES (ANGSTROEM)
---------------------------------
  O      0.555783    0.002361   -1.853259
  H     -0.261039    0.096739   -2.394431
  H      0.463634    0.720148   -1.173534
  O     -2.830278   -1.527679   -0.873606
  H     -1.998713   -1.964864   -0.592676
  H     -3.067564   -0.940577   -0.123794
  O      2.351748   -2.213003    0.720253
  H      2.716348   -1.588448    0.013173
  H      2.974851   -2.949414    0.775272
  O     -2.049100    0.281403   -2.575290
  H     -2.400738   -0.454010   -1.974903
  H     -2.529277    0.201164   -3.410157
  O     -3.075479    0.411367    1.123509
  H     -2.222402    0.249569    1.609697
  H     -3.769761    0.458936    1.793697
  O      1.894978   -0.211760    2.640001
  H      2.138879   -1.014595    2.130608
  H      2.326096    0.506499    2.132394
  O     -0.209353   -1.942148   -0.152911
  H      0.628878   -2.347419    0.164550
  H      0.092724   -1.293768   -0.842372
  O     -0.617534   -0.134611    1.828833
  H     -0.502380   -0.853982    1.153163
  H      0.239281   -0.150236    2.345785
  O      2.791685    1.635420    0.739541
  H      3.304455    2.438071    0.900147
  H      1.872268    1.927836    0.490766
  O      3.127812   -0.466615   -1.056421
  H      3.177563    0.342990   -0.503762
  H      2.333277   -0.330450   -1.613652
  O      0.244381    1.809661    0.157417
  H     -0.074401    1.144869    0.821379
  H     -0.607124    2.226476   -0.170810
  O     -2.172614    2.349773   -0.701753
  H     -2.658045    1.821889   -0.034326
  H     -2.192705    1.765796   -1.491771

 Total Charge           Charge          ....    0
 Multiplicity           Mult            ....    1
 Number of Electrons    NEL             ....  120
 Basis Dimension        Dim             ....  516

ORBITAL ENERGIES
----------------

  NO   OCC          E(Eh)            E(eV)
   0   2.0000     -19.258371      -524.0469
   1   2.0000     -19.256905      -524.0070
   2   2.0000     -19.247746      -523.7578
   3   2.0000     -19.246099      -523.7130
   4   2.0000     -19.237382      -523.4758
   5   2.0000     -19.234657      -523.4016
   6   2.0000     -19.234060      -523.3854
   7   2.0000     -19.233513      -523.3705
   8   2.0000     -19.232213      -523.3351
   9   2.0000     -19.230200      -523.2803
  10   2.0000     -19.224328      -523.1206
  11   2.0000     -19.222302      -523.0654
  12   2.0000      -1.159110       -31.5410
  13   2.0000      -1.152057       -31.3491
  14   2.0000      -1.146484       -31.1974
  15   2.0000      -1.142809       -31.0974
  16   2.0000      -1.135932       -30.9103
  17   2.0000      -1.130064       -30.7506
  18   2.0000      -1.127467       -30.6799
  19   2.0000      -1.120299       -30.4849
  20   2.0000      -1.115733       -30.3606
  21   2.0000      -1.112078       -30.2612
  22   2.0000      -1.108727       -30.1700
  23   2.0000      -1.098027       -29.8788
  24   2.0000      -0.671910       -18.2836
  25   2.0000      -0.669650       -18.2221
  26   2.0000      -0.654562       -17.8115
  27   2.0000      -0.653093       -17.7716
  28   2.0000      -0.645376       -17.5616
  29   2.0000      -0.643055       -17.4984
  30   2.0000      -0.635157       -17.2835
  31   2.0000      -0.626589       -17.0504
  32   2.0000      -0.624809       -17.0019
  33   2.0000      -0.623378       -16.9630
  34   2.0000      -0.622513       -16.9394
  35   2.0000      -0.621526       -16.9126
  36   2.0000      -0.568314       -15.4646
  37   2.0000      -0.550337       -14.9754
  38   2.0000      -0.539048       -14.6682
  39   2.0000      -0.533913       -14.5285
  40   2.0000      -0.518275       -14.1030
  41   2.0000      -0.515620       -14.0307
  42   2.0000      -0.511877       -13.9289
  43   2.0000      -0.508361       -13.8332
  44   2.0000      -0.492088       -13.3904
  45   2.0000      -0.488503       -13.2929
  46   2.0000      -0.479413       -13.0455
  47   2.0000      -0.459047       -12.4913
  48   2.0000      -0.441808       -12.0222
  49   2.0000      -0.439550       -11.9608
  50   2.0000      -0.434472       -11.8226
  51   2.0000      -0.429128       -11.6772
  52   2.0000      -0.425502       -11.5785
  53   2.0000      -0.425353       -11.5744
  54   2.0000      -0.424737       -11.5577
  55   2.0000      -0.418560       -11.3896
  56   2.0000      -0.417908       -11.3718
  57   2.0000      -0.415013       -11.2931
  58   2.0000      -0.405977       -11.0472
  59   2.0000      -0.404415       -11.0047
  60   0.0000       0.081040         2.2052
  61   0.0000       0.102350         2.7851
  62   0.0000       0.117181         3.1887
  63   0.0000       0.118355         3.2206
  64   0.0000       0.158483         4.3125

MULLIKEN ATOMIC CHARGES
-----------------------
   0 O :   -0.743614
   1 H :    0.378780
   2 H :    0.346148
   3 O :   -0.691114
   4 H :    0.384304
   5 H :    0.357714
   6 O :   -0.753449
   7 H :    0.367967
   8 H :    0.352093
   9 O :   -0.756269
  10 H :    0.368768
  11 H :    0.353284
  12 O :   -0.736110
  13 H :    0.390165
  14 H :    0.354628
  15 O :   -0.704957
  16 H :    0.355357
  17 H :    0.351604
  18 O :   -0.747713
  19 H :    0.378817
  20 H :    0.348444
  21 O :   -0.767343
  22 H :    0.352177
  23 H :    0.410573
  24 O :   -0.735624
  25 H :    0.353851
  26 H :    0.390602
  27 O :   -0.694272
  28 H :    0.361900
  29 H :    0.386047
  30 O :   -0.774072
  31 H :    0.338234
  32 H :    0.411909
  33 O :   -0.700242
  34 H :    0.352686
  35 H :    0.358729
Sum of atomic charges:   -0.0000000

LOEWDIN ATOMIC CHARGES
----------------------
   0 O :   -0.293144
   1 H :    0.146300
   2 H :    0.134028
   3 O :   -0.268849
   4 H :    0.151459
   5 H :    0.142000
   6 O :   -0.306835
   7 H :    0.138490
   8 H :    0.159847
   9 O :   -0.305463
  10 H :    0.138517
  11 H :    0.160501
  12 O :   -0.287968
  13 H :    0.147239
  14 H :    0.164150
  15 O :   -0.290592
  16 H :    0.142030
  17 H :    0.139614
  18 O :   -0.298141
  19 H :    0.146179
  20 H :    0.132482
  21 O :   -0.296091
  22 H :    0.133275
  23 H :    0.148840
  24 O :   -0.288270
  25 H :    0.163704
  26 H :    0.146929
  27 O :   -0.270566
  28 H :    0.143407
  29 H :    0.149729
  30 O :   -0.298513
  31 H :    0.130378
  32 H :    0.146929
  33 O :   -0.285419
  34 H :    0.141687
  35 H :    0.142139

  Mayer bond orders larger than 0.1
B(  0-O ,  1-H ) :   0.8144 B(  0-O ,  2-H ) :   0.7863 B(  0-O , 20-H ) :   0.1404
B(  2-H , 30-O ) :   0.1391 B(  3-O ,  4-H ) :   0.8290 B(  3-O ,  5-H ) :   0.8343
B(  3-O , 10-H ) :   0.1785 B(  6-O ,  7-H ) :   0.7395 B(  6-O ,  8-H ) :   0.8822
B(  7-H , 27-O ) :   0.1740 B(  9-O , 10-H ) :   0.7363 B(  9-O , 11-H ) :   0.8812
B( 12-O , 13-H ) :   0.7841 B( 12-O , 14-H ) :   0.8798 B( 15-O , 16-H ) :   0.8400
B( 15-O , 17-H ) :   0.8415 B( 15-O , 23-H ) :   0.1194 B( 18-O , 19-H ) :   0.8162
B( 18-O , 20-H ) :   0.7827 B( 18-O , 22-H ) :   0.1373 B( 21-O , 22-H ) :   0.7837
B( 21-O , 23-H ) :   0.7640 B( 21-O , 31-H ) :   0.1500 B( 24-O , 25-H ) :   0.8802
B( 24-O , 26-H ) :   0.7825 B( 27-O , 28-H ) :   0.8346 B( 27-O , 29-H ) :   0.8285
B( 30-O , 31-H ) :   0.7804 B( 30-O , 32-H ) :   0.7551 B( 32-H , 33-O ) :   0.1288
B( 33-O , 34-H ) :   0.8467 B( 33-O , 35-H ) :   0.8369

Dispersion correction           -0.021983962
FINAL SINGLE POINT ENERGY      -917.480928754727

DIPOLE MOMENT
-------------
                                X             Y             Z
Electronic contribution:     -0.02550       0.03027      -0.00682
Nuclear contribution   :     -0.03326       0.02071       0.00983
                        -----------------------------------------
Total Dipole Moment    :     -0.05876       0.05098       0.00302
                        -----------------------------------------
Magnitude (a.u.)       :      0.07785
Magnitude (Debye)      :      0.19787

                             ****ORCA TERMINATED NORMALLY****
TOTAL RUN TIME: 0 days 0 hours 1 minutes 27 seconds 919 msec
