                         Program Version 3.0.3 - RELEASE   -
|  1> ! wB97X-D3 Def2-TZVP def2-TZVP/J RIJCOSX TightSCF Grid4 COSMO
|  2>
|  3> %pal nprocs 12 end
|  4>
|  5> %scf
|  6>         maxiter 400
|  7> end
|  8>
|  9> %cosmo
| 10>         SMD true
| 11>         solvent "WATER"
| 12> end
| 13>
| 14> * xyz  0  1
| 15> O  0.565907	0.022341	-1.840124
| 16> H  -0.268364	0.083197	-2.366845
| 17> H  0.449142	0.743390	-1.166087
| 18> O  -2.831873	-1.548204	-0.847148
| 19> H  -1.969453	-1.925845	-0.573188
| 20> H  -3.045619	-0.910826	-0.126210
| 21> O  2.350005	-2.214355	0.741685
| 22> H  2.745728	-1.638296	0.027135
| 23> H  2.940187	-2.978421	0.827675
| 24> O  -2.001309	0.312896	-2.552987
| 25> H  -2.378432	-0.432200	-2.001837
| 26> H  -2.440752	0.252492	-3.415139
| 27> O  -3.095696	0.429187	1.075380
| 28> H  -2.286738	0.272352	1.615154
| 29> H  -3.834026	0.452873	1.703391
| 30> O  1.995337	-0.227845	2.637162
| 31> H  2.185746	-1.031762	2.100069
| 32> H  2.360930	0.494201	2.077110
| 33> O  -0.185426	-1.923318	-0.138372
| 34> H  0.667409	-2.300072	0.186799
| 35> H  0.108690	-1.266664	-0.824487
| 36> O  -0.581868	-0.135625	1.878803
| 37> H  -0.477966	-0.848577	1.194088
| 38> H  0.297376	-0.151770	2.347756
| 39> O  2.794289	1.576291	0.709334
| 40> H  3.350057	2.345940	0.905100
| 41> H  1.906074	1.936856	0.478032
| 42> O  3.167727	-0.464752	-1.113056
| 43> H  3.191797	0.321996	-0.520722
| 44> H  2.329491	-0.341361	-1.606753
| 45> O  0.160197	1.824224	0.155787
| 46> H  -0.117104	1.163106	0.842397
| 47> H  -0.699881	2.209316	-0.166144
| 48> O  -2.338293	2.364339	-0.719646
| 49> H  -2.741242	1.787693	-0.031510
| 50> H  -2.275916	1.754593	-1.491847
| 51> **                         ****END OF INPUT****

CARTESIAN COORDINATES (ANGSTROEM)
---------------------------------
  O      0.565907    0.022341   -1.840124
  H     -0.268364    0.083197   -2.366845
  H      0.449142    0.743390   -1.166087
  O     -2.831873   -1.548204   -0.847148
  H     -1.969453   -1.925845   -0.573188
  H     -3.045619   -0.910826   -0.126210
  O      2.350005   -2.214355    0.741685
  H      2.745728   -1.638296    0.027135
  H      2.940187   -2.978421    0.827675
  O     -2.001309    0.312896   -2.552987
  H     -2.378432   -0.432200   -2.001837
  H     -2.440752    0.252492   -3.415139
  O     -3.095696    0.429187    1.075380
  H     -2.286738    0.272352    1.615154
  H     -3.834026    0.452873    1.703391
  O      1.995337   -0.227845    2.637162
  H      2.185746   -1.031762    2.100069
  H      2.360930    0.494201    2.077110
  O     -0.185426   -1.923318   -0.138372
  H      0.667409   -2.300072    0.186799
  H      0.108690   -1.266664   -0.824487
  O     -0.581868   -0.135625    1.878803
  H     -0.477966   -0.848577    1.194088
  H      0.297376   -0.151770    2.347756
  O      2.794289    1.576291    0.709334
  H      3.350057    2.345940    0.905100
  H      1.906074    1.936856    0.478032
  O      3.167727   -0.464752   -1.113056
  H      3.191797    0.321996   -0.520722
  H      2.329491   -0.341361   -1.606753
  O      0.160197    1.824224    0.155787
  H     -0.117104    1.163106    0.842397
  H     -0.699881    2.209316   -0.166144
  O     -2.338293    2.364339   -0.719646
  H     -2.741242    1.787693   -0.031510
  H     -2.275916    1.754593   -1.491847

 Total Charge           Charge          ....    0
 Multiplicity           Mult            ....    1
 Number of Electrons    NEL             ....  120
 Basis Dimension        Dim             ....  516

ORBITAL ENERGIES
----------------

  NO   OCC          E(Eh)            E(eV)
   0   2.0000     -19.246519      -523.7244
   1   2.0000     -19.245787      -523.7045
   2   2.0000     -19.238610      -523.5092
   3   2.0000     -19.238120      -523.4958
   4   2.0000     -19.233752      -523.3770
   5   2.0000     -19.233054      -523.3580
   6   2.0000     -19.233044      -523.3577
   7   2.0000     -19.232184      -523.3343
   8   2.0000     -19.231636      -523.3194
   9   2.0000     -19.230062      -523.2766
  10   2.0000     -19.225181      -523.1438
  11   2.0000     -19.225085      -523.1412
  12   2.0000      -1.152686       -31.3662
  13   2.0000      -1.142459       -31.0879
  14   2.0000      -1.137974       -30.9658
  15   2.0000      -1.135449       -30.8971
  16   2.0000      -1.131280       -30.7837
  17   2.0000      -1.126543       -30.6548
  18   2.0000      -1.123127       -30.5618
  19   2.0000      -1.117435       -30.4069
  20   2.0000      -1.113935       -30.3117
  21   2.0000      -1.110639       -30.2220
  22   2.0000      -1.107327       -30.1319
  23   2.0000      -1.096266       -29.8309
  24   2.0000      -0.656341       -17.8599
  25   2.0000      -0.654431       -17.8080
  26   2.0000      -0.646161       -17.5829
  27   2.0000      -0.643446       -17.5091
  28   2.0000      -0.636913       -17.3313
  29   2.0000      -0.635023       -17.2799
  30   2.0000      -0.630780       -17.1644
  31   2.0000      -0.623208       -16.9584
  32   2.0000      -0.622814       -16.9476
  33   2.0000      -0.621026       -16.8990
  34   2.0000      -0.619345       -16.8532
  35   2.0000      -0.618213       -16.8224
  36   2.0000      -0.563742       -15.3402
  37   2.0000      -0.545729       -14.8501
  38   2.0000      -0.533532       -14.5181
  39   2.0000      -0.530484       -14.4352
  40   2.0000      -0.518099       -14.0982
  41   2.0000      -0.515624       -14.0308
  42   2.0000      -0.511061       -13.9067
  43   2.0000      -0.506187       -13.7741
  44   2.0000      -0.489691       -13.3252
  45   2.0000      -0.487356       -13.2616
  46   2.0000      -0.478152       -13.0112
  47   2.0000      -0.461196       -12.5498
  48   2.0000      -0.432556       -11.7705
  49   2.0000      -0.431025       -11.7288
  50   2.0000      -0.429431       -11.6854
  51   2.0000      -0.424338       -11.5468
  52   2.0000      -0.423910       -11.5352
  53   2.0000      -0.423028       -11.5112
  54   2.0000      -0.421640       -11.4734
  55   2.0000      -0.419701       -11.4207
  56   2.0000      -0.418251       -11.3812
  57   2.0000      -0.415905       -11.3173
  58   2.0000      -0.411383       -11.1943
  59   2.0000      -0.410891       -11.1809
  60   0.0000       0.093330         2.5396
  61   0.0000       0.124255         3.3812
  62   0.0000       0.144440         3.9304
  63   0.0000       0.144669         3.9366
  64   0.0000       0.178805         4.8655

MULLIKEN ATOMIC CHARGES
-----------------------
   0 O :   -0.776051
   1 H :    0.395272
   2 H :    0.363783
   3 O :   -0.752874
   4 H :    0.392802
   5 H :    0.374791
   6 O :   -0.773871
   7 H :    0.376665
   8 H :    0.405380
   9 O :   -0.774950
  10 H :    0.376557
  11 H :    0.404964
  12 O :   -0.755782
  13 H :    0.394713
  14 H :    0.410237
  15 O :   -0.771400
  16 H :    0.374031
  17 H :    0.371264
  18 O :   -0.781846
  19 H :    0.394321
  20 H :    0.358394
  21 O :   -0.787249
  22 H :    0.364758
  23 H :    0.404615
  24 O :   -0.755178
  25 H :    0.408846
  26 H :    0.394183
  27 O :   -0.756635
  28 H :    0.378348
  29 H :    0.394449
  30 O :   -0.789535
  31 H :    0.354223
  32 H :    0.403073
  33 O :   -0.770226
  34 H :    0.375102
  35 H :    0.374825
Sum of atomic charges:   -0.0000000

LOEWDIN ATOMIC CHARGES
----------------------
   0 O :   -0.305187
   1 H :    0.148585
   2 H :    0.137367
   3 O :   -0.311324
   4 H :    0.150280
   5 H :    0.145052
   6 O :   -0.288496
   7 H :    0.145971
   8 H :    0.186149
   9 O :   -0.287123
  10 H :    0.144010
  11 H :    0.186073
  12 O :   -0.267610
  13 H :    0.155714
  14 H :    0.192021
  15 O :   -0.332050
  16 H :    0.143125
  17 H :    0.141449
  18 O :   -0.312990
  19 H :    0.147991
  20 H :    0.134148
  21 O :   -0.314517
  22 H :    0.136955
  23 H :    0.147448
  24 O :   -0.270865
  25 H :    0.191094
  26 H :    0.156051
  27 O :   -0.316146
  28 H :    0.146020
  29 H :    0.148526
  30 O :   -0.309756
  31 H :    0.134497
  32 H :    0.147826
  33 O :   -0.335023
  34 H :    0.141417
  35 H :    0.143321

  Mayer bond orders larger than 0.1
B(  0-O ,  1-H ) :   0.7899 B(  0-O ,  2-H ) :   0.7823 B(  0-O , 20-H ) :   0.1384
B(  1-H ,  9-O ) :   0.1016 B(  2-H , 30-O ) :   0.1285 B(  3-O ,  4-H ) :   0.8209
B(  3-O ,  5-H ) :   0.8108 B(  3-O , 10-H ) :   0.1380 B(  6-O ,  7-H ) :   0.7680
B(  6-O ,  8-H ) :   0.8409 B(  7-H , 27-O ) :   0.1325 B(  9-O , 10-H ) :   0.7637
B(  9-O , 11-H ) :   0.8412 B( 12-O , 13-H ) :   0.8055 B( 12-O , 14-H ) :   0.8372
B( 15-O , 16-H ) :   0.8139 B( 15-O , 17-H ) :   0.8126 B( 15-O , 23-H ) :   0.1128
B( 18-O , 19-H ) :   0.7944 B( 18-O , 20-H ) :   0.7753 B( 18-O , 22-H ) :   0.1262
B( 21-O , 22-H ) :   0.7827 B( 21-O , 23-H ) :   0.7757 B( 21-O , 31-H ) :   0.1390
B( 24-O , 25-H ) :   0.8383 B( 24-O , 26-H ) :   0.8052 B( 27-O , 28-H ) :   0.8135
B( 27-O , 29-H ) :   0.8195 B( 30-O , 31-H ) :   0.7781 B( 30-O , 32-H ) :   0.7729
B( 32-H , 33-O ) :   0.1179 B( 33-O , 34-H ) :   0.8152 B( 33-O , 35-H ) :   0.8145

Dispersion correction           -0.021892519
FINAL SINGLE POINT ENERGY      -917.518816273588

DIPOLE MOMENT
-------------
                                X             Y             Z
Electronic contribution:     -0.01743       0.02406       0.00083
Nuclear contribution   :     -0.00072      -0.03175       0.03354
                        -----------------------------------------
Total Dipole Moment    :     -0.01815      -0.00770       0.03437
                        -----------------------------------------
Magnitude (a.u.)       :      0.03962
Magnitude (Debye)      :      0.10071

                             ****ORCA TERMINATED NORMALLY****
TOTAL RUN TIME: 0 days 0 hours 1 minutes 37 seconds 595 msec
