                         Program Version 3.0.3 - RELEASE   -
|  1> ! B3LYP Def2-TZVP def2-TZVP/J RIJCOSX TightSCF Grid4 D3BJ COSMO
|  2>
|  3> %pal nprocs 12 end
|  4>
|  5> %scf
|  6>         maxiter 400
|  7> end
|  8>
|  9> %cosmo
| 10>         SMD true
| 11>         solvent "WATER"
| 12> end
| 13>
| 14> * xyz  0  1
| 15> O  0.565907	0.022341	-1.840124
| 16> H  -0.268364	0.083197	-2.366845
| 17> H  0.449142	0.743390	-1.166087
| 18> O  -2.831873	-1.548204	-0.847148
| 19> H  -1.969453	-1.925845	-0.573188
| 20> H  -3.045619	-0.910826	-0.126210
| 21> O  2.350005	-2.214355	0.741685
| 22> H  2.745728	-1.638296	0.027135
| 23> H  2.940187	-2.978421	0.827675
| 24> O  -2.001309	0.312896	-2.552987
| 25> H  -2.378432	-0.432200	-2.001837
| 26> H  -2.440752	0.252492	-3.415139
| 27> O  -3.095696	0.429187	1.075380
| 28> H  -2.286738	0.272352	1.615154
| 29> H  -3.834026	0.452873	1.703391
| 30> O  1.995337	-0.227845	2.637162
| 31> H  2.185746	-1.031762	2.100069
| 32> H  2.360930	0.494201	2.077110
| 33> O  -0.185426	-1.923318	-0.138372
| 34> H  0.667409	-2.300072	0.186799
| 35> H  0.108690	-1.266664	-0.824487
| 36> O  -0.581868	-0.135625	1.878803
| 37> H  -0.477966	-0.848577	1.194088
| 38> H  0.297376	-0.151770	2.347756
| 39> O  2.794289	1.576291	0.709334
| 40> H  3.350057	2.345940	0.905100
| 41> H  1.906074	1.936856	0.478032
| 42> O  3.167727	-0.464752	-1.113056
| 43> H  3.191797	0.321996	-0.520722
| 44> H  2.329491	-0.341361	-1.606753
| 45> O  0.160197	1.824224	0.155787
| 46> H  -0.117104	1.163106	0.842397
| 47> H  -0.699881	2.209316	-0.166144
| 48> O  -2.338293	2.364339	-0.719646
| 49> H  -2.741242	1.787693	-0.031510
| 50> H  -2.275916	1.754593	-1.491847
| 51> **                         ****END OF INPUT****

CARTESIAN COORDINATES (ANGSTROEM)
---------------------------------
  O      0.565907    0.022341   -1.840124
  H     -0.268364    0.083197   -2.366845
  H      0.449142    0.743390   -1.166087
  O     -2.831873   -1.548204   -0.847148
  H     -1.969453   -1.925845   -0.573188
  H     -3.045619   -0.910826   -0.126210
  O      2.350005   -2.214355    0.741685
  H      2.745728   -1.638296    0.027135
  H      2.940187   -2.978421    0.827675
  O     -2.001309    0.312896   -2.552987
  H     -2.378432   -0.432200   -2.001837
  H     -2.440752    0.252492   -3.415139
  O     -3.095696    0.429187    1.075380
  H     -2.286738    0.272352    1.615154
  H     -3.834026    0.452873    1.703391
  O      1.995337   -0.227845    2.637162
  H      2.185746   -1.031762    2.100069
  H      2.360930    0.494201    2.077110
  O     -0.185426   -1.923318   -0.138372
  H      0.667409   -2.300072    0.186799
  H      0.108690   -1.266664   -0.824487
  O     -0.581868   -0.135625    1.878803
  H     -0.477966   -0.848577    1.194088
  H      0.297376   -0.151770    2.347756
  O      2.794289    1.576291    0.709334
  H      3.350057    2.345940    0.905100
  H      1.906074    1.936856    0.478032
  O      3.167727   -0.464752   -1.113056
  H      3.191797    0.321996   -0.520722
  H      2.329491   -0.341361   -1.606753
  O      0.160197    1.824224    0.155787
  H     -0.117104    1.163106    0.842397
  H     -0.699881    2.209316   -0.166144
  O     -2.338293    2.364339   -0.719646
  H     -2.741242    1.787693   -0.031510
  H     -2.275916    1.754593   -1.491847

 Total Charge           Charge          ....    0
 Multiplicity           Mult            ....    1
 Number of Electrons    NEL             ....  120
 Basis Dimension        Dim             ....  516

ORBITAL ENERGIES
----------------

  NO   OCC          E(Eh)            E(eV)
   0   2.0000     -19.138288      -520.7793
   1   2.0000     -19.137581      -520.7600
   2   2.0000     -19.130250      -520.5606
   3   2.0000     -19.129802      -520.5484
   4   2.0000     -19.124129      -520.3940
   5   2.0000     -19.123355      -520.3729
   6   2.0000     -19.123228      -520.3695
   7   2.0000     -19.122652      -520.3538
   8   2.0000     -19.122481      -520.3492
   9   2.0000     -19.121048      -520.3102
  10   2.0000     -19.116060      -520.1744
  11   2.0000     -19.116028      -520.1736
  12   2.0000      -1.034885       -28.1607
  13   2.0000      -1.025687       -27.9104
  14   2.0000      -1.021085       -27.7851
  15   2.0000      -1.018539       -27.7158
  16   2.0000      -1.014354       -27.6020
  17   2.0000      -1.009705       -27.4755
  18   2.0000      -1.006425       -27.3862
  19   2.0000      -1.000650       -27.2291
  20   2.0000      -0.997429       -27.1414
  21   2.0000      -0.994068       -27.0500
  22   2.0000      -0.990959       -26.9654
  23   2.0000      -0.979963       -26.6662
  24   2.0000      -0.550862       -14.9897
  25   2.0000      -0.549357       -14.9488
  26   2.0000      -0.540632       -14.7114
  27   2.0000      -0.538557       -14.6549
  28   2.0000      -0.532669       -14.4947
  29   2.0000      -0.530391       -14.4327
  30   2.0000      -0.525429       -14.2976
  31   2.0000      -0.518551       -14.1105
  32   2.0000      -0.518130       -14.0990
  33   2.0000      -0.516909       -14.0658
  34   2.0000      -0.515253       -14.0207
  35   2.0000      -0.514279       -13.9942
  36   2.0000      -0.457321       -12.4443
  37   2.0000      -0.440596       -11.9892
  38   2.0000      -0.429355       -11.6833
  39   2.0000      -0.426062       -11.5937
  40   2.0000      -0.414233       -11.2718
  41   2.0000      -0.411460       -11.1964
  42   2.0000      -0.407922       -11.1001
  43   2.0000      -0.403833       -10.9888
  44   2.0000      -0.388595       -10.5742
  45   2.0000      -0.386234       -10.5100
  46   2.0000      -0.377516       -10.2727
  47   2.0000      -0.361442        -9.8353
  48   2.0000      -0.332548        -9.0491
  49   2.0000      -0.331086        -9.0093
  50   2.0000      -0.329156        -8.9568
  51   2.0000      -0.324360        -8.8263
  52   2.0000      -0.323910        -8.8140
  53   2.0000      -0.323116        -8.7924
  54   2.0000      -0.321939        -8.7604
  55   2.0000      -0.319969        -8.7068
  56   2.0000      -0.318233        -8.6596
  57   2.0000      -0.316130        -8.6023
  58   2.0000      -0.311668        -8.4809
  59   2.0000      -0.311192        -8.4680
  60   0.0000       0.013864         0.3773
  61   0.0000       0.039420         1.0727
  62   0.0000       0.057078         1.5532
  63   0.0000       0.057367         1.5610
  64   0.0000       0.093083         2.5329

MULLIKEN ATOMIC CHARGES
-----------------------
   0 O :   -0.762419
   1 H :    0.380003
   2 H :    0.366264
   3 O :   -0.742391
   4 H :    0.382604
   5 H :    0.370097
   6 O :   -0.744935
   7 H :    0.374354
   8 H :    0.383604
   9 O :   -0.745699
  10 H :    0.373901
  11 H :    0.383256
  12 O :   -0.726810
  13 H :    0.387796
  14 H :    0.389167
  15 O :   -0.759946
  16 H :    0.367426
  17 H :    0.364841
  18 O :   -0.767560
  19 H :    0.379223
  20 H :    0.359769
  21 O :   -0.774095
  22 H :    0.365326
  23 H :    0.390103
  24 O :   -0.726612
  25 H :    0.387896
  26 H :    0.387779
  27 O :   -0.745181
  28 H :    0.372449
  29 H :    0.384006
  30 O :   -0.776547
  31 H :    0.356512
  32 H :    0.387835
  33 O :   -0.758953
  34 H :    0.368763
  35 H :    0.368173
Sum of atomic charges:   -0.0000000

LOEWDIN ATOMIC CHARGES
----------------------
   0 O :   -0.302334
   1 H :    0.146214
   2 H :    0.136807
   3 O :   -0.310158
   4 H :    0.149034
   5 H :    0.144196
   6 O :   -0.283704
   7 H :    0.145483
   8 H :    0.182990
   9 O :   -0.282206
  10 H :    0.143484
  11 H :    0.182910
  12 O :   -0.263030
  13 H :    0.155216
  14 H :    0.189178
  15 O :   -0.330824
  16 H :    0.141983
  17 H :    0.140379
  18 O :   -0.310176
  19 H :    0.145628
  20 H :    0.133512
  21 O :   -0.311878
  22 H :    0.136226
  23 H :    0.145095
  24 O :   -0.266381
  25 H :    0.188286
  26 H :    0.155518
  27 O :   -0.314887
  28 H :    0.145156
  29 H :    0.147279
  30 O :   -0.307008
  31 H :    0.133769
  32 H :    0.145309
  33 O :   -0.333765
  34 H :    0.140461
  35 H :    0.142238

  Mayer bond orders larger than 0.1
B(  0-O ,  1-H ) :   0.7942 B(  0-O ,  2-H ) :   0.7780 B(  0-O , 20-H ) :   0.1417
B(  1-H ,  9-O ) :   0.1108 B(  2-H , 30-O ) :   0.1307 B(  3-O ,  4-H ) :   0.8231
B(  3-O ,  5-H ) :   0.8105 B(  3-O , 10-H ) :   0.1447 B(  5-H , 12-O ) :   0.1017
B(  6-O ,  7-H ) :   0.7628 B(  6-O ,  8-H ) :   0.8539 B(  6-O , 19-H ) :   0.1039
B(  7-H , 27-O ) :   0.1393 B(  9-O , 10-H ) :   0.7587 B(  9-O , 11-H ) :   0.8542
B( 12-O , 13-H ) :   0.8028 B( 12-O , 14-H ) :   0.8504 B( 15-O , 16-H ) :   0.8142
B( 15-O , 17-H ) :   0.8127 B( 15-O , 23-H ) :   0.1231 B( 17-H , 24-O ) :   0.1040
B( 18-O , 19-H ) :   0.7991 B( 18-O , 20-H ) :   0.7714 B( 18-O , 22-H ) :   0.1291
B( 21-O , 22-H ) :   0.7793 B( 21-O , 23-H ) :   0.7792 B( 21-O , 31-H ) :   0.1418
B( 24-O , 25-H ) :   0.8514 B( 24-O , 26-H ) :   0.8024 B( 27-O , 28-H ) :   0.8141
B( 27-O , 29-H ) :   0.8218 B( 30-O , 31-H ) :   0.7740 B( 30-O , 32-H ) :   0.7771
B( 32-H , 33-O ) :   0.1284 B( 33-O , 34-H ) :   0.8155 B( 33-O , 35-H ) :   0.8150

Dispersion correction           -0.042688578
FINAL SINGLE POINT ENERGY      -917.379567161315

DIPOLE MOMENT
-------------
                                X             Y             Z
Electronic contribution:     -0.01897       0.02618      -0.00012
Nuclear contribution   :     -0.00072      -0.03175       0.03354
                        -----------------------------------------
Total Dipole Moment    :     -0.01969      -0.00557       0.03342
                        -----------------------------------------
Magnitude (a.u.)       :      0.03919
Magnitude (Debye)      :      0.09961

                             ****ORCA TERMINATED NORMALLY****
TOTAL RUN TIME: 0 days 0 hours 1 minutes 29 seconds 877 msec
