                         Program Version 3.0.3 - RELEASE   -
|  1> ! wB97X-D3 Def2-TZVP def2-TZVP/J RIJCOSX TightSCF Grid4
|  2>
|  3> %pal nprocs 12 end
|  4>
|  5> %scf
|  6>         maxiter 400
|  7> end
|  8>
|  9> * xyz  0  1
| 10> O  0.572905	-0.014906	-1.819182
| 11> H  -0.259297	0.062980	-2.369573
| 12> H  0.454893	0.735399	-1.143177
| 13> O  -2.793837	-1.453276	-0.849579
| 14> H  -1.952911	-1.906621	-0.573490
| 15> H  -3.010673	-0.863830	-0.074446
| 16> O  2.287835	-2.190180	0.729303
| 17> H  2.670223	-1.533528	0.012509
| 18> H  2.910194	-2.939884	0.755952
| 19> O  -1.968489	0.289736	-2.536082
| 20> H  -2.346987	-0.449617	-1.901956
| 21> H  -2.467002	0.207209	-3.369287
| 22> O  -2.994654	0.427698	1.133319
| 23> H  -2.097501	0.250977	1.582609
| 24> H  -3.657471	0.459013	1.846718
| 25> O  1.854309	-0.261899	2.637561
| 26> H  2.105453	-1.061792	2.098325
| 27> H  2.260751	0.478522	2.114043
| 28> O  -0.212712	-1.922543	-0.152126
| 29> H  0.649025	-2.318194	0.168610
| 30> H  0.104708	-1.253681	-0.849662
| 31> O  -0.565799	-0.124089	1.740914
| 32> H  -0.459291	-0.872801	1.058893
| 33> H  0.315534	-0.162906	2.273107
| 34> O  2.685047	1.605698	0.743828
| 35> H  3.193694	2.423144	0.893317
| 36> H  1.755970	1.898329	0.449583
| 37> O  3.108348	-0.473382	-0.992614
| 38> H  3.124096	0.354548	-0.437557
| 39> H  2.302314	-0.339901	-1.561673
| 40> O  0.209136	1.790010	0.079579
| 41> H  -0.093484	1.106996	0.768268
| 42> H  -0.682031	2.203987	-0.231954
| 43> O  -2.185797	2.341461	-0.714357
| 44> H  -2.638794	1.797705	-0.016317
| 45> H  -2.181573	1.717003	-1.492650
| 46> **                         ****END OF INPUT****

CARTESIAN COORDINATES (ANGSTROEM)
---------------------------------
  O      0.572905   -0.014906   -1.819182
  H     -0.259297    0.062980   -2.369573
  H      0.454893    0.735399   -1.143177
  O     -2.793837   -1.453276   -0.849579
  H     -1.952911   -1.906621   -0.573490
  H     -3.010673   -0.863830   -0.074446
  O      2.287835   -2.190180    0.729303
  H      2.670223   -1.533528    0.012509
  H      2.910194   -2.939884    0.755952
  O     -1.968489    0.289736   -2.536082
  H     -2.346987   -0.449617   -1.901956
  H     -2.467002    0.207209   -3.369287
  O     -2.994654    0.427698    1.133319
  H     -2.097501    0.250977    1.582609
  H     -3.657471    0.459013    1.846718
  O      1.854309   -0.261899    2.637561
  H      2.105453   -1.061792    2.098325
  H      2.260751    0.478522    2.114043
  O     -0.212712   -1.922543   -0.152126
  H      0.649025   -2.318194    0.168610
  H      0.104708   -1.253681   -0.849662
  O     -0.565799   -0.124089    1.740914
  H     -0.459291   -0.872801    1.058893
  H      0.315534   -0.162906    2.273107
  O      2.685047    1.605698    0.743828
  H      3.193694    2.423144    0.893317
  H      1.755970    1.898329    0.449583
  O      3.108348   -0.473382   -0.992614
  H      3.124096    0.354548   -0.437557
  H      2.302314   -0.339901   -1.561673
  O      0.209136    1.790010    0.079579
  H     -0.093484    1.106996    0.768268
  H     -0.682031    2.203987   -0.231954
  O     -2.185797    2.341461   -0.714357
  H     -2.638794    1.797705   -0.016317
  H     -2.181573    1.717003   -1.492650

 Total Charge           Charge          ....    0
 Multiplicity           Mult            ....    1
 Number of Electrons    NEL             ....  120
 Basis Dimension        Dim             ....  516

ORBITAL ENERGIES
----------------

  NO   OCC          E(Eh)            E(eV)
   0   2.0000     -19.258671      -524.0551
   1   2.0000     -19.258319      -524.0455
   2   2.0000     -19.248135      -523.7684
   3   2.0000     -19.248027      -523.7654
   4   2.0000     -19.236527      -523.4525
   5   2.0000     -19.235749      -523.4314
   6   2.0000     -19.235627      -523.4280
   7   2.0000     -19.235083      -523.4132
   8   2.0000     -19.233365      -523.3665
   9   2.0000     -19.231784      -523.3235
  10   2.0000     -19.227143      -523.1972
  11   2.0000     -19.226952      -523.1920
  12   2.0000      -1.158906       -31.5354
  13   2.0000      -1.149649       -31.2835
  14   2.0000      -1.143104       -31.1054
  15   2.0000      -1.140517       -31.0350
  16   2.0000      -1.132109       -30.8062
  17   2.0000      -1.127430       -30.6789
  18   2.0000      -1.123149       -30.5624
  19   2.0000      -1.116159       -30.3722
  20   2.0000      -1.111633       -30.2491
  21   2.0000      -1.106784       -30.1171
  22   2.0000      -1.103439       -30.0261
  23   2.0000      -1.087260       -29.5858
  24   2.0000      -0.670885       -18.2557
  25   2.0000      -0.667868       -18.1736
  26   2.0000      -0.652227       -17.7480
  27   2.0000      -0.651036       -17.7156
  28   2.0000      -0.642430       -17.4814
  29   2.0000      -0.639549       -17.4030
  30   2.0000      -0.631663       -17.1884
  31   2.0000      -0.622809       -16.9475
  32   2.0000      -0.622145       -16.9294
  33   2.0000      -0.619316       -16.8525
  34   2.0000      -0.617343       -16.7987
  35   2.0000      -0.616571       -16.7778
  36   2.0000      -0.576672       -15.6920
  37   2.0000      -0.556449       -15.1417
  38   2.0000      -0.541829       -14.7439
  39   2.0000      -0.536530       -14.5997
  40   2.0000      -0.520501       -14.1636
  41   2.0000      -0.517361       -14.0781
  42   2.0000      -0.514727       -14.0064
  43   2.0000      -0.508461       -13.8359
  44   2.0000      -0.492970       -13.4144
  45   2.0000      -0.489199       -13.3118
  46   2.0000      -0.480780       -13.0827
  47   2.0000      -0.457808       -12.4576
  48   2.0000      -0.440169       -11.9776
  49   2.0000      -0.438807       -11.9405
  50   2.0000      -0.431807       -11.7501
  51   2.0000      -0.427408       -11.6304
  52   2.0000      -0.422748       -11.5035
  53   2.0000      -0.422364       -11.4931
  54   2.0000      -0.421023       -11.4566
  55   2.0000      -0.418410       -11.3855
  56   2.0000      -0.415314       -11.3013
  57   2.0000      -0.413741       -11.2585
  58   2.0000      -0.404614       -11.0101
  59   2.0000      -0.404395       -11.0041
  60   0.0000       0.081194         2.2094
  61   0.0000       0.101985         2.7752
  62   0.0000       0.116625         3.1735
  63   0.0000       0.117547         3.1986
  64   0.0000       0.161310         4.3895

MULLIKEN ATOMIC CHARGES
-----------------------
   0 O :   -0.762525
   1 H :    0.386316
   2 H :    0.356222
   3 O :   -0.690363
   4 H :    0.392374
   5 H :    0.364582
   6 O :   -0.769551
   7 H :    0.367787
   8 H :    0.355133
   9 O :   -0.770850
  10 H :    0.370071
  11 H :    0.355333
  12 O :   -0.751352
  13 H :    0.397802
  14 H :    0.356609
  15 O :   -0.700695
  16 H :    0.362716
  17 H :    0.356037
  18 O :   -0.758859
  19 H :    0.385944
  20 H :    0.349400
  21 O :   -0.794403
  22 H :    0.357927
  23 H :    0.420219
  24 O :   -0.749111
  25 H :    0.356117
  26 H :    0.396412
  27 O :   -0.689448
  28 H :    0.366620
  29 H :    0.393235
  30 O :   -0.792434
  31 H :    0.341058
  32 H :    0.420101
  33 O :   -0.698975
  34 H :    0.358655
  35 H :    0.361894
Sum of atomic charges:    0.0000000

LOEWDIN ATOMIC CHARGES
----------------------
   0 O :   -0.310943
   1 H :    0.150313
   2 H :    0.136881
   3 O :   -0.268243
   4 H :    0.157749
   5 H :    0.148234
   6 O :   -0.321848
   7 H :    0.143912
   8 H :    0.163651
   9 O :   -0.321036
  10 H :    0.143753
  11 H :    0.163538
  12 O :   -0.302025
  13 H :    0.149969
  14 H :    0.167916
  15 O :   -0.287874
  16 H :    0.147385
  17 H :    0.146875
  18 O :   -0.309129
  19 H :    0.150463
  20 H :    0.138156
  21 O :   -0.312267
  22 H :    0.135131
  23 H :    0.152126
  24 O :   -0.301876
  25 H :    0.168073
  26 H :    0.150737
  27 O :   -0.270123
  28 H :    0.149550
  29 H :    0.157387
  30 O :   -0.310822
  31 H :    0.134753
  32 H :    0.153283
  33 O :   -0.288457
  34 H :    0.147976
  35 H :    0.146835

  Mayer bond orders larger than 0.1
B(  0-O ,  1-H ) :   0.7950 B(  0-O ,  2-H ) :   0.7562 B(  0-O , 20-H ) :   0.1651
B(  1-H ,  9-O ) :   0.1025 B(  2-H , 30-O ) :   0.1622 B(  3-O ,  4-H ) :   0.8171
B(  3-O ,  5-H ) :   0.8160 B(  3-O , 10-H ) :   0.2124 B(  6-O ,  7-H ) :   0.7029
B(  6-O ,  8-H ) :   0.8783 B(  6-O , 19-H ) :   0.1016 B(  7-H , 27-O ) :   0.2135
B(  9-O , 10-H ) :   0.7021 B(  9-O , 11-H ) :   0.8780 B( 12-O , 13-H ) :   0.7569
B( 12-O , 14-H ) :   0.8767 B( 13-H , 21-O ) :   0.1127 B( 15-O , 16-H ) :   0.8234
B( 15-O , 17-H ) :   0.8338 B( 15-O , 23-H ) :   0.1624 B( 18-O , 19-H ) :   0.7956
B( 18-O , 20-H ) :   0.7585 B( 18-O , 22-H ) :   0.1675 B( 21-O , 22-H ) :   0.7497
B( 21-O , 23-H ) :   0.7179 B( 21-O , 31-H ) :   0.1722 B( 24-O , 25-H ) :   0.8770
B( 24-O , 26-H ) :   0.7594 B( 26-H , 30-O ) :   0.1121 B( 27-O , 28-H ) :   0.8202
B( 27-O , 29-H ) :   0.8153 B( 30-O , 31-H ) :   0.7549 B( 30-O , 32-H ) :   0.7157
B( 32-H , 33-O ) :   0.1653 B( 33-O , 34-H ) :   0.8361 B( 33-O , 35-H ) :   0.8224

Dispersion correction           -0.022836567
FINAL SINGLE POINT ENERGY      -917.464081420477

DIPOLE MOMENT
-------------
                                X             Y             Z
Electronic contribution:     -0.00421       0.03101       0.01649
Nuclear contribution   :      0.00604      -0.02963      -0.00078
                        -----------------------------------------
Total Dipole Moment    :      0.00183       0.00138       0.01571
                        -----------------------------------------
Magnitude (a.u.)       :      0.01588
Magnitude (Debye)      :      0.04035

                             ****ORCA TERMINATED NORMALLY****
TOTAL RUN TIME: 0 days 0 hours 1 minutes 29 seconds 13 msec
