                         Program Version 3.0.3 - RELEASE   -
|  1> ! wB97X-D3 Def2-TZVP def2-TZVP/J RIJCOSX TightSCF Grid4 COSMO
|  2>
|  3> %pal nprocs 12 end
|  4>
|  5> %scf
|  6>         maxiter 400
|  7> end
|  8>
|  9> %cosmo
| 10>         SMD true
| 11>         solvent "WATER"
| 12> end
| 13>
| 14> * xyz  0  1
| 15> O  0.560969	0.016522	-1.821165
| 16> H  -0.293901	0.072698	-2.346489
| 17> H  0.434482	0.761357	-1.140638
| 18> O  -2.816463	-1.497201	-0.824389
| 19> H  -1.942651	-1.891255	-0.563745
| 20> H  -3.008791	-0.859859	-0.074929
| 21> O  2.276781	-2.173179	0.754701
| 22> H  2.674731	-1.557912	0.033255
| 23> H  2.854834	-2.961238	0.772912
| 24> O  -1.972138	0.304066	-2.520771
| 25> H  -2.360352	-0.441465	-1.929121
| 26> H  -2.442187	0.234503	-3.374804
| 27> O  -2.993346	0.428223	1.075617
| 28> H  -2.135120	0.262462	1.572335
| 29> H  -3.695112	0.450945	1.755577
| 30> O  1.934542	-0.260329	2.655277
| 31> H  2.149506	-1.064127	2.098906
| 32> H  2.301368	0.479096	2.091107
| 33> O  -0.195198	-1.914631	-0.155372
| 34> H  0.682222	-2.274917	0.181040
| 35> H  0.107421	-1.234627	-0.845950
| 36> O  -0.523640	-0.124726	1.772548
| 37> H  -0.430052	-0.862472	1.080516
| 38> H  0.372304	-0.159999	2.266990
| 39> O  2.698284	1.550741	0.754216
| 40> H  3.257447	2.338682	0.902271
| 41> H  1.803930	1.902276	0.463072
| 42> O  3.121901	-0.453634	-1.025116
| 43> H  3.117166	0.349775	-0.427496
| 44> H  2.285409	-0.329098	-1.549131
| 45> O  0.165901	1.817178	0.085581
| 46> H  -0.104009	1.133304	0.785049
| 47> H  -0.733984	2.185015	-0.232146
| 48> O  -2.266189	2.331762	-0.736868
| 49> H  -2.666634	1.757057	-0.024211
| 50> H  -2.223299	1.692394	-1.507873
| 51> **                         ****END OF INPUT****

CARTESIAN COORDINATES (ANGSTROEM)
---------------------------------
  O      0.560969    0.016522   -1.821165
  H     -0.293901    0.072698   -2.346489
  H      0.434482    0.761357   -1.140638
  O     -2.816463   -1.497201   -0.824389
  H     -1.942651   -1.891255   -0.563745
  H     -3.008791   -0.859859   -0.074929
  O      2.276781   -2.173179    0.754701
  H      2.674731   -1.557912    0.033255
  H      2.854834   -2.961238    0.772912
  O     -1.972138    0.304066   -2.520771
  H     -2.360352   -0.441465   -1.929121
  H     -2.442187    0.234503   -3.374804
  O     -2.993346    0.428223    1.075617
  H     -2.135120    0.262462    1.572335
  H     -3.695112    0.450945    1.755577
  O      1.934542   -0.260329    2.655277
  H      2.149506   -1.064127    2.098906
  H      2.301368    0.479096    2.091107
  O     -0.195198   -1.914631   -0.155372
  H      0.682222   -2.274917    0.181040
  H      0.107421   -1.234627   -0.845950
  O     -0.523640   -0.124726    1.772548
  H     -0.430052   -0.862472    1.080516
  H      0.372304   -0.159999    2.266990
  O      2.698284    1.550741    0.754216
  H      3.257447    2.338682    0.902271
  H      1.803930    1.902276    0.463072
  O      3.121901   -0.453634   -1.025116
  H      3.117166    0.349775   -0.427496
  H      2.285409   -0.329098   -1.549131
  O      0.165901    1.817178    0.085581
  H     -0.104009    1.133304    0.785049
  H     -0.733984    2.185015   -0.232146
  O     -2.266189    2.331762   -0.736868
  H     -2.666634    1.757057   -0.024211
  H     -2.223299    1.692394   -1.507873

 Total Charge           Charge          ....    0
 Multiplicity           Mult            ....    1
 Number of Electrons    NEL             ....  120
 Basis Dimension        Dim             ....  516

ORBITAL ENERGIES
----------------

  NO   OCC          E(Eh)            E(eV)
   0   2.0000     -19.247268      -523.7448
   1   2.0000     -19.246885      -523.7344
   2   2.0000     -19.239728      -523.5396
   3   2.0000     -19.239684      -523.5384
   4   2.0000     -19.233284      -523.3643
   5   2.0000     -19.233113      -523.3596
   6   2.0000     -19.232190      -523.3345
   7   2.0000     -19.232060      -523.3310
   8   2.0000     -19.231034      -523.3030
   9   2.0000     -19.229838      -523.2705
  10   2.0000     -19.228585      -523.2364
  11   2.0000     -19.227930      -523.2186
  12   2.0000      -1.152661       -31.3655
  13   2.0000      -1.141222       -31.0542
  14   2.0000      -1.134674       -30.8760
  15   2.0000      -1.133195       -30.8358
  16   2.0000      -1.127043       -30.6684
  17   2.0000      -1.123166       -30.5629
  18   2.0000      -1.119448       -30.4617
  19   2.0000      -1.112509       -30.2729
  20   2.0000      -1.107398       -30.1338
  21   2.0000      -1.103989       -30.0411
  22   2.0000      -1.101157       -29.9640
  23   2.0000      -1.084943       -29.5228
  24   2.0000      -0.657177       -17.8827
  25   2.0000      -0.653901       -17.7936
  26   2.0000      -0.644193       -17.5294
  27   2.0000      -0.641263       -17.4497
  28   2.0000      -0.633727       -17.2446
  29   2.0000      -0.631821       -17.1927
  30   2.0000      -0.627666       -17.0797
  31   2.0000      -0.621016       -16.8987
  32   2.0000      -0.618481       -16.8297
  33   2.0000      -0.615872       -16.7587
  34   2.0000      -0.612781       -16.6746
  35   2.0000      -0.612253       -16.6602
  36   2.0000      -0.570361       -15.5203
  37   2.0000      -0.551238       -14.9999
  38   2.0000      -0.536124       -14.5887
  39   2.0000      -0.532514       -14.4904
  40   2.0000      -0.519702       -14.1418
  41   2.0000      -0.517731       -14.0882
  42   2.0000      -0.513970       -13.9858
  43   2.0000      -0.505655       -13.7596
  44   2.0000      -0.489799       -13.3281
  45   2.0000      -0.485935       -13.2230
  46   2.0000      -0.477688       -12.9985
  47   2.0000      -0.459063       -12.4917
  48   2.0000      -0.431235       -11.7345
  49   2.0000      -0.430104       -11.7037
  50   2.0000      -0.426661       -11.6100
  51   2.0000      -0.421694       -11.4749
  52   2.0000      -0.421173       -11.4607
  53   2.0000      -0.419364       -11.4115
  54   2.0000      -0.419020       -11.4021
  55   2.0000      -0.418108       -11.3773
  56   2.0000      -0.414398       -11.2763
  57   2.0000      -0.413015       -11.2387
  58   2.0000      -0.408948       -11.1280
  59   2.0000      -0.408527       -11.1166
  60   0.0000       0.095151         2.5892
  61   0.0000       0.125243         3.4080
  62   0.0000       0.144958         3.9445
  63   0.0000       0.145522         3.9599
  64   0.0000       0.181745         4.9455

MULLIKEN ATOMIC CHARGES
-----------------------
   0 O :   -0.794905
   1 H :    0.400810
   2 H :    0.369112
   3 O :   -0.756701
   4 H :    0.399300
   5 H :    0.382023
   6 O :   -0.785149
   7 H :    0.378195
   8 H :    0.407812
   9 O :   -0.785024
  10 H :    0.378730
  11 H :    0.407968
  12 O :   -0.767509
  13 H :    0.403511
  14 H :    0.412250
  15 O :   -0.770005
  16 H :    0.381307
  17 H :    0.377994
  18 O :   -0.794068
  19 H :    0.400262
  20 H :    0.360989
  21 O :   -0.815280
  22 H :    0.369017
  23 H :    0.413565
  24 O :   -0.765458
  25 H :    0.411917
  26 H :    0.402364
  27 O :   -0.755598
  28 H :    0.382842
  29 H :    0.400808
  30 O :   -0.810884
  31 H :    0.357976
  32 H :    0.413524
  33 O :   -0.771522
  34 H :    0.379727
  35 H :    0.380102
Sum of atomic charges:   -0.0000000

LOEWDIN ATOMIC CHARGES
----------------------
   0 O :   -0.325855
   1 H :    0.152751
   2 H :    0.139833
   3 O :   -0.316603
   4 H :    0.155745
   5 H :    0.150195
   6 O :   -0.298631
   7 H :    0.150402
   8 H :    0.190325
   9 O :   -0.297246
  10 H :    0.150337
  11 H :    0.190298
  12 O :   -0.277030
  13 H :    0.157881
  14 H :    0.196185
  15 O :   -0.332312
  16 H :    0.149466
  17 H :    0.149426
  18 O :   -0.326588
  19 H :    0.151904
  20 H :    0.139699
  21 O :   -0.330001
  22 H :    0.137889
  23 H :    0.149337
  24 O :   -0.277370
  25 H :    0.196405
  26 H :    0.159130
  27 O :   -0.317067
  28 H :    0.151147
  29 H :    0.155687
  30 O :   -0.325646
  31 H :    0.138627
  32 H :    0.150361
  33 O :   -0.335952
  34 H :    0.149014
  35 H :    0.148258

  Mayer bond orders larger than 0.1
B(  0-O ,  1-H ) :   0.7735 B(  0-O ,  2-H ) :   0.7526 B(  0-O , 20-H ) :   0.1564
B(  1-H ,  9-O ) :   0.1133 B(  2-H , 30-O ) :   0.1544 B(  3-O ,  4-H ) :   0.8114
B(  3-O ,  5-H ) :   0.7908 B(  3-O , 10-H ) :   0.1678 B(  5-H , 12-O ) :   0.1102
B(  6-O ,  7-H ) :   0.7342 B(  6-O ,  8-H ) :   0.8373 B(  6-O , 16-H ) :   0.1019
B(  6-O , 19-H ) :   0.1166 B(  7-H , 27-O ) :   0.1685 B(  9-O , 10-H ) :   0.7346
B(  9-O , 11-H ) :   0.8371 B(  9-O , 35-H ) :   0.1076 B( 12-O , 13-H ) :   0.7804
B( 12-O , 14-H ) :   0.8338 B( 15-O , 16-H ) :   0.7983 B( 15-O , 17-H ) :   0.8020
B( 15-O , 23-H ) :   0.1546 B( 17-H , 24-O ) :   0.1000 B( 18-O , 19-H ) :   0.7713
B( 18-O , 20-H ) :   0.7558 B( 18-O , 22-H ) :   0.1556 B( 21-O , 22-H ) :   0.7510
B( 21-O , 23-H ) :   0.7321 B( 21-O , 31-H ) :   0.1579 B( 24-O , 25-H ) :   0.8341
B( 24-O , 26-H ) :   0.7832 B( 24-O , 28-H ) :   0.1031 B( 27-O , 28-H ) :   0.7954
B( 27-O , 29-H ) :   0.8083 B( 30-O , 31-H ) :   0.7553 B( 30-O , 32-H ) :   0.7324
B( 32-H , 33-O ) :   0.1542 B( 33-O , 34-H ) :   0.8044 B( 33-O , 35-H ) :   0.7954

Dispersion correction           -0.022781259
FINAL SINGLE POINT ENERGY      -917.512774475819

DIPOLE MOMENT
-------------
                                X             Y             Z
Electronic contribution:      0.01357       0.04173       0.02646
Nuclear contribution   :      0.01825      -0.05576      -0.03498
                        -----------------------------------------
Total Dipole Moment    :      0.03182      -0.01403      -0.00852
                        -----------------------------------------
Magnitude (a.u.)       :      0.03580
Magnitude (Debye)      :      0.09100

                             ****ORCA TERMINATED NORMALLY****
TOTAL RUN TIME: 0 days 0 hours 1 minutes 35 seconds 125 msec
