                         Program Version 3.0.3 - RELEASE   -
|  1> ! B3LYP Def2-TZVP def2-TZVP/J RIJCOSX TightSCF Grid4 D3BJ
|  2>
|  3> %pal nprocs 12 end
|  4>
|  5> %scf
|  6>         maxiter 400
|  7> end
|  8>
|  9> * xyz  0  1
| 10> O  0.555783	0.002361	-1.853259
| 11> H  -0.261039	0.096739	-2.394431
| 12> H  0.463634	0.720148	-1.173534
| 13> O  -2.830278	-1.527679	-0.873606
| 14> H  -1.998713	-1.964864	-0.592676
| 15> H  -3.067564	-0.940577	-0.123794
| 16> O  2.351748	-2.213003	0.720253
| 17> H  2.716348	-1.588448	0.013173
| 18> H  2.974851	-2.949414	0.775272
| 19> O  -2.049100	0.281403	-2.575290
| 20> H  -2.400738	-0.454010	-1.974903
| 21> H  -2.529277	0.201164	-3.410157
| 22> O  -3.075479	0.411367	1.123509
| 23> H  -2.222402	0.249569	1.609697
| 24> H  -3.769761	0.458936	1.793697
| 25> O  1.894978	-0.211760	2.640001
| 26> H  2.138879	-1.014595	2.130608
| 27> H  2.326096	0.506499	2.132394
| 28> O  -0.209353	-1.942148	-0.152911
| 29> H  0.628878	-2.347419	0.164550
| 30> H  0.092724	-1.293768	-0.842372
| 31> O  -0.617534	-0.134611	1.828833
| 32> H  -0.502380	-0.853982	1.153163
| 33> H  0.239281	-0.150236	2.345785
| 34> O  2.791685	1.635420	0.739541
| 35> H  3.304455	2.438071	0.900147
| 36> H  1.872268	1.927836	0.490766
| 37> O  3.127812	-0.466615	-1.056421
| 38> H  3.177563	0.342990	-0.503762
| 39> H  2.333277	-0.330450	-1.613652
| 40> O  0.244381	1.809661	0.157417
| 41> H  -0.074401	1.144869	0.821379
| 42> H  -0.607124	2.226476	-0.170810
| 43> O  -2.172614	2.349773	-0.701753
| 44> H  -2.658045	1.821889	-0.034326
| 45> H  -2.192705	1.765796	-1.491771
| 46> **                         ****END OF INPUT****

CARTESIAN COORDINATES (ANGSTROEM)
---------------------------------
  O      0.555783    0.002361   -1.853259
  H     -0.261039    0.096739   -2.394431
  H      0.463634    0.720148   -1.173534
  O     -2.830278   -1.527679   -0.873606
  H     -1.998713   -1.964864   -0.592676
  H     -3.067564   -0.940577   -0.123794
  O      2.351748   -2.213003    0.720253
  H      2.716348   -1.588448    0.013173
  H      2.974851   -2.949414    0.775272
  O     -2.049100    0.281403   -2.575290
  H     -2.400738   -0.454010   -1.974903
  H     -2.529277    0.201164   -3.410157
  O     -3.075479    0.411367    1.123509
  H     -2.222402    0.249569    1.609697
  H     -3.769761    0.458936    1.793697
  O      1.894978   -0.211760    2.640001
  H      2.138879   -1.014595    2.130608
  H      2.326096    0.506499    2.132394
  O     -0.209353   -1.942148   -0.152911
  H      0.628878   -2.347419    0.164550
  H      0.092724   -1.293768   -0.842372
  O     -0.617534   -0.134611    1.828833
  H     -0.502380   -0.853982    1.153163
  H      0.239281   -0.150236    2.345785
  O      2.791685    1.635420    0.739541
  H      3.304455    2.438071    0.900147
  H      1.872268    1.927836    0.490766
  O      3.127812   -0.466615   -1.056421
  H      3.177563    0.342990   -0.503762
  H      2.333277   -0.330450   -1.613652
  O      0.244381    1.809661    0.157417
  H     -0.074401    1.144869    0.821379
  H     -0.607124    2.226476   -0.170810
  O     -2.172614    2.349773   -0.701753
  H     -2.658045    1.821889   -0.034326
  H     -2.192705    1.765796   -1.491771

 Total Charge           Charge          ....    0
 Multiplicity           Mult            ....    1
 Number of Electrons    NEL             ....  120
 Basis Dimension        Dim             ....  516

ORBITAL ENERGIES
----------------

  NO   OCC          E(Eh)            E(eV)
   0   2.0000     -19.150716      -521.1175
   1   2.0000     -19.149254      -521.0777
   2   2.0000     -19.140156      -520.8301
   3   2.0000     -19.138452      -520.7837
   4   2.0000     -19.128946      -520.5251
   5   2.0000     -19.126219      -520.4509
   6   2.0000     -19.125717      -520.4372
   7   2.0000     -19.125062      -520.4194
   8   2.0000     -19.124469      -520.4032
   9   2.0000     -19.122383      -520.3465
  10   2.0000     -19.116498      -520.1864
  11   2.0000     -19.114416      -520.1297
  12   2.0000      -1.042548       -28.3692
  13   2.0000      -1.036184       -28.1960
  14   2.0000      -1.030532       -28.0422
  15   2.0000      -1.026912       -27.9437
  16   2.0000      -1.020028       -27.7564
  17   2.0000      -1.014129       -27.5959
  18   2.0000      -1.011670       -27.5289
  19   2.0000      -1.004636       -27.3375
  20   2.0000      -1.000397       -27.2222
  21   2.0000      -0.996709       -27.1218
  22   2.0000      -0.993374       -27.0311
  23   2.0000      -0.982825       -26.7440
  24   2.0000      -0.567439       -15.4408
  25   2.0000      -0.565512       -15.3884
  26   2.0000      -0.550830       -14.9888
  27   2.0000      -0.549191       -14.9442
  28   2.0000      -0.541344       -14.7307
  29   2.0000      -0.539021       -14.6675
  30   2.0000      -0.530779       -14.4432
  31   2.0000      -0.523239       -14.2381
  32   2.0000      -0.521605       -14.1936
  33   2.0000      -0.520190       -14.1551
  34   2.0000      -0.519302       -14.1309
  35   2.0000      -0.518300       -14.1037
  36   2.0000      -0.463155       -12.6031
  37   2.0000      -0.446582       -12.1521
  38   2.0000      -0.436388       -11.8747
  39   2.0000      -0.431131       -11.7317
  40   2.0000      -0.415248       -11.2995
  41   2.0000      -0.413572       -11.2539
  42   2.0000      -0.410110       -11.1597
  43   2.0000      -0.407213       -11.0808
  44   2.0000      -0.391381       -10.6500
  45   2.0000      -0.387504       -10.5445
  46   2.0000      -0.379249       -10.3199
  47   2.0000      -0.360390        -9.8067
  48   2.0000      -0.342733        -9.3262
  49   2.0000      -0.340545        -9.2667
  50   2.0000      -0.335380        -9.1262
  51   2.0000      -0.330546        -8.9946
  52   2.0000      -0.326664        -8.8890
  53   2.0000      -0.326429        -8.8826
  54   2.0000      -0.325649        -8.8614
  55   2.0000      -0.319727        -8.7002
  56   2.0000      -0.319113        -8.6835
  57   2.0000      -0.316378        -8.6091
  58   2.0000      -0.307464        -8.3665
  59   2.0000      -0.305881        -8.3234
  60   0.0000      -0.000998        -0.0271
  61   0.0000       0.015807         0.4301
  62   0.0000       0.028691         0.7807
  63   0.0000       0.029991         0.8161
  64   0.0000       0.073155         1.9906

MULLIKEN ATOMIC CHARGES
-----------------------
   0 O :   -0.730412
   1 H :    0.364044
   2 H :    0.349230
   3 O :   -0.679824
   4 H :    0.373814
   5 H :    0.352097
   6 O :   -0.726082
   7 H :    0.366180
   8 H :    0.331338
   9 O :   -0.728613
  10 H :    0.366515
  11 H :    0.332538
  12 O :   -0.708678
  13 H :    0.383107
  14 H :    0.334374
  15 O :   -0.692724
  16 H :    0.348886
  17 H :    0.344692
  18 O :   -0.733413
  19 H :    0.363837
  20 H :    0.349308
  21 O :   -0.753914
  22 H :    0.353235
  23 H :    0.395778
  24 O :   -0.708702
  25 H :    0.333628
  26 H :    0.384143
  27 O :   -0.682227
  28 H :    0.355683
  29 H :    0.374932
  30 O :   -0.760585
  31 H :    0.341768
  32 H :    0.395876
  33 O :   -0.687693
  34 H :    0.345870
  35 H :    0.351998
Sum of atomic charges:   -0.0000000

LOEWDIN ATOMIC CHARGES
----------------------
   0 O :   -0.290233
   1 H :    0.143993
   2 H :    0.133396
   3 O :   -0.267281
   4 H :    0.150161
   5 H :    0.141138
   6 O :   -0.302300
   7 H :    0.137762
   8 H :    0.156761
   9 O :   -0.300906
  10 H :    0.137738
  11 H :    0.157416
  12 O :   -0.284000
  13 H :    0.146423
  14 H :    0.161272
  15 O :   -0.289026
  16 H :    0.140999
  17 H :    0.138610
  18 O :   -0.295184
  19 H :    0.143806
  20 H :    0.131790
  21 O :   -0.292986
  22 H :    0.132526
  23 H :    0.146558
  24 O :   -0.284365
  25 H :    0.160819
  26 H :    0.146136
  27 O :   -0.268900
  28 H :    0.142508
  29 H :    0.148405
  30 O :   -0.295249
  31 H :    0.129655
  32 H :    0.144483
  33 O :   -0.283744
  34 H :    0.140717
  35 H :    0.141102

  Mayer bond orders larger than 0.1
B(  0-O ,  1-H ) :   0.8182 B(  0-O ,  2-H ) :   0.7817 B(  0-O , 20-H ) :   0.1437
B(  2-H , 30-O ) :   0.1413 B(  3-O ,  4-H ) :   0.8312 B(  3-O ,  5-H ) :   0.8343
B(  3-O , 10-H ) :   0.1841 B(  6-O ,  7-H ) :   0.7343 B(  6-O ,  8-H ) :   0.8915
B(  7-H , 27-O ) :   0.1797 B(  9-O , 10-H ) :   0.7314 B(  9-O , 11-H ) :   0.8906
B( 12-O , 13-H ) :   0.7804 B( 12-O , 14-H ) :   0.8894 B( 15-O , 16-H ) :   0.8403
B( 15-O , 17-H ) :   0.8419 B( 15-O , 23-H ) :   0.1299 B( 18-O , 19-H ) :   0.8204
B( 18-O , 20-H ) :   0.7790 B( 18-O , 22-H ) :   0.1396 B( 21-O , 22-H ) :   0.7801
B( 21-O , 23-H ) :   0.7674 B( 21-O , 31-H ) :   0.1525 B( 24-O , 25-H ) :   0.8897
B( 24-O , 26-H ) :   0.7786 B( 26-H , 30-O ) :   0.1000 B( 27-O , 28-H ) :   0.8351
B( 27-O , 29-H ) :   0.8311 B( 30-O , 31-H ) :   0.7759 B( 30-O , 32-H ) :   0.7594
B( 32-H , 33-O ) :   0.1397 B( 33-O , 34-H ) :   0.8474 B( 33-O , 35-H ) :   0.8373

Dispersion correction           -0.042785023
FINAL SINGLE POINT ENERGY      -917.342455292543

DIPOLE MOMENT
-------------
                                X             Y             Z
Electronic contribution:     -0.02648       0.03021      -0.00689
Nuclear contribution   :     -0.03326       0.02071       0.00983
                        -----------------------------------------
Total Dipole Moment    :     -0.05973       0.05092       0.00295
                        -----------------------------------------
Magnitude (a.u.)       :      0.07855
Magnitude (Debye)      :      0.19965

                             ****ORCA TERMINATED NORMALLY****
TOTAL RUN TIME: 0 days 0 hours 2 minutes 1 seconds 891 msec
