                         Program Version 3.0.3 - RELEASE   -
|  1> ! wB97X-D3 MA-Def2-TZVP def2-TZVP/J RIJCOSX TightSCF Grid4
|  2>
|  3> %pal nprocs 1 end
|  4>
|  5> %scf
|  6>         maxiter 400
|  7> end
|  8>
|  9> %cosmo
| 10>         SMD true
| 11>         solvent "WATER"
| 12> end
| 13>
| 14> * xyz  0  1
| 15> O  0.560969	0.016522	-1.821165
| 16> H  -0.293901	0.072698	-2.346489
| 17> H  0.434482	0.761357	-1.140638
| 18> O  -2.816463	-1.497201	-0.824389
| 19> H  -1.942651	-1.891255	-0.563745
| 20> H  -3.008791	-0.859859	-0.074929
| 21> O  2.276781	-2.173179	0.754701
| 22> H  2.674731	-1.557912	0.033255
| 23> H  2.854834	-2.961238	0.772912
| 24> O  -1.972138	0.304066	-2.520771
| 25> H  -2.360352	-0.441465	-1.929121
| 26> H  -2.442187	0.234503	-3.374804
| 27> O  -2.993346	0.428223	1.075617
| 28> H  -2.135120	0.262462	1.572335
| 29> H  -3.695112	0.450945	1.755577
| 30> O  1.934542	-0.260329	2.655277
| 31> H  2.149506	-1.064127	2.098906
| 32> H  2.301368	0.479096	2.091107
| 33> O  -0.195198	-1.914631	-0.155372
| 34> H  0.682222	-2.274917	0.181040
| 35> H  0.107421	-1.234627	-0.845950
| 36> O  -0.523640	-0.124726	1.772548
| 37> H  -0.430052	-0.862472	1.080516
| 38> H  0.372304	-0.159999	2.266990
| 39> O  2.698284	1.550741	0.754216
| 40> H  3.257447	2.338682	0.902271
| 41> H  1.803930	1.902276	0.463072
| 42> O  3.121901	-0.453634	-1.025116
| 43> H  3.117166	0.349775	-0.427496
| 44> H  2.285409	-0.329098	-1.549131
| 45> O  0.165901	1.817178	0.085581
| 46> H  -0.104009	1.133304	0.785049
| 47> H  -0.733984	2.185015	-0.232146
| 48> O  -2.266189	2.331762	-0.736868
| 49> H  -2.666634	1.757057	-0.024211
| 50> H  -2.223299	1.692394	-1.507873
| 51> **                         ****END OF INPUT****

CARTESIAN COORDINATES (ANGSTROEM)
---------------------------------
  O      0.560969    0.016522   -1.821165
  H     -0.293901    0.072698   -2.346489
  H      0.434482    0.761357   -1.140638
  O     -2.816463   -1.497201   -0.824389
  H     -1.942651   -1.891255   -0.563745
  H     -3.008791   -0.859859   -0.074929
  O      2.276781   -2.173179    0.754701
  H      2.674731   -1.557912    0.033255
  H      2.854834   -2.961238    0.772912
  O     -1.972138    0.304066   -2.520771
  H     -2.360352   -0.441465   -1.929121
  H     -2.442187    0.234503   -3.374804
  O     -2.993346    0.428223    1.075617
  H     -2.135120    0.262462    1.572335
  H     -3.695112    0.450945    1.755577
  O      1.934542   -0.260329    2.655277
  H      2.149506   -1.064127    2.098906
  H      2.301368    0.479096    2.091107
  O     -0.195198   -1.914631   -0.155372
  H      0.682222   -2.274917    0.181040
  H      0.107421   -1.234627   -0.845950
  O     -0.523640   -0.124726    1.772548
  H     -0.430052   -0.862472    1.080516
  H      0.372304   -0.159999    2.266990
  O      2.698284    1.550741    0.754216
  H      3.257447    2.338682    0.902271
  H      1.803930    1.902276    0.463072
  O      3.121901   -0.453634   -1.025116
  H      3.117166    0.349775   -0.427496
  H      2.285409   -0.329098   -1.549131
  O      0.165901    1.817178    0.085581
  H     -0.104009    1.133304    0.785049
  H     -0.733984    2.185015   -0.232146
  O     -2.266189    2.331762   -0.736868
  H     -2.666634    1.757057   -0.024211
  H     -2.223299    1.692394   -1.507873

 Total Charge           Charge          ....    0
 Multiplicity           Mult            ....    1
 Number of Electrons    NEL             ....  120
 Basis Dimension        Dim             ....  564

ORBITAL ENERGIES
----------------

  NO   OCC          E(Eh)            E(eV)
   0   2.0000     -19.248878      -523.7886
   1   2.0000     -19.248506      -523.7785
   2   2.0000     -19.241439      -523.5862
   3   2.0000     -19.241372      -523.5844
   4   2.0000     -19.235225      -523.4171
   5   2.0000     -19.235040      -523.4120
   6   2.0000     -19.233608      -523.3731
   7   2.0000     -19.233473      -523.3694
   8   2.0000     -19.232494      -523.3428
   9   2.0000     -19.231292      -523.3100
  10   2.0000     -19.230639      -523.2923
  11   2.0000     -19.229971      -523.2741
  12   2.0000      -1.153719       -31.3943
  13   2.0000      -1.142328       -31.0843
  14   2.0000      -1.135705       -30.9041
  15   2.0000      -1.134244       -30.8644
  16   2.0000      -1.128110       -30.6974
  17   2.0000      -1.124334       -30.5947
  18   2.0000      -1.120598       -30.4930
  19   2.0000      -1.113642       -30.3037
  20   2.0000      -1.108525       -30.1645
  21   2.0000      -1.105090       -30.0710
  22   2.0000      -1.102335       -29.9961
  23   2.0000      -1.086004       -29.5517
  24   2.0000      -0.658159       -17.9094
  25   2.0000      -0.654843       -17.8192
  26   2.0000      -0.645207       -17.5570
  27   2.0000      -0.642254       -17.4766
  28   2.0000      -0.634757       -17.2726
  29   2.0000      -0.632837       -17.2204
  30   2.0000      -0.628670       -17.1070
  31   2.0000      -0.622156       -16.9297
  32   2.0000      -0.619516       -16.8579
  33   2.0000      -0.616892       -16.7865
  34   2.0000      -0.613725       -16.7003
  35   2.0000      -0.613156       -16.6848
  36   2.0000      -0.571393       -15.5484
  37   2.0000      -0.552350       -15.0302
  38   2.0000      -0.537173       -14.6172
  39   2.0000      -0.533503       -14.5174
  40   2.0000      -0.520808       -14.1719
  41   2.0000      -0.518825       -14.1180
  42   2.0000      -0.515123       -14.0172
  43   2.0000      -0.506749       -13.7893
  44   2.0000      -0.490915       -13.3585
  45   2.0000      -0.487016       -13.2524
  46   2.0000      -0.478849       -13.0301
  47   2.0000      -0.460249       -12.5240
  48   2.0000      -0.432319       -11.7640
  49   2.0000      -0.431194       -11.7334
  50   2.0000      -0.427742       -11.6394
  51   2.0000      -0.422787       -11.5046
  52   2.0000      -0.422248       -11.4900
  53   2.0000      -0.420386       -11.4393
  54   2.0000      -0.420110       -11.4318
  55   2.0000      -0.419287       -11.4094
  56   2.0000      -0.415425       -11.3043
  57   2.0000      -0.414105       -11.2684
  58   2.0000      -0.410007       -11.1569
  59   2.0000      -0.409667       -11.1476
  60   0.0000       0.063511         1.7282
  61   0.0000       0.083346         2.2680
  62   0.0000       0.093114         2.5338
  63   0.0000       0.094031         2.5587
  64   0.0000       0.111147         3.0245

MULLIKEN ATOMIC CHARGES
-----------------------
   0 O :   -0.913627
   1 H :    0.447589
   2 H :    0.438103
   3 O :   -0.822137
   4 H :    0.445956
   5 H :    0.421643
   6 O :   -0.864471
   7 H :    0.430492
   8 H :    0.417827
   9 O :   -0.869867
  10 H :    0.430468
  11 H :    0.418041
  12 O :   -0.841673
  13 H :    0.440461
  14 H :    0.422363
  15 O :   -0.816800
  16 H :    0.429511
  17 H :    0.421516
  18 O :   -0.916865
  19 H :    0.451641
  20 H :    0.428205
  21 O :   -0.957529
  22 H :    0.438906
  23 H :    0.471081
  24 O :   -0.836736
  25 H :    0.422280
  26 H :    0.441746
  27 O :   -0.821931
  28 H :    0.425255
  29 H :    0.447666
  30 O :   -0.974270
  31 H :    0.427992
  32 H :    0.474257
  33 O :   -0.810826
  34 H :    0.423733
  35 H :    0.429999
Sum of atomic charges:   -0.0000000

LOEWDIN ATOMIC CHARGES
----------------------
   0 O :   -0.433478
   1 H :    0.205082
   2 H :    0.196147
   3 O :   -0.402567
   4 H :    0.206132
   5 H :    0.201362
   6 O :   -0.394269
   7 H :    0.200196
   8 H :    0.219721
   9 O :   -0.393377
  10 H :    0.200172
  11 H :    0.219657
  12 O :   -0.372530
  13 H :    0.207631
  14 H :    0.224047
  15 O :   -0.417007
  16 H :    0.201856
  17 H :    0.201579
  18 O :   -0.433909
  19 H :    0.204355
  20 H :    0.195811
  21 O :   -0.439576
  22 H :    0.194025
  23 H :    0.200853
  24 O :   -0.372420
  25 H :    0.224075
  26 H :    0.208683
  27 O :   -0.403249
  28 H :    0.202404
  29 H :    0.206237
  30 O :   -0.435960
  31 H :    0.194778
  32 H :    0.201821
  33 O :   -0.420278
  34 H :    0.201160
  35 H :    0.200836

  Mayer bond orders larger than 0.1
B(  0-O ,  1-H ) :   0.7805 B(  0-O ,  2-H ) :   0.7709 B(  3-O ,  4-H ) :   0.8146
B(  3-O ,  5-H ) :   0.8019 B(  3-O , 10-H ) :   0.1057 B(  6-O ,  7-H ) :   0.7472
B(  6-O ,  8-H ) :   0.8306 B(  7-H , 27-O ) :   0.1040 B(  9-O , 10-H ) :   0.7467
B(  9-O , 11-H ) :   0.8298 B( 12-O , 13-H ) :   0.7915 B( 12-O , 14-H ) :   0.8272
B( 15-O , 16-H ) :   0.8124 B( 15-O , 17-H ) :   0.8141 B( 18-O , 19-H ) :   0.7809
B( 18-O , 20-H ) :   0.7737 B( 21-O , 22-H ) :   0.7647 B( 21-O , 23-H ) :   0.7357
B( 24-O , 25-H ) :   0.8275 B( 24-O , 26-H ) :   0.7957 B( 27-O , 28-H ) :   0.8058
B( 27-O , 29-H ) :   0.8104 B( 30-O , 31-H ) :   0.7722 B( 30-O , 32-H ) :   0.7388
B( 33-O , 34-H ) :   0.8151 B( 33-O , 35-H ) :   0.8081

Dispersion correction           -0.022781259
FINAL SINGLE POINT ENERGY      -917.506896154454

DIPOLE MOMENT
-------------
                                X             Y             Z
Electronic contribution:      0.01301       0.03980       0.02598
Nuclear contribution   :      0.01825      -0.05576      -0.03498
                        -----------------------------------------
Total Dipole Moment    :      0.03125      -0.01596      -0.00900
                        -----------------------------------------
Magnitude (a.u.)       :      0.03623
Magnitude (Debye)      :      0.09209

                             ****ORCA TERMINATED NORMALLY****
TOTAL RUN TIME: 0 days 0 hours 16 minutes 23 seconds 567 msec
