                         Program Version 4.2.0 -  RELEASE  -
|  1> # 12h2o.su.etal.mol0,1,3,8,9,10,11
|  2> ! MP2 def2-TZVP EnGrad TightSCF
|  3>
|  4> %pal
|  5>     nprocs 6
|  6> end
|  7>
|  8> %maxcore 8000
|  9>
| 10> %scf
| 11>     ConvForced true
| 12> end
| 13>
| 14> *xyz 0 1
| 15> O   1.794470000   0.923410000   2.768350000
| 16> H   2.338250000   1.359750000   3.430940000
| 17> H   0.879480000   1.303000000   2.865760000
| 18> O  -1.794470000  -0.923410000   2.768350000
| 19> H  -2.338250000  -1.359750000   3.430940000
| 20> H  -0.879480000  -1.303000000   2.865760000
| 21> O  -1.752130000  -0.741530000  -2.896280000
| 22> H  -2.036450000  -0.920500000  -1.984040000
| 23> H  -0.921210000  -1.242140000  -2.984230000
| 24> O   1.752130000   0.741530000  -2.896280000
| 25> H   2.036450000   0.920500000  -1.984040000
| 26> H   0.921210000   1.242140000  -2.984230000
| 27> O   0.741530000  -1.752130000   2.896280000
| 28> H   0.920500000  -2.036450000   1.984040000
| 29> H   1.242140000  -0.921210000   2.984230000
| 30> O  -0.923410000   1.794470000  -2.768350000
| 31> H  -1.359750000   2.338250000  -3.430940000
| 32> H  -1.303000000   0.879480000  -2.865760000
| 33> O  -0.741530000   1.752130000   2.896280000
| 34> H  -0.920500000   2.036450000   1.984040000
| 35> H  -1.242140000   0.921210000   2.984230000
| 36> *
| 37>
| 38>                          ****END OF INPUT****

CARTESIAN COORDINATES (ANGSTROEM)
---------------------------------
  O      1.794470    0.923410    2.768350
  H      2.338250    1.359750    3.430940
  H      0.879480    1.303000    2.865760
  O     -1.794470   -0.923410    2.768350
  H     -2.338250   -1.359750    3.430940
  H     -0.879480   -1.303000    2.865760
  O     -1.752130   -0.741530   -2.896280
  H     -2.036450   -0.920500   -1.984040
  H     -0.921210   -1.242140   -2.984230
  O      1.752130    0.741530   -2.896280
  H      2.036450    0.920500   -1.984040
  H      0.921210    1.242140   -2.984230
  O      0.741530   -1.752130    2.896280
  H      0.920500   -2.036450    1.984040
  H      1.242140   -0.921210    2.984230
  O     -0.923410    1.794470   -2.768350
  H     -1.359750    2.338250   -3.430940
  H     -1.303000    0.879480   -2.865760
  O     -0.741530    1.752130    2.896280
  H     -0.920500    2.036450    1.984040
  H     -1.242140    0.921210    2.984230

 Total Charge           Charge          ....    0
 Multiplicity           Mult            ....    1
 Number of Electrons    NEL             ....   70
 Basis Dimension        Dim             ....  301

ORBITAL ENERGIES
----------------

  NO   OCC          E(Eh)            E(eV)
   0   2.0000     -20.603375      -560.6463
   1   2.0000     -20.575148      -559.8782
   2   2.0000     -20.571985      -559.7922
   3   2.0000     -20.554985      -559.3296
   4   2.0000     -20.551143      -559.2250
   5   2.0000     -20.548645      -559.1571
   6   2.0000     -20.529652      -558.6402
   7   2.0000      -1.389156       -37.8009
   8   2.0000      -1.369409       -37.2635
   9   2.0000      -1.361514       -37.0487
  10   2.0000      -1.337756       -36.4022
  11   2.0000      -1.333416       -36.2841
  12   2.0000      -1.329922       -36.1890
  13   2.0000      -1.311213       -35.6799
  14   2.0000      -0.745706       -20.2917
  15   2.0000      -0.728770       -19.8308
  16   2.0000      -0.726388       -19.7660
  17   2.0000      -0.718264       -19.5450
  18   2.0000      -0.716546       -19.4982
  19   2.0000      -0.712376       -19.3847
  20   2.0000      -0.680466       -18.5164
  21   2.0000      -0.628101       -17.0915
  22   2.0000      -0.626534       -17.0489
  23   2.0000      -0.599642       -16.3171
  24   2.0000      -0.586052       -15.9473
  25   2.0000      -0.583972       -15.8907
  26   2.0000      -0.561416       -15.2769
  27   2.0000      -0.552696       -15.0396
  28   2.0000      -0.530586       -14.4380
  29   2.0000      -0.515694       -14.0327
  30   2.0000      -0.512531       -13.9467
  31   2.0000      -0.505319       -13.7504
  32   2.0000      -0.501355       -13.6426
  33   2.0000      -0.496800       -13.5186
  34   2.0000      -0.477527       -12.9942
  35   0.0000       0.097392         2.6502
  36   0.0000       0.122531         3.3342
  37   0.0000       0.148844         4.0503
  38   0.0000       0.153866         4.1869
  39   0.0000       0.160366         4.3638

MULLIKEN ATOMIC CHARGES
-----------------------
   0 O :   -0.745381
   1 H :    0.343111
   2 H :    0.379514
   3 O :   -0.747293
   4 H :    0.343423
   5 H :    0.378625
   6 O :   -0.685974
   7 H :    0.362187
   8 H :    0.368769
   9 O :   -0.717132
  10 H :    0.330808
  11 H :    0.361100
  12 O :   -0.707191
  13 H :    0.351145
  14 H :    0.379616
  15 O :   -0.738533
  16 H :    0.340976
  17 H :    0.377625
  18 O :   -0.709275
  19 H :    0.356298
  20 H :    0.377580
Sum of atomic charges:   -0.0000000

LOEWDIN ATOMIC CHARGES
----------------------
   0 O :   -0.342302
   1 H :    0.156519
   2 H :    0.144984
   3 O :   -0.343680
   4 H :    0.156457
   5 H :    0.144661
   6 O :   -0.269973
   7 H :    0.176534
   8 H :    0.179454
   9 O :   -0.353287
  10 H :    0.160409
  11 H :    0.146594
  12 O :   -0.283835
  13 H :    0.170197
  14 H :    0.154874
  15 O :   -0.340185
  16 H :    0.155547
  17 H :    0.144804
  18 O :   -0.284152
  19 H :    0.172368
  20 H :    0.154011

  Mayer bond orders larger than 0.100000
B(  0-O ,  1-H ) :   0.8474 B(  0-O ,  2-H ) :   0.7489 B(  2-H , 18-O ) :   0.1093
B(  3-O ,  4-H ) :   0.8473 B(  3-O ,  5-H ) :   0.7488 B(  5-H , 12-O ) :   0.1107
B(  6-O ,  7-H ) :   0.8346 B(  6-O ,  8-H ) :   0.8266 B(  9-O , 10-H ) :   0.8568
B(  9-O , 11-H ) :   0.8066 B( 12-O , 13-H ) :   0.8418 B( 12-O , 14-H ) :   0.7797
B( 15-O , 16-H ) :   0.8486 B( 15-O , 17-H ) :   0.7665 B( 18-O , 19-H ) :   0.8384
B( 18-O , 20-H ) :   0.7833

MP2 TOTAL ENERGY:     -534.258365791 Eh
FINAL SINGLE POINT ENERGY      -534.258365790914

DIPOLE MOMENT
-------------
                                X             Y             Z
Electronic contribution:     -0.17145      -0.17136      -0.08834
Nuclear contribution   :     -0.67915      -0.30898       0.63259
                        -----------------------------------------
Total Dipole Moment    :     -0.85060      -0.48034       0.54425
                        -----------------------------------------
Magnitude (a.u.)       :      1.11824
Magnitude (Debye)      :      2.84235

Rotational constants in cm-1:     0.036715     0.014138     0.013032
Rotational constants in MHz :  1100.674150   423.854947   390.679816

                             ****ORCA TERMINATED NORMALLY****
TOTAL RUN TIME: 0 days 0 hours 1 minutes 58 seconds 283 msec
