                         Program Version 4.2.0 -  RELEASE  -
|  1> # 12meoh.boyd.etal.mol6,7
|  2> ! MP2 def2-TZVP EnGrad TightSCF
|  3>
|  4> %pal
|  5>     nprocs 6
|  6> end
|  7>
|  8> %maxcore 8000
|  9>
| 10> %scf
| 11>     ConvForced true
| 12> end
| 13>
| 14> *xyz 0 1
| 15> O   2.622209273  -1.703002590  -1.445859723
| 16> H   1.828551432  -1.986513781  -0.909754968
| 17> C   2.781117675  -2.615822239  -2.525472890
| 18> H   3.691063626  -2.339003544  -3.065143454
| 19> H   1.934727323  -2.559520367  -3.223226661
| 20> H   2.879948338  -3.653846211  -2.177750170
| 21> O   4.310535586  -1.588322800   0.656128299
| 22> H   3.804372199  -1.630404735  -0.196849819
| 23> C   4.312298137  -2.894980854   1.222112691
| 24> H   4.713177833  -2.819907076   2.237066773
| 25> H   4.957796734  -3.574699304   0.648211180
| 26> H   3.302735989  -3.324433205   1.269756773
| 27> *
| 28>
| 29>                          ****END OF INPUT****

CARTESIAN COORDINATES (ANGSTROEM)
---------------------------------
  O      2.622209   -1.703003   -1.445860
  H      1.828551   -1.986514   -0.909755
  C      2.781118   -2.615822   -2.525473
  H      3.691064   -2.339004   -3.065143
  H      1.934727   -2.559520   -3.223227
  H      2.879948   -3.653846   -2.177750
  O      4.310536   -1.588323    0.656128
  H      3.804372   -1.630405   -0.196850
  C      4.312298   -2.894981    1.222113
  H      4.713178   -2.819907    2.237067
  H      4.957797   -3.574699    0.648211
  H      3.302736   -3.324433    1.269757

 Total Charge           Charge          ....    0
 Multiplicity           Mult            ....    1
 Number of Electrons    NEL             ....   36
 Basis Dimension        Dim             ....  172

ORBITAL ENERGIES
----------------

  NO   OCC          E(Eh)            E(eV)
   0   2.0000     -20.591127      -560.3130
   1   2.0000     -20.518544      -558.3380
   2   2.0000     -11.292382      -307.2813
   3   2.0000     -11.256044      -306.2925
   4   2.0000      -1.383243       -37.6400
   5   2.0000      -1.315610       -35.7996
   6   2.0000      -0.944179       -25.6924
   7   2.0000      -0.901653       -24.5352
   8   2.0000      -0.712260       -19.3816
   9   2.0000      -0.680364       -18.5137
  10   2.0000      -0.634930       -17.2773
  11   2.0000      -0.613804       -16.7025
  12   2.0000      -0.597064       -16.2469
  13   2.0000      -0.566539       -15.4163
  14   2.0000      -0.528021       -14.3682
  15   2.0000      -0.492562       -13.4033
  16   2.0000      -0.459799       -12.5118
  17   2.0000      -0.421911       -11.4808
  18   0.0000       0.112698         3.0667
  19   0.0000       0.157844         4.2952
  20   0.0000       0.174913         4.7596
  21   0.0000       0.206377         5.6158
  22   0.0000       0.216038         5.8787

MULLIKEN ATOMIC CHARGES
-----------------------
   0 O :   -0.513666
   1 H :    0.341080
   2 C :   -0.188082
   3 H :    0.145230
   4 H :    0.127217
   5 H :    0.124634
   6 O :   -0.522716
   7 H :    0.353588
   8 C :   -0.177602
   9 H :    0.126954
  10 H :    0.101356
  11 H :    0.082006
Sum of atomic charges:    0.0000000

LOEWDIN ATOMIC CHARGES
----------------------
   0 O :   -0.073232
   1 H :    0.201710
   2 C :   -0.375342
   3 H :    0.116199
   4 H :    0.104290
   5 H :    0.100603
   6 O :   -0.119507
   7 H :    0.158070
   8 C :   -0.397551
   9 H :    0.107280
  10 H :    0.091587
  11 H :    0.085894

  Mayer bond orders larger than 0.100000
B(  0-O ,  1-H ) :   0.8278 B(  0-O ,  2-C ) :   0.8738 B(  2-C ,  3-H ) :   0.9391
B(  2-C ,  4-H ) :   0.9355 B(  2-C ,  5-H ) :   0.9366 B(  6-O ,  7-H ) :   0.7925
B(  6-O ,  8-C ) :   0.9469 B(  8-C ,  9-H ) :   0.9424 B(  8-C , 10-H ) :   0.9406
B(  8-C , 11-H ) :   0.9355

MP2 TOTAL ENERGY:     -231.021211414 Eh
FINAL SINGLE POINT ENERGY      -231.021211413619

DIPOLE MOMENT
-------------
                                X             Y             Z
Electronic contribution:     -0.17663       2.96566       0.38054
Nuclear contribution   :     -0.73395      -4.01542      -1.12604
                        -----------------------------------------
Total Dipole Moment    :     -0.91058      -1.04976      -0.74550
                        -----------------------------------------
Magnitude (a.u.)       :      1.57700
Magnitude (Debye)      :      4.00841

Rotational constants in cm-1:     0.514729     0.086028     0.079589
Rotational constants in MHz : 15431.201984  2579.048072  2386.017693

                             ****ORCA TERMINATED NORMALLY****
TOTAL RUN TIME: 0 days 0 hours 0 minutes 27 seconds 658 msec
