                         Program Version 4.2.0 -  RELEASE  -
|  1> # 12mecn.remya.etal.2.mol2,4,11
|  2> ! MP2 def2-TZVP EnGrad TightSCF
|  3>
|  4> %pal
|  5>     nprocs 6
|  6> end
|  7>
|  8> %maxcore 8000
|  9>
| 10> %scf
| 11>     ConvForced true
| 12> end
| 13>
| 14> *xyz 0 1
| 15> C  -4.219070000  -3.477410000  -1.501740000
| 16> H  -3.251530000  -3.803540000  -1.893830000
| 17> H  -4.452920000  -2.481700000  -1.890840000
| 18> H  -4.992170000  -4.178130000  -1.824640000
| 19> C  -4.154550000  -3.418790000  -0.058340000
| 20> N  -4.091140000  -3.354840000   1.104432000
| 21> C  -1.509690000  -0.693960000  -1.610140000
| 22> H  -1.327010000  -1.692700000  -2.017370000
| 23> H  -0.742170000  -0.000650000  -1.964400000
| 24> H  -2.491920000  -0.334310000  -1.929350000
| 25> C  -1.473570000  -0.748120000  -0.167200000
| 26> N  -1.447490000  -0.793720000   0.998938000
| 27> C   4.214163000   3.378139000   1.593627000
| 28> H   3.242643000   3.657109000   2.012358000
| 29> H   4.969258000   4.086643000   1.941290000
| 30> H   4.482966000   2.372549000   1.931698000
| 31> C   4.130759000   3.388436000   0.150192000
| 32> N   4.050180000   3.381449000  -1.013420000
| 33> *
| 34>
| 35>                          ****END OF INPUT****

CARTESIAN COORDINATES (ANGSTROEM)
---------------------------------
  C     -4.219070   -3.477410   -1.501740
  H     -3.251530   -3.803540   -1.893830
  H     -4.452920   -2.481700   -1.890840
  H     -4.992170   -4.178130   -1.824640
  C     -4.154550   -3.418790   -0.058340
  N     -4.091140   -3.354840    1.104432
  C     -1.509690   -0.693960   -1.610140
  H     -1.327010   -1.692700   -2.017370
  H     -0.742170   -0.000650   -1.964400
  H     -2.491920   -0.334310   -1.929350
  C     -1.473570   -0.748120   -0.167200
  N     -1.447490   -0.793720    0.998938
  C      4.214163    3.378139    1.593627
  H      3.242643    3.657109    2.012358
  H      4.969258    4.086643    1.941290
  H      4.482966    2.372549    1.931698
  C      4.130759    3.388436    0.150192
  N      4.050180    3.381449   -1.013420

 Total Charge           Charge          ....    0
 Multiplicity           Mult            ....    1
 Number of Electrons    NEL             ....   66
 Basis Dimension        Dim             ....  333

ORBITAL ENERGIES
----------------

  NO   OCC          E(Eh)            E(eV)
   0   2.0000     -15.573121      -423.7662
   1   2.0000     -15.571384      -423.7189
   2   2.0000     -15.570845      -423.7042
   3   2.0000     -11.289389      -307.1999
   4   2.0000     -11.287842      -307.1578
   5   2.0000     -11.283602      -307.0424
   6   2.0000     -11.280587      -306.9604
   7   2.0000     -11.276268      -306.8429
   8   2.0000     -11.276053      -306.8370
   9   2.0000      -1.214947       -33.0604
  10   2.0000      -1.212282       -32.9879
  11   2.0000      -1.210659       -32.9437
  12   2.0000      -1.047534       -28.5048
  13   2.0000      -1.044802       -28.4305
  14   2.0000      -1.042496       -28.3677
  15   2.0000      -0.703242       -19.1362
  16   2.0000      -0.699630       -19.0379
  17   2.0000      -0.699527       -19.0351
  18   2.0000      -0.641244       -17.4491
  19   2.0000      -0.638572       -17.3764
  20   2.0000      -0.632980       -17.2243
  21   2.0000      -0.630403       -17.1541
  22   2.0000      -0.629556       -17.1311
  23   2.0000      -0.628478       -17.1018
  24   2.0000      -0.556504       -15.1432
  25   2.0000      -0.553630       -15.0650
  26   2.0000      -0.550771       -14.9872
  27   2.0000      -0.462581       -12.5875
  28   2.0000      -0.458034       -12.4637
  29   2.0000      -0.457862       -12.4591
  30   2.0000      -0.456587       -12.4244
  31   2.0000      -0.453394       -12.3375
  32   2.0000      -0.446389       -12.1469
  33   0.0000       0.096461         2.6248
  34   0.0000       0.120902         3.2899
  35   0.0000       0.143952         3.9171
  36   0.0000       0.148864         4.0508
  37   0.0000       0.157107         4.2751

MULLIKEN ATOMIC CHARGES
-----------------------
   0 C :   -0.285975
   1 H :    0.166082
   2 H :    0.164039
   3 H :    0.182203
   4 C :   -0.154478
   5 N :   -0.071844
   6 C :   -0.284048
   7 H :    0.162211
   8 H :    0.187372
   9 H :    0.165915
  10 C :   -0.155024
  11 N :   -0.076462
  12 C :   -0.279077
  13 H :    0.174798
  14 H :    0.171506
  15 H :    0.173865
  16 C :   -0.145269
  17 N :   -0.095814
Sum of atomic charges:   -0.0000000

LOEWDIN ATOMIC CHARGES
----------------------
   0 C :   -0.288168
   1 H :    0.149676
   2 H :    0.149499
   3 H :    0.152000
   4 C :   -0.224314
   5 N :    0.061309
   6 C :   -0.287380
   7 H :    0.148709
   8 H :    0.155274
   9 H :    0.150117
  10 C :   -0.224943
  11 N :    0.058218
  12 C :   -0.283042
  13 H :    0.154034
  14 H :    0.151002
  15 H :    0.153884
  16 C :   -0.218570
  17 N :    0.042695

  Mayer bond orders larger than 0.100000
B(  0-C ,  1-H ) :   0.9227 B(  0-C ,  2-H ) :   0.9206 B(  0-C ,  3-H ) :   0.9112
B(  0-C ,  4-C ) :   0.8985 B(  4-C ,  5-N ) :   2.8262 B(  6-C ,  7-H ) :   0.9204
B(  6-C ,  8-H ) :   0.9099 B(  6-C ,  9-H ) :   0.9227 B(  6-C , 10-C ) :   0.8960
B( 10-C , 11-N ) :   2.8288 B( 12-C , 13-H ) :   0.9153 B( 12-C , 14-H ) :   0.9166
B( 12-C , 15-H ) :   0.9155 B( 12-C , 16-C ) :   0.9026 B( 16-C , 17-N ) :   2.8399

MP2 TOTAL ENERGY:     -397.448345407 Eh
FINAL SINGLE POINT ENERGY      -397.448345406676

DIPOLE MOMENT
-------------
                                X             Y             Z
Electronic contribution:      0.04922       0.02443       3.27878
Nuclear contribution   :     -0.05580      -0.03285      -4.62441
                        -----------------------------------------
Total Dipole Moment    :     -0.00658      -0.00842      -1.34563
                        -----------------------------------------
Magnitude (a.u.)       :      1.34567
Magnitude (Debye)      :      3.42043

Rotational constants in cm-1:     0.100100     0.006874     0.006473
Rotational constants in MHz :  3000.913543   206.071904   194.068881

                             ****ORCA TERMINATED NORMALLY****
TOTAL RUN TIME: 0 days 0 hours 2 minutes 31 seconds 131 msec
