                         Program Version 3.0.3 - RELEASE   -
|  1> ! BP86 Def2-SVP TightSCF Opt D3BJ COSMO
|  2>
|  3> %pal nprocs 12 end
|  4>
|  5> %scf
|  6>         maxiter 800
|  7> end
|  8>
|  9> %cosmo
| 10> 	SMD true
| 11>         solvent "WATER"
| 12> end
| 13>
| 14> * xyz  0  1
| 15>   O      1.957369    1.404327    0.469203
| 16>   H      1.310735    1.225180    1.151846
| 17>   H      2.601645    1.972121    0.891992
| 18>   O     -0.010466    0.736885    2.174392
| 19>   H     -0.791209    1.012745    1.694212
| 20>   H     -0.018136   -0.218525    2.116382
| 21>   O      0.074205   -1.952169    1.485634
| 22>   H      0.779413   -1.788816    0.859352
| 23>   H      0.328539   -2.762288    1.927509
| 24>   O     -2.061124    1.274283    0.389304
| 25>   H     -2.098687    0.359187    0.111057
| 26>   H     -2.977537    1.534898    0.481494
| 27>   O      1.894868   -1.245039   -0.361168
| 28>   H      1.357514   -1.165457   -1.149298
| 29>   H      2.096824   -0.342021   -0.116211
| 30>   O     -0.025892    1.799266   -1.425852
| 31>   H      0.729324    1.813289   -0.837903
| 32>   H     -0.784386    1.789649   -0.842048
| 33>   O      0.029549   -0.726441   -2.344141
| 34>   H      0.008540    0.204449   -2.122254
| 35>   H      0.047348   -0.744733   -3.301000
| 36>   O     -1.858510   -1.291111   -0.387372
| 37>   H     -1.294300   -1.229102   -1.158121
| 38>   H     -1.295629   -1.660576    0.292990
| 39> **                         ****END OF INPUT****
 Total Charge           Charge          ....    0
 Multiplicity           Mult            ....    1
 Number of Electrons    NEL             ....   80
Dispersion correction           -0.022545585
FINAL SINGLE POINT ENERGY      -611.109303733259
Dispersion correction            ...
Dispersion correction           -0.022136250
FINAL SINGLE POINT ENERGY      -611.125596478188
Dispersion correction            ...
Dispersion correction           -0.022417342
FINAL SINGLE POINT ENERGY      -611.128895235439
Dispersion correction            ...
FINAL SINGLE POINT ENERGY      -611.130742768442
FINAL SINGLE POINT ENERGY      -611.132211539446
FINAL SINGLE POINT ENERGY      -611.133107205609
FINAL SINGLE POINT ENERGY      -611.133551003515
FINAL SINGLE POINT ENERGY      -611.133695544302
FINAL SINGLE POINT ENERGY      -611.133815825116
FINAL SINGLE POINT ENERGY      -611.134118732051
FINAL SINGLE POINT ENERGY      -611.144218602063
FINAL SINGLE POINT ENERGY      -611.135960142489
FINAL SINGLE POINT ENERGY      -611.135976575588
FINAL SINGLE POINT ENERGY      -611.135985656506
FINAL SINGLE POINT ENERGY      -611.136004821470
FINAL SINGLE POINT ENERGY      -611.136022363369
FINAL SINGLE POINT ENERGY      -611.136034272542
Dispersion correction            ...
Dispersion correction           -0.023902714
FINAL SINGLE POINT ENERGY      -611.136039548517
Dispersion correction            ...
Dispersion correction           -0.023897179
FINAL SINGLE POINT ENERGY      -611.136058069791
Dispersion correction            ...
                    ***********************HURRAY********************

CARTESIAN COORDINATES (ANGSTROEM)
---------------------------------
  O      1.787730    1.285940    0.414557
  H      1.135335    1.134551    1.199365
  H      2.502962    1.850278    0.768507
  O      0.007062    0.765842    2.238180
  H     -0.781807    1.018988    1.671673
  H      0.030584   -0.229028    2.110841
  O      0.055589   -1.778603    1.365028
  H      0.850898   -1.669841    0.716810
  H      0.227303   -2.604383    1.858580
  O     -1.880625    1.169615    0.366497
  H     -1.996535    0.192260    0.063292
  H     -2.785395    1.513130    0.503223
  O      1.944987   -1.288645   -0.352107
  H      1.338508   -1.169068   -1.142467
  H      2.085140   -0.336874   -0.066818
  O     -0.041160    1.845731   -1.481341
  H      0.729812    1.801682   -0.841318
  H     -0.821755    1.760726   -0.858013
  O      0.036268   -0.673618   -2.144472
  H      0.007175    0.343516   -1.980105
  H      0.063609   -0.786029   -3.115192
  O     -1.916564   -1.318782   -0.409593
  H     -1.294855   -1.188480   -1.185539
  H     -1.284267   -1.638905    0.300412

 Multiplicity           Mult            ....    1
 Number of Electrons    NEL             ....   80
 Basis Dimension        Dim             ....  192

ORBITAL ENERGIES
----------------

  NO   OCC          E(Eh)            E(eV)
   0   2.0000     -18.778986      -511.0022
   1   2.0000     -18.778945      -511.0011
   2   2.0000     -18.778528      -510.9897
   3   2.0000     -18.778000      -510.9754
   4   2.0000     -18.761183      -510.5177
   5   2.0000     -18.760747      -510.5059
   6   2.0000     -18.760586      -510.5015
   7   2.0000     -18.760573      -510.5012
   8   2.0000      -0.920184       -25.0395
   9   2.0000      -0.904451       -24.6114
  10   2.0000      -0.902291       -24.5526
  11   2.0000      -0.901753       -24.5380
  12   2.0000      -0.881013       -23.9736
  13   2.0000      -0.880771       -23.9670
  14   2.0000      -0.878525       -23.9059
  15   2.0000      -0.863489       -23.4967
  16   2.0000      -0.473935       -12.8964
  17   2.0000      -0.471612       -12.8332
  18   2.0000      -0.470283       -12.7970
  19   2.0000      -0.469539       -12.7768
  20   2.0000      -0.452965       -12.3258
  21   2.0000      -0.452395       -12.3103
  22   2.0000      -0.447067       -12.1653
  23   2.0000      -0.446934       -12.1617
  24   2.0000      -0.393500       -10.7077
  25   2.0000      -0.357006        -9.7146
  26   2.0000      -0.356688        -9.7060
  27   2.0000      -0.354608        -9.6494
  28   2.0000      -0.327417        -8.9095
  29   2.0000      -0.324743        -8.8367
  30   2.0000      -0.324544        -8.8313
  31   2.0000      -0.290484        -7.9045
  32   2.0000      -0.262782        -7.1507
  33   2.0000      -0.262355        -7.1390
  34   2.0000      -0.261776        -7.1233
  35   2.0000      -0.260552        -7.0900
  36   2.0000      -0.251970        -6.8565
  37   2.0000      -0.251718        -6.8496
  38   2.0000      -0.251504        -6.8438
  39   2.0000      -0.249293        -6.7836
  40   0.0000       0.023658         0.6438
  41   0.0000       0.065739         1.7888
  42   0.0000       0.066340         1.8052
  43   0.0000       0.066729         1.8158
  44   0.0000       0.143642         3.9087

MULLIKEN ATOMIC CHARGES
-----------------------
   0 O :   -0.332597
   1 H :    0.154719
   2 H :    0.225125
   3 O :   -0.361108
   4 H :    0.159839
   5 H :    0.155662
   6 O :   -0.333850
   7 H :    0.156576
   8 H :    0.224635
   9 O :   -0.335302
  10 H :    0.156121
  11 H :    0.225841
  12 O :   -0.361524
  13 H :    0.158616
  14 H :    0.154302
  15 O :   -0.357617
  16 H :    0.157335
  17 H :    0.157407
  18 O :   -0.330107
  19 H :    0.151203
  20 H :    0.224854
  21 O :   -0.361323
  22 H :    0.154188
  23 H :    0.157005
Sum of atomic charges:   -0.0000000

LOEWDIN ATOMIC CHARGES
----------------------
   0 O :   -0.084445
   1 H :    0.034235
   2 H :    0.112916
   3 O :   -0.138412
   4 H :    0.037862
   5 H :    0.037220
   6 O :   -0.084417
   7 H :    0.034332
   8 H :    0.112751
   9 O :   -0.083671
  10 H :    0.035165
  11 H :    0.113584
  12 O :   -0.138131
  13 H :    0.037939
  14 H :    0.036706
  15 O :   -0.137063
  16 H :    0.037899
  17 H :    0.038166
  18 O :   -0.082658
  19 H :    0.033707
  20 H :    0.112947
  21 O :   -0.140191
  22 H :    0.036677
  23 H :    0.036880

  Mayer bond orders larger than 0.1
B(  0-O ,  1-H ) :   0.7928 B(  0-O ,  2-H ) :   0.9566 B(  0-O , 14-H ) :   0.2030
B(  0-O , 16-H ) :   0.1981 B(  1-H ,  3-O ) :   0.2915 B(  3-O ,  4-H ) :   0.8859
B(  3-O ,  5-H ) :   0.8889 B(  4-H ,  9-O ) :   0.1987 B(  5-H ,  6-O ) :   0.1986
B(  6-O ,  7-H ) :   0.7933 B(  6-O ,  8-H ) :   0.9570 B(  6-O , 23-H ) :   0.2006
B(  7-H , 12-O ) :   0.2898 B(  9-O , 10-H ) :   0.7955 B(  9-O , 11-H ) :   0.9565
B(  9-O , 17-H ) :   0.1956 B( 10-H , 21-O ) :   0.2889 B( 12-O , 13-H ) :   0.8870
B( 12-O , 14-H ) :   0.8853 B( 13-H , 18-O ) :   0.1983 B( 15-O , 16-H ) :   0.8878
B( 15-O , 17-H ) :   0.8897 B( 15-O , 19-H ) :   0.2908 B( 18-O , 19-H ) :   0.7956
B( 18-O , 20-H ) :   0.9574 B( 18-O , 22-H ) :   0.1995 B( 21-O , 22-H ) :   0.8884
B( 21-O , 23-H ) :   0.8866

Dispersion correction           -0.023892806
FINAL SINGLE POINT ENERGY      -611.136084264528

DIPOLE MOMENT
-------------
                                X             Y             Z
Electronic contribution:     -0.00203       0.01209      -0.00611
Nuclear contribution   :      0.01676      -0.01867       0.00812
                        -----------------------------------------
Total Dipole Moment    :      0.01473      -0.00658       0.00201
                        -----------------------------------------
Magnitude (a.u.)       :      0.01626
Magnitude (Debye)      :      0.04133

                             ****ORCA TERMINATED NORMALLY****
TOTAL RUN TIME: 0 days 0 hours 29 minutes 9 seconds 895 msec
