                         Program Version 3.0.3 - RELEASE   -
|  1> ! B3LYP Def2-TZVP def2-TZVP/J RIJCOSX TightSCF Grid4 D3BJ COSMO
|  2>
|  3> %pal nprocs 12 end
|  4>
|  5> %scf
|  6>         maxiter 400
|  7> end
|  8>
|  9> %cosmo
| 10>         SMD true
| 11>         solvent "WATER"
| 12> end
| 13>
| 14> * xyz  0  1
| 15> O  0.622517	-1.808000	0.079574
| 16> H  1.532563	-1.885193	0.408205
| 17> H  0.168042	-1.257531	0.772180
| 18> O  -1.197437	1.518376	-0.297079
| 19> H  -2.027428	1.180900	-0.671827
| 20> H  -0.505499	1.113438	-0.888291
| 21> O  0.657673	0.212541	-1.712580
| 22> H  1.503544	0.664754	-1.567361
| 23> H  0.707499	-0.586110	-1.121583
| 24> O  -0.616341	-0.097500	1.761577
| 25> H  -0.900244	0.534390	1.046199
| 26> H  0.096650	0.380991	2.213069
| 27> **                         ****END OF INPUT****

CARTESIAN COORDINATES (ANGSTROEM)
---------------------------------
  O      0.622517   -1.808000    0.079574
  H      1.532563   -1.885193    0.408205
  H      0.168042   -1.257531    0.772180
  O     -1.197437    1.518376   -0.297079
  H     -2.027428    1.180900   -0.671827
  H     -0.505499    1.113438   -0.888291
  O      0.657673    0.212541   -1.712580
  H      1.503544    0.664754   -1.567361
  H      0.707499   -0.586110   -1.121583
  O     -0.616341   -0.097500    1.761577
  H     -0.900244    0.534390    1.046199
  H      0.096650    0.380991    2.213069

 Total Charge           Charge          ....    0
 Multiplicity           Mult            ....    1
 Number of Electrons    NEL             ....   40
 Basis Dimension        Dim             ....  172

ORBITAL ENERGIES
----------------

  NO   OCC          E(Eh)            E(eV)
   0   2.0000     -19.125949      -520.4435
   1   2.0000     -19.125434      -520.4295
   2   2.0000     -19.124540      -520.4052
   3   2.0000     -19.124151      -520.3946
   4   2.0000      -1.024550       -27.8794
   5   2.0000      -1.006921       -27.3997
   6   2.0000      -1.006795       -27.3963
   7   2.0000      -0.989768       -26.9330
   8   2.0000      -0.532656       -14.4943
   9   2.0000      -0.523501       -14.2452
  10   2.0000      -0.522418       -14.2157
  11   2.0000      -0.518975       -14.1220
  12   2.0000      -0.430408       -11.7120
  13   2.0000      -0.406283       -11.0555
  14   2.0000      -0.401796       -10.9334
  15   2.0000      -0.386618       -10.5204
  16   2.0000      -0.323474        -8.8022
  17   2.0000      -0.322532        -8.7765
  18   2.0000      -0.321235        -8.7413
  19   2.0000      -0.313653        -8.5349
  20   0.0000       0.020253         0.5511
  21   0.0000       0.067798         1.8449
  22   0.0000       0.073181         1.9914
  23   0.0000       0.096123         2.6156
  24   0.0000       0.170803         4.6478

MULLIKEN ATOMIC CHARGES
-----------------------
   0 O :   -0.751895
   1 H :    0.379429
   2 H :    0.373388
   3 O :   -0.748526
   4 H :    0.380722
   5 H :    0.370996
   6 O :   -0.748456
   7 H :    0.379674
   8 H :    0.370766
   9 O :   -0.753093
  10 H :    0.368694
  11 H :    0.378301
Sum of atomic charges:   -0.0000000

LOEWDIN ATOMIC CHARGES
----------------------
   0 O :   -0.322217
   1 H :    0.180164
   2 H :    0.141551
   3 O :   -0.321353
   4 H :    0.181489
   5 H :    0.139632
   6 O :   -0.315700
   7 H :    0.180365
   8 H :    0.141584
   9 O :   -0.323783
  10 H :    0.139203
  11 H :    0.179065

  Mayer bond orders larger than 0.1
B(  0-O ,  1-H ) :   0.8611 B(  0-O ,  2-H ) :   0.7834 B(  0-O ,  8-H ) :   0.1364
B(  2-H ,  9-O ) :   0.1319 B(  3-O ,  4-H ) :   0.8611 B(  3-O ,  5-H ) :   0.7788
B(  3-O , 10-H ) :   0.1464 B(  5-H ,  6-O ) :   0.1413 B(  6-O ,  7-H ) :   0.8609
B(  6-O ,  8-H ) :   0.7816 B(  9-O , 10-H ) :   0.7773 B(  9-O , 11-H ) :   0.8621

Dispersion correction           -0.008310142
FINAL SINGLE POINT ENERGY      -305.781593012110

DIPOLE MOMENT
-------------
                                X             Y             Z
Electronic contribution:      0.00039       0.00061      -0.02543
Nuclear contribution   :      1.36699       0.41186       0.43916
                        -----------------------------------------
Total Dipole Moment    :      1.36738       0.41246       0.41373
                        -----------------------------------------
Magnitude (a.u.)       :      1.48695
Magnitude (Debye)      :      3.77953

                             ****ORCA TERMINATED NORMALLY****
TOTAL RUN TIME: 0 days 0 hours 0 minutes 53 seconds 257 msec
