                         Program Version 3.0.3 - RELEASE   -
|  1> ! wB97X-D3 Def2-TZVP def2-TZVP/J RIJCOSX TightSCF Grid4 COSMO
|  2>
|  3> %pal nprocs 12 end
|  4>
|  5> %scf
|  6>         maxiter 400
|  7> end
|  8>
|  9> %cosmo
| 10>         SMD true
| 11>         solvent "WATER"
| 12> end
| 13>
| 14> * xyz  0  1
| 15> O  1.247123	-1.368774	0.353058
| 16> H  0.918425	-2.260883	0.122043
| 17> H  0.488328	-0.983997	0.909437
| 18> O  -1.110486	1.493781	-0.263157
| 19> H  -1.980379	1.260014	-0.644597
| 20> H  -0.460540	1.012745	-0.879644
| 21> O  0.557216	0.076609	-1.765081
| 22> H  1.321498	0.659720	-1.945808
| 23> H  0.891972	-0.505437	-1.001609
| 24> O  -0.703903	-0.207311	1.735478
| 25> H  -0.927803	0.474197	1.014997
| 26> H  -0.199912	0.320394	2.386968
| 27> **                         ****END OF INPUT****

CARTESIAN COORDINATES (ANGSTROEM)
---------------------------------
  O      1.247123   -1.368774    0.353058
  H      0.918425   -2.260883    0.122043
  H      0.488328   -0.983997    0.909437
  O     -1.110486    1.493781   -0.263157
  H     -1.980379    1.260014   -0.644597
  H     -0.460540    1.012745   -0.879644
  O      0.557216    0.076609   -1.765081
  H      1.321498    0.659720   -1.945808
  H      0.891972   -0.505437   -1.001609
  O     -0.703903   -0.207311    1.735478
  H     -0.927803    0.474197    1.014997
  H     -0.199912    0.320394    2.386968

 Total Charge           Charge          ....    0
 Multiplicity           Mult            ....    1
 Number of Electrons    NEL             ....   40
 Basis Dimension        Dim             ....  172

ORBITAL ENERGIES
----------------

  NO   OCC          E(Eh)            E(eV)
   0   2.0000     -19.232769      -523.3503
   1   2.0000     -19.232744      -523.3496
   2   2.0000     -19.232675      -523.3477
   3   2.0000     -19.232125      -523.3327
   4   2.0000      -1.137365       -30.9493
   5   2.0000      -1.117121       -30.3984
   6   2.0000      -1.116993       -30.3949
   7   2.0000      -1.097220       -29.8569
   8   2.0000      -0.630523       -17.1574
   9   2.0000      -0.619726       -16.8636
  10   2.0000      -0.618093       -16.8192
  11   2.0000      -0.617475       -16.8024
  12   2.0000      -0.539669       -14.6851
  13   2.0000      -0.506772       -13.7900
  14   2.0000      -0.505857       -13.7651
  15   2.0000      -0.479929       -13.0595
  16   2.0000      -0.419467       -11.4143
  17   2.0000      -0.418566       -11.3898
  18   2.0000      -0.414760       -11.2862
  19   2.0000      -0.414429       -11.2772
  20   0.0000       0.110204         2.9988
  21   0.0000       0.158987         4.3263
  22   0.0000       0.159069         4.3285
  23   0.0000       0.183337         4.9889
  24   0.0000       0.280008         7.6194

MULLIKEN ATOMIC CHARGES
-----------------------
   0 O :   -0.766750
   1 H :    0.398067
   2 H :    0.367955
   3 O :   -0.769333
   4 H :    0.397551
   5 H :    0.370139
   6 O :   -0.767253
   7 H :    0.397966
   8 H :    0.369259
   9 O :   -0.768961
  10 H :    0.373121
  11 H :    0.398239
Sum of atomic charges:   -0.0000000

LOEWDIN ATOMIC CHARGES
----------------------
   0 O :   -0.335317
   1 H :    0.186800
   2 H :    0.147982
   3 O :   -0.335552
   4 H :    0.186477
   5 H :    0.147946
   6 O :   -0.333941
   7 H :    0.186739
   8 H :    0.148481
   9 O :   -0.334750
  10 H :    0.148530
  11 H :    0.186604

  Mayer bond orders larger than 0.1
B(  0-O ,  1-H ) :   0.8494 B(  0-O ,  2-H ) :   0.7653 B(  0-O ,  8-H ) :   0.1558
B(  2-H ,  9-O ) :   0.1556 B(  3-O ,  4-H ) :   0.8500 B(  3-O ,  5-H ) :   0.7621
B(  3-O , 10-H ) :   0.1549 B(  5-H ,  6-O ) :   0.1590 B(  6-O ,  7-H ) :   0.8492
B(  6-O ,  8-H ) :   0.7642 B(  9-O , 10-H ) :   0.7628 B(  9-O , 11-H ) :   0.8495

Dispersion correction           -0.003102284
FINAL SINGLE POINT ENERGY      -305.825211624230

DIPOLE MOMENT
-------------
                                X             Y             Z
Electronic contribution:      0.00201      -0.00139      -0.00196
Nuclear contribution   :      0.05967      -0.00987      -0.13219
                        -----------------------------------------
Total Dipole Moment    :      0.06168      -0.01126      -0.13414
                        -----------------------------------------
Magnitude (a.u.)       :      0.14807
Magnitude (Debye)      :      0.37637

                             ****ORCA TERMINATED NORMALLY****
TOTAL RUN TIME: 0 days 0 hours 0 minutes 55 seconds 123 msec
