                         Program Version 3.0.3 - RELEASE   -
|  1> ! wB97X-D3 Def2-TZVP def2-TZVP/J RIJCOSX TightSCF Grid4 COSMO
|  2>
|  3> %pal nprocs 12 end
|  4>
|  5> %scf
|  6>         maxiter 400
|  7> end
|  8>
|  9> %cosmo
| 10>         SMD true
| 11>         solvent "WATER"
| 12> end
| 13>
| 14> * xyz  0  1
| 15> O  0.622517	-1.808000	0.079574
| 16> H  1.532563	-1.885193	0.408205
| 17> H  0.168042	-1.257531	0.772180
| 18> O  -1.197437	1.518376	-0.297079
| 19> H  -2.027428	1.180900	-0.671827
| 20> H  -0.505499	1.113438	-0.888291
| 21> O  0.657673	0.212541	-1.712580
| 22> H  1.503544	0.664754	-1.567361
| 23> H  0.707499	-0.586110	-1.121583
| 24> O  -0.616341	-0.097500	1.761577
| 25> H  -0.900244	0.534390	1.046199
| 26> H  0.096650	0.380991	2.213069
| 27> **                         ****END OF INPUT****

CARTESIAN COORDINATES (ANGSTROEM)
---------------------------------
  O      0.622517   -1.808000    0.079574
  H      1.532563   -1.885193    0.408205
  H      0.168042   -1.257531    0.772180
  O     -1.197437    1.518376   -0.297079
  H     -2.027428    1.180900   -0.671827
  H     -0.505499    1.113438   -0.888291
  O      0.657673    0.212541   -1.712580
  H      1.503544    0.664754   -1.567361
  H      0.707499   -0.586110   -1.121583
  O     -0.616341   -0.097500    1.761577
  H     -0.900244    0.534390    1.046199
  H      0.096650    0.380991    2.213069

 Total Charge           Charge          ....    0
 Multiplicity           Mult            ....    1
 Number of Electrons    NEL             ....   40
 Basis Dimension        Dim             ....  172

ORBITAL ENERGIES
----------------

  NO   OCC          E(Eh)            E(eV)
   0   2.0000     -19.233807      -523.3785
   1   2.0000     -19.233186      -523.3616
   2   2.0000     -19.232338      -523.3385
   3   2.0000     -19.232005      -523.3295
   4   2.0000      -1.140924       -31.0461
   5   2.0000      -1.122743       -30.5514
   6   2.0000      -1.122625       -30.5482
   7   2.0000      -1.105168       -30.0731
   8   2.0000      -0.636356       -17.3161
   9   2.0000      -0.626593       -17.0505
  10   2.0000      -0.625477       -17.0201
  11   2.0000      -0.622270       -16.9328
  12   2.0000      -0.533797       -14.5254
  13   2.0000      -0.508682       -13.8419
  14   2.0000      -0.503884       -13.7114
  15   2.0000      -0.488988       -13.3060
  16   2.0000      -0.422307       -11.4916
  17   2.0000      -0.421963       -11.4822
  18   2.0000      -0.420576       -11.4445
  19   2.0000      -0.412897       -11.2355
  20   0.0000       0.106876         2.9083
  21   0.0000       0.157783         4.2935
  22   0.0000       0.164125         4.4661
  23   0.0000       0.187288         5.0964
  24   0.0000       0.256479         6.9792

MULLIKEN ATOMIC CHARGES
-----------------------
   0 O :   -0.772489
   1 H :    0.396486
   2 H :    0.377217
   3 O :   -0.769718
   4 H :    0.397413
   5 H :    0.375389
   6 O :   -0.770014
   7 H :    0.396906
   8 H :    0.375024
   9 O :   -0.774448
  10 H :    0.372793
  11 H :    0.395442
Sum of atomic charges:   -0.0000000

LOEWDIN ATOMIC CHARGES
----------------------
   0 O :   -0.324894
   1 H :    0.182334
   2 H :    0.142066
   3 O :   -0.324037
   4 H :    0.183464
   5 H :    0.140157
   6 O :   -0.318393
   7 H :    0.182561
   8 H :    0.142257
   9 O :   -0.326458
  10 H :    0.139741
  11 H :    0.181202

  Mayer bond orders larger than 0.1
B(  0-O ,  1-H ) :   0.8507 B(  0-O ,  2-H ) :   0.7873 B(  0-O ,  8-H ) :   0.1267
B(  2-H ,  9-O ) :   0.1220 B(  3-O ,  4-H ) :   0.8507 B(  3-O ,  5-H ) :   0.7827
B(  3-O , 10-H ) :   0.1358 B(  5-H ,  6-O ) :   0.1308 B(  6-O ,  7-H ) :   0.8502
B(  6-O ,  8-H ) :   0.7852 B(  9-O , 10-H ) :   0.7813 B(  9-O , 11-H ) :   0.8516

Dispersion correction           -0.003185566
FINAL SINGLE POINT ENERGY      -305.828655897420

DIPOLE MOMENT
-------------
                                X             Y             Z
Electronic contribution:      0.01927       0.00537      -0.01963
Nuclear contribution   :      1.36699       0.41186       0.43916
                        -----------------------------------------
Total Dipole Moment    :      1.38626       0.41723       0.41953
                        -----------------------------------------
Magnitude (a.u.)       :      1.50725
Magnitude (Debye)      :      3.83111

                             ****ORCA TERMINATED NORMALLY****
TOTAL RUN TIME: 0 days 0 hours 0 minutes 53 seconds 28 msec
