                         Program Version 3.0.3 - RELEASE   -
|  1> ! wB97X-D3 Def2-TZVP def2-TZVP/J RIJCOSX TightSCF Grid4
|  2>
|  3> %pal nprocs 12 end
|  4>
|  5> %scf
|  6>         maxiter 400
|  7> end
|  8>
|  9> * xyz  0  1
| 10> O  1.207940	-1.399164	0.315023
| 11> H  0.893517	-2.306586	0.142832
| 12> H  0.475050	-1.001883	0.899830
| 13> O  -1.161193	1.466910	-0.261679
| 14> H  -2.011260	1.195014	-0.655828
| 15> H  -0.478020	1.051450	-0.888968
| 16> O  0.580453	0.137264	-1.740469
| 17> H  1.377009	0.655683	-1.958338
| 18> H  0.901498	-0.502548	-1.017754
| 19> O  -0.650895	-0.180892	1.740035
| 20> H  -0.912111	0.507134	1.036657
| 21> H  -0.180452	0.348675	2.410744
| 22> **                         ****END OF INPUT****

CARTESIAN COORDINATES (ANGSTROEM)
---------------------------------
  O      1.207940   -1.399164    0.315023
  H      0.893517   -2.306586    0.142832
  H      0.475050   -1.001883    0.899830
  O     -1.161193    1.466910   -0.261679
  H     -2.011260    1.195014   -0.655828
  H     -0.478020    1.051450   -0.888968
  O      0.580453    0.137264   -1.740469
  H      1.377009    0.655683   -1.958338
  H      0.901498   -0.502548   -1.017754
  O     -0.650895   -0.180892    1.740035
  H     -0.912111    0.507134    1.036657
  H     -0.180452    0.348675    2.410744

 Total Charge           Charge          ....    0
 Multiplicity           Mult            ....    1
 Number of Electrons    NEL             ....   40
 Basis Dimension        Dim             ....  172

ORBITAL ENERGIES
----------------

  NO   OCC          E(Eh)            E(eV)
   0   2.0000     -19.234540      -523.3984
   1   2.0000     -19.233955      -523.3825
   2   2.0000     -19.233698      -523.3755
   3   2.0000     -19.233688      -523.3752
   4   2.0000      -1.139885       -31.0179
   5   2.0000      -1.119807       -30.4715
   6   2.0000      -1.119457       -30.4620
   7   2.0000      -1.099828       -29.9279
   8   2.0000      -0.638874       -17.3846
   9   2.0000      -0.625799       -17.0289
  10   2.0000      -0.624671       -16.9982
  11   2.0000      -0.620918       -16.8960
  12   2.0000      -0.542623       -14.7655
  13   2.0000      -0.504416       -13.7259
  14   2.0000      -0.501696       -13.6518
  15   2.0000      -0.470209       -12.7950
  16   2.0000      -0.417337       -11.3563
  17   2.0000      -0.417219       -11.3531
  18   2.0000      -0.414898       -11.2899
  19   2.0000      -0.411930       -11.2092
  20   0.0000       0.094534         2.5724
  21   0.0000       0.135845         3.6965
  22   0.0000       0.136533         3.7152
  23   0.0000       0.155315         4.2263
  24   0.0000       0.266556         7.2534

MULLIKEN ATOMIC CHARGES
-----------------------
   0 O :   -0.702122
   1 H :    0.341634
   2 H :    0.358117
   3 O :   -0.701634
   4 H :    0.342791
   5 H :    0.362246
   6 O :   -0.706803
   7 H :    0.342223
   8 H :    0.360101
   9 O :   -0.703235
  10 H :    0.363163
  11 H :    0.343517
Sum of atomic charges:   -0.0000000

LOEWDIN ATOMIC CHARGES
----------------------
   0 O :   -0.310002
   1 H :    0.162446
   2 H :    0.144763
   3 O :   -0.306631
   4 H :    0.163475
   5 H :    0.145535
   6 O :   -0.310241
   7 H :    0.162647
   8 H :    0.145622
   9 O :   -0.307052
  10 H :    0.146063
  11 H :    0.163375

  Mayer bond orders larger than 0.1
B(  0-O ,  1-H ) :   0.8906 B(  0-O ,  2-H ) :   0.7678 B(  0-O ,  8-H ) :   0.1604
B(  2-H ,  9-O ) :   0.1597 B(  3-O ,  4-H ) :   0.8908 B(  3-O ,  5-H ) :   0.7703
B(  3-O , 10-H ) :   0.1579 B(  5-H ,  6-O ) :   0.1572 B(  6-O ,  7-H ) :   0.8901
B(  6-O ,  8-H ) :   0.7669 B(  9-O , 10-H ) :   0.7669 B(  9-O , 11-H ) :   0.8896

Dispersion correction           -0.003062791
FINAL SINGLE POINT ENERGY      -305.800772692513

DIPOLE MOMENT
-------------
                                X             Y             Z
Electronic contribution:     -0.02105       0.02254       0.02765
Nuclear contribution   :      0.09374      -0.08432      -0.11374
                        -----------------------------------------
Total Dipole Moment    :      0.07269      -0.06177      -0.08609
                        -----------------------------------------
Magnitude (a.u.)       :      0.12850
Magnitude (Debye)      :      0.32661

                             ****ORCA TERMINATED NORMALLY****
TOTAL RUN TIME: 0 days 0 hours 0 minutes 52 seconds 830 msec
