                         Program Version 3.0.3 - RELEASE   -
|  1> ! wB97X-D3 MA-Def2-TZVP def2-TZVP/J RIJCOSX TightSCF Grid4
|  2>
|  3> %pal nprocs 1 end
|  4>
|  5> %scf
|  6>         maxiter 400
|  7> end
|  8>
|  9> %cosmo
| 10>         SMD true
| 11>         solvent "WATER"
| 12> end
| 13>
| 14> * xyz  0  1
| 15> O  0.622517	-1.808000	0.079574
| 16> H  1.532563	-1.885193	0.408205
| 17> H  0.168042	-1.257531	0.772180
| 18> O  -1.197437	1.518376	-0.297079
| 19> H  -2.027428	1.180900	-0.671827
| 20> H  -0.505499	1.113438	-0.888291
| 21> O  0.657673	0.212541	-1.712580
| 22> H  1.503544	0.664754	-1.567361
| 23> H  0.707499	-0.586110	-1.121583
| 24> O  -0.616341	-0.097500	1.761577
| 25> H  -0.900244	0.534390	1.046199
| 26> H  0.096650	0.380991	2.213069
| 27> **                         ****END OF INPUT****

CARTESIAN COORDINATES (ANGSTROEM)
---------------------------------
  O      0.622517   -1.808000    0.079574
  H      1.532563   -1.885193    0.408205
  H      0.168042   -1.257531    0.772180
  O     -1.197437    1.518376   -0.297079
  H     -2.027428    1.180900   -0.671827
  H     -0.505499    1.113438   -0.888291
  O      0.657673    0.212541   -1.712580
  H      1.503544    0.664754   -1.567361
  H      0.707499   -0.586110   -1.121583
  O     -0.616341   -0.097500    1.761577
  H     -0.900244    0.534390    1.046199
  H      0.096650    0.380991    2.213069

 Total Charge           Charge          ....    0
 Multiplicity           Mult            ....    1
 Number of Electrons    NEL             ....   40
 Basis Dimension        Dim             ....  188

ORBITAL ENERGIES
----------------

  NO   OCC          E(Eh)            E(eV)
   0   2.0000     -19.236930      -523.4635
   1   2.0000     -19.236210      -523.4439
   2   2.0000     -19.235434      -523.4228
   3   2.0000     -19.235121      -523.4143
   4   2.0000      -1.142951       -31.1013
   5   2.0000      -1.124764       -30.6064
   6   2.0000      -1.124643       -30.6031
   7   2.0000      -1.107189       -30.1281
   8   2.0000      -0.638201       -17.3663
   9   2.0000      -0.628447       -17.1009
  10   2.0000      -0.627323       -17.0703
  11   2.0000      -0.624105       -16.9828
  12   2.0000      -0.535705       -14.5773
  13   2.0000      -0.510598       -13.8941
  14   2.0000      -0.505756       -13.7623
  15   2.0000      -0.490912       -13.3584
  16   2.0000      -0.424368       -11.5476
  17   2.0000      -0.423929       -11.5357
  18   2.0000      -0.422559       -11.4984
  19   2.0000      -0.414869       -11.2892
  20   0.0000       0.072785         1.9806
  21   0.0000       0.111236         3.0269
  22   0.0000       0.114500         3.1157
  23   0.0000       0.126846         3.4517
  24   0.0000       0.149284         4.0622

MULLIKEN ATOMIC CHARGES
-----------------------
   0 O :   -0.811213
   1 H :    0.414718
   2 H :    0.405058
   3 O :   -0.800563
   4 H :    0.411367
   5 H :    0.400919
   6 O :   -0.826113
   7 H :    0.415297
   8 H :    0.404750
   9 O :   -0.827005
  10 H :    0.398946
  11 H :    0.413838
Sum of atomic charges:   -0.0000000

LOEWDIN ATOMIC CHARGES
----------------------
   0 O :   -0.400273
   1 H :    0.212215
   2 H :    0.187965
   3 O :   -0.398944
   4 H :    0.213100
   5 H :    0.185572
   6 O :   -0.394735
   7 H :    0.212390
   8 H :    0.188295
   9 O :   -0.402301
  10 H :    0.185056
  11 H :    0.211660

  Mayer bond orders larger than 0.1
B(  0-O ,  1-H ) :   0.8506 B(  0-O ,  2-H ) :   0.7912 B(  3-O ,  4-H ) :   0.8502
B(  3-O ,  5-H ) :   0.7882 B(  6-O ,  7-H ) :   0.8492 B(  6-O ,  8-H ) :   0.7904
B(  9-O , 10-H ) :   0.7882 B(  9-O , 11-H ) :   0.8515

Dispersion correction           -0.003185566
FINAL SINGLE POINT ENERGY      -305.831301255679

DIPOLE MOMENT
-------------
                                X             Y             Z
Electronic contribution:      0.02016       0.00237      -0.02123
Nuclear contribution   :      1.36699       0.41186       0.43916
                        -----------------------------------------
Total Dipole Moment    :      1.38715       0.41423       0.41793
                        -----------------------------------------
Magnitude (a.u.)       :      1.50680
Magnitude (Debye)      :      3.82998

                             ****ORCA TERMINATED NORMALLY****
TOTAL RUN TIME: 0 days 0 hours 1 minutes 8 seconds 766 msec
