                         Program Version 3.0.3 - RELEASE   -
|  1> ! wB97X-D3 MA-Def2-TZVP def2-TZVP/J RIJCOSX TightSCF Grid4
|  2>
|  3> %pal nprocs 1 end
|  4>
|  5> %scf
|  6>         maxiter 400
|  7> end
|  8>
|  9> * xyz  0  1
| 10> O  1.193840	-1.405299	0.303535
| 11> H  0.931398	-2.326670	0.171088
| 12> H  0.487996	-1.031228	0.898777
| 13> O  -1.172771	1.453159	-0.259000
| 14> H  -2.011338	1.211346	-0.677342
| 15> H  -0.490458	1.093952	-0.887884
| 16> O  0.603253	0.157796	-1.778521
| 17> H  1.406183	0.632912	-2.030125
| 18> H  0.901719	-0.479489	-1.074138
| 19> O  -0.665675	-0.176646	1.793117
| 20> H  -0.928522	0.487544	1.098441
| 21> H  -0.214087	0.353681	2.464138
| 22> **                         ****END OF INPUT****

CARTESIAN COORDINATES (ANGSTROEM)
---------------------------------
  O      1.193840   -1.405299    0.303535
  H      0.931398   -2.326670    0.171088
  H      0.487996   -1.031228    0.898777
  O     -1.172771    1.453159   -0.259000
  H     -2.011338    1.211346   -0.677342
  H     -0.490458    1.093952   -0.887884
  O      0.603253    0.157796   -1.778521
  H      1.406183    0.632912   -2.030125
  H      0.901719   -0.479489   -1.074138
  O     -0.665675   -0.176646    1.793117
  H     -0.928522    0.487544    1.098441
  H     -0.214087    0.353681    2.464138

 Total Charge           Charge          ....    0
 Multiplicity           Mult            ....    1
 Number of Electrons    NEL             ....   40
 Basis Dimension        Dim             ....  188

ORBITAL ENERGIES
----------------

  NO   OCC          E(Eh)            E(eV)
   0   2.0000     -19.237218      -523.4713
   1   2.0000     -19.236645      -523.4557
   2   2.0000     -19.236059      -523.4398
   3   2.0000     -19.235201      -523.4164
   4   2.0000      -1.144066       -31.1316
   5   2.0000      -1.126529       -30.6544
   6   2.0000      -1.125833       -30.6355
   7   2.0000      -1.108775       -30.1713
   8   2.0000      -0.645897       -17.5758
   9   2.0000      -0.633354       -17.2344
  10   2.0000      -0.631616       -17.1872
  11   2.0000      -0.627367       -17.0715
  12   2.0000      -0.542168       -14.7532
  13   2.0000      -0.504913       -13.7394
  14   2.0000      -0.504090       -13.7170
  15   2.0000      -0.470872       -12.8131
  16   2.0000      -0.422352       -11.4928
  17   2.0000      -0.421139       -11.4598
  18   2.0000      -0.420098       -11.4315
  19   2.0000      -0.416176       -11.3247
  20   0.0000       0.064148         1.7456
  21   0.0000       0.101849         2.7714
  22   0.0000       0.102712         2.7949
  23   0.0000       0.116863         3.1800
  24   0.0000       0.142795         3.8857

MULLIKEN ATOMIC CHARGES
-----------------------
   0 O :   -0.729840
   1 H :    0.346766
   2 H :    0.378606
   3 O :   -0.732608
   4 H :    0.348222
   5 H :    0.385949
   6 O :   -0.731167
   7 H :    0.344868
   8 H :    0.382959
   9 O :   -0.728731
  10 H :    0.386396
  11 H :    0.348580
Sum of atomic charges:   -0.0000000

LOEWDIN ATOMIC CHARGES
----------------------
   0 O :   -0.374255
   1 H :    0.188791
   2 H :    0.185352
   3 O :   -0.372860
   4 H :    0.190698
   5 H :    0.186014
   6 O :   -0.376170
   7 H :    0.188069
   8 H :    0.184816
   9 O :   -0.374448
  10 H :    0.184593
  11 H :    0.189402

  Mayer bond orders larger than 0.1
B(  0-O ,  1-H ) :   0.8930 B(  0-O ,  2-H ) :   0.8038 B(  3-O ,  4-H ) :   0.8944
B(  3-O ,  5-H ) :   0.8040 B(  6-O ,  7-H ) :   0.8929 B(  6-O ,  8-H ) :   0.8021
B(  9-O , 10-H ) :   0.8030 B(  9-O , 11-H ) :   0.8941

Dispersion correction           -0.003000988
FINAL SINGLE POINT ENERGY      -305.808455452714

DIPOLE MOMENT
-------------
                                X             Y             Z
Electronic contribution:     -0.02405       0.01920       0.02548
Nuclear contribution   :      0.13784      -0.09653      -0.12927
                        -----------------------------------------
Total Dipole Moment    :      0.11379      -0.07733      -0.10379
                        -----------------------------------------
Magnitude (a.u.)       :      0.17234
Magnitude (Debye)      :      0.43805

                             ****ORCA TERMINATED NORMALLY****
TOTAL RUN TIME: 0 days 0 hours 1 minutes 12 seconds 82 msec
