                         Program Version 3.0.3 - RELEASE   -
|  1> ! wB97X-D3 MA-Def2-TZVP def2-TZVP/J RIJCOSX TightSCF Grid4
|  2>
|  3> %pal nprocs 1 end
|  4>
|  5> %scf
|  6>         maxiter 400
|  7> end
|  8>
|  9> * xyz  0  1
| 10> O  1.207940	-1.399164	0.315023
| 11> H  0.893517	-2.306586	0.142832
| 12> H  0.475050	-1.001883	0.899830
| 13> O  -1.161193	1.466910	-0.261679
| 14> H  -2.011260	1.195014	-0.655828
| 15> H  -0.478020	1.051450	-0.888968
| 16> O  0.580453	0.137264	-1.740469
| 17> H  1.377009	0.655683	-1.958338
| 18> H  0.901498	-0.502548	-1.017754
| 19> O  -0.650895	-0.180892	1.740035
| 20> H  -0.912111	0.507134	1.036657
| 21> H  -0.180452	0.348675	2.410744
| 22> **                         ****END OF INPUT****

CARTESIAN COORDINATES (ANGSTROEM)
---------------------------------
  O      1.207940   -1.399164    0.315023
  H      0.893517   -2.306586    0.142832
  H      0.475050   -1.001883    0.899830
  O     -1.161193    1.466910   -0.261679
  H     -2.011260    1.195014   -0.655828
  H     -0.478020    1.051450   -0.888968
  O      0.580453    0.137264   -1.740469
  H      1.377009    0.655683   -1.958338
  H      0.901498   -0.502548   -1.017754
  O     -0.650895   -0.180892    1.740035
  H     -0.912111    0.507134    1.036657
  H     -0.180452    0.348675    2.410744

 Total Charge           Charge          ....    0
 Multiplicity           Mult            ....    1
 Number of Electrons    NEL             ....   40
 Basis Dimension        Dim             ....  188

ORBITAL ENERGIES
----------------

  NO   OCC          E(Eh)            E(eV)
   0   2.0000     -19.239184      -523.5248
   1   2.0000     -19.238317      -523.5012
   2   2.0000     -19.238189      -523.4977
   3   2.0000     -19.237994      -523.4924
   4   2.0000      -1.143139       -31.1064
   5   2.0000      -1.123071       -30.5603
   6   2.0000      -1.122677       -30.5496
   7   2.0000      -1.103062       -30.0158
   8   2.0000      -0.641937       -17.4680
   9   2.0000      -0.628856       -17.1120
  10   2.0000      -0.627728       -17.0814
  11   2.0000      -0.624031       -16.9807
  12   2.0000      -0.545919       -14.8552
  13   2.0000      -0.507623       -13.8131
  14   2.0000      -0.504897       -13.7389
  15   2.0000      -0.473321       -12.8797
  16   2.0000      -0.420667       -11.4469
  17   2.0000      -0.420469       -11.4415
  18   2.0000      -0.418202       -11.3799
  19   2.0000      -0.415340       -11.3020
  20   0.0000       0.063210         1.7200
  21   0.0000       0.101980         2.7750
  22   0.0000       0.103026         2.8035
  23   0.0000       0.115520         3.1435
  24   0.0000       0.142275         3.8715

MULLIKEN ATOMIC CHARGES
-----------------------
   0 O :   -0.728368
   1 H :    0.349618
   2 H :    0.378017
   3 O :   -0.730031
   4 H :    0.351402
   5 H :    0.385226
   6 O :   -0.738466
   7 H :    0.348265
   8 H :    0.382260
   9 O :   -0.735870
  10 H :    0.385728
  11 H :    0.352219
Sum of atomic charges:   -0.0000000

LOEWDIN ATOMIC CHARGES
----------------------
   0 O :   -0.386518
   1 H :    0.193635
   2 H :    0.190384
   3 O :   -0.383816
   4 H :    0.195032
   5 H :    0.191687
   6 O :   -0.387505
   7 H :    0.193581
   8 H :    0.191438
   9 O :   -0.384208
  10 H :    0.191556
  11 H :    0.194734

  Mayer bond orders larger than 0.1
B(  0-O ,  1-H ) :   0.8932 B(  0-O ,  2-H ) :   0.7829 B(  0-O ,  8-H ) :   0.1116
B(  2-H ,  9-O ) :   0.1113 B(  3-O ,  4-H ) :   0.8939 B(  3-O ,  5-H ) :   0.7835
B(  3-O , 10-H ) :   0.1091 B(  5-H ,  6-O ) :   0.1093 B(  6-O ,  7-H ) :   0.8917
B(  6-O ,  8-H ) :   0.7804 B(  9-O , 10-H ) :   0.7806 B(  9-O , 11-H ) :   0.8924

Dispersion correction           -0.003062791
FINAL SINGLE POINT ENERGY      -305.803969403472

DIPOLE MOMENT
-------------
                                X             Y             Z
Electronic contribution:     -0.02165       0.02219       0.02698
Nuclear contribution   :      0.09374      -0.08432      -0.11374
                        -----------------------------------------
Total Dipole Moment    :      0.07209      -0.06212      -0.08676
                        -----------------------------------------
Magnitude (a.u.)       :      0.12878
Magnitude (Debye)      :      0.32732

                             ****ORCA TERMINATED NORMALLY****
TOTAL RUN TIME: 0 days 0 hours 1 minutes 2 seconds 891 msec
