                         Program Version 3.0.3 - RELEASE   -
|  1> ! B3LYP Def2-TZVP def2-TZVP/J RIJCOSX TightSCF Grid4 D3BJ
|  2>
|  3> %pal nprocs 12 end
|  4>
|  5> %scf
|  6>         maxiter 400
|  7> end
|  8>
|  9> * xyz  0  1
| 10> O  1.207940	-1.399164	0.315023
| 11> H  0.893517	-2.306586	0.142832
| 12> H  0.475050	-1.001883	0.899830
| 13> O  -1.161193	1.466910	-0.261679
| 14> H  -2.011260	1.195014	-0.655828
| 15> H  -0.478020	1.051450	-0.888968
| 16> O  0.580453	0.137264	-1.740469
| 17> H  1.377009	0.655683	-1.958338
| 18> H  0.901498	-0.502548	-1.017754
| 19> O  -0.650895	-0.180892	1.740035
| 20> H  -0.912111	0.507134	1.036657
| 21> H  -0.180452	0.348675	2.410744
| 22> **                         ****END OF INPUT****

CARTESIAN COORDINATES (ANGSTROEM)
---------------------------------
  O      1.207940   -1.399164    0.315023
  H      0.893517   -2.306586    0.142832
  H      0.475050   -1.001883    0.899830
  O     -1.161193    1.466910   -0.261679
  H     -2.011260    1.195014   -0.655828
  H     -0.478020    1.051450   -0.888968
  O      0.580453    0.137264   -1.740469
  H      1.377009    0.655683   -1.958338
  H      0.901498   -0.502548   -1.017754
  O     -0.650895   -0.180892    1.740035
  H     -0.912111    0.507134    1.036657
  H     -0.180452    0.348675    2.410744

 Total Charge           Charge          ....    0
 Multiplicity           Mult            ....    1
 Number of Electrons    NEL             ....   40
 Basis Dimension        Dim             ....  172

ORBITAL ENERGIES
----------------

  NO   OCC          E(Eh)            E(eV)
   0   2.0000     -19.127481      -520.4852
   1   2.0000     -19.127023      -520.4727
   2   2.0000     -19.126845      -520.4679
   3   2.0000     -19.126749      -520.4653
   4   2.0000      -1.024326       -27.8733
   5   2.0000      -1.004774       -27.3413
   6   2.0000      -1.004484       -27.3334
   7   2.0000      -0.985276       -26.8107
   8   2.0000      -0.535749       -14.5785
   9   2.0000      -0.523602       -14.2479
  10   2.0000      -0.522541       -14.2191
  11   2.0000      -0.518189       -14.1006
  12   2.0000      -0.439925       -11.9710
  13   2.0000      -0.403276       -10.9737
  14   2.0000      -0.400659       -10.9025
  15   2.0000      -0.369631       -10.0582
  16   2.0000      -0.319247        -8.6872
  17   2.0000      -0.318837        -8.6760
  18   2.0000      -0.317248        -8.6327
  19   2.0000      -0.313534        -8.5317
  20   0.0000       0.006941         0.1889
  21   0.0000       0.045596         1.2407
  22   0.0000       0.046221         1.2577
  23   0.0000       0.064669         1.7597
  24   0.0000       0.179894         4.8952

MULLIKEN ATOMIC CHARGES
-----------------------
   0 O :   -0.683091
   1 H :    0.326548
   2 H :    0.354461
   3 O :   -0.681399
   4 H :    0.327750
   5 H :    0.357246
   6 O :   -0.686371
   7 H :    0.326829
   8 H :    0.354780
   9 O :   -0.683116
  10 H :    0.358117
  11 H :    0.328246
Sum of atomic charges:   -0.0000000

LOEWDIN ATOMIC CHARGES
----------------------
   0 O :   -0.307188
   1 H :    0.160403
   2 H :    0.144099
   3 O :   -0.303725
   4 H :    0.161538
   5 H :    0.144743
   6 O :   -0.307447
   7 H :    0.160511
   8 H :    0.144727
   9 O :   -0.304227
  10 H :    0.145237
  11 H :    0.161329

  Mayer bond orders larger than 0.1
B(  0-O ,  1-H ) :   0.8973 B(  0-O ,  2-H ) :   0.7625 B(  0-O ,  8-H ) :   0.1710
B(  2-H ,  9-O ) :   0.1698 B(  3-O ,  4-H ) :   0.8976 B(  3-O ,  5-H ) :   0.7656
B(  3-O , 10-H ) :   0.1686 B(  5-H ,  6-O ) :   0.1682 B(  6-O ,  7-H ) :   0.8969
B(  6-O ,  8-H ) :   0.7622 B(  9-O , 10-H ) :   0.7623 B(  9-O , 11-H ) :   0.8965

Dispersion correction           -0.008275777
FINAL SINGLE POINT ENERGY      -305.755343399141

DIPOLE MOMENT
-------------
                                X             Y             Z
Electronic contribution:     -0.02288       0.02388       0.02974
Nuclear contribution   :      0.09374      -0.08432      -0.11374
                        -----------------------------------------
Total Dipole Moment    :      0.07086      -0.06044      -0.08400
                        -----------------------------------------
Magnitude (a.u.)       :      0.12542
Magnitude (Debye)      :      0.31878

                             ****ORCA TERMINATED NORMALLY****
TOTAL RUN TIME: 0 days 0 hours 0 minutes 51 seconds 381 msec
