                         Program Version 4.2.0 -  RELEASE  -
|  1> # 12mecn.remya.etal.2.mol1,4,10
|  2> ! MP2 def2-TZVP EnGrad TightSCF
|  3>
|  4> %pal
|  5>     nprocs 6
|  6> end
|  7>
|  8> %maxcore 8000
|  9>
| 10> %scf
| 11>     ConvForced true
| 12> end
| 13>
| 14> *xyz 0 1
| 15> C  -4.697980000  -0.249690000   1.746215000
| 16> H  -4.927570000   0.755530000   2.111799000
| 17> H  -3.709180000  -0.561560000   2.093253000
| 18> H  -5.432280000  -0.961520000   2.128066000
| 19> C  -4.714100000  -0.247110000   0.301670000
| 20> N  -4.729750000  -0.234960000  -0.865260000
| 21> C  -1.509690000  -0.693960000  -1.610140000
| 22> H  -1.327010000  -1.692700000  -2.017370000
| 23> H  -0.742170000  -0.000650000  -1.964400000
| 24> H  -2.491920000  -0.334310000  -1.929350000
| 25> C  -1.473570000  -0.748120000  -0.167200000
| 26> N  -1.447490000  -0.793720000   0.998938000
| 27> C   4.602033000   0.321019000  -1.784800000
| 28> H   4.827650000  -0.662160000  -2.207910000
| 29> H   5.320558000   1.057980000  -2.148500000
| 30> H   3.601982000   0.643751000  -2.087520000
| 31> C   4.654967000   0.244048000  -0.343060000
| 32> N   4.691648000   0.166590000   0.820757000
| 33> *
| 34>
| 35>                          ****END OF INPUT****

CARTESIAN COORDINATES (ANGSTROEM)
---------------------------------
  C     -4.697980   -0.249690    1.746215
  H     -4.927570    0.755530    2.111799
  H     -3.709180   -0.561560    2.093253
  H     -5.432280   -0.961520    2.128066
  C     -4.714100   -0.247110    0.301670
  N     -4.729750   -0.234960   -0.865260
  C     -1.509690   -0.693960   -1.610140
  H     -1.327010   -1.692700   -2.017370
  H     -0.742170   -0.000650   -1.964400
  H     -2.491920   -0.334310   -1.929350
  C     -1.473570   -0.748120   -0.167200
  N     -1.447490   -0.793720    0.998938
  C      4.602033    0.321019   -1.784800
  H      4.827650   -0.662160   -2.207910
  H      5.320558    1.057980   -2.148500
  H      3.601982    0.643751   -2.087520
  C      4.654967    0.244048   -0.343060
  N      4.691648    0.166590    0.820757

 Total Charge           Charge          ....    0
 Multiplicity           Mult            ....    1
 Number of Electrons    NEL             ....   66
 Basis Dimension        Dim             ....  333

ORBITAL ENERGIES
----------------

  NO   OCC          E(Eh)            E(eV)
   0   2.0000     -15.573256      -423.7698
   1   2.0000     -15.571954      -423.7344
   2   2.0000     -15.571232      -423.7148
   3   2.0000     -11.286543      -307.1224
   4   2.0000     -11.284005      -307.0534
   5   2.0000     -11.282470      -307.0116
   6   2.0000     -11.279781      -306.9384
   7   2.0000     -11.273607      -306.7704
   8   2.0000     -11.271930      -306.7248
   9   2.0000      -1.218207       -33.1491
  10   2.0000      -1.214239       -33.0411
  11   2.0000      -1.213918       -33.0324
  12   2.0000      -1.045408       -28.4470
  13   2.0000      -1.037734       -28.2382
  14   2.0000      -1.034808       -28.1586
  15   2.0000      -0.701090       -19.0776
  16   2.0000      -0.695356       -18.9216
  17   2.0000      -0.690925       -18.8010
  18   2.0000      -0.635791       -17.3008
  19   2.0000      -0.631515       -17.1844
  20   2.0000      -0.631231       -17.1767
  21   2.0000      -0.625885       -17.0312
  22   2.0000      -0.623740       -16.9728
  23   2.0000      -0.614308       -16.7162
  24   2.0000      -0.559481       -15.2243
  25   2.0000      -0.555897       -15.1267
  26   2.0000      -0.555441       -15.1143
  27   2.0000      -0.460479       -12.5303
  28   2.0000      -0.458846       -12.4858
  29   2.0000      -0.457674       -12.4539
  30   2.0000      -0.457085       -12.4379
  31   2.0000      -0.457047       -12.4369
  32   2.0000      -0.455841       -12.4041
  33   0.0000       0.105311         2.8657
  34   0.0000       0.130149         3.5415
  35   0.0000       0.140957         3.8356
  36   0.0000       0.163025         4.4361
  37   0.0000       0.168735         4.5915

MULLIKEN ATOMIC CHARGES
-----------------------
   0 C :   -0.285035
   1 H :    0.166920
   2 H :    0.206566
   3 H :    0.166908
   4 C :   -0.101104
   5 N :   -0.153508
   6 C :   -0.283538
   7 H :    0.166745
   8 H :    0.160168
   9 H :    0.205927
  10 C :   -0.104196
  11 N :   -0.145853
  12 C :   -0.278640
  13 H :    0.172615
  14 H :    0.172713
  15 H :    0.167236
  16 C :   -0.145582
  17 N :   -0.088342
Sum of atomic charges:   -0.0000000

LOEWDIN ATOMIC CHARGES
----------------------
   0 C :   -0.281338
   1 H :    0.153115
   2 H :    0.157705
   3 H :    0.150778
   4 C :   -0.207319
   5 N :    0.028447
   6 C :   -0.283227
   7 H :    0.152590
   8 H :    0.149148
   9 H :    0.157248
  10 C :   -0.209821
  11 N :    0.032676
  12 C :   -0.284378
  13 H :    0.152786
  14 H :    0.151568
  15 H :    0.151516
  16 C :   -0.220469
  17 N :    0.048975

  Mayer bond orders larger than 0.100000
B(  0-C ,  1-H ) :   0.9139 B(  0-C ,  2-H ) :   0.9018 B(  0-C ,  3-H ) :   0.9165
B(  0-C ,  4-C ) :   0.9009 B(  4-C ,  5-N ) :   2.7701 B(  6-C ,  7-H ) :   0.9150
B(  6-C ,  8-H ) :   0.9183 B(  6-C ,  9-H ) :   0.9013 B(  6-C , 10-C ) :   0.8999
B( 10-C , 11-N ) :   2.7705 B( 12-C , 13-H ) :   0.9163 B( 12-C , 14-H ) :   0.9170
B( 12-C , 15-H ) :   0.9181 B( 12-C , 16-C ) :   0.9012 B( 16-C , 17-N ) :   2.8342

MP2 TOTAL ENERGY:     -397.458343884 Eh
FINAL SINGLE POINT ENERGY      -397.458343883936

DIPOLE MOMENT
-------------
                                X             Y             Z
Electronic contribution:      0.15205      -0.29611       3.14703
Nuclear contribution   :     -0.22979       0.43269      -4.61333
                        -----------------------------------------
Total Dipole Moment    :     -0.07774       0.13658      -1.46631
                        -----------------------------------------
Magnitude (a.u.)       :      1.47471
Magnitude (Debye)      :      3.74841

Rotational constants in cm-1:     0.093490     0.008862     0.008228
Rotational constants in MHz :  2802.745012   265.678759   246.681500

                             ****ORCA TERMINATED NORMALLY****
TOTAL RUN TIME: 0 days 0 hours 2 minutes 52 seconds 383 msec
