                         Program Version 4.2.0 -  RELEASE  -
|  1> # 12h2o.su.etal.mol0,1,4
|  2> ! MP2 def2-TZVP EnGrad TightSCF
|  3>
|  4> %pal
|  5>     nprocs 6
|  6> end
|  7>
|  8> %maxcore 8000
|  9>
| 10> %scf
| 11>     ConvForced true
| 12> end
| 13>
| 14> *xyz 0 1
| 15> O   1.794470000   0.923410000   2.768350000
| 16> H   2.338250000   1.359750000   3.430940000
| 17> H   0.879480000   1.303000000   2.865760000
| 18> O  -1.794470000  -0.923410000   2.768350000
| 19> H  -2.338250000  -1.359750000   3.430940000
| 20> H  -0.879480000  -1.303000000   2.865760000
| 21> O  -0.885520000   1.737840000   0.052730000
| 22> H  -1.032320000   2.090180000  -0.841890000
| 23> H  -1.284090000   0.839590000   0.017130000
| 24> *
| 25>
| 26>                          ****END OF INPUT****

CARTESIAN COORDINATES (ANGSTROEM)
---------------------------------
  O      1.794470    0.923410    2.768350
  H      2.338250    1.359750    3.430940
  H      0.879480    1.303000    2.865760
  O     -1.794470   -0.923410    2.768350
  H     -2.338250   -1.359750    3.430940
  H     -0.879480   -1.303000    2.865760
  O     -0.885520    1.737840    0.052730
  H     -1.032320    2.090180   -0.841890
  H     -1.284090    0.839590    0.017130

 Total Charge           Charge          ....    0
 Multiplicity           Mult            ....    1
 Number of Electrons    NEL             ....   30
 Basis Dimension        Dim             ....  129

ORBITAL ENERGIES
----------------

  NO   OCC          E(Eh)            E(eV)
   0   2.0000     -20.564547      -559.5898
   1   2.0000     -20.551905      -559.2458
   2   2.0000     -20.550792      -559.2155
   3   2.0000      -1.339848       -36.4591
   4   2.0000      -1.327941       -36.1351
   5   2.0000      -1.326147       -36.0863
   6   2.0000      -0.708246       -19.2724
   7   2.0000      -0.694163       -18.8891
   8   2.0000      -0.689674       -18.7670
   9   2.0000      -0.576417       -15.6851
  10   2.0000      -0.567841       -15.4517
  11   2.0000      -0.562620       -15.3097
  12   2.0000      -0.507984       -13.8229
  13   2.0000      -0.495350       -13.4792
  14   2.0000      -0.493471       -13.4280
  15   0.0000       0.112628         3.0648
  16   0.0000       0.146271         3.9802
  17   0.0000       0.150725         4.1014
  18   0.0000       0.202841         5.5196
  19   0.0000       0.222614         6.0576

MULLIKEN ATOMIC CHARGES
-----------------------
   0 O :   -0.690642
   1 H :    0.333570
   2 H :    0.356167
   3 O :   -0.689997
   4 H :    0.339410
   5 H :    0.351952
   6 O :   -0.679043
   7 H :    0.332147
   8 H :    0.346436
Sum of atomic charges:    0.0000000

LOEWDIN ATOMIC CHARGES
----------------------
   0 O :   -0.341501
   1 H :    0.155727
   2 H :    0.184497
   3 O :   -0.340554
   4 H :    0.158497
   5 H :    0.183684
   6 O :   -0.338391
   7 H :    0.163262
   8 H :    0.174779

  Mayer bond orders larger than 0.100000
B(  0-O ,  1-H ) :   0.8556 B(  0-O ,  2-H ) :   0.8339 B(  3-O ,  4-H ) :   0.8523
B(  3-O ,  5-H ) :   0.8373 B(  6-O ,  7-H ) :   0.8556 B(  6-O ,  8-H ) :   0.8437

MP2 TOTAL ENERGY:     -228.941511908 Eh
FINAL SINGLE POINT ENERGY      -228.941511908334

DIPOLE MOMENT
-------------
                                X             Y             Z
Electronic contribution:      0.05651       0.06857      -0.06714
Nuclear contribution   :     -0.45394      -0.45439       0.49091
                        -----------------------------------------
Total Dipole Moment    :     -0.39744      -0.38583       0.42377
                        -----------------------------------------
Magnitude (a.u.)       :      0.69743
Magnitude (Debye)      :      1.77272

Rotational constants in cm-1:     0.117769     0.111755     0.057860
Rotational constants in MHz :  3530.628790  3350.328149  1734.602202

                             ****ORCA TERMINATED NORMALLY****
TOTAL RUN TIME: 0 days 0 hours 0 minutes 13 seconds 634 msec
