                         Program Version 4.2.0 -  RELEASE  -
|  1> # 12meoh.boyd.etal.mol4,9,10
|  2> ! MP2 def2-TZVP EnGrad TightSCF
|  3>
|  4> %pal
|  5>     nprocs 6
|  6> end
|  7>
|  8> %maxcore 8000
|  9>
| 10> %scf
| 11>     ConvForced true
| 12> end
| 13>
| 14> *xyz 0 1
| 15> O  -1.358578914   1.232360421   1.189721000
| 16> H  -1.058250183   1.216459361   0.238591307
| 17> C  -0.389763452   1.957872567   1.943072362
| 18> H  -0.747220771   2.012806578   2.975200343
| 19> H  -0.260410585   2.982763209   1.565366540
| 20> H   0.585220638   1.453754179   1.934070793
| 21> O   1.390610024   3.194080770  -1.536658882
| 22> H   2.162932299   2.881562730  -0.993525056
| 23> C   1.202977189   4.580367182  -1.302880219
| 24> H   0.374773115   4.915764831  -1.934164643
| 25> H   2.098649340   5.157710875  -1.570472348
| 26> H   0.950320401   4.800436015  -0.254328827
| 27> O  -5.201143618   0.064582726  -0.172223772
| 28> H  -4.686891530   0.869258890   0.107806143
| 29> C  -6.513192168   0.171391798   0.359883449
| 30> H  -7.049381312  -0.749234190   0.111361174
| 31> H  -7.057741163   1.017801101  -0.081819420
| 32> H  -6.514770575   0.292264928   1.453058834
| 33> *
| 34>
| 35>                          ****END OF INPUT****

CARTESIAN COORDINATES (ANGSTROEM)
---------------------------------
  O     -1.358579    1.232360    1.189721
  H     -1.058250    1.216459    0.238591
  C     -0.389763    1.957873    1.943072
  H     -0.747221    2.012807    2.975200
  H     -0.260411    2.982763    1.565367
  H      0.585221    1.453754    1.934071
  O      1.390610    3.194081   -1.536659
  H      2.162932    2.881563   -0.993525
  C      1.202977    4.580367   -1.302880
  H      0.374773    4.915765   -1.934165
  H      2.098649    5.157711   -1.570472
  H      0.950320    4.800436   -0.254329
  O     -5.201144    0.064583   -0.172224
  H     -4.686892    0.869259    0.107806
  C     -6.513192    0.171392    0.359883
  H     -7.049381   -0.749234    0.111361
  H     -7.057741    1.017801   -0.081819
  H     -6.514771    0.292265    1.453059

 Total Charge           Charge          ....    0
 Multiplicity           Mult            ....    1
 Number of Electrons    NEL             ....   54
 Basis Dimension        Dim             ....  258

ORBITAL ENERGIES
----------------

  NO   OCC          E(Eh)            E(eV)
   0   2.0000     -20.568511      -559.6977
   1   2.0000     -20.556491      -559.3706
   2   2.0000     -20.546653      -559.1028
   3   2.0000     -11.279995      -306.9443
   4   2.0000     -11.272576      -306.7424
   5   2.0000     -11.263058      -306.4834
   6   2.0000      -1.358792       -36.9746
   7   2.0000      -1.344028       -36.5729
   8   2.0000      -1.336968       -36.3807
   9   2.0000      -0.928434       -25.2640
  10   2.0000      -0.919661       -25.0252
  11   2.0000      -0.910381       -24.7727
  12   2.0000      -0.692811       -18.8523
  13   2.0000      -0.679771       -18.4975
  14   2.0000      -0.672235       -18.2924
  15   2.0000      -0.626868       -17.0579
  16   2.0000      -0.616466       -16.7749
  17   2.0000      -0.607660       -16.5353
  18   2.0000      -0.601954       -16.3800
  19   2.0000      -0.589733       -16.0475
  20   2.0000      -0.581906       -15.8345
  21   2.0000      -0.508817       -13.8456
  22   2.0000      -0.500316       -13.6143
  23   2.0000      -0.490451       -13.3458
  24   2.0000      -0.458673       -12.4811
  25   2.0000      -0.448854       -12.2139
  26   2.0000      -0.438606       -11.9351
  27   0.0000       0.111425         3.0320
  28   0.0000       0.139515         3.7964
  29   0.0000       0.160840         4.3767
  30   0.0000       0.166129         4.5206
  31   0.0000       0.176260         4.7963

MULLIKEN ATOMIC CHARGES
-----------------------
   0 O :   -0.504827
   1 H :    0.332315
   2 C :   -0.168720
   3 H :    0.130160
   4 H :    0.104230
   5 H :    0.105439
   6 O :   -0.501576
   7 H :    0.324744
   8 C :   -0.173906
   9 H :    0.133077
  10 H :    0.117083
  11 H :    0.104617
  12 O :   -0.498389
  13 H :    0.327175
  14 C :   -0.171845
  15 H :    0.125959
  16 H :    0.105147
  17 H :    0.109316
Sum of atomic charges:   -0.0000000

LOEWDIN ATOMIC CHARGES
----------------------
   0 O :   -0.113528
   1 H :    0.195537
   2 C :   -0.381279
   3 H :    0.109649
   4 H :    0.094137
   5 H :    0.094677
   6 O :   -0.105897
   7 H :    0.191458
   8 C :   -0.385195
   9 H :    0.111882
  10 H :    0.097469
  11 H :    0.092976
  12 O :   -0.106591
  13 H :    0.192749
  14 C :   -0.386211
  15 H :    0.109118
  16 H :    0.093723
  17 H :    0.095324

  Mayer bond orders larger than 0.100000
B(  0-O ,  1-H ) :   0.8341 B(  0-O ,  2-C ) :   0.9267 B(  2-C ,  3-H ) :   0.9376
B(  2-C ,  4-H ) :   0.9388 B(  2-C ,  5-H ) :   0.9400 B(  6-O ,  7-H ) :   0.8395
B(  6-O ,  8-C ) :   0.9200 B(  8-C ,  9-H ) :   0.9376 B(  8-C , 10-H ) :   0.9416
B(  8-C , 11-H ) :   0.9351 B( 12-O , 13-H ) :   0.8362 B( 12-O , 14-C ) :   0.9342
B( 14-C , 15-H ) :   0.9380 B( 14-C , 16-H ) :   0.9394 B( 14-C , 17-H ) :   0.9384

MP2 TOTAL ENERGY:     -346.523522341 Eh
FINAL SINGLE POINT ENERGY      -346.523522341274

DIPOLE MOMENT
-------------
                                X             Y             Z
Electronic contribution:      0.51617      -2.93725      -1.97052
Nuclear contribution   :      0.31831       4.15126       2.46731
                        -----------------------------------------
Total Dipole Moment    :      0.83449       1.21401       0.49679
                        -----------------------------------------
Magnitude (a.u.)       :      1.55467
Magnitude (Debye)      :      3.95165

Rotational constants in cm-1:     0.094932     0.014720     0.013306
Rotational constants in MHz :  2845.977170   441.294552   398.905753

                             ****ORCA TERMINATED NORMALLY****
TOTAL RUN TIME: 0 days 0 hours 1 minutes 28 seconds 722 msec
