                         Program Version 4.2.0 -  RELEASE  -
|  1> # 12mecn.remya.etal.2.mol2,8,9
|  2> ! MP2 def2-TZVP EnGrad TightSCF
|  3>
|  4> %pal
|  5>     nprocs 6
|  6> end
|  7>
|  8> %maxcore 8000
|  9>
| 10> %scf
| 11>     ConvForced true
| 12> end
| 13>
| 14> *xyz 0 1
| 15> C  -4.219070000  -3.477410000  -1.501740000
| 16> H  -3.251530000  -3.803540000  -1.893830000
| 17> H  -4.452920000  -2.481700000  -1.890840000
| 18> H  -4.992170000  -4.178130000  -1.824640000
| 19> C  -4.154550000  -3.418790000  -0.058340000
| 20> N  -4.091140000  -3.354840000   1.104432000
| 21> C   1.912641000  -2.468050000  -1.750510000
| 22> H   2.876947000  -2.793500000  -2.151200000
| 23> H   1.688016000  -1.463720000  -2.122170000
| 24> H   1.123460000  -3.154780000  -2.069590000
| 25> C   1.977850000  -2.444240000  -0.306900000
| 26> N   2.036566000  -2.426130000   0.858249000
| 27> C   0.923766000   4.000693000  -1.575910000
| 28> H   0.011949000   4.478423000  -1.939550000
| 29> H   0.947903000   2.966558000  -1.929960000
| 30> H   1.805950000   4.519548000  -1.956520000
| 31> C   0.942834000   3.994846000  -0.131200000
| 32> N   0.960035000   3.982544000   1.035639000
| 33> *
| 34>
| 35>                          ****END OF INPUT****

CARTESIAN COORDINATES (ANGSTROEM)
---------------------------------
  C     -4.219070   -3.477410   -1.501740
  H     -3.251530   -3.803540   -1.893830
  H     -4.452920   -2.481700   -1.890840
  H     -4.992170   -4.178130   -1.824640
  C     -4.154550   -3.418790   -0.058340
  N     -4.091140   -3.354840    1.104432
  C      1.912641   -2.468050   -1.750510
  H      2.876947   -2.793500   -2.151200
  H      1.688016   -1.463720   -2.122170
  H      1.123460   -3.154780   -2.069590
  C      1.977850   -2.444240   -0.306900
  N      2.036566   -2.426130    0.858249
  C      0.923766    4.000693   -1.575910
  H      0.011949    4.478423   -1.939550
  H      0.947903    2.966558   -1.929960
  H      1.805950    4.519548   -1.956520
  C      0.942834    3.994846   -0.131200
  N      0.960035    3.982544    1.035639

 Total Charge           Charge          ....    0
 Multiplicity           Mult            ....    1
 Number of Electrons    NEL             ....   66
 Basis Dimension        Dim             ....  333

ORBITAL ENERGIES
----------------

  NO   OCC          E(Eh)            E(eV)
   0   2.0000     -15.573782      -423.7841
   1   2.0000     -15.573685      -423.7815
   2   2.0000     -15.573164      -423.7673
   3   2.0000     -11.289663      -307.2074
   4   2.0000     -11.288328      -307.1710
   5   2.0000     -11.287137      -307.1386
   6   2.0000     -11.279877      -306.9411
   7   2.0000     -11.279636      -306.9345
   8   2.0000     -11.279426      -306.9288
   9   2.0000      -1.214874       -33.0584
  10   2.0000      -1.214488       -33.0479
  11   2.0000      -1.213891       -33.0317
  12   2.0000      -1.047207       -28.4960
  13   2.0000      -1.046102       -28.4659
  14   2.0000      -1.046041       -28.4642
  15   2.0000      -0.702752       -19.1228
  16   2.0000      -0.702678       -19.1209
  17   2.0000      -0.702033       -19.1033
  18   2.0000      -0.636851       -17.3296
  19   2.0000      -0.636131       -17.3100
  20   2.0000      -0.635181       -17.2841
  21   2.0000      -0.634900       -17.2765
  22   2.0000      -0.633931       -17.2501
  23   2.0000      -0.632504       -17.2113
  24   2.0000      -0.555619       -15.1192
  25   2.0000      -0.555226       -15.1085
  26   2.0000      -0.555010       -15.1026
  27   2.0000      -0.458108       -12.4658
  28   2.0000      -0.457973       -12.4621
  29   2.0000      -0.457742       -12.4558
  30   2.0000      -0.457600       -12.4519
  31   2.0000      -0.457489       -12.4489
  32   2.0000      -0.456722       -12.4280
  33   0.0000       0.093695         2.5496
  34   0.0000       0.109099         2.9687
  35   0.0000       0.127870         3.4795
  36   0.0000       0.152025         4.1368
  37   0.0000       0.162648         4.4259

MULLIKEN ATOMIC CHARGES
-----------------------
   0 C :   -0.280850
   1 H :    0.165596
   2 H :    0.171361
   3 H :    0.173358
   4 C :   -0.145779
   5 N :   -0.083684
   6 C :   -0.278247
   7 H :    0.173746
   8 H :    0.165383
   9 H :    0.167161
  10 C :   -0.146082
  11 N :   -0.081964
  12 C :   -0.278428
  13 H :    0.172408
  14 H :    0.164411
  15 H :    0.172695
  16 C :   -0.145540
  17 N :   -0.085545
Sum of atomic charges:    0.0000000

LOEWDIN ATOMIC CHARGES
----------------------
   0 C :   -0.285432
   1 H :    0.150418
   2 H :    0.152332
   3 H :    0.151173
   4 C :   -0.220554
   5 N :    0.052063
   6 C :   -0.285745
   7 H :    0.152783
   8 H :    0.150194
   9 H :    0.150546
  10 C :   -0.221603
  11 N :    0.053822
  12 C :   -0.284762
  13 H :    0.151248
  14 H :    0.150926
  15 H :    0.151729
  16 C :   -0.220325
  17 N :    0.051186

  Mayer bond orders larger than 0.100000
B(  0-C ,  1-H ) :   0.9184 B(  0-C ,  2-H ) :   0.9174 B(  0-C ,  3-H ) :   0.9166
B(  0-C ,  4-C ) :   0.9021 B(  4-C ,  5-N ) :   2.8322 B(  6-C ,  7-H ) :   0.9167
B(  6-C ,  8-H ) :   0.9188 B(  6-C ,  9-H ) :   0.9183 B(  6-C , 10-C ) :   0.9012
B( 10-C , 11-N ) :   2.8303 B( 12-C , 13-H ) :   0.9167 B( 12-C , 14-H ) :   0.9191
B( 12-C , 15-H ) :   0.9168 B( 12-C , 16-C ) :   0.9021 B( 16-C , 17-N ) :   2.8324

MP2 TOTAL ENERGY:     -397.446735639 Eh
FINAL SINGLE POINT ENERGY      -397.446735638872

DIPOLE MOMENT
-------------
                                X             Y             Z
Electronic contribution:      0.31660       0.18314       9.46336
Nuclear contribution   :     -0.48044      -0.26969     -13.92343
                        -----------------------------------------
Total Dipole Moment    :     -0.16384      -0.08656      -4.46007
                        -----------------------------------------
Magnitude (a.u.)       :      4.46392
Magnitude (Debye)      :     11.34638

Rotational constants in cm-1:     0.023467     0.009227     0.007567
Rotational constants in MHz :   703.520749   276.618127   226.845671

                             ****ORCA TERMINATED NORMALLY****
TOTAL RUN TIME: 0 days 0 hours 2 minutes 3 seconds 962 msec
