                         Program Version 4.2.0 -  RELEASE  -
|  1> # 12h2o.su.etal.mol1,4,6,8,9,11
|  2> ! MP2 def2-TZVP EnGrad TightSCF
|  3>
|  4> %pal
|  5>     nprocs 6
|  6> end
|  7>
|  8> %maxcore 8000
|  9>
| 10> %scf
| 11>     ConvForced true
| 12> end
| 13>
| 14> *xyz 0 1
| 15> O  -1.794470000  -0.923410000   2.768350000
| 16> H  -2.338250000  -1.359750000   3.430940000
| 17> H  -0.879480000  -1.303000000   2.865760000
| 18> O  -0.885520000   1.737840000   0.052730000
| 19> H  -1.032320000   2.090180000  -0.841890000
| 20> H  -1.284090000   0.839590000   0.017130000
| 21> O   1.737840000   0.885520000  -0.052730000
| 22> H   2.090180000   1.032320000   0.841890000
| 23> H   0.839590000   1.284090000  -0.017130000
| 24> O   1.752130000   0.741530000  -2.896280000
| 25> H   2.036450000   0.920500000  -1.984040000
| 26> H   0.921210000   1.242140000  -2.984230000
| 27> O   0.741530000  -1.752130000   2.896280000
| 28> H   0.920500000  -2.036450000   1.984040000
| 29> H   1.242140000  -0.921210000   2.984230000
| 30> O  -0.741530000   1.752130000   2.896280000
| 31> H  -0.920500000   2.036450000   1.984040000
| 32> H  -1.242140000   0.921210000   2.984230000
| 33> *
| 34>
| 35>                          ****END OF INPUT****

CARTESIAN COORDINATES (ANGSTROEM)
---------------------------------
  O     -1.794470   -0.923410    2.768350
  H     -2.338250   -1.359750    3.430940
  H     -0.879480   -1.303000    2.865760
  O     -0.885520    1.737840    0.052730
  H     -1.032320    2.090180   -0.841890
  H     -1.284090    0.839590    0.017130
  O      1.737840    0.885520   -0.052730
  H      2.090180    1.032320    0.841890
  H      0.839590    1.284090   -0.017130
  O      1.752130    0.741530   -2.896280
  H      2.036450    0.920500   -1.984040
  H      0.921210    1.242140   -2.984230
  O      0.741530   -1.752130    2.896280
  H      0.920500   -2.036450    1.984040
  H      1.242140   -0.921210    2.984230
  O     -0.741530    1.752130    2.896280
  H     -0.920500    2.036450    1.984040
  H     -1.242140    0.921210    2.984230

 Total Charge           Charge          ....    0
 Multiplicity           Mult            ....    1
 Number of Electrons    NEL             ....   60
 Basis Dimension        Dim             ....  258

ORBITAL ENERGIES
----------------

  NO   OCC          E(Eh)            E(eV)
   0   2.0000     -20.625336      -561.2439
   1   2.0000     -20.606223      -560.7238
   2   2.0000     -20.566934      -559.6547
   3   2.0000     -20.555362      -559.3398
   4   2.0000     -20.538656      -558.8853
   5   2.0000     -20.522844      -558.4550
   6   2.0000      -1.408345       -38.3230
   7   2.0000      -1.392041       -37.8794
   8   2.0000      -1.350519       -36.7495
   9   2.0000      -1.339588       -36.4520
  10   2.0000      -1.319979       -35.9184
  11   2.0000      -1.307590       -35.5813
  12   2.0000      -0.765738       -20.8368
  13   2.0000      -0.748533       -20.3686
  14   2.0000      -0.725610       -19.7449
  15   2.0000      -0.724477       -19.7140
  16   2.0000      -0.691444       -18.8151
  17   2.0000      -0.687490       -18.7075
  18   2.0000      -0.644374       -17.5343
  19   2.0000      -0.630001       -17.1432
  20   2.0000      -0.606205       -16.4957
  21   2.0000      -0.586916       -15.9708
  22   2.0000      -0.564391       -15.3579
  23   2.0000      -0.550630       -14.9834
  24   2.0000      -0.545267       -14.8375
  25   2.0000      -0.533839       -14.5265
  26   2.0000      -0.515065       -14.0156
  27   2.0000      -0.502236       -13.6665
  28   2.0000      -0.484742       -13.1905
  29   2.0000      -0.472620       -12.8606
  30   0.0000       0.076785         2.0894
  31   0.0000       0.104564         2.8453
  32   0.0000       0.141823         3.8592
  33   0.0000       0.164274         4.4701
  34   0.0000       0.167891         4.5686

MULLIKEN ATOMIC CHARGES
-----------------------
   0 O :   -0.743809
   1 H :    0.344267
   2 H :    0.379236
   3 O :   -0.707386
   4 H :    0.361833
   5 H :    0.378366
   6 O :   -0.725918
   7 H :    0.341199
   8 H :    0.354771
   9 O :   -0.686847
  10 H :    0.375026
  11 H :    0.303996
  12 O :   -0.684224
  13 H :    0.364483
  14 H :    0.363584
  15 O :   -0.731593
  16 H :    0.360981
  17 H :    0.352036
Sum of atomic charges:    0.0000000

LOEWDIN ATOMIC CHARGES
----------------------
   0 O :   -0.342597
   1 H :    0.157263
   2 H :    0.144926
   3 O :   -0.273454
   4 H :    0.173499
   5 H :    0.187697
   6 O :   -0.338734
   7 H :    0.162745
   8 H :    0.142275
   9 O :   -0.337606
  10 H :    0.154236
  11 H :    0.150663
  12 O :   -0.268131
  13 H :    0.176807
  14 H :    0.176360
  15 O :   -0.354644
  16 H :    0.145815
  17 H :    0.142879

  Mayer bond orders larger than 0.100000
B(  0-O ,  1-H ) :   0.8469 B(  0-O ,  2-H ) :   0.7637 B(  3-O ,  4-H ) :   0.8313
B(  3-O ,  5-H ) :   0.8165 B(  6-O ,  7-H ) :   0.8465 B(  6-O ,  8-H ) :   0.7869
B(  9-O , 10-H ) :   0.8152 B(  9-O , 11-H ) :   0.8709 B( 12-O , 13-H ) :   0.8322
B( 12-O , 14-H ) :   0.8290 B( 15-O , 16-H ) :   0.8348 B( 15-O , 17-H ) :   0.8131

MP2 TOTAL ENERGY:     -457.919669706 Eh
FINAL SINGLE POINT ENERGY      -457.919669705567

DIPOLE MOMENT
-------------
                                X             Y             Z
Electronic contribution:      0.17898      -0.20714       0.12007
Nuclear contribution   :     -1.05433      -0.11394      -0.05351
                        -----------------------------------------
Total Dipole Moment    :     -0.87535      -0.32108       0.06656
                        -----------------------------------------
Magnitude (a.u.)       :      0.93475
Magnitude (Debye)      :      2.37594

Rotational constants in cm-1:     0.064437     0.024507     0.020870
Rotational constants in MHz :  1931.774484   734.713501   625.660426

                             ****ORCA TERMINATED NORMALLY****
TOTAL RUN TIME: 0 days 0 hours 1 minutes 20 seconds 268 msec
