                         Program Version 4.2.0 -  RELEASE  -
|  1> # 12meoh.boyd.etal.mol1,6,8
|  2> ! MP2 def2-TZVP EnGrad TightSCF
|  3>
|  4> %pal
|  5>     nprocs 6
|  6> end
|  7>
|  8> %maxcore 8000
|  9>
| 10> %scf
| 11>     ConvForced true
| 12> end
| 13>
| 14> *xyz 0 1
| 15> O   0.666045193  -2.600503172   0.138317521
| 16> H  -0.227115049  -2.712051982  -0.281868004
| 17> C   0.490021232  -1.851247678   1.341189459
| 18> H   1.466500502  -1.466176022   1.645844415
| 19> H   0.097564527  -2.488364683   2.146902740
| 20> H  -0.187588112  -1.000787499   1.200739571
| 21> O   2.622209273  -1.703002590  -1.445859723
| 22> H   1.828551432  -1.986513781  -0.909754968
| 23> C   2.781117675  -2.615822239  -2.525472890
| 24> H   3.691063626  -2.339003544  -3.065143454
| 25> H   1.934727323  -2.559520367  -3.223226661
| 26> H   2.879948338  -3.653846211  -2.177750170
| 27> O   3.570084754   2.361662577  -0.202416728
| 28> H   3.393280933   1.755669977   0.560634073
| 29> C   4.368082883   1.644741793  -1.143112807
| 30> H   4.552851717   2.311801738  -1.989632421
| 31> H   3.862427494   0.740851663  -1.508095690
| 32> H   5.333949674   1.357289092  -0.706288100
| 33> *
| 34>
| 35>                          ****END OF INPUT****

CARTESIAN COORDINATES (ANGSTROEM)
---------------------------------
  O      0.666045   -2.600503    0.138318
  H     -0.227115   -2.712052   -0.281868
  C      0.490021   -1.851248    1.341189
  H      1.466501   -1.466176    1.645844
  H      0.097565   -2.488365    2.146903
  H     -0.187588   -1.000787    1.200740
  O      2.622209   -1.703003   -1.445860
  H      1.828551   -1.986514   -0.909755
  C      2.781118   -2.615822   -2.525473
  H      3.691064   -2.339004   -3.065143
  H      1.934727   -2.559520   -3.223227
  H      2.879948   -3.653846   -2.177750
  O      3.570085    2.361663   -0.202417
  H      3.393281    1.755670    0.560634
  C      4.368083    1.644742   -1.143113
  H      4.552852    2.311802   -1.989632
  H      3.862427    0.740852   -1.508096
  H      5.333950    1.357289   -0.706288

 Total Charge           Charge          ....    0
 Multiplicity           Mult            ....    1
 Number of Electrons    NEL             ....   54
 Basis Dimension        Dim             ....  258

ORBITAL ENERGIES
----------------

  NO   OCC          E(Eh)            E(eV)
   0   2.0000     -20.595743      -560.4387
   1   2.0000     -20.541086      -558.9514
   2   2.0000     -20.520142      -558.3815
   3   2.0000     -11.295175      -307.3573
   4   2.0000     -11.254266      -306.2442
   5   2.0000     -11.249998      -306.1280
   6   2.0000      -1.388061       -37.7710
   7   2.0000      -1.330254       -36.1980
   8   2.0000      -1.316227       -35.8164
   9   2.0000      -0.947296       -25.7772
  10   2.0000      -0.901164       -24.5219
  11   2.0000      -0.899909       -24.4878
  12   2.0000      -0.721753       -19.6399
  13   2.0000      -0.678341       -18.4586
  14   2.0000      -0.664003       -18.0685
  15   2.0000      -0.639681       -17.4066
  16   2.0000      -0.614470       -16.7206
  17   2.0000      -0.597968       -16.2715
  18   2.0000      -0.595449       -16.2030
  19   2.0000      -0.572379       -15.5752
  20   2.0000      -0.567271       -15.4362
  21   2.0000      -0.534770       -14.5518
  22   2.0000      -0.493659       -13.4332
  23   2.0000      -0.483337       -13.1523
  24   2.0000      -0.462178       -12.5765
  25   2.0000      -0.431247       -11.7348
  26   2.0000      -0.422305       -11.4915
  27   0.0000       0.110283         3.0009
  28   0.0000       0.131821         3.5870
  29   0.0000       0.162575         4.4239
  30   0.0000       0.178590         4.8597
  31   0.0000       0.193711         5.2711

MULLIKEN ATOMIC CHARGES
-----------------------
   0 O :   -0.514944
   1 H :    0.342654
   2 C :   -0.186268
   3 H :    0.144340
   4 H :    0.127995
   5 H :    0.130394
   6 O :   -0.529651
   7 H :    0.341575
   8 C :   -0.166443
   9 H :    0.121267
  10 H :    0.094959
  11 H :    0.105191
  12 O :   -0.506629
  13 H :    0.316541
  14 C :   -0.184080
  15 H :    0.117747
  16 H :    0.145101
  17 H :    0.100251
Sum of atomic charges:   -0.0000000

LOEWDIN ATOMIC CHARGES
----------------------
   0 O :   -0.076925
   1 H :    0.198633
   2 C :   -0.366361
   3 H :    0.115430
   4 H :    0.105037
   5 H :    0.103296
   6 O :   -0.125859
   7 H :    0.159987
   8 C :   -0.394895
   9 H :    0.105836
  10 H :    0.090446
  11 H :    0.094230
  12 O :   -0.115306
  13 H :    0.185272
  14 C :   -0.381553
  15 H :    0.106359
  16 H :    0.103009
  17 H :    0.093363

  Mayer bond orders larger than 0.100000
B(  0-O ,  1-H ) :   0.8277 B(  0-O ,  2-C ) :   0.8694 B(  2-C ,  3-H ) :   0.9396
B(  2-C ,  4-H ) :   0.9336 B(  2-C ,  5-H ) :   0.9398 B(  6-O ,  7-H ) :   0.7824
B(  6-O ,  8-C ) :   0.9364 B(  8-C ,  9-H ) :   0.9423 B(  8-C , 10-H ) :   0.9409
B(  8-C , 11-H ) :   0.9344 B( 12-O , 13-H ) :   0.8470 B( 12-O , 14-C ) :   0.9112
B( 14-C , 15-H ) :   0.9363 B( 14-C , 16-H ) :   0.9310 B( 14-C , 17-H ) :   0.9416

MP2 TOTAL ENERGY:     -346.531283601 Eh
FINAL SINGLE POINT ENERGY      -346.531283601369

DIPOLE MOMENT
-------------
                                X             Y             Z
Electronic contribution:     -1.03056       1.14798       1.22898
Nuclear contribution   :     -0.12511      -2.25915      -0.70439
                        -----------------------------------------
Total Dipole Moment    :     -1.15568      -1.11117       0.52459
                        -----------------------------------------
Magnitude (a.u.)       :      1.68685
Magnitude (Debye)      :      4.28764

Rotational constants in cm-1:     0.077278     0.031339     0.022739
Rotational constants in MHz :  2316.723519   939.512800   681.703859

                             ****ORCA TERMINATED NORMALLY****
TOTAL RUN TIME: 0 days 0 hours 1 minutes 14 seconds 825 msec
