                         Program Version 4.2.0 -  RELEASE  -
|  1> # 12h2o.su.etal.mol0,2,3,6,10,11
|  2> ! MP2 def2-TZVP EnGrad TightSCF
|  3>
|  4> %pal
|  5>     nprocs 6
|  6> end
|  7>
|  8> %maxcore 8000
|  9>
| 10> %scf
| 11>     ConvForced true
| 12> end
| 13>
| 14> *xyz 0 1
| 15> O   1.794470000   0.923410000   2.768350000
| 16> H   2.338250000   1.359750000   3.430940000
| 17> H   0.879480000   1.303000000   2.865760000
| 18> O   0.923410000  -1.794470000  -2.768350000
| 19> H   1.359750000  -2.338250000  -3.430940000
| 20> H   1.303000000  -0.879480000  -2.865760000
| 21> O  -1.752130000  -0.741530000  -2.896280000
| 22> H  -2.036450000  -0.920500000  -1.984040000
| 23> H  -0.921210000  -1.242140000  -2.984230000
| 24> O   1.737840000   0.885520000  -0.052730000
| 25> H   2.090180000   1.032320000   0.841890000
| 26> H   0.839590000   1.284090000  -0.017130000
| 27> O  -0.923410000   1.794470000  -2.768350000
| 28> H  -1.359750000   2.338250000  -3.430940000
| 29> H  -1.303000000   0.879480000  -2.865760000
| 30> O  -0.741530000   1.752130000   2.896280000
| 31> H  -0.920500000   2.036450000   1.984040000
| 32> H  -1.242140000   0.921210000   2.984230000
| 33> *
| 34>
| 35>                          ****END OF INPUT****

CARTESIAN COORDINATES (ANGSTROEM)
---------------------------------
  O      1.794470    0.923410    2.768350
  H      2.338250    1.359750    3.430940
  H      0.879480    1.303000    2.865760
  O      0.923410   -1.794470   -2.768350
  H      1.359750   -2.338250   -3.430940
  H      1.303000   -0.879480   -2.865760
  O     -1.752130   -0.741530   -2.896280
  H     -2.036450   -0.920500   -1.984040
  H     -0.921210   -1.242140   -2.984230
  O      1.737840    0.885520   -0.052730
  H      2.090180    1.032320    0.841890
  H      0.839590    1.284090   -0.017130
  O     -0.923410    1.794470   -2.768350
  H     -1.359750    2.338250   -3.430940
  H     -1.303000    0.879480   -2.865760
  O     -0.741530    1.752130    2.896280
  H     -0.920500    2.036450    1.984040
  H     -1.242140    0.921210    2.984230

 Total Charge           Charge          ....    0
 Multiplicity           Mult            ....    1
 Number of Electrons    NEL             ....   60
 Basis Dimension        Dim             ....  258

ORBITAL ENERGIES
----------------

  NO   OCC          E(Eh)            E(eV)
   0   2.0000     -20.609925      -560.8246
   1   2.0000     -20.580202      -560.0158
   2   2.0000     -20.567540      -559.6712
   3   2.0000     -20.542916      -559.0012
   4   2.0000     -20.521420      -558.4162
   5   2.0000     -20.518026      -558.3239
   6   2.0000      -1.395344       -37.9692
   7   2.0000      -1.362428       -37.0736
   8   2.0000      -1.351707       -36.7818
   9   2.0000      -1.328132       -36.1403
  10   2.0000      -1.299943       -35.3732
  11   2.0000      -1.299528       -35.3620
  12   2.0000      -0.752467       -20.4757
  13   2.0000      -0.728458       -19.8224
  14   2.0000      -0.714412       -19.4401
  15   2.0000      -0.713650       -19.4194
  16   2.0000      -0.687167       -18.6988
  17   2.0000      -0.668995       -18.2043
  18   2.0000      -0.632151       -17.2017
  19   2.0000      -0.610308       -16.6073
  20   2.0000      -0.584168       -15.8960
  21   2.0000      -0.579943       -15.7811
  22   2.0000      -0.548945       -14.9376
  23   2.0000      -0.547681       -14.9032
  24   2.0000      -0.529725       -14.4145
  25   2.0000      -0.521463       -14.1897
  26   2.0000      -0.500223       -13.6118
  27   2.0000      -0.489316       -13.3150
  28   2.0000      -0.468829       -12.7575
  29   2.0000      -0.466968       -12.7068
  30   0.0000       0.091468         2.4890
  31   0.0000       0.119731         3.2580
  32   0.0000       0.150802         4.1035
  33   0.0000       0.161694         4.3999
  34   0.0000       0.167219         4.5503

MULLIKEN ATOMIC CHARGES
-----------------------
   0 O :   -0.731580
   1 H :    0.335739
   2 H :    0.365932
   3 O :   -0.703496
   4 H :    0.349902
   5 H :    0.379901
   6 O :   -0.699890
   7 H :    0.347707
   8 H :    0.375894
   9 O :   -0.696878
  10 H :    0.367226
  11 H :    0.310885
  12 O :   -0.736552
  13 H :    0.324210
  14 H :    0.363473
  15 O :   -0.676208
  16 H :    0.359084
  17 H :    0.364652
Sum of atomic charges:    0.0000000

LOEWDIN ATOMIC CHARGES
----------------------
   0 O :   -0.338655
   1 H :    0.153206
   2 H :    0.142517
   3 O :   -0.310499
   4 H :    0.162896
   5 H :    0.195353
   6 O :   -0.284059
   7 H :    0.168807
   8 H :    0.154477
   9 O :   -0.348769
  10 H :    0.148932
  11 H :    0.156400
  12 O :   -0.375587
  13 H :    0.148239
  14 H :    0.140735
  15 O :   -0.267124
  16 H :    0.173699
  17 H :    0.179432

  Mayer bond orders larger than 0.100000
B(  0-O ,  1-H ) :   0.8512 B(  0-O ,  2-H ) :   0.7743 B(  3-O ,  4-H ) :   0.8429
B(  3-O ,  5-H ) :   0.8148 B(  6-O ,  7-H ) :   0.8441 B(  6-O ,  8-H ) :   0.7921
B(  9-O , 10-H ) :   0.8125 B(  9-O , 11-H ) :   0.8618 B( 12-O , 13-H ) :   0.8607
B( 12-O , 14-H ) :   0.7756 B( 15-O , 16-H ) :   0.8354 B( 15-O , 17-H ) :   0.8329

MP2 TOTAL ENERGY:     -457.914185786 Eh
FINAL SINGLE POINT ENERGY      -457.914185786009

DIPOLE MOMENT
-------------
                                X             Y             Z
Electronic contribution:      0.02311      -0.34298       0.17915
Nuclear contribution   :     -0.87406       0.11247       0.14168
                        -----------------------------------------
Total Dipole Moment    :     -0.85095      -0.23052       0.32083
                        -----------------------------------------
Magnitude (a.u.)       :      0.93818
Magnitude (Debye)      :      2.38467

Rotational constants in cm-1:     0.056807     0.019057     0.016640
Rotational constants in MHz :  1703.044494   571.307000   498.842363

                             ****ORCA TERMINATED NORMALLY****
TOTAL RUN TIME: 0 days 0 hours 0 minutes 52 seconds 985 msec
