                         Program Version 3.0.3 - RELEASE   -
|  1> ! B3LYP Def2-TZVP def2-TZVP/J RIJCOSX TightSCF Grid4 D3BJ COSMO
|  2>
|  3> %pal nprocs 12 end
|  4>
|  5> %scf
|  6>         maxiter 400
|  7> end
|  8>
|  9> %cosmo
| 10>         SMD true
| 11>         solvent "WATER"
| 12> end
| 13>
| 14> * xyz  0  1
| 15> O  1.841681	0.348023	0.252624
| 16> H  1.352643	0.084417	-0.571634
| 17> H  2.276161	-0.473965	0.530403
| 18> O  0.316962	-0.388749	-1.884680
| 19> H  -0.513499	-0.424471	-1.337790
| 20> H  0.213645	0.421299	-2.407154
| 21> O  -0.322080	0.448354	1.850770
| 22> H  0.525832	0.431448	1.332051
| 23> H  -0.523018	1.394601	1.925487
| 24> O  -1.812769	-0.412809	-0.235866
| 25> H  -2.017971	-1.338101	-0.029838
| 26> H  -1.337587	-0.090048	0.575626
| 27> **                         ****END OF INPUT****

CARTESIAN COORDINATES (ANGSTROEM)
---------------------------------
  O      1.841681    0.348023    0.252624
  H      1.352643    0.084417   -0.571634
  H      2.276161   -0.473965    0.530403
  O      0.316962   -0.388749   -1.884680
  H     -0.513499   -0.424471   -1.337790
  H      0.213645    0.421299   -2.407154
  O     -0.322080    0.448354    1.850770
  H      0.525832    0.431448    1.332051
  H     -0.523018    1.394601    1.925487
  O     -1.812769   -0.412809   -0.235866
  H     -2.017971   -1.338101   -0.029838
  H     -1.337587   -0.090048    0.575626

 Total Charge           Charge          ....    0
 Multiplicity           Mult            ....    1
 Number of Electrons    NEL             ....   40
 Basis Dimension        Dim             ....  172

ORBITAL ENERGIES
----------------

  NO   OCC          E(Eh)            E(eV)
   0   2.0000     -19.125807      -520.4397
   1   2.0000     -19.123770      -520.3842
   2   2.0000     -19.123560      -520.3785
   3   2.0000     -19.122917      -520.3610
   4   2.0000      -1.022685       -27.8287
   5   2.0000      -1.006553       -27.3897
   6   2.0000      -1.004967       -27.3465
   7   2.0000      -0.989278       -26.9196
   8   2.0000      -0.529029       -14.3956
   9   2.0000      -0.523009       -14.2318
  10   2.0000      -0.520610       -14.1665
  11   2.0000      -0.520447       -14.1621
  12   2.0000      -0.432303       -11.7636
  13   2.0000      -0.404136       -10.9971
  14   2.0000      -0.401040       -10.9129
  15   2.0000      -0.379532       -10.3276
  16   2.0000      -0.321962        -8.7610
  17   2.0000      -0.320908        -8.7324
  18   2.0000      -0.320746        -8.7279
  19   2.0000      -0.315976        -8.5982
  20   0.0000       0.022898         0.6231
  21   0.0000       0.070221         1.9108
  22   0.0000       0.070404         1.9158
  23   0.0000       0.090471         2.4618
  24   0.0000       0.190727         5.1899

MULLIKEN ATOMIC CHARGES
-----------------------
   0 O :   -0.742862
   1 H :    0.362745
   2 H :    0.381821
   3 O :   -0.748330
   4 H :    0.367592
   5 H :    0.379838
   6 O :   -0.745661
   7 H :    0.365205
   8 H :    0.380559
   9 O :   -0.744907
  10 H :    0.380429
  11 H :    0.363571
Sum of atomic charges:   -0.0000000

LOEWDIN ATOMIC CHARGES
----------------------
   0 O :   -0.318346
   1 H :    0.143450
   2 H :    0.181511
   3 O :   -0.327128
   4 H :    0.140576
   5 H :    0.179744
   6 O :   -0.323184
   7 H :    0.139984
   8 H :    0.180667
   9 O :   -0.319780
  10 H :    0.180815
  11 H :    0.141691

  Mayer bond orders larger than 0.1
B(  0-O ,  1-H ) :   0.7855 B(  0-O ,  2-H ) :   0.8605 B(  0-O ,  7-H ) :   0.1434
B(  1-H ,  3-O ) :   0.1406 B(  3-O ,  4-H ) :   0.7813 B(  3-O ,  5-H ) :   0.8619
B(  4-H ,  9-O ) :   0.1404 B(  6-O ,  7-H ) :   0.7815 B(  6-O ,  8-H ) :   0.8613
B(  6-O , 11-H ) :   0.1429 B(  9-O , 10-H ) :   0.8610 B(  9-O , 11-H ) :   0.7822

Dispersion correction           -0.008136860
FINAL SINGLE POINT ENERGY      -305.782534646843

DIPOLE MOMENT
-------------
                                X             Y             Z
Electronic contribution:      0.00792       0.00615       0.00759
Nuclear contribution   :     -0.05942       0.01294       0.04283
                        -----------------------------------------
Total Dipole Moment    :     -0.05150       0.01909       0.05042
                        -----------------------------------------
Magnitude (a.u.)       :      0.07456
Magnitude (Debye)      :      0.18951

                             ****ORCA TERMINATED NORMALLY****
TOTAL RUN TIME: 0 days 0 hours 0 minutes 53 seconds 0 msec
