                         Program Version 4.2.0 -  RELEASE  -
|  1> # 12h2o.su.etal.mol0,1,2,5,7,8,9
|  2> ! MP2 def2-TZVP EnGrad TightSCF
|  3>
|  4> %pal
|  5>     nprocs 6
|  6> end
|  7>
|  8> %maxcore 8000
|  9>
| 10> %scf
| 11>     ConvForced true
| 12> end
| 13>
| 14> *xyz 0 1
| 15> O   1.794470000   0.923410000   2.768350000
| 16> H   2.338250000   1.359750000   3.430940000
| 17> H   0.879480000   1.303000000   2.865760000
| 18> O  -1.794470000  -0.923410000   2.768350000
| 19> H  -2.338250000  -1.359750000   3.430940000
| 20> H  -0.879480000  -1.303000000   2.865760000
| 21> O   0.923410000  -1.794470000  -2.768350000
| 22> H   1.359750000  -2.338250000  -3.430940000
| 23> H   1.303000000  -0.879480000  -2.865760000
| 24> O   0.885520000  -1.737840000   0.052730000
| 25> H   1.284090000  -0.839590000   0.017130000
| 26> H   1.032320000  -2.090180000  -0.841890000
| 27> O  -1.737840000  -0.885520000  -0.052730000
| 28> H  -2.090180000  -1.032320000   0.841890000
| 29> H  -0.839590000  -1.284090000  -0.017130000
| 30> O   1.752130000   0.741530000  -2.896280000
| 31> H   2.036450000   0.920500000  -1.984040000
| 32> H   0.921210000   1.242140000  -2.984230000
| 33> O   0.741530000  -1.752130000   2.896280000
| 34> H   0.920500000  -2.036450000   1.984040000
| 35> H   1.242140000  -0.921210000   2.984230000
| 36> *
| 37>
| 38>                          ****END OF INPUT****

CARTESIAN COORDINATES (ANGSTROEM)
---------------------------------
  O      1.794470    0.923410    2.768350
  H      2.338250    1.359750    3.430940
  H      0.879480    1.303000    2.865760
  O     -1.794470   -0.923410    2.768350
  H     -2.338250   -1.359750    3.430940
  H     -0.879480   -1.303000    2.865760
  O      0.923410   -1.794470   -2.768350
  H      1.359750   -2.338250   -3.430940
  H      1.303000   -0.879480   -2.865760
  O      0.885520   -1.737840    0.052730
  H      1.284090   -0.839590    0.017130
  H      1.032320   -2.090180   -0.841890
  O     -1.737840   -0.885520   -0.052730
  H     -2.090180   -1.032320    0.841890
  H     -0.839590   -1.284090   -0.017130
  O      1.752130    0.741530   -2.896280
  H      2.036450    0.920500   -1.984040
  H      0.921210    1.242140   -2.984230
  O      0.741530   -1.752130    2.896280
  H      0.920500   -2.036450    1.984040
  H      1.242140   -0.921210    2.984230

 Total Charge           Charge          ....    0
 Multiplicity           Mult            ....    1
 Number of Electrons    NEL             ....   70
 Basis Dimension        Dim             ....  301

ORBITAL ENERGIES
----------------

  NO   OCC          E(Eh)            E(eV)
   0   2.0000     -20.614088      -560.9378
   1   2.0000     -20.601891      -560.6060
   2   2.0000     -20.576483      -559.9146
   3   2.0000     -20.552531      -559.2628
   4   2.0000     -20.547541      -559.1270
   5   2.0000     -20.523708      -558.4785
   6   2.0000     -20.479801      -557.2837
   7   2.0000      -1.399568       -38.0842
   8   2.0000      -1.379856       -37.5478
   9   2.0000      -1.364632       -37.1335
  10   2.0000      -1.339985       -36.4628
  11   2.0000      -1.334550       -36.3150
  12   2.0000      -1.307067       -35.5671
  13   2.0000      -1.264200       -34.4006
  14   2.0000      -0.756642       -20.5893
  15   2.0000      -0.746780       -20.3209
  16   2.0000      -0.728339       -19.8191
  17   2.0000      -0.721821       -19.6417
  18   2.0000      -0.704497       -19.1703
  19   2.0000      -0.690732       -18.7958
  20   2.0000      -0.650248       -17.6942
  21   2.0000      -0.639268       -17.3954
  22   2.0000      -0.626043       -17.0355
  23   2.0000      -0.609288       -16.5796
  24   2.0000      -0.586686       -15.9645
  25   2.0000      -0.572631       -15.5821
  26   2.0000      -0.559977       -15.2378
  27   2.0000      -0.541749       -14.7417
  28   2.0000      -0.539320       -14.6756
  29   2.0000      -0.526012       -14.3135
  30   2.0000      -0.502176       -13.6649
  31   2.0000      -0.494050       -13.4438
  32   2.0000      -0.488707       -13.2984
  33   2.0000      -0.467587       -12.7237
  34   2.0000      -0.431146       -11.7321
  35   0.0000       0.081818         2.2264
  36   0.0000       0.108916         2.9638
  37   0.0000       0.154206         4.1962
  38   0.0000       0.156870         4.2687
  39   0.0000       0.163585         4.4514

MULLIKEN ATOMIC CHARGES
-----------------------
   0 O :   -0.710279
   1 H :    0.357892
   2 H :    0.373607
   3 O :   -0.740913
   4 H :    0.329317
   5 H :    0.367242
   6 O :   -0.728383
   7 H :    0.339626
   8 H :    0.369310
   9 O :   -0.719117
  10 H :    0.332723
  11 H :    0.390776
  12 O :   -0.744197
  13 H :    0.359360
  14 H :    0.343241
  15 O :   -0.677334
  16 H :    0.352952
  17 H :    0.374664
  18 O :   -0.717163
  19 H :    0.385311
  20 H :    0.361365
Sum of atomic charges:    0.0000000

LOEWDIN ATOMIC CHARGES
----------------------
   0 O :   -0.314683
   1 H :    0.166105
   2 H :    0.193227
   3 O :   -0.345962
   4 H :    0.149601
   5 H :    0.142232
   6 O :   -0.334241
   7 H :    0.155777
   8 H :    0.143613
   9 O :   -0.284196
  10 H :    0.165739
  11 H :    0.158133
  12 O :   -0.376696
  13 H :    0.143339
  14 H :    0.133839
  15 O :   -0.266839
  16 H :    0.171114
  17 H :    0.184135
  18 O :   -0.287381
  19 H :    0.155570
  20 H :    0.147573

  Mayer bond orders larger than 0.100000
B(  0-O ,  1-H ) :   0.8387 B(  0-O ,  2-H ) :   0.8202 B(  3-O ,  4-H ) :   0.8543
B(  3-O ,  5-H ) :   0.7550 B(  5-H , 18-O ) :   0.1073 B(  6-O ,  7-H ) :   0.8493
B(  6-O ,  8-H ) :   0.7709 B(  9-O , 10-H ) :   0.8426 B(  9-O , 11-H ) :   0.7808
B( 12-O , 13-H ) :   0.8215 B( 12-O , 14-H ) :   0.8189 B( 15-O , 16-H ) :   0.8401
B( 15-O , 17-H ) :   0.8262 B( 18-O , 19-H ) :   0.8044 B( 18-O , 20-H ) :   0.8109

MP2 TOTAL ENERGY:     -534.248498863 Eh
FINAL SINGLE POINT ENERGY      -534.248498863420

DIPOLE MOMENT
-------------
                                X             Y             Z
Electronic contribution:      0.36968       0.09770      -0.37751
Nuclear contribution   :      1.69817       1.33005       0.63259
                        -----------------------------------------
Total Dipole Moment    :      2.06785       1.42775       0.25509
                        -----------------------------------------
Magnitude (a.u.)       :      2.52578
Magnitude (Debye)      :      6.42001

Rotational constants in cm-1:     0.045245     0.019955     0.016977
Rotational constants in MHz :  1356.404808   598.249004   508.964649

                             ****ORCA TERMINATED NORMALLY****
TOTAL RUN TIME: 0 days 0 hours 2 minutes 14 seconds 586 msec
