                         Program Version 4.2.0 -  RELEASE  -
|  1> # 12h2o.su.etal.mol0,1,5,6,7,8,9,10
|  2> ! MP2 def2-TZVP EnGrad TightSCF
|  3>
|  4> %pal
|  5>     nprocs 6
|  6> end
|  7>
|  8> %maxcore 8000
|  9>
| 10> %scf
| 11>     ConvForced true
| 12> end
| 13>
| 14> *xyz 0 1
| 15> O   1.794470000   0.923410000   2.768350000
| 16> H   2.338250000   1.359750000   3.430940000
| 17> H   0.879480000   1.303000000   2.865760000
| 18> O  -1.794470000  -0.923410000   2.768350000
| 19> H  -2.338250000  -1.359750000   3.430940000
| 20> H  -0.879480000  -1.303000000   2.865760000
| 21> O   0.885520000  -1.737840000   0.052730000
| 22> H   1.284090000  -0.839590000   0.017130000
| 23> H   1.032320000  -2.090180000  -0.841890000
| 24> O   1.737840000   0.885520000  -0.052730000
| 25> H   2.090180000   1.032320000   0.841890000
| 26> H   0.839590000   1.284090000  -0.017130000
| 27> O  -1.737840000  -0.885520000  -0.052730000
| 28> H  -2.090180000  -1.032320000   0.841890000
| 29> H  -0.839590000  -1.284090000  -0.017130000
| 30> O   1.752130000   0.741530000  -2.896280000
| 31> H   2.036450000   0.920500000  -1.984040000
| 32> H   0.921210000   1.242140000  -2.984230000
| 33> O   0.741530000  -1.752130000   2.896280000
| 34> H   0.920500000  -2.036450000   1.984040000
| 35> H   1.242140000  -0.921210000   2.984230000
| 36> O  -0.923410000   1.794470000  -2.768350000
| 37> H  -1.359750000   2.338250000  -3.430940000
| 38> H  -1.303000000   0.879480000  -2.865760000
| 39> *
| 40>
| 41>                          ****END OF INPUT****

CARTESIAN COORDINATES (ANGSTROEM)
---------------------------------
  O      1.794470    0.923410    2.768350
  H      2.338250    1.359750    3.430940
  H      0.879480    1.303000    2.865760
  O     -1.794470   -0.923410    2.768350
  H     -2.338250   -1.359750    3.430940
  H     -0.879480   -1.303000    2.865760
  O      0.885520   -1.737840    0.052730
  H      1.284090   -0.839590    0.017130
  H      1.032320   -2.090180   -0.841890
  O      1.737840    0.885520   -0.052730
  H      2.090180    1.032320    0.841890
  H      0.839590    1.284090   -0.017130
  O     -1.737840   -0.885520   -0.052730
  H     -2.090180   -1.032320    0.841890
  H     -0.839590   -1.284090   -0.017130
  O      1.752130    0.741530   -2.896280
  H      2.036450    0.920500   -1.984040
  H      0.921210    1.242140   -2.984230
  O      0.741530   -1.752130    2.896280
  H      0.920500   -2.036450    1.984040
  H      1.242140   -0.921210    2.984230
  O     -0.923410    1.794470   -2.768350
  H     -1.359750    2.338250   -3.430940
  H     -1.303000    0.879480   -2.865760

 Total Charge           Charge          ....    0
 Multiplicity           Mult            ....    1
 Number of Electrons    NEL             ....   80
 Basis Dimension        Dim             ....  344

ORBITAL ENERGIES
----------------

  NO   OCC          E(Eh)            E(eV)
   0   2.0000     -20.632986      -561.4521
   1   2.0000     -20.594774      -560.4123
   2   2.0000     -20.576780      -559.9227
   3   2.0000     -20.571471      -559.7782
   4   2.0000     -20.558386      -559.4221
   5   2.0000     -20.534425      -558.7701
   6   2.0000     -20.510899      -558.1299
   7   2.0000     -20.495398      -557.7081
   8   2.0000      -1.413784       -38.4710
   9   2.0000      -1.382155       -37.6104
  10   2.0000      -1.360359       -37.0173
  11   2.0000      -1.354500       -36.8578
  12   2.0000      -1.348645       -36.6985
  13   2.0000      -1.317852       -35.8606
  14   2.0000      -1.296155       -35.2702
  15   2.0000      -1.279379       -34.8137
  16   2.0000      -0.778959       -21.1965
  17   2.0000      -0.744318       -20.2539
  18   2.0000      -0.729881       -19.8611
  19   2.0000      -0.721509       -19.6332
  20   2.0000      -0.717133       -19.5142
  21   2.0000      -0.701495       -19.0886
  22   2.0000      -0.676503       -18.4086
  23   2.0000      -0.663113       -18.0442
  24   2.0000      -0.655857       -17.8468
  25   2.0000      -0.622000       -16.9255
  26   2.0000      -0.620505       -16.8848
  27   2.0000      -0.594200       -16.1690
  28   2.0000      -0.582653       -15.8548
  29   2.0000      -0.574859       -15.6427
  30   2.0000      -0.560693       -15.2572
  31   2.0000      -0.544020       -14.8035
  32   2.0000      -0.536600       -14.6016
  33   2.0000      -0.528730       -14.3875
  34   2.0000      -0.510831       -13.9004
  35   2.0000      -0.501674       -13.6512
  36   2.0000      -0.498747       -13.5716
  37   2.0000      -0.479451       -13.0465
  38   2.0000      -0.460820       -12.5396
  39   2.0000      -0.446563       -12.1516
  40   0.0000       0.081753         2.2246
  41   0.0000       0.120319         3.2740
  42   0.0000       0.145375         3.9558
  43   0.0000       0.156439         4.2569
  44   0.0000       0.163402         4.4464

MULLIKEN ATOMIC CHARGES
-----------------------
   0 O :   -0.727382
   1 H :    0.372808
   2 H :    0.381486
   3 O :   -0.743916
   4 H :    0.332907
   5 H :    0.367882
   6 O :   -0.739871
   7 H :    0.371125
   8 H :    0.366436
   9 O :   -0.727665
  10 H :    0.384220
  11 H :    0.369308
  12 O :   -0.745892
  13 H :    0.363676
  14 H :    0.338145
  15 O :   -0.727227
  16 H :    0.361418
  17 H :    0.346944
  18 O :   -0.713703
  19 H :    0.388560
  20 H :    0.360559
  21 O :   -0.702487
  22 H :    0.349481
  23 H :    0.373187
Sum of atomic charges:   -0.0000000

LOEWDIN ATOMIC CHARGES
----------------------
   0 O :   -0.288701
   1 H :    0.172178
   2 H :    0.196381
   3 O :   -0.346604
   4 H :    0.151315
   5 H :    0.142122
   6 O :   -0.297473
   7 H :    0.145972
   8 H :    0.174692
   9 O :   -0.280237
  10 H :    0.154528
  11 H :    0.181694
  12 O :   -0.377067
  13 H :    0.145120
  14 H :    0.132060
  15 O :   -0.355543
  16 H :    0.145467
  17 H :    0.142660
  18 O :   -0.284447
  19 H :    0.157720
  20 H :    0.146733
  21 O :   -0.313513
  22 H :    0.162200
  23 H :    0.192743

  Mayer bond orders larger than 0.100000
B(  0-O ,  1-H ) :   0.8273 B(  0-O ,  2-H ) :   0.8116 B(  3-O ,  4-H ) :   0.8524
B(  3-O ,  5-H ) :   0.7546 B(  5-H , 18-O ) :   0.1072 B(  6-O ,  7-H ) :   0.7665
B(  6-O ,  8-H ) :   0.8295 B(  9-O , 10-H ) :   0.7993 B(  9-O , 11-H ) :   0.8185
B( 12-O , 13-H ) :   0.8179 B( 12-O , 14-H ) :   0.8119 B( 15-O , 16-H ) :   0.8323
B( 15-O , 17-H ) :   0.8235 B( 18-O , 19-H ) :   0.8006 B( 18-O , 20-H ) :   0.8182
B( 21-O , 22-H ) :   0.8434 B( 21-O , 23-H ) :   0.8198

MP2 TOTAL ENERGY:     -610.579814793 Eh
FINAL SINGLE POINT ENERGY      -610.579814793248

DIPOLE MOMENT
-------------
                                X             Y             Z
Electronic contribution:      0.50015       0.12662       0.08568
Nuclear contribution   :     -0.11452       1.16604       1.40687
                        -----------------------------------------
Total Dipole Moment    :      0.38563       1.29266       1.49256
                        -----------------------------------------
Magnitude (a.u.)       :      2.01182
Magnitude (Debye)      :      5.11363

Rotational constants in cm-1:     0.036492     0.018090     0.015136
Rotational constants in MHz :  1093.995119   542.317635   453.774114

                             ****ORCA TERMINATED NORMALLY****
TOTAL RUN TIME: 0 days 0 hours 3 minutes 7 seconds 715 msec
