                         Program Version 4.2.0 -  RELEASE  -
|  1> # 12mecn.remya.etal.2.mol1,6,11
|  2> ! MP2 def2-TZVP EnGrad TightSCF
|  3>
|  4> %pal
|  5>     nprocs 6
|  6> end
|  7>
|  8> %maxcore 8000
|  9>
| 10> %scf
| 11>     ConvForced true
| 12> end
| 13>
| 14> *xyz 0 1
| 15> C  -4.697980000  -0.249690000   1.746215000
| 16> H  -4.927570000   0.755530000   2.111799000
| 17> H  -3.709180000  -0.561560000   2.093253000
| 18> H  -5.432280000  -0.961520000   2.128066000
| 19> C  -4.714100000  -0.247110000   0.301670000
| 20> N  -4.729750000  -0.234960000  -0.865260000
| 21> C   5.300864000  -2.920090000   1.401103000
| 22> H   5.986071000  -2.139770000   1.737487000
| 23> H   5.636642000  -3.888750000   1.778233000
| 24> H   4.307359000  -2.697240000   1.799307000
| 25> C   5.234791000  -2.933140000  -0.043290000
| 26> N   5.170868000  -2.941760000  -1.207750000
| 27> C   4.214163000   3.378139000   1.593627000
| 28> H   3.242643000   3.657109000   2.012358000
| 29> H   4.969258000   4.086643000   1.941290000
| 30> H   4.482966000   2.372549000   1.931698000
| 31> C   4.130759000   3.388436000   0.150192000
| 32> N   4.050180000   3.381449000  -1.013420000
| 33> *
| 34>
| 35>                          ****END OF INPUT****

CARTESIAN COORDINATES (ANGSTROEM)
---------------------------------
  C     -4.697980   -0.249690    1.746215
  H     -4.927570    0.755530    2.111799
  H     -3.709180   -0.561560    2.093253
  H     -5.432280   -0.961520    2.128066
  C     -4.714100   -0.247110    0.301670
  N     -4.729750   -0.234960   -0.865260
  C      5.300864   -2.920090    1.401103
  H      5.986071   -2.139770    1.737487
  H      5.636642   -3.888750    1.778233
  H      4.307359   -2.697240    1.799307
  C      5.234791   -2.933140   -0.043290
  N      5.170868   -2.941760   -1.207750
  C      4.214163    3.378139    1.593627
  H      3.242643    3.657109    2.012358
  H      4.969258    4.086643    1.941290
  H      4.482966    2.372549    1.931698
  C      4.130759    3.388436    0.150192
  N      4.050180    3.381449   -1.013420

 Total Charge           Charge          ....    0
 Multiplicity           Mult            ....    1
 Number of Electrons    NEL             ....   66
 Basis Dimension        Dim             ....  333

ORBITAL ENERGIES
----------------

  NO   OCC          E(Eh)            E(eV)
   0   2.0000     -15.573868      -423.7865
   1   2.0000     -15.573553      -423.7779
   2   2.0000     -15.573347      -423.7723
   3   2.0000     -11.288246      -307.1688
   4   2.0000     -11.287456      -307.1473
   5   2.0000     -11.286192      -307.1129
   6   2.0000     -11.280136      -306.9481
   7   2.0000     -11.279987      -306.9441
   8   2.0000     -11.279862      -306.9407
   9   2.0000      -1.214977       -33.0612
  10   2.0000      -1.214760       -33.0553
  11   2.0000      -1.214300       -33.0428
  12   2.0000      -1.046031       -28.4640
  13   2.0000      -1.045882       -28.4599
  14   2.0000      -1.045215       -28.4417
  15   2.0000      -0.703090       -19.1321
  16   2.0000      -0.702770       -19.1233
  17   2.0000      -0.701053       -19.0766
  18   2.0000      -0.635359       -17.2890
  19   2.0000      -0.635246       -17.2859
  20   2.0000      -0.634822       -17.2744
  21   2.0000      -0.633682       -17.2434
  22   2.0000      -0.632575       -17.2132
  23   2.0000      -0.631253       -17.1773
  24   2.0000      -0.555841       -15.1252
  25   2.0000      -0.555652       -15.1201
  26   2.0000      -0.555593       -15.1185
  27   2.0000      -0.458236       -12.4692
  28   2.0000      -0.458146       -12.4668
  29   2.0000      -0.458045       -12.4640
  30   2.0000      -0.457703       -12.4547
  31   2.0000      -0.457674       -12.4539
  32   2.0000      -0.457188       -12.4407
  33   0.0000       0.102916         2.8005
  34   0.0000       0.117582         3.1996
  35   0.0000       0.124096         3.3768
  36   0.0000       0.164484         4.4758
  37   0.0000       0.169158         4.6030

MULLIKEN ATOMIC CHARGES
-----------------------
   0 C :   -0.279199
   1 H :    0.172026
   2 H :    0.169820
   3 H :    0.172257
   4 C :   -0.145752
   5 N :   -0.089152
   6 C :   -0.283061
   7 H :    0.169198
   8 H :    0.173383
   9 H :    0.169896
  10 C :   -0.144864
  11 N :   -0.084558
  12 C :   -0.280027
  13 H :    0.171765
  14 H :    0.172979
  15 H :    0.165663
  16 C :   -0.145790
  17 N :   -0.084583
Sum of atomic charges:    0.0000000

LOEWDIN ATOMIC CHARGES
----------------------
   0 C :   -0.284374
   1 H :    0.152745
   2 H :    0.152065
   3 H :    0.151518
   4 C :   -0.220232
   5 N :    0.048279
   6 C :   -0.285322
   7 H :    0.150205
   8 H :    0.151468
   9 H :    0.151894
  10 C :   -0.219715
  11 N :    0.051467
  12 C :   -0.285315
  13 H :    0.152438
  14 H :    0.150995
  15 H :    0.150842
  16 C :   -0.220403
  17 N :    0.051445

  Mayer bond orders larger than 0.100000
B(  0-C ,  1-H ) :   0.9162 B(  0-C ,  2-H ) :   0.9173 B(  0-C ,  3-H ) :   0.9171
B(  0-C ,  4-C ) :   0.9018 B(  4-C ,  5-N ) :   2.8347 B(  6-C ,  7-H ) :   0.9182
B(  6-C ,  8-H ) :   0.9160 B(  6-C ,  9-H ) :   0.9180 B(  6-C , 10-C ) :   0.9023
B( 10-C , 11-N ) :   2.8330 B( 12-C , 13-H ) :   0.9170 B( 12-C , 14-H ) :   0.9168
B( 12-C , 15-H ) :   0.9182 B( 12-C , 16-C ) :   0.9025 B( 16-C , 17-N ) :   2.8325

MP2 TOTAL ENERGY:     -397.447633144 Eh
FINAL SINGLE POINT ENERGY      -397.447633144209

DIPOLE MOMENT
-------------
                                X             Y             Z
Electronic contribution:     -0.35475       0.00138      -9.43277
Nuclear contribution   :      0.53930       0.00180      13.93945
                        -----------------------------------------
Total Dipole Moment    :      0.18455       0.00318       4.50668
                        -----------------------------------------
Magnitude (a.u.)       :      4.51046
Magnitude (Debye)      :     11.46468

Rotational constants in cm-1:     0.017060     0.006461     0.005141
Rotational constants in MHz :   511.456703   193.706234   154.118655

                             ****ORCA TERMINATED NORMALLY****
TOTAL RUN TIME: 0 days 0 hours 1 minutes 48 seconds 369 msec
