                         Program Version 4.2.0 -  RELEASE  -
|  1> # 12h2o.su.etal.mol5,7,8,11
|  2> ! MP2 def2-TZVP EnGrad TightSCF
|  3>
|  4> %pal
|  5>     nprocs 6
|  6> end
|  7>
|  8> %maxcore 8000
|  9>
| 10> %scf
| 11>     ConvForced true
| 12> end
| 13>
| 14> *xyz 0 1
| 15> O   0.885520000  -1.737840000   0.052730000
| 16> H   1.284090000  -0.839590000   0.017130000
| 17> H   1.032320000  -2.090180000  -0.841890000
| 18> O  -1.737840000  -0.885520000  -0.052730000
| 19> H  -2.090180000  -1.032320000   0.841890000
| 20> H  -0.839590000  -1.284090000  -0.017130000
| 21> O   1.752130000   0.741530000  -2.896280000
| 22> H   2.036450000   0.920500000  -1.984040000
| 23> H   0.921210000   1.242140000  -2.984230000
| 24> O  -0.741530000   1.752130000   2.896280000
| 25> H  -0.920500000   2.036450000   1.984040000
| 26> H  -1.242140000   0.921210000   2.984230000
| 27> *
| 28>
| 29>                          ****END OF INPUT****

CARTESIAN COORDINATES (ANGSTROEM)
---------------------------------
  O      0.885520   -1.737840    0.052730
  H      1.284090   -0.839590    0.017130
  H      1.032320   -2.090180   -0.841890
  O     -1.737840   -0.885520   -0.052730
  H     -2.090180   -1.032320    0.841890
  H     -0.839590   -1.284090   -0.017130
  O      1.752130    0.741530   -2.896280
  H      2.036450    0.920500   -1.984040
  H      0.921210    1.242140   -2.984230
  O     -0.741530    1.752130    2.896280
  H     -0.920500    2.036450    1.984040
  H     -1.242140    0.921210    2.984230

 Total Charge           Charge          ....    0
 Multiplicity           Mult            ....    1
 Number of Electrons    NEL             ....   40
 Basis Dimension        Dim             ....  172

ORBITAL ENERGIES
----------------

  NO   OCC          E(Eh)            E(eV)
   0   2.0000     -20.602626      -560.6260
   1   2.0000     -20.580396      -560.0210
   2   2.0000     -20.566634      -559.6466
   3   2.0000     -20.542805      -558.9981
   4   2.0000      -1.383142       -37.6372
   5   2.0000      -1.359358       -36.9900
   6   2.0000      -1.345757       -36.6199
   7   2.0000      -1.323619       -36.0175
   8   2.0000      -0.741006       -20.1638
   9   2.0000      -0.722128       -19.6501
  10   2.0000      -0.708721       -19.2853
  11   2.0000      -0.699160       -19.0251
  12   2.0000      -0.622828       -16.9480
  13   2.0000      -0.596504       -16.2317
  14   2.0000      -0.583478       -15.8773
  15   2.0000      -0.575409       -15.6577
  16   2.0000      -0.530591       -14.4381
  17   2.0000      -0.523899       -14.2560
  18   2.0000      -0.510806       -13.8997
  19   2.0000      -0.490565       -13.3489
  20   0.0000       0.077659         2.1132
  21   0.0000       0.113492         3.0883
  22   0.0000       0.148580         4.0431
  23   0.0000       0.161127         4.3845
  24   0.0000       0.180075         4.9001

MULLIKEN ATOMIC CHARGES
-----------------------
   0 O :   -0.677695
   1 H :    0.347198
   2 H :    0.365314
   3 O :   -0.712670
   4 H :    0.321573
   5 H :    0.355213
   6 O :   -0.670475
   7 H :    0.326175
   8 H :    0.347703
   9 O :   -0.674358
  10 H :    0.338532
  11 H :    0.333491
Sum of atomic charges:   -0.0000000

LOEWDIN ATOMIC CHARGES
----------------------
   0 O :   -0.286765
   1 H :    0.174431
   2 H :    0.176265
   3 O :   -0.360927
   4 H :    0.154514
   5 H :    0.141824
   6 O :   -0.327838
   7 H :    0.158960
   8 H :    0.171700
   9 O :   -0.331191
  10 H :    0.165051
  11 H :    0.163975

  Mayer bond orders larger than 0.100000
B(  0-O ,  1-H ) :   0.8393 B(  0-O ,  2-H ) :   0.8324 B(  3-O ,  4-H ) :   0.8611
B(  3-O ,  5-H ) :   0.7978 B(  6-O ,  7-H ) :   0.8579 B(  6-O ,  8-H ) :   0.8463
B(  9-O , 10-H ) :   0.8513 B(  9-O , 11-H ) :   0.8543

MP2 TOTAL ENERGY:     -305.261869024 Eh
FINAL SINGLE POINT ENERGY      -305.261869024002

DIPOLE MOMENT
-------------
                                X             Y             Z
Electronic contribution:      0.26967      -0.10573      -0.09038
Nuclear contribution   :     -0.11229       0.11114       0.00000
                        -----------------------------------------
Total Dipole Moment    :      0.15739       0.00541      -0.09038
                        -----------------------------------------
Magnitude (a.u.)       :      0.18157
Magnitude (Debye)      :      0.46151

Rotational constants in cm-1:     0.088879     0.039227     0.033172
Rotational constants in MHz :  2664.538515  1176.007220   994.477769

                             ****ORCA TERMINATED NORMALLY****
TOTAL RUN TIME: 0 days 0 hours 0 minutes 15 seconds 216 msec
