                         Program Version 3.0.3 - RELEASE   -
|  1> ! BP86 Def2-SVP TightSCF Opt D3BJ
|  2>
|  3> %pal nprocs 12 end
|  4>
|  5> %scf
|  6>         maxiter 800
|  7> end
|  8>
|  9> * xyz  0  1
| 10>   O     -1.720210   -0.322031   -0.786396
| 11>   H     -0.851367   -0.550020   -1.117098
| 12>   H     -2.242807   -0.165229   -1.572867
| 13>   O     -0.842420    0.768785    1.560001
| 14>   H     -1.496945    1.397072    1.865097
| 15>   H     -1.238001    0.366569    0.786716
| 16>   O      1.729784    0.339999    0.749421
| 17>   H      2.330680    0.497340    1.477707
| 18>   H      0.862976    0.530422    1.108050
| 19>   O      0.845499   -0.828262   -1.558852
| 20>   H      1.250926   -0.389077   -0.811204
| 21>   H      1.364976   -1.622902   -1.681011
| 22> **                         ****END OF INPUT****
 Total Charge           Charge          ....    0
 Multiplicity           Mult            ....    1
 Number of Electrons    NEL             ....   40
Dispersion correction           -0.006699302
FINAL SINGLE POINT ENERGY      -305.504798951867
Dispersion correction            ...
Dispersion correction           -0.006625339
FINAL SINGLE POINT ENERGY      -305.510415114895
Dispersion correction            ...
Dispersion correction           -0.006753531
FINAL SINGLE POINT ENERGY      -305.511718745467
Dispersion correction            ...
FINAL SINGLE POINT ENERGY      -305.512878585847
FINAL SINGLE POINT ENERGY      -305.513449664313
FINAL SINGLE POINT ENERGY      -305.513961614817
FINAL SINGLE POINT ENERGY      -305.514675197830
FINAL SINGLE POINT ENERGY      -305.515052646526
FINAL SINGLE POINT ENERGY      -305.515365203473
FINAL SINGLE POINT ENERGY      -305.515686227518
FINAL SINGLE POINT ENERGY      -305.522855621150
FINAL SINGLE POINT ENERGY      -305.522871904832
FINAL SINGLE POINT ENERGY      -305.522882554107
FINAL SINGLE POINT ENERGY      -305.522887031163
FINAL SINGLE POINT ENERGY      -305.522890254626
FINAL SINGLE POINT ENERGY      -305.522894192612
FINAL SINGLE POINT ENERGY      -305.522899078005
Dispersion correction            ...
Dispersion correction           -0.007343344
FINAL SINGLE POINT ENERGY      -305.522903208421
Dispersion correction            ...
Dispersion correction           -0.007340496
FINAL SINGLE POINT ENERGY      -305.522905356113
Dispersion correction            ...
                    ***********************HURRAY********************

CARTESIAN COORDINATES (ANGSTROEM)
---------------------------------
  O     -1.649069   -0.525879   -0.733540
  H     -0.714469   -0.631187   -1.120970
  H     -2.072867    0.109615   -1.340155
  O     -0.862891    0.536431    1.555554
  H     -1.205954    1.449143    1.560469
  H     -1.276262    0.128437    0.720528
  O      1.612153    0.651692    0.644285
  H      2.167706    0.130342    1.252751
  H      0.692548    0.626555    1.078586
  O      0.869103   -0.689149   -1.513373
  H      1.263573   -0.161655   -0.739236
  H      1.169521   -1.601679   -1.345336

 Multiplicity           Mult            ....    1
 Number of Electrons    NEL             ....   40
 Basis Dimension        Dim             ....   96

ORBITAL ENERGIES
----------------

  NO   OCC          E(Eh)            E(eV)
   0   2.0000     -18.767524      -510.6903
   1   2.0000     -18.767292      -510.6840
   2   2.0000     -18.766347      -510.6583
   3   2.0000     -18.766180      -510.6537
   4   2.0000      -0.911238       -24.7961
   5   2.0000      -0.892663       -24.2906
   6   2.0000      -0.891066       -24.2471
   7   2.0000      -0.872853       -23.7515
   8   2.0000      -0.472855       -12.8670
   9   2.0000      -0.462979       -12.5983
  10   2.0000      -0.455373       -12.3913
  11   2.0000      -0.450900       -12.2696
  12   2.0000      -0.364216        -9.9108
  13   2.0000      -0.334243        -9.0952
  14   2.0000      -0.327759        -8.9188
  15   2.0000      -0.301156        -8.1949
  16   2.0000      -0.253857        -6.9078
  17   2.0000      -0.251894        -6.8544
  18   2.0000      -0.245548        -6.6817
  19   2.0000      -0.239651        -6.5212
  20   0.0000       0.016299         0.4435
  21   0.0000       0.049896         1.3577
  22   0.0000       0.058257         1.5852
  23   0.0000       0.080331         2.1859
  24   0.0000       0.183062         4.9814

MULLIKEN ATOMIC CHARGES
-----------------------
   0 O :   -0.314888
   1 H :    0.147000
   2 H :    0.164620
   3 O :   -0.308694
   4 H :    0.164039
   5 H :    0.152141
   6 O :   -0.315087
   7 H :    0.164819
   8 H :    0.140129
   9 O :   -0.309076
  10 H :    0.152078
  11 H :    0.162919
Sum of atomic charges:   -0.0000000

LOEWDIN ATOMIC CHARGES
----------------------
   0 O :   -0.112690
   1 H :    0.032673
   2 H :    0.078447
   3 O :   -0.108044
   4 H :    0.077780
   5 H :    0.034080
   6 O :   -0.114078
   7 H :    0.077896
   8 H :    0.030037
   9 O :   -0.107712
  10 H :    0.034065
  11 H :    0.077547

  Mayer bond orders larger than 0.1
B(  0-O ,  1-H ) :   0.8471 B(  0-O ,  2-H ) :   0.9919 B(  0-O ,  5-H ) :   0.2445
B(  1-H ,  9-O ) :   0.2524 B(  3-O ,  4-H ) :   0.9926 B(  3-O ,  5-H ) :   0.8499
B(  3-O ,  8-H ) :   0.2564 B(  6-O ,  7-H ) :   0.9923 B(  6-O ,  8-H ) :   0.8456
B(  6-O , 10-H ) :   0.2427 B(  9-O , 10-H ) :   0.8519 B(  9-O , 11-H ) :   0.9924

Dispersion correction           -0.007338396
FINAL SINGLE POINT ENERGY      -305.522906946192

DIPOLE MOMENT
-------------
                                X             Y             Z
Electronic contribution:     -0.02134      -0.02157      -0.03494
Nuclear contribution   :      0.07092       0.08605       0.13383
                        -----------------------------------------
Total Dipole Moment    :      0.04958       0.06448       0.09889
                        -----------------------------------------
Magnitude (a.u.)       :      0.12804
Magnitude (Debye)      :      0.32546

                             ****ORCA TERMINATED NORMALLY****
TOTAL RUN TIME: 0 days 0 hours 46 minutes 26 seconds 694 msec
