                         Program Version 3.0.3 - RELEASE   -
|  1> ! B3LYP Def2-SVP def2-SVP/J RIJCOSX TightSCF Grid4 D3BJ COSMO OPT
|  2>
|  3> %pal nprocs 12 end
|  4>
|  5> %scf
|  6>         maxiter 800
|  7> end
|  8>
|  9> %cosmo
| 10>         SMD true
| 11>         solvent "WATER"
| 12> end
| 13>
| 14> * xyz  0  1
| 15>   O     -1.661494   -0.592349   -0.690246
| 16>   H     -0.738536   -0.588923   -1.060848
| 17>   H     -2.177143   -0.096637   -1.344427
| 18>   O     -0.972192    0.680117    1.559714
| 19>   H     -0.991047    1.620886    1.321139
| 20>   H     -1.303161    0.229584    0.736600
| 21>   O      1.600992   -0.043237    0.986048
| 22>   H      2.169447    0.728320    1.134509
| 23>   H      0.712297    0.287450    1.275382
| 24>   O      0.917512   -0.483713   -1.554450
| 25>   H      1.283315   -0.305020   -0.644194
| 26>   H      1.153101   -1.413813   -1.699660
| 27> **                         ****END OF INPUT****
 Total Charge           Charge          ....    0
 Multiplicity           Mult            ....    1
 Number of Electrons    NEL             ....   40
Dispersion correction           -0.008142889
FINAL SINGLE POINT ENERGY      -305.386110397858
Dispersion correction            ...
Dispersion correction           -0.008135416
FINAL SINGLE POINT ENERGY      -305.392017829243
Dispersion correction            ...
Dispersion correction           -0.008134850
FINAL SINGLE POINT ENERGY      -305.386330001204
Dispersion correction            ...
FINAL SINGLE POINT ENERGY      -305.386369701687
FINAL SINGLE POINT ENERGY      -305.386420973351
FINAL SINGLE POINT ENERGY      -305.386459356987
FINAL SINGLE POINT ENERGY      -305.386476742552
FINAL SINGLE POINT ENERGY      -305.386495903745
FINAL SINGLE POINT ENERGY      -305.386514348558
FINAL SINGLE POINT ENERGY      -305.386534012448
FINAL SINGLE POINT ENERGY      -305.386754605961
FINAL SINGLE POINT ENERGY      -305.386766153339
FINAL SINGLE POINT ENERGY      -305.386780995713
FINAL SINGLE POINT ENERGY      -305.386811159355
FINAL SINGLE POINT ENERGY      -305.386832709762
FINAL SINGLE POINT ENERGY      -305.386864860384
FINAL SINGLE POINT ENERGY      -305.386880148182
Dispersion correction            ...
Dispersion correction           -0.008147740
FINAL SINGLE POINT ENERGY      -305.386878104745
Dispersion correction            ...
Dispersion correction           -0.008147370
FINAL SINGLE POINT ENERGY      -305.386886280296
Dispersion correction            ...
                    ***********************HURRAY********************

CARTESIAN COORDINATES (ANGSTROEM)
---------------------------------
  O     -1.711932   -0.533135   -0.786512
  H     -0.782401   -0.591552   -1.136591
  H     -2.119157    0.159442   -1.329382
  O     -0.916629    0.553634    1.527858
  H     -1.092474    1.501821    1.423702
  H     -1.299744    0.153605    0.700535
  O      1.682704    0.045171    1.011774
  H      2.153827    0.891700    0.962745
  H      0.760580    0.301318    1.285231
  O      0.902042   -0.591186   -1.481372
  H      1.257037   -0.346156   -0.584301
  H      1.159238   -1.521997   -1.574119

 Multiplicity           Mult            ....    1
 Number of Electrons    NEL             ....   40
 Basis Dimension        Dim             ....   96

ORBITAL ENERGIES
----------------

  NO   OCC          E(Eh)            E(eV)
   0   2.0000     -19.121919      -520.3339
   1   2.0000     -19.121483      -520.3220
   2   2.0000     -19.120293      -520.2896
   3   2.0000     -19.119969      -520.2808
   4   2.0000      -0.994326       -27.0570
   5   2.0000      -0.977517       -26.5996
   6   2.0000      -0.975065       -26.5329
   7   2.0000      -0.958717       -26.0880
   8   2.0000      -0.519730       -14.1426
   9   2.0000      -0.509858       -13.8740
  10   2.0000      -0.505386       -13.7522
  11   2.0000      -0.502833       -13.6828
  12   2.0000      -0.410624       -11.1736
  13   2.0000      -0.385619       -10.4932
  14   2.0000      -0.383838       -10.4448
  15   2.0000      -0.362369        -9.8606
  16   2.0000      -0.304892        -8.2965
  17   2.0000      -0.303882        -8.2690
  18   2.0000      -0.302217        -8.2237
  19   2.0000      -0.296644        -8.0721
  20   0.0000       0.051653         1.4055
  21   0.0000       0.095191         2.5903
  22   0.0000       0.096814         2.6344
  23   0.0000       0.128368         3.4931
  24   0.0000       0.213262         5.8032

MULLIKEN ATOMIC CHARGES
-----------------------
   0 O :   -0.354893
   1 H :    0.151661
   2 H :    0.205791
   3 O :   -0.359788
   4 H :    0.201284
   5 H :    0.155029
   6 O :   -0.354735
   7 H :    0.206070
   8 H :    0.156218
   9 O :   -0.358510
  10 H :    0.145854
  11 H :    0.206021
Sum of atomic charges:    0.0000000

LOEWDIN ATOMIC CHARGES
----------------------
   0 O :   -0.137135
   1 H :    0.040335
   2 H :    0.102714
   3 O :   -0.141178
   4 H :    0.099966
   5 H :    0.036982
   6 O :   -0.139515
   7 H :    0.102719
   8 H :    0.039672
   9 O :   -0.143905
  10 H :    0.036769
  11 H :    0.102576

  Mayer bond orders larger than 0.1
B(  0-O ,  1-H ) :   0.8807 B(  0-O ,  2-H ) :   0.9746 B(  0-O ,  5-H ) :   0.2209
B(  1-H ,  9-O ) :   0.2178 B(  3-O ,  4-H ) :   0.9755 B(  3-O ,  5-H ) :   0.8785
B(  3-O ,  8-H ) :   0.2140 B(  6-O ,  7-H ) :   0.9745 B(  6-O ,  8-H ) :   0.8815
B(  6-O , 10-H ) :   0.2262 B(  9-O , 10-H ) :   0.8785 B(  9-O , 11-H ) :   0.9746

Dispersion correction           -0.008146642
FINAL SINGLE POINT ENERGY      -305.386895706485

DIPOLE MOMENT
-------------
                                X             Y             Z
Electronic contribution:     -0.00830      -0.08569       0.03812
Nuclear contribution   :      0.10366       1.33112      -0.66229
                        -----------------------------------------
Total Dipole Moment    :      0.09536       1.24543      -0.62417
                        -----------------------------------------
Magnitude (a.u.)       :      1.39635
Magnitude (Debye)      :      3.54923

                             ****ORCA TERMINATED NORMALLY****
TOTAL RUN TIME: 0 days 0 hours 30 minutes 26 seconds 601 msec
