                         Program Version 3.0.3 - RELEASE   -
|  1> ! B3LYP Def2-SVP def2-SVP/J RIJCOSX TightSCF Grid4 D3BJ OPT
|  2>
|  3> %pal nprocs 12 end
|  4>
|  5> %scf
|  6>         maxiter 400
|  7> end
|  8>
|  9> * xyz  0  1
| 10>   O     -1.671648   -0.596875   -0.672048
| 11>   H     -0.764560   -0.616526   -1.079955
| 12>   H     -2.231283   -0.186617   -1.344004
| 13>   O     -0.889103    0.740518    1.490420
| 14>   H     -1.094091    1.670426    1.323372
| 15>   H     -1.312720    0.256567    0.731648
| 16>   O      1.612519   -0.070390    0.988651
| 17>   H      2.254641    0.615981    1.214419
| 18>   H      0.737107    0.294763    1.290321
| 19>   O      0.877335   -0.466052   -1.543310
| 20>   H      1.263765   -0.264905   -0.647875
| 21>   H      1.211129   -1.354225   -1.732075
| 22> **                         ****END OF INPUT****
 Total Charge           Charge          ....    0
 Multiplicity           Mult            ....    1
 Number of Electrons    NEL             ....   40
Dispersion correction           -0.008080704
FINAL SINGLE POINT ENERGY      -305.362223722124
Dispersion correction            ...
                    ***********************HURRAY********************

CARTESIAN COORDINATES (ANGSTROEM)
---------------------------------
  O     -1.671828   -0.597014   -0.672410
  H     -0.764734   -0.616588   -1.080019
  H     -2.231026   -0.186100   -1.344349
  O     -0.889435    0.740492    1.490766
  H     -1.094367    1.670455    1.323810
  H     -1.313777    0.256575    0.732229
  O      1.612952   -0.070110    0.988503
  H      2.255346    0.616173    1.213996
  H      0.737075    0.294760    1.290198
  O      0.877585   -0.466382   -1.543241
  H      1.263954   -0.265050   -0.647835
  H      1.211344   -1.354547   -1.732083

 Multiplicity           Mult            ....    1
 Number of Electrons    NEL             ....   40
 Basis Dimension        Dim             ....   96

ORBITAL ENERGIES
----------------

  NO   OCC          E(Eh)            E(eV)
   0   2.0000     -19.119223      -520.2605
   1   2.0000     -19.119067      -520.2563
   2   2.0000     -19.118280      -520.2349
   3   2.0000     -19.117957      -520.2261
   4   2.0000      -0.993801       -27.0427
   5   2.0000      -0.976674       -26.5766
   6   2.0000      -0.975361       -26.5409
   7   2.0000      -0.958896       -26.0929
   8   2.0000      -0.527976       -14.3669
   9   2.0000      -0.513445       -13.9716
  10   2.0000      -0.508732       -13.8433
  11   2.0000      -0.500348       -13.6152
  12   2.0000      -0.410861       -11.1801
  13   2.0000      -0.379828       -10.3356
  14   2.0000      -0.377119       -10.2619
  15   2.0000      -0.347206        -9.4479
  16   2.0000      -0.302910        -8.2426
  17   2.0000      -0.297383        -8.0922
  18   2.0000      -0.297127        -8.0852
  19   2.0000      -0.289546        -7.8789
  20   0.0000       0.037011         1.0071
  21   0.0000       0.073289         1.9943
  22   0.0000       0.076742         2.0883
  23   0.0000       0.100244         2.7278
  24   0.0000       0.213908         5.8207

MULLIKEN ATOMIC CHARGES
-----------------------
   0 O :   -0.310569
   1 H :    0.140837
   2 H :    0.161428
   3 O :   -0.309438
   4 H :    0.152594
   5 H :    0.159886
   6 O :   -0.311853
   7 H :    0.161025
   8 H :    0.156281
   9 O :   -0.311989
  10 H :    0.146567
  11 H :    0.165233
Sum of atomic charges:   -0.0000000

LOEWDIN ATOMIC CHARGES
----------------------
   0 O :   -0.112193
   1 H :    0.037345
   2 H :    0.076486
   3 O :   -0.112192
   4 H :    0.071863
   5 H :    0.039843
   6 O :   -0.113440
   7 H :    0.076282
   8 H :    0.040961
   9 O :   -0.119515
  10 H :    0.035445
  11 H :    0.079115

  Mayer bond orders larger than 0.1
B(  0-O ,  1-H ) :   0.8801 B(  0-O ,  2-H ) :   0.9933 B(  0-O ,  5-H ) :   0.2066
B(  1-H ,  9-O ) :   0.2224 B(  3-O ,  4-H ) :   0.9955 B(  3-O ,  5-H ) :   0.8820
B(  3-O ,  8-H ) :   0.2083 B(  6-O ,  7-H ) :   0.9930 B(  6-O ,  8-H ) :   0.8805
B(  6-O , 10-H ) :   0.2188 B(  9-O , 10-H ) :   0.8812 B(  9-O , 11-H ) :   0.9935

Dispersion correction           -0.008078850
FINAL SINGLE POINT ENERGY      -305.362228302985

DIPOLE MOMENT
-------------
                                X             Y             Z
Electronic contribution:     -0.03628      -0.22255       0.14498
Nuclear contribution   :      0.17085       1.00025      -0.64199
                        -----------------------------------------
Total Dipole Moment    :      0.13457       0.77770      -0.49701
                        -----------------------------------------
Magnitude (a.u.)       :      0.93271
Magnitude (Debye)      :      2.37075

                             ****ORCA TERMINATED NORMALLY****
TOTAL RUN TIME: 0 days 0 hours 1 minutes 39 seconds 835 msec
