                         Program Version 3.0.3 - RELEASE   -
|  1> ! B3LYP Def2-SVP def2-SVP/J RIJCOSX TightSCF Grid4 D3BJ OPT
|  2>
|  3> %pal nprocs 12 end
|  4>
|  5> %scf
|  6>         maxiter 400
|  7> end
|  8>
|  9> * xyz  0  1
| 10>   O     -1.720210   -0.322031   -0.786396
| 11>   H     -0.851367   -0.550020   -1.117098
| 12>   H     -2.242807   -0.165229   -1.572867
| 13>   O     -0.842420    0.768785    1.560001
| 14>   H     -1.496945    1.397072    1.865097
| 15>   H     -1.238001    0.366569    0.786716
| 16>   O      1.729784    0.339999    0.749421
| 17>   H      2.330680    0.497340    1.477707
| 18>   H      0.862976    0.530422    1.108050
| 19>   O      0.845499   -0.828262   -1.558852
| 20>   H      1.250926   -0.389077   -0.811204
| 21>   H      1.364976   -1.622902   -1.681011
| 22> **                         ****END OF INPUT****
 Total Charge           Charge          ....    0
 Multiplicity           Mult            ....    1
 Number of Electrons    NEL             ....   40
 Basis Dimension        Dim             ....   96

ORBITAL ENERGIES
----------------

  NO   OCC          E(Eh)            E(eV)
   0   2.0000     -19.113735      -520.1112
   1   2.0000     -19.109920      -520.0074
   2   2.0000     -19.109014      -519.9827
   3   2.0000     -19.108994      -519.9822
   4   2.0000      -0.991074       -26.9685
   5   2.0000      -0.978463       -26.6253
   6   2.0000      -0.975963       -26.5573
   7   2.0000      -0.964068       -26.2336
   8   2.0000      -0.536974       -14.6118
   9   2.0000      -0.516797       -14.0628
  10   2.0000      -0.514158       -13.9910
  11   2.0000      -0.492656       -13.4058
  12   2.0000      -0.410766       -11.1775
  13   2.0000      -0.372122       -10.1259
  14   2.0000      -0.370866       -10.0918
  15   2.0000      -0.336952        -9.1689
  16   2.0000      -0.299479        -8.1492
  17   2.0000      -0.294182        -8.0051
  18   2.0000      -0.289243        -7.8707
  19   2.0000      -0.283055        -7.7023
  20   0.0000       0.045211         1.2303
  21   0.0000       0.079568         2.1651
  22   0.0000       0.080731         2.1968
  23   0.0000       0.101571         2.7639
  24   0.0000       0.207270         5.6401

MULLIKEN ATOMIC CHARGES
-----------------------
   0 O :   -0.291327
   1 H :    0.130338
   2 H :    0.154392
   3 O :   -0.288620
   4 H :    0.153789
   5 H :    0.135405
   6 O :   -0.291992
   7 H :    0.153550
   8 H :    0.131356
   9 O :   -0.284621
  10 H :    0.140340
  11 H :    0.157391
Sum of atomic charges:   -0.0000000

LOEWDIN ATOMIC CHARGES
----------------------
   0 O :   -0.112113
   1 H :    0.028833
   2 H :    0.076239
   3 O :   -0.111421
   4 H :    0.076359
   5 H :    0.034383
   6 O :   -0.117143
   7 H :    0.077297
   8 H :    0.033935
   9 O :   -0.101465
  10 H :    0.037953
  11 H :    0.077142

  Mayer bond orders larger than 0.1
B(  0-O ,  1-H ) :   0.9226 B(  0-O ,  2-H ) :   0.9938 B(  0-O ,  5-H ) :   0.1623
B(  1-H ,  9-O ) :   0.1781 B(  3-O ,  4-H ) :   0.9933 B(  3-O ,  5-H ) :   0.9281
B(  3-O ,  8-H ) :   0.1638 B(  6-O ,  7-H ) :   0.9916 B(  6-O ,  8-H ) :   0.9278
B(  6-O , 10-H ) :   0.1524 B(  9-O , 10-H ) :   0.9325 B(  9-O , 11-H ) :   0.9945

Dispersion correction           -0.007524119
FINAL SINGLE POINT ENERGY      -305.351717117028
Dispersion correction            ...
Dispersion correction           -0.007442858
FINAL SINGLE POINT ENERGY      -305.354537853185
Dispersion correction            ...
Dispersion correction           -0.007545391
FINAL SINGLE POINT ENERGY      -305.355161462503
Dispersion correction            ...
FINAL SINGLE POINT ENERGY      -305.355900398547
FINAL SINGLE POINT ENERGY      -305.356326172651
FINAL SINGLE POINT ENERGY      -305.356978577034
FINAL SINGLE POINT ENERGY      -305.357339416277
FINAL SINGLE POINT ENERGY      -305.357518492922
FINAL SINGLE POINT ENERGY      -305.357614582962
FINAL SINGLE POINT ENERGY      -305.357826760433
FINAL SINGLE POINT ENERGY      -305.362046724802
FINAL SINGLE POINT ENERGY      -305.362093220012
FINAL SINGLE POINT ENERGY      -305.362105338320
FINAL SINGLE POINT ENERGY      -305.362117988183
FINAL SINGLE POINT ENERGY      -305.362122775045
FINAL SINGLE POINT ENERGY      -305.362130791198
FINAL SINGLE POINT ENERGY      -305.362149417317
Dispersion correction           -0.008091811
FINAL SINGLE POINT ENERGY      -305.362170655740
Dispersion correction            ...
Dispersion correction           -0.008086404
FINAL SINGLE POINT ENERGY      -305.362200666896
Dispersion correction            ...

CARTESIAN COORDINATES (ANGSTROEM)
---------------------------------
  O     -1.671648   -0.596875   -0.672048
  H     -0.764560   -0.616526   -1.079955
  H     -2.231283   -0.186617   -1.344004
  O     -0.889103    0.740518    1.490420
  H     -1.094091    1.670426    1.323372
  H     -1.312720    0.256567    0.731648
  O      1.612519   -0.070390    0.988651
  H      2.254641    0.615981    1.214419
  H      0.737107    0.294763    1.290321
  O      0.877335   -0.466052   -1.543310
  H      1.263765   -0.264905   -0.647875
  H      1.211129   -1.354225   -1.732075

Dispersion correction           -0.008080704
FINAL SINGLE POINT ENERGY      -305.362223727532
Dispersion correction            ...

DIPOLE MOMENT
-------------
                                X             Y             Z
Electronic contribution:     -0.03735      -0.22352       0.14169
Nuclear contribution   :      0.17128       1.00148      -0.63699
                        -----------------------------------------
Total Dipole Moment    :      0.13392       0.77796      -0.49531
                        -----------------------------------------
Magnitude (a.u.)       :      0.93192
Magnitude (Debye)      :      2.36876

                             ****ORCA TERMINATED NORMALLY****
TOTAL RUN TIME: 0 days 0 hours 41 minutes 42 seconds 663 msec
