                         Program Version 3.0.3 - RELEASE   -
|  1> ! BP86 Def2-SVP TightSCF Opt D3BJ COSMO
|  2>
|  3> %pal nprocs 12 end
|  4>
|  5> %scf
|  6>         maxiter 800
|  7> end
|  8>
|  9> %cosmo
| 10> 	SMD true
| 11>         solvent "WATER"
| 12> end
| 13>
| 14> * xyz  0  1
| 15>   O     -1.720210   -0.322031   -0.786396
| 16>   H     -0.851367   -0.550020   -1.117098
| 17>   H     -2.242807   -0.165229   -1.572867
| 18>   O     -0.842420    0.768785    1.560001
| 19>   H     -1.496945    1.397072    1.865097
| 20>   H     -1.238001    0.366569    0.786716
| 21>   O      1.729784    0.339999    0.749421
| 22>   H      2.330680    0.497340    1.477707
| 23>   H      0.862976    0.530422    1.108050
| 24>   O      0.845499   -0.828262   -1.558852
| 25>   H      1.250926   -0.389077   -0.811204
| 26>   H      1.364976   -1.622902   -1.681011
| 27> **                         ****END OF INPUT****
 Total Charge           Charge          ....    0
 Multiplicity           Mult            ....    1
 Number of Electrons    NEL             ....   40
Dispersion correction           -0.006699302
FINAL SINGLE POINT ENERGY      -305.525291417652
Dispersion correction            ...
Dispersion correction           -0.006600097
FINAL SINGLE POINT ENERGY      -305.531082352868
Dispersion correction            ...
Dispersion correction           -0.006702578
FINAL SINGLE POINT ENERGY      -305.531888820956
Dispersion correction            ...
FINAL SINGLE POINT ENERGY      -305.532784405013
FINAL SINGLE POINT ENERGY      -305.533241458764
FINAL SINGLE POINT ENERGY      -305.533775742280
FINAL SINGLE POINT ENERGY      -305.534709409886
FINAL SINGLE POINT ENERGY      -305.535305117501
FINAL SINGLE POINT ENERGY      -305.535795307745
FINAL SINGLE POINT ENERGY      -305.536241159801
FINAL SINGLE POINT ENERGY      -305.546359706765
FINAL SINGLE POINT ENERGY      -305.552105789357
FINAL SINGLE POINT ENERGY      -305.546389652167
FINAL SINGLE POINT ENERGY      -305.546410789077
FINAL SINGLE POINT ENERGY      -305.546434201280
FINAL SINGLE POINT ENERGY      -305.546460501968
FINAL SINGLE POINT ENERGY      -305.546470648052
Dispersion correction            ...
Dispersion correction           -0.007434674
FINAL SINGLE POINT ENERGY      -305.546470349249
Dispersion correction            ...
Dispersion correction           -0.007437059
FINAL SINGLE POINT ENERGY      -305.546469335536
Dispersion correction            ...
                    ***********************HURRAY********************

CARTESIAN COORDINATES (ANGSTROEM)
---------------------------------
  O     -1.647887   -0.576136   -0.741123
  H     -0.701617   -0.639005   -1.109727
  H     -2.034505    0.162893   -1.252800
  O     -0.882715    0.521451    1.551480
  H     -1.196613    1.446576    1.503566
  H     -1.257097    0.106761    0.702144
  O      1.605041    0.700100    0.645924
  H      2.129610    0.062261    1.170281
  H      0.682625    0.641213    1.069940
  O      0.887557   -0.671956   -1.505431
  H      1.250814   -0.142425   -0.715994
  H      1.157877   -1.589067   -1.298696

 Multiplicity           Mult            ....    1
 Number of Electrons    NEL             ....   40
 Basis Dimension        Dim             ....   96

ORBITAL ENERGIES
----------------

  NO   OCC          E(Eh)            E(eV)
   0   2.0000     -18.768114      -510.7063
   1   2.0000     -18.768018      -510.7037
   2   2.0000     -18.767960      -510.7021
   3   2.0000     -18.767849      -510.6991
   4   2.0000      -0.910922       -24.7875
   5   2.0000      -0.891101       -24.2481
   6   2.0000      -0.890789       -24.2396
   7   2.0000      -0.871277       -23.7086
   8   2.0000      -0.464972       -12.6525
   9   2.0000      -0.457247       -12.4423
  10   2.0000      -0.451644       -12.2899
  11   2.0000      -0.451345       -12.2817
  12   2.0000      -0.361871        -9.8470
  13   2.0000      -0.340698        -9.2709
  14   2.0000      -0.330206        -8.9854
  15   2.0000      -0.314526        -8.5587
  16   2.0000      -0.255972        -6.9654
  17   2.0000      -0.255322        -6.9477
  18   2.0000      -0.252778        -6.8784
  19   2.0000      -0.246025        -6.6947
  20   0.0000       0.032484         0.8839
  21   0.0000       0.071507         1.9458
  22   0.0000       0.081656         2.2220
  23   0.0000       0.108017         2.9393
  24   0.0000       0.186930         5.0866

MULLIKEN ATOMIC CHARGES
-----------------------
   0 O :   -0.358372
   1 H :    0.151083
   2 H :    0.208126
   3 O :   -0.355563
   4 H :    0.208760
   5 H :    0.147802
   6 O :   -0.356102
   7 H :    0.208822
   8 H :    0.145123
   9 O :   -0.357761
  10 H :    0.150277
  11 H :    0.207805
Sum of atomic charges:   -0.0000000

LOEWDIN ATOMIC CHARGES
----------------------
   0 O :   -0.138760
   1 H :    0.033722
   2 H :    0.104240
   3 O :   -0.136442
   4 H :    0.104325
   5 H :    0.031965
   6 O :   -0.137316
   7 H :    0.104500
   8 H :    0.033217
   9 O :   -0.136203
  10 H :    0.032759
  11 H :    0.103993

  Mayer bond orders larger than 0.1
B(  0-O ,  1-H ) :   0.8468 B(  0-O ,  2-H ) :   0.9728 B(  0-O ,  5-H ) :   0.2550
B(  1-H ,  9-O ) :   0.2541 B(  3-O ,  4-H ) :   0.9732 B(  3-O ,  5-H ) :   0.8485
B(  3-O ,  8-H ) :   0.2562 B(  6-O ,  7-H ) :   0.9729 B(  6-O ,  8-H ) :   0.8471
B(  6-O , 10-H ) :   0.2544 B(  9-O , 10-H ) :   0.8475 B(  9-O , 11-H ) :   0.9731

Dispersion correction           -0.007438592
FINAL SINGLE POINT ENERGY      -305.546470740604

DIPOLE MOMENT
-------------
                                X             Y             Z
Electronic contribution:     -0.00397      -0.00579      -0.00962
Nuclear contribution   :      0.08915       0.08514       0.13902
                        -----------------------------------------
Total Dipole Moment    :      0.08518       0.07935       0.12940
                        -----------------------------------------
Magnitude (a.u.)       :      0.17406
Magnitude (Debye)      :      0.44242

                             ****ORCA TERMINATED NORMALLY****
TOTAL RUN TIME: 0 days 0 hours 35 minutes 48 seconds 861 msec
