                         Program Version 4.2.0 -  RELEASE  -
|  1> # 12h2o.su.etal.mol5,6
|  2> ! MP2 def2-TZVP EnGrad TightSCF
|  3>
|  4> %pal
|  5>     nprocs 6
|  6> end
|  7>
|  8> %maxcore 8000
|  9>
| 10> %scf
| 11>     ConvForced true
| 12> end
| 13>
| 14> *xyz 0 1
| 15> O   0.885520000  -1.737840000   0.052730000
| 16> H   1.284090000  -0.839590000   0.017130000
| 17> H   1.032320000  -2.090180000  -0.841890000
| 18> O   1.737840000   0.885520000  -0.052730000
| 19> H   2.090180000   1.032320000   0.841890000
| 20> H   0.839590000   1.284090000  -0.017130000
| 21> *
| 22>
| 23>                          ****END OF INPUT****

CARTESIAN COORDINATES (ANGSTROEM)
---------------------------------
  O      0.885520   -1.737840    0.052730
  H      1.284090   -0.839590    0.017130
  H      1.032320   -2.090180   -0.841890
  O      1.737840    0.885520   -0.052730
  H      2.090180    1.032320    0.841890
  H      0.839590    1.284090   -0.017130

 Total Charge           Charge          ....    0
 Multiplicity           Mult            ....    1
 Number of Electrons    NEL             ....   20
 Basis Dimension        Dim             ....   86

ORBITAL ENERGIES
----------------

  NO   OCC          E(Eh)            E(eV)
   0   2.0000     -20.597582      -560.4887
   1   2.0000     -20.526528      -558.5552
   2   2.0000      -1.378108       -37.5002
   3   2.0000      -1.307835       -35.5880
   4   2.0000      -0.736039       -20.0287
   5   2.0000      -0.684643       -18.6301
   6   2.0000      -0.616519       -16.7763
   7   2.0000      -0.563785       -15.3414
   8   2.0000      -0.521136       -14.1808
   9   2.0000      -0.474836       -12.9209
  10   0.0000       0.109147         2.9700
  11   0.0000       0.172814         4.7025
  12   0.0000       0.182850         4.9756
  13   0.0000       0.312757         8.5105
  14   0.0000       0.479395        13.0450

MULLIKEN ATOMIC CHARGES
-----------------------
   0 O :   -0.714324
   1 H :    0.350844
   2 H :    0.327433
   3 O :   -0.680233
   4 H :    0.357837
   5 H :    0.358443
Sum of atomic charges:   -0.0000000

LOEWDIN ATOMIC CHARGES
----------------------
   0 O :   -0.363356
   1 H :    0.140443
   2 H :    0.158244
   3 O :   -0.289808
   4 H :    0.173610
   5 H :    0.180868

  Mayer bond orders larger than 0.100000
B(  0-O ,  1-H ) :   0.8049 B(  0-O ,  2-H ) :   0.8590 B(  3-O ,  4-H ) :   0.8377
B(  3-O ,  5-H ) :   0.8348

MP2 TOTAL ENERGY:     -152.633039728 Eh
FINAL SINGLE POINT ENERGY      -152.633039727559

DIPOLE MOMENT
-------------
                                X             Y             Z
Electronic contribution:      0.07407       0.10957       0.01057
Nuclear contribution   :     -0.00045       0.90834       0.00000
                        -----------------------------------------
Total Dipole Moment    :      0.07362       1.01791       0.01057
                        -----------------------------------------
Magnitude (a.u.)       :      1.02062
Magnitude (Debye)      :      2.59422

Rotational constants in cm-1:     6.477900     0.241531     0.239994
Rotational constants in MHz : 194202.569424  7240.902958  7194.826293

                             ****ORCA TERMINATED NORMALLY****
TOTAL RUN TIME: 0 days 0 hours 0 minutes 26 seconds 404 msec
