                         Program Version 3.0.3 - RELEASE   -
|  1> ! BP86 Def2-SVP TightSCF Opt D3BJ COSMO
|  2>
|  3> %pal nprocs 12 end
|  4>
|  5> %scf
|  6>         maxiter 800
|  7> end
|  8>
|  9> %cosmo
| 10> 	SMD true
| 11>         solvent "WATER"
| 12> end
| 13>
| 14> * xyz  0  1
| 15> O  3.25840025	0.84796531	-3.25462219
| 16> H  3.64346439	0.16265526	-2.70844676
| 17> H  4.00779043	1.26697294	-3.67779923
| 18> O  -2.31146416	0.62444774	-0.31758500
| 19> H  -3.11493824	0.82978058	0.16043139
| 20> H  -1.67140167	1.25874765	0.00523922
| 21> O  -0.47193656	-0.10253465	-2.28907725
| 22> H  -1.28781797	0.14216345	-1.85239405
| 23> H  0.16988981	0.53289475	-1.97202798
| 24> O  1.38462335	-0.98464846	-4.18680917
| 25> H  0.58923299	-0.67631168	-3.75262665
| 26> H  2.02344212	-0.28684450	-4.04116556
| 27> O  2.29642045	-3.04754457	-2.71435200
| 28> H  2.44533296	-3.82225639	-3.25645762
| 29> H  1.97152001	-2.38605494	-3.32517359
| 30> O  -4.22440251	1.26207671	1.57808146
| 31> H  -5.07991736	1.69124501	1.58994603
| 32> H  -3.62786731	1.90538438	1.96087755
| 33> O  0.39279410	0.13530273	2.37930375
| 34> H  -0.01373106	0.40910011	3.20149845
| 35> H  -0.21092563	-0.51338786	2.01742690
| 36> O  -3.10860753	-0.70050544	3.20342939
| 37> H  -2.61467693	-1.21418933	2.56437283
| 38> H  -3.65298194	-0.11790683	2.67383785
| 39> O  -1.33042622	0.93750668	4.39088131
| 40> H  -1.98712672	0.31802285	4.07273654
| 41> H  -1.37323016	0.86405892	5.34429890
| 42> O  1.48340019	1.46271205	-1.22215693
| 43> H  2.10902240	1.47661333	-1.94647416
| 44> H  1.82946306	0.80518952	-0.61871972
| 45> O  -2.31953626	2.84992309	2.62940234
| 46> H  -1.61592117	2.88941384	1.98163839
| 47> H  -1.95339885	2.33790651	3.35052249
| 48> O  -1.40127093	-1.49169968	1.13332229
| 49> H  -0.86258216	-2.01787964	0.54240697
| 50> H  -1.78922420	-0.82105078	0.57122428
| 51> O  -0.35380817	2.18667146	0.75261084
| 52> H  -0.00870158	1.53298693	1.36074721
| 53> H  0.30329863	2.23933693	0.05858717
| 54> O  4.04351029	-1.16476496	-1.64603065
| 55> H  3.64136572	-0.99890805	-0.79338590
| 56> H  3.58293595	-1.93314999	-1.98320654
| 57> O  2.22702374	-0.59244315	0.40315599
| 58> H  1.84711040	-0.36363121	1.25141467
| 59> H  1.62804919	-1.24484192	0.04006209
| 60> O  0.43527950	-2.22246892	-0.83955452
| 61> H  1.01965239	-2.71550006	-1.41545423
| 62> H  0.05287322	-1.55055345	-1.40393639
| 63> **                         ****END OF INPUT****
 Total Charge           Charge          ....    0
 Multiplicity           Mult            ....    1
 Number of Electrons    NEL             ....  160
Dispersion correction           -0.054921580
FINAL SINGLE POINT ENERGY     -1222.246087929616
Dispersion correction            ...
Dispersion correction           -0.054232514
FINAL SINGLE POINT ENERGY     -1222.276930296383
Dispersion correction            ...
Dispersion correction           -0.054448853
FINAL SINGLE POINT ENERGY     -1222.286044229249
Dispersion correction            ...
FINAL SINGLE POINT ENERGY     -1222.289627118336
FINAL SINGLE POINT ENERGY     -1222.292364538180
FINAL SINGLE POINT ENERGY     -1222.294614731908
FINAL SINGLE POINT ENERGY     -1222.296312665979
FINAL SINGLE POINT ENERGY     -1222.297480410889
FINAL SINGLE POINT ENERGY     -1222.298210383334
FINAL SINGLE POINT ENERGY     -1222.298566550432
FINAL SINGLE POINT ENERGY     -1222.300357097079
FINAL SINGLE POINT ENERGY     -1222.300371065444
FINAL SINGLE POINT ENERGY     -1222.300386684087
FINAL SINGLE POINT ENERGY     -1222.300427880056
FINAL SINGLE POINT ENERGY     -1222.300455273258
FINAL SINGLE POINT ENERGY     -1222.300469191522
FINAL SINGLE POINT ENERGY     -1222.300475523188
Dispersion correction            ...
Dispersion correction           -0.058657240
FINAL SINGLE POINT ENERGY     -1222.300491302301
Dispersion correction            ...
Dispersion correction           -0.058678602
FINAL SINGLE POINT ENERGY     -1222.300490583888
Dispersion correction            ...
                    ***********************HURRAY********************

CARTESIAN COORDINATES (ANGSTROEM)
---------------------------------
  O      3.065492    0.742446   -3.078391
  H      3.550443    0.040492   -2.502765
  H      3.769557    1.246851   -3.531491
  O     -2.212572    0.568530   -0.347203
  H     -3.038757    0.812096    0.175961
  H     -1.527557    1.224894    0.013636
  O     -0.467049   -0.128134   -2.256780
  H     -1.317167    0.123450   -1.801020
  H      0.207064    0.534957   -1.881274
  O      1.291606   -0.966466   -4.185133
  H      0.484642   -0.673028   -3.684164
  H      1.965916   -0.265589   -3.935699
  O      2.200648   -2.817336   -2.579393
  H      2.366064   -3.660190   -3.046269
  H      1.838480   -2.168835   -3.291046
  O     -3.940835    1.183623    1.547669
  H     -4.847845    1.544018    1.490254
  H     -3.363690    1.938244    1.943440
  O      0.417195    0.128413    2.281294
  H     -0.030366    0.403483    3.140313
  H     -0.246433   -0.537200    1.895767
  O     -3.062107   -0.782133    3.175964
  H     -2.505639   -1.275209    2.515692
  H     -3.549078   -0.122290    2.596748
  O     -1.316381    0.913796    4.115687
  H     -2.019645    0.209747    3.851906
  H     -1.272659    0.896053    5.092289
  O      1.380101    1.432247   -1.166276
  H      2.053535    1.437598   -1.915317
  H      1.750315    0.717270   -0.546429
  O     -2.258660    2.906383    2.554273
  H     -1.548856    2.878562    1.858238
  H     -1.893419    2.291751    3.258968
  O     -1.370543   -1.469444    1.130064
  H     -0.805746   -2.014051    0.514993
  H     -1.744739   -0.744638    0.523066
  O     -0.359322    2.143651    0.739079
  H      0.007066    1.421390    1.354910
  H      0.322611    2.197967    0.013166
  O      4.042056   -1.130713   -1.546385
  H      3.573297   -0.927944   -0.693411
  H      3.491242   -1.880740   -1.922269
  O      2.183224   -0.566956    0.385484
  H      1.792893   -0.330312    1.271421
  H      1.515658   -1.234341    0.004795
  O      0.398739   -2.153847   -0.767860
  H      1.011142   -2.655151   -1.391101
  H      0.020080   -1.433365   -1.375397

 Multiplicity           Mult            ....    1
 Number of Electrons    NEL             ....  160
 Basis Dimension        Dim             ....  384

ORBITAL ENERGIES
----------------

  NO   OCC          E(Eh)            E(eV)
   0   2.0000     -18.783619      -511.1283
   1   2.0000     -18.783448      -511.1236
   2   2.0000     -18.783384      -511.1219
   3   2.0000     -18.782783      -511.1055
   4   2.0000     -18.776972      -510.9474
   5   2.0000     -18.776547      -510.9358
   6   2.0000     -18.776465      -510.9336
   7   2.0000     -18.776291      -510.9289
   8   2.0000     -18.773432      -510.8511
   9   2.0000     -18.773320      -510.8480
  10   2.0000     -18.773172      -510.8440
  11   2.0000     -18.773102      -510.8421
  12   2.0000     -18.768832      -510.7259
  13   2.0000     -18.768751      -510.7237
  14   2.0000     -18.768364      -510.7131
  15   2.0000     -18.768284      -510.7110
  16   2.0000      -0.930225       -25.3127
  17   2.0000      -0.922328       -25.0978
  18   2.0000      -0.912265       -24.8240
  19   2.0000      -0.910792       -24.7839
  20   2.0000      -0.910629       -24.7795
  21   2.0000      -0.903722       -24.5915
  22   2.0000      -0.902893       -24.5690
  23   2.0000      -0.902699       -24.5637
  24   2.0000      -0.890744       -24.2384
  25   2.0000      -0.890685       -24.2368
  26   2.0000      -0.888320       -24.1724
  27   2.0000      -0.883108       -24.0306
  28   2.0000      -0.883015       -24.0280
  29   2.0000      -0.882225       -24.0066
  30   2.0000      -0.873068       -23.7574
  31   2.0000      -0.863820       -23.5057
  32   2.0000      -0.484547       -13.1852
  33   2.0000      -0.481162       -13.0931
  34   2.0000      -0.480838       -13.0843
  35   2.0000      -0.479962       -13.0604
  36   2.0000      -0.478567       -13.0225
  37   2.0000      -0.472222       -12.8498
  38   2.0000      -0.471585       -12.8325
  39   2.0000      -0.471308       -12.8249
  40   2.0000      -0.462585       -12.5876
  41   2.0000      -0.461450       -12.5567
  42   2.0000      -0.457382       -12.4460
  43   2.0000      -0.456689       -12.4271
  44   2.0000      -0.456651       -12.4261
  45   2.0000      -0.455014       -12.3816
  46   2.0000      -0.451141       -12.2762
  47   2.0000      -0.451051       -12.2737
  48   2.0000      -0.404819       -11.0157
  49   2.0000      -0.393503       -10.7078
  50   2.0000      -0.371862       -10.1189
  51   2.0000      -0.371714       -10.1149
  52   2.0000      -0.367473        -9.9995
  53   2.0000      -0.358521        -9.7558
  54   2.0000      -0.358279        -9.7493
  55   2.0000      -0.353537        -9.6202
  56   2.0000      -0.340744        -9.2721
  57   2.0000      -0.337814        -9.1924
  58   2.0000      -0.337540        -9.1849
  59   2.0000      -0.334396        -9.0994
  60   2.0000      -0.319028        -8.6812
  61   2.0000      -0.318705        -8.6724
  62   2.0000      -0.305574        -8.3151
  63   2.0000      -0.289884        -7.8881
  64   2.0000      -0.271829        -7.3968
  65   2.0000      -0.270364        -7.3570
  66   2.0000      -0.269943        -7.3455
  67   2.0000      -0.268113        -7.2957
  68   2.0000      -0.266044        -7.2394
  69   2.0000      -0.265743        -7.2312
  70   2.0000      -0.265204        -7.2166
  71   2.0000      -0.262536        -7.1440
  72   2.0000      -0.262330        -7.1384
  73   2.0000      -0.261962        -7.1283
  74   2.0000      -0.260483        -7.0881
  75   2.0000      -0.257298        -7.0014
  76   2.0000      -0.255920        -6.9639
  77   2.0000      -0.255796        -6.9606
  78   2.0000      -0.254306        -6.9200
  79   2.0000      -0.253849        -6.9076
  80   0.0000       0.011788         0.3208
  81   0.0000       0.034429         0.9369
  82   0.0000       0.061048         1.6612
  83   0.0000       0.061456         1.6723
  84   0.0000       0.069338         1.8868

MULLIKEN ATOMIC CHARGES
-----------------------
   0 O :   -0.331232
   1 H :    0.164629
   2 H :    0.228122
   3 O :   -0.344344
   4 H :    0.176606
   5 H :    0.136236
   6 O :   -0.335462
   7 H :    0.185499
   8 H :    0.138830
   9 O :   -0.355519
  10 H :    0.172486
  11 H :    0.161371
  12 O :   -0.332460
  13 H :    0.229220
  14 H :    0.165023
  15 O :   -0.330552
  16 H :    0.229731
  17 H :    0.165062
  18 O :   -0.345089
  19 H :    0.178227
  20 H :    0.136787
  21 O :   -0.352430
  22 H :    0.174449
  23 H :    0.160823
  24 O :   -0.328431
  25 H :    0.162755
  26 H :    0.229029
  27 O :   -0.345645
  28 H :    0.178749
  29 H :    0.136679
  30 O :   -0.352871
  31 H :    0.173367
  32 H :    0.156909
  33 O :   -0.336732
  34 H :    0.187329
  35 H :    0.137180
  36 O :   -0.336527
  37 H :    0.135609
  38 H :    0.187939
  39 O :   -0.355182
  40 H :    0.173509
  41 H :    0.161223
  42 O :   -0.336320
  43 H :    0.187215
  44 H :    0.138187
  45 O :   -0.345597
  46 H :    0.179652
  47 H :    0.135960
Sum of atomic charges:   -0.0000000

LOEWDIN ATOMIC CHARGES
----------------------
   0 O :   -0.076074
   1 H :    0.038452
   2 H :    0.116138
   3 O :   -0.107426
   4 H :    0.044136
   5 H :    0.029138
   6 O :   -0.101016
   7 H :    0.056379
   8 H :    0.029780
   9 O :   -0.127544
  10 H :    0.052327
  11 H :    0.041759
  12 O :   -0.076246
  13 H :    0.116659
  14 H :    0.039149
  15 O :   -0.074238
  16 H :    0.116985
  17 H :    0.038994
  18 O :   -0.107501
  19 H :    0.045431
  20 H :    0.028969
  21 O :   -0.124929
  22 H :    0.053325
  23 H :    0.041695
  24 O :   -0.075864
  25 H :    0.038198
  26 H :    0.116444
  27 O :   -0.106543
  28 H :    0.045544
  29 H :    0.028685
  30 O :   -0.126437
  31 H :    0.051869
  32 H :    0.040598
  33 O :   -0.101251
  34 H :    0.057147
  35 H :    0.029663
  36 O :   -0.101598
  37 H :    0.029388
  38 H :    0.056665
  39 O :   -0.125685
  40 H :    0.052171
  41 H :    0.042029
  42 O :   -0.099716
  43 H :    0.056991
  44 H :    0.030006
  45 O :   -0.107305
  46 H :    0.045812
  47 H :    0.028850

  Mayer bond orders larger than 0.1
B(  0-O ,  1-H ) :   0.8009 B(  0-O ,  2-H ) :   0.9547 B(  0-O , 11-H ) :   0.1989
B(  0-O , 28-H ) :   0.2043 B(  1-H , 39-O ) :   0.2751 B(  3-O ,  4-H ) :   0.8572
B(  3-O ,  5-H ) :   0.8313 B(  3-O ,  7-H ) :   0.1594 B(  3-O , 35-H ) :   0.2604
B(  4-H , 15-O ) :   0.2099 B(  5-H , 36-O ) :   0.2518 B(  6-O ,  7-H ) :   0.8898
B(  6-O ,  8-H ) :   0.8258 B(  6-O , 10-H ) :   0.1492 B(  6-O , 47-H ) :   0.2528
B(  8-H , 27-O ) :   0.2589 B(  9-O , 10-H ) :   0.9132 B(  9-O , 11-H ) :   0.8839
B(  9-O , 14-H ) :   0.2747 B( 12-O , 13-H ) :   0.9539 B( 12-O , 14-H ) :   0.8017
B( 12-O , 41-H ) :   0.1987 B( 12-O , 46-H ) :   0.2034 B( 15-O , 16-H ) :   0.9536
B( 15-O , 17-H ) :   0.7996 B( 15-O , 23-H ) :   0.1986 B( 17-H , 30-O ) :   0.2768
B( 18-O , 19-H ) :   0.8588 B( 18-O , 20-H ) :   0.8305 B( 18-O , 37-H ) :   0.2593
B( 18-O , 43-H ) :   0.1583 B( 19-H , 24-O ) :   0.2068 B( 20-H , 33-O ) :   0.2516
B( 21-O , 22-H ) :   0.9147 B( 21-O , 23-H ) :   0.8836 B( 21-O , 25-H ) :   0.2763
B( 22-H , 33-O ) :   0.1457 B( 24-O , 25-H ) :   0.8002 B( 24-O , 26-H ) :   0.9545
B( 24-O , 32-H ) :   0.2025 B( 27-O , 28-H ) :   0.8596 B( 27-O , 29-H ) :   0.8293
B( 27-O , 38-H ) :   0.1578 B( 29-H , 42-O ) :   0.2509 B( 30-O , 31-H ) :   0.9137
B( 30-O , 32-H ) :   0.8831 B( 31-H , 36-O ) :   0.1483 B( 33-O , 34-H ) :   0.8912
B( 33-O , 35-H ) :   0.8259 B( 34-H , 45-O ) :   0.1562 B( 36-O , 37-H ) :   0.8259
B( 36-O , 38-H ) :   0.8894 B( 39-O , 40-H ) :   0.9127 B( 39-O , 41-H ) :   0.8839
B( 40-H , 42-O ) :   0.1500 B( 42-O , 43-H ) :   0.8898 B( 42-O , 44-H ) :   0.8254
B( 44-H , 45-O ) :   0.2596 B( 45-O , 46-H ) :   0.8600 B( 45-O , 47-H ) :   0.8301

Dispersion correction           -0.058694284
FINAL SINGLE POINT ENERGY     -1222.313567505129

DIPOLE MOMENT
-------------
                                X             Y             Z
Electronic contribution:     -0.00773      -0.00434       0.01697
Nuclear contribution   :      0.02099      -0.01014      -0.00522
                        -----------------------------------------
Total Dipole Moment    :      0.01326      -0.01448       0.01175
                        -----------------------------------------
Magnitude (a.u.)       :      0.02288
Magnitude (Debye)      :      0.05817

                             ****ORCA TERMINATED NORMALLY****
TOTAL RUN TIME: 0 days 0 hours 36 minutes 53 seconds 729 msec
