                         Program Version 4.2.0 -  RELEASE  -
|  1> # 12mecn.remya.etal.2.mol0,6,10
|  2> ! MP2 def2-TZVP EnGrad TightSCF
|  3>
|  4> %pal
|  5>     nprocs 6
|  6> end
|  7>
|  8> %maxcore 8000
|  9>
| 10> %scf
| 11>     ConvForced true
| 12> end
| 13>
| 14> *xyz 0 1
| 15> C  -0.869520000  -3.929380000   1.700199000
| 16> H  -0.057420000  -3.268850000   2.015352000
| 17> H  -0.697530000  -4.930670000   2.101524000
| 18> H  -1.821490000  -3.546590000   2.077146000
| 19> C  -0.916080000  -3.969960000   0.256749000
| 20> N  -0.955390000  -3.995980000  -0.909290000
| 21> C   5.300864000  -2.920090000   1.401103000
| 22> H   5.986071000  -2.139770000   1.737487000
| 23> H   5.636642000  -3.888750000   1.778233000
| 24> H   4.307359000  -2.697240000   1.799307000
| 25> C   5.234791000  -2.933140000  -0.043290000
| 26> N   5.170868000  -2.941760000  -1.207750000
| 27> C   4.602033000   0.321019000  -1.784800000
| 28> H   4.827650000  -0.662160000  -2.207910000
| 29> H   5.320558000   1.057980000  -2.148500000
| 30> H   3.601982000   0.643751000  -2.087520000
| 31> C   4.654967000   0.244048000  -0.343060000
| 32> N   4.691648000   0.166590000   0.820757000
| 33> *
| 34>
| 35>                          ****END OF INPUT****

CARTESIAN COORDINATES (ANGSTROEM)
---------------------------------
  C     -0.869520   -3.929380    1.700199
  H     -0.057420   -3.268850    2.015352
  H     -0.697530   -4.930670    2.101524
  H     -1.821490   -3.546590    2.077146
  C     -0.916080   -3.969960    0.256749
  N     -0.955390   -3.995980   -0.909290
  C      5.300864   -2.920090    1.401103
  H      5.986071   -2.139770    1.737487
  H      5.636642   -3.888750    1.778233
  H      4.307359   -2.697240    1.799307
  C      5.234791   -2.933140   -0.043290
  N      5.170868   -2.941760   -1.207750
  C      4.602033    0.321019   -1.784800
  H      4.827650   -0.662160   -2.207910
  H      5.320558    1.057980   -2.148500
  H      3.601982    0.643751   -2.087520
  C      4.654967    0.244048   -0.343060
  N      4.691648    0.166590    0.820757

 Total Charge           Charge          ....    0
 Multiplicity           Mult            ....    1
 Number of Electrons    NEL             ....   66
 Basis Dimension        Dim             ....  333

ORBITAL ENERGIES
----------------

  NO   OCC          E(Eh)            E(eV)
   0   2.0000     -15.572941      -423.7613
   1   2.0000     -15.571267      -423.7157
   2   2.0000     -15.570251      -423.6881
   3   2.0000     -11.285368      -307.0905
   4   2.0000     -11.283312      -307.0345
   5   2.0000     -11.281999      -306.9988
   6   2.0000     -11.279713      -306.9366
   7   2.0000     -11.273694      -306.7728
   8   2.0000     -11.271050      -306.7009
   9   2.0000      -1.218204       -33.1490
  10   2.0000      -1.214040       -33.0357
  11   2.0000      -1.213360       -33.0172
  12   2.0000      -1.044534       -28.4232
  13   2.0000      -1.036758       -28.2116
  14   2.0000      -1.033755       -28.1299
  15   2.0000      -0.700360       -19.0578
  16   2.0000      -0.695635       -18.9292
  17   2.0000      -0.691043       -18.8042
  18   2.0000      -0.632998       -17.2247
  19   2.0000      -0.632190       -17.2028
  20   2.0000      -0.632020       -17.1981
  21   2.0000      -0.621849       -16.9214
  22   2.0000      -0.618704       -16.8358
  23   2.0000      -0.616652       -16.7800
  24   2.0000      -0.559165       -15.2157
  25   2.0000      -0.555663       -15.1204
  26   2.0000      -0.555394       -15.1131
  27   2.0000      -0.463184       -12.6039
  28   2.0000      -0.458480       -12.4759
  29   2.0000      -0.457240       -12.4421
  30   2.0000      -0.457139       -12.4394
  31   2.0000      -0.456850       -12.4315
  32   2.0000      -0.452880       -12.3235
  33   0.0000       0.106398         2.8952
  34   0.0000       0.130633         3.5547
  35   0.0000       0.144310         3.9269
  36   0.0000       0.164917         4.4876
  37   0.0000       0.171028         4.6539

MULLIKEN ATOMIC CHARGES
-----------------------
   0 C :   -0.279627
   1 H :    0.171069
   2 H :    0.171878
   3 H :    0.172448
   4 C :   -0.145362
   5 N :   -0.090419
   6 C :   -0.260951
   7 H :    0.184038
   8 H :    0.171512
   9 H :    0.166514
  10 C :   -0.117560
  11 N :   -0.143629
  12 C :   -0.285540
  13 H :    0.206820
  14 H :    0.166006
  15 H :    0.168212
  16 C :   -0.111418
  17 N :   -0.143993
Sum of atomic charges:   -0.0000000

LOEWDIN ATOMIC CHARGES
----------------------
   0 C :   -0.284027
   1 H :    0.152340
   2 H :    0.151363
   3 H :    0.153022
   4 C :   -0.220038
   5 N :    0.047336
   6 C :   -0.285776
   7 H :    0.155909
   8 H :    0.148183
   9 H :    0.154745
  10 C :   -0.209750
  11 N :    0.032688
  12 C :   -0.281006
  13 H :    0.157851
  14 H :    0.150452
  15 H :    0.153522
  16 C :   -0.208740
  17 N :    0.031927

  Mayer bond orders larger than 0.100000
B(  0-C ,  1-H ) :   0.9170 B(  0-C ,  2-H ) :   0.9169 B(  0-C ,  3-H ) :   0.9164
B(  0-C ,  4-C ) :   0.9011 B(  4-C ,  5-N ) :   2.8356 B(  6-C ,  7-H ) :   0.9108
B(  6-C ,  8-H ) :   0.9104 B(  6-C ,  9-H ) :   0.9154 B(  6-C , 10-C ) :   0.9131
B( 10-C , 11-N ) :   2.7711 B( 12-C , 13-H ) :   0.9011 B( 12-C , 14-H ) :   0.9165
B( 12-C , 15-H ) :   0.9143 B( 12-C , 16-C ) :   0.8997 B( 16-C , 17-N ) :   2.7916

MP2 TOTAL ENERGY:     -397.458929411 Eh
FINAL SINGLE POINT ENERGY      -397.458929410837

DIPOLE MOMENT
-------------
                                X             Y             Z
Electronic contribution:     -0.10303      -0.32563      -3.17394
Nuclear contribution   :      0.17324       0.47293       4.66210
                        -----------------------------------------
Total Dipole Moment    :      0.07022       0.14730       1.48816
                        -----------------------------------------
Magnitude (a.u.)       :      1.49708
Magnitude (Debye)      :      3.80527

Rotational constants in cm-1:     0.045724     0.012967     0.012167
Rotational constants in MHz :  1370.759292   388.729253   364.765085

                             ****ORCA TERMINATED NORMALLY****
TOTAL RUN TIME: 0 days 0 hours 3 minutes 10 seconds 402 msec
