                         Program Version 4.2.0 -  RELEASE  -
|  1> # 12h2o.su.etal.mol0,1,5,8,11
|  2> ! MP2 def2-TZVP EnGrad TightSCF
|  3>
|  4> %pal
|  5>     nprocs 6
|  6> end
|  7>
|  8> %maxcore 8000
|  9>
| 10> %scf
| 11>     ConvForced true
| 12> end
| 13>
| 14> *xyz 0 1
| 15> O   1.794470000   0.923410000   2.768350000
| 16> H   2.338250000   1.359750000   3.430940000
| 17> H   0.879480000   1.303000000   2.865760000
| 18> O  -1.794470000  -0.923410000   2.768350000
| 19> H  -2.338250000  -1.359750000   3.430940000
| 20> H  -0.879480000  -1.303000000   2.865760000
| 21> O   0.885520000  -1.737840000   0.052730000
| 22> H   1.284090000  -0.839590000   0.017130000
| 23> H   1.032320000  -2.090180000  -0.841890000
| 24> O   1.752130000   0.741530000  -2.896280000
| 25> H   2.036450000   0.920500000  -1.984040000
| 26> H   0.921210000   1.242140000  -2.984230000
| 27> O  -0.741530000   1.752130000   2.896280000
| 28> H  -0.920500000   2.036450000   1.984040000
| 29> H  -1.242140000   0.921210000   2.984230000
| 30> *
| 31>
| 32>                          ****END OF INPUT****

CARTESIAN COORDINATES (ANGSTROEM)
---------------------------------
  O      1.794470    0.923410    2.768350
  H      2.338250    1.359750    3.430940
  H      0.879480    1.303000    2.865760
  O     -1.794470   -0.923410    2.768350
  H     -2.338250   -1.359750    3.430940
  H     -0.879480   -1.303000    2.865760
  O      0.885520   -1.737840    0.052730
  H      1.284090   -0.839590    0.017130
  H      1.032320   -2.090180   -0.841890
  O      1.752130    0.741530   -2.896280
  H      2.036450    0.920500   -1.984040
  H      0.921210    1.242140   -2.984230
  O     -0.741530    1.752130    2.896280
  H     -0.920500    2.036450    1.984040
  H     -1.242140    0.921210    2.984230

 Total Charge           Charge          ....    0
 Multiplicity           Mult            ....    1
 Number of Electrons    NEL             ....   50
 Basis Dimension        Dim             ....  215

ORBITAL ENERGIES
----------------

  NO   OCC          E(Eh)            E(eV)
   0   2.0000     -20.586795      -560.1952
   1   2.0000     -20.571966      -559.7917
   2   2.0000     -20.570952      -559.7641
   3   2.0000     -20.556074      -559.3592
   4   2.0000     -20.521424      -558.4163
   5   2.0000      -1.367708       -37.2172
   6   2.0000      -1.356469       -36.9114
   7   2.0000      -1.351017       -36.7630
   8   2.0000      -1.331931       -36.2437
   9   2.0000      -1.303194       -35.4617
  10   2.0000      -0.734213       -19.9790
  11   2.0000      -0.718078       -19.5399
  12   2.0000      -0.713825       -19.4242
  13   2.0000      -0.694003       -18.8848
  14   2.0000      -0.690413       -18.7871
  15   2.0000      -0.615146       -16.7390
  16   2.0000      -0.589309       -16.0359
  17   2.0000      -0.588348       -16.0098
  18   2.0000      -0.572403       -15.5759
  19   2.0000      -0.551466       -15.0062
  20   2.0000      -0.527833       -14.3631
  21   2.0000      -0.515610       -14.0304
  22   2.0000      -0.503673       -13.7056
  23   2.0000      -0.498918       -13.5762
  24   2.0000      -0.472226       -12.8499
  25   0.0000       0.095253         2.5920
  26   0.0000       0.118769         3.2319
  27   0.0000       0.150416         4.0930
  28   0.0000       0.161787         4.4024
  29   0.0000       0.177025         4.8171

MULLIKEN ATOMIC CHARGES
-----------------------
   0 O :   -0.738981
   1 H :    0.326397
   2 H :    0.363985
   3 O :   -0.704193
   4 H :    0.351878
   5 H :    0.377990
   6 O :   -0.680792
   7 H :    0.336618
   8 H :    0.340345
   9 O :   -0.671839
  10 H :    0.333818
  11 H :    0.340193
  12 O :   -0.699647
  13 H :    0.348768
  14 H :    0.375459
Sum of atomic charges:   -0.0000000

LOEWDIN ATOMIC CHARGES
----------------------
   0 O :   -0.376440
   1 H :    0.149256
   2 H :    0.140717
   3 O :   -0.310878
   4 H :    0.163764
   5 H :    0.194568
   6 O :   -0.337495
   7 H :    0.168823
   8 H :    0.165907
   9 O :   -0.328618
  10 H :    0.162175
  11 H :    0.168260
  12 O :   -0.283520
  13 H :    0.169273
  14 H :    0.154208

  Mayer bond orders larger than 0.100000
B(  0-O ,  1-H ) :   0.8597 B(  0-O ,  2-H ) :   0.7753 B(  3-O ,  4-H ) :   0.8418
B(  3-O ,  5-H ) :   0.8163 B(  6-O ,  7-H ) :   0.8470 B(  6-O ,  8-H ) :   0.8502
B(  9-O , 10-H ) :   0.8531 B(  9-O , 11-H ) :   0.8509 B( 12-O , 13-H ) :   0.8434
B( 12-O , 14-H ) :   0.7934

MP2 TOTAL ENERGY:     -381.588308764 Eh
FINAL SINGLE POINT ENERGY      -381.588308764116

DIPOLE MOMENT
-------------
                                X             Y             Z
Electronic contribution:     -0.29019      -0.22756      -0.08017
Nuclear contribution   :     -0.56668       0.56508       0.49091
                        -----------------------------------------
Total Dipole Moment    :     -0.85687       0.33752       0.41074
                        -----------------------------------------
Magnitude (a.u.)       :      1.00839
Magnitude (Debye)      :      2.56313

Rotational constants in cm-1:     0.065450     0.026851     0.023494
Rotational constants in MHz :  1962.134882   804.973573   704.340758

                             ****ORCA TERMINATED NORMALLY****
TOTAL RUN TIME: 0 days 0 hours 0 minutes 26 seconds 614 msec
