                         Program Version 4.2.0 -  RELEASE  -
|  1> # 12h2o.su.etal.mol0,2,4,6,7,10
|  2> ! MP2 def2-TZVP EnGrad TightSCF
|  3>
|  4> %pal
|  5>     nprocs 6
|  6> end
|  7>
|  8> %maxcore 8000
|  9>
| 10> %scf
| 11>     ConvForced true
| 12> end
| 13>
| 14> *xyz 0 1
| 15> O   1.794470000   0.923410000   2.768350000
| 16> H   2.338250000   1.359750000   3.430940000
| 17> H   0.879480000   1.303000000   2.865760000
| 18> O   0.923410000  -1.794470000  -2.768350000
| 19> H   1.359750000  -2.338250000  -3.430940000
| 20> H   1.303000000  -0.879480000  -2.865760000
| 21> O  -0.885520000   1.737840000   0.052730000
| 22> H  -1.032320000   2.090180000  -0.841890000
| 23> H  -1.284090000   0.839590000   0.017130000
| 24> O   1.737840000   0.885520000  -0.052730000
| 25> H   2.090180000   1.032320000   0.841890000
| 26> H   0.839590000   1.284090000  -0.017130000
| 27> O  -1.737840000  -0.885520000  -0.052730000
| 28> H  -2.090180000  -1.032320000   0.841890000
| 29> H  -0.839590000  -1.284090000  -0.017130000
| 30> O  -0.923410000   1.794470000  -2.768350000
| 31> H  -1.359750000   2.338250000  -3.430940000
| 32> H  -1.303000000   0.879480000  -2.865760000
| 33> *
| 34>
| 35>                          ****END OF INPUT****

CARTESIAN COORDINATES (ANGSTROEM)
---------------------------------
  O      1.794470    0.923410    2.768350
  H      2.338250    1.359750    3.430940
  H      0.879480    1.303000    2.865760
  O      0.923410   -1.794470   -2.768350
  H      1.359750   -2.338250   -3.430940
  H      1.303000   -0.879480   -2.865760
  O     -0.885520    1.737840    0.052730
  H     -1.032320    2.090180   -0.841890
  H     -1.284090    0.839590    0.017130
  O      1.737840    0.885520   -0.052730
  H      2.090180    1.032320    0.841890
  H      0.839590    1.284090   -0.017130
  O     -1.737840   -0.885520   -0.052730
  H     -2.090180   -1.032320    0.841890
  H     -0.839590   -1.284090   -0.017130
  O     -0.923410    1.794470   -2.768350
  H     -1.359750    2.338250   -3.430940
  H     -1.303000    0.879480   -2.865760

 Total Charge           Charge          ....    0
 Multiplicity           Mult            ....    1
 Number of Electrons    NEL             ....   60
 Basis Dimension        Dim             ....  258

ORBITAL ENERGIES
----------------

  NO   OCC          E(Eh)            E(eV)
   0   2.0000     -20.584485      -560.1323
   1   2.0000     -20.579578      -559.9988
   2   2.0000     -20.572249      -559.7994
   3   2.0000     -20.551385      -559.2316
   4   2.0000     -20.524308      -558.4948
   5   2.0000     -20.482108      -557.3465
   6   2.0000      -1.365595       -37.1597
   7   2.0000      -1.357490       -36.9392
   8   2.0000      -1.350128       -36.7389
   9   2.0000      -1.326739       -36.1024
  10   2.0000      -1.313091       -35.7310
  11   2.0000      -1.266078       -34.4517
  12   2.0000      -0.724570       -19.7166
  13   2.0000      -0.722105       -19.6495
  14   2.0000      -0.716988       -19.5102
  15   2.0000      -0.694605       -18.9012
  16   2.0000      -0.689287       -18.7564
  17   2.0000      -0.648976       -17.6595
  18   2.0000      -0.612122       -16.6567
  19   2.0000      -0.594887       -16.1877
  20   2.0000      -0.587360       -15.9829
  21   2.0000      -0.564135       -15.3509
  22   2.0000      -0.562841       -15.3157
  23   2.0000      -0.534289       -14.5388
  24   2.0000      -0.521208       -14.1828
  25   2.0000      -0.511399       -13.9159
  26   2.0000      -0.498209       -13.5570
  27   2.0000      -0.494497       -13.4560
  28   2.0000      -0.464281       -12.6337
  29   2.0000      -0.433341       -11.7918
  30   0.0000       0.105431         2.8689
  31   0.0000       0.125510         3.4153
  32   0.0000       0.140748         3.8299
  33   0.0000       0.147985         4.0269
  34   0.0000       0.199066         5.4169

MULLIKEN ATOMIC CHARGES
-----------------------
   0 O :   -0.693706
   1 H :    0.344030
   2 H :    0.356380
   3 O :   -0.697140
   4 H :    0.335162
   5 H :    0.362259
   6 O :   -0.732468
   7 H :    0.372920
   8 H :    0.348525
   9 O :   -0.744973
  10 H :    0.353079
  11 H :    0.345872
  12 O :   -0.695335
  13 H :    0.352010
  14 H :    0.379766
  15 O :   -0.697771
  16 H :    0.346954
  17 H :    0.364435
Sum of atomic charges:   -0.0000000

LOEWDIN ATOMIC CHARGES
----------------------
   0 O :   -0.312008
   1 H :    0.159348
   2 H :    0.185351
   3 O :   -0.343527
   4 H :    0.156614
   5 H :    0.186960
   6 O :   -0.323383
   7 H :    0.148842
   8 H :    0.137441
   9 O :   -0.376545
  10 H :    0.141390
  11 H :    0.134696
  12 O :   -0.292783
  13 H :    0.170887
  14 H :    0.187377
  15 O :   -0.310051
  16 H :    0.161197
  17 H :    0.188195

  Mayer bond orders larger than 0.100000
B(  0-O ,  1-H ) :   0.8461 B(  0-O ,  2-H ) :   0.8325 B(  3-O ,  4-H ) :   0.8546
B(  3-O ,  5-H ) :   0.8292 B(  6-O ,  7-H ) :   0.8120 B(  6-O ,  8-H ) :   0.7942
B(  9-O , 10-H ) :   0.8332 B(  9-O , 11-H ) :   0.7960 B( 12-O , 13-H ) :   0.8410
B( 12-O , 14-H ) :   0.8150 B( 15-O , 16-H ) :   0.8444 B( 15-O , 17-H ) :   0.8256

MP2 TOTAL ENERGY:     -457.913005211 Eh
FINAL SINGLE POINT ENERGY      -457.913005210838

DIPOLE MOMENT
-------------
                                X             Y             Z
Electronic contribution:     -0.12898      -0.19562      -0.08231
Nuclear contribution   :     -0.76293       0.22475       0.14168
                        -----------------------------------------
Total Dipole Moment    :     -0.89190       0.02913       0.05938
                        -----------------------------------------
Magnitude (a.u.)       :      0.89435
Magnitude (Debye)      :      2.27326

Rotational constants in cm-1:     0.047858     0.027988     0.025008
Rotational constants in MHz :  1434.753350   839.069012   749.719528

                             ****ORCA TERMINATED NORMALLY****
TOTAL RUN TIME: 0 days 0 hours 1 minutes 1 seconds 23 msec
