                         Program Version 3.0.3 - RELEASE   -
|  1> ! B3LYP Def2-TZVP def2-TZVP/J RIJCOSX TightSCF Grid4 D3BJ
|  2>
|  3> %pal nprocs 12 end
|  4>
|  5> %scf
|  6>         maxiter 400
|  7> end
|  8>
|  9> * xyz  0  1
| 10> O  1.748114	-2.332155	2.454696
| 11> H  1.353154	-2.700622	1.634508
| 12> H  1.007584	-1.929562	2.960836
| 13> O  2.694181	0.506458	-0.647431
| 14> H  2.665373	1.498196	-0.646703
| 15> H  3.081047	0.207668	0.212893
| 16> O  1.441636	-2.991264	-2.570180
| 17> H  1.715590	-2.034747	-2.777347
| 18> H  2.063600	-3.558625	-3.043940
| 19> O  0.887308	2.677552	1.529772
| 20> H  1.183097	2.190884	2.344401
| 21> H  -0.047727	2.942781	1.654819
| 22> O  1.771996	1.229043	3.595010
| 23> H  2.409162	0.730063	3.041799
| 24> H  1.114879	0.549587	3.848416
| 25> O  -3.312915	0.676737	-1.557957
| 26> H  -3.946448	0.576001	-2.282315
| 27> H  -2.421853	0.449734	-1.959847
| 28> O  1.945824	-0.498778	-3.025507
| 29> H  2.349194	-0.121984	-2.206516
| 30> H  1.043830	-0.127868	-3.049110
| 31> O  -1.399170	0.390783	1.851764
| 32> H  -1.624355	1.356983	1.852480
| 33> H  -0.702755	0.272882	1.148231
| 34> O  -3.149853	-1.171610	0.480232
| 35> H  -2.587203	-0.626441	1.082940
| 36> H  -3.354971	-0.553035	-0.255739
| 37> O  -1.790055	3.025577	1.590518
| 38> H  -2.348625	3.597858	2.131667
| 39> H  -2.104900	3.148356	0.617594
| 40> O  2.068952	3.049441	-0.667738
| 41> H  1.620158	2.989140	0.247521
| 42> H  2.572494	3.873237	-0.690014
| 43> O  0.246567	-0.308868	-0.065183
| 44> H  0.423139	-1.285453	0.019216
| 45> H  1.144416	0.098584	-0.212984
| 46> O  0.648041	-2.946666	0.022751
| 47> H  -0.301728	-3.212060	-0.069090
| 48> H  1.057379	-3.099163	-0.863055
| 49> O  -1.242235	-2.538463	-2.950744
| 50> H  -1.602649	-2.891643	-2.107503
| 51> H  -0.319043	-2.870249	-2.974334
| 52> O  -0.896016	0.011479	-2.430914
| 53> H  -1.051904	-0.938399	-2.730271
| 54> H  -0.492841	-0.093002	-1.523555
| 55> O  3.267007	-0.341735	1.827181
| 56> H  4.148197	-0.552925	2.165892
| 57> H  2.694938	-1.154226	2.058822
| 58> O  -0.277892	2.822669	-2.222882
| 59> H  -0.368639	1.897253	-2.510127
| 60> H  0.578405	2.891513	-1.748211
| 61> O  -0.117630	-0.821390	3.767222
| 62> H  -0.699084	-1.066221	4.498606
| 63> H  -0.690405	-0.344546	3.094311
| 64> O  -2.517232	3.253430	-0.845066
| 65> H  -1.676692	3.221881	-1.376511
| 66> H  -2.965648	2.418197	-1.092906
| 67> O  -1.972124	-3.259773	-0.382278
| 68> H  -2.446322	-2.426666	-0.018926
| 69> H  -2.530621	-4.009789	-0.138146
| 70> **                         ****END OF INPUT****

CARTESIAN COORDINATES (ANGSTROEM)
---------------------------------
  O      1.748114   -2.332155    2.454696
  H      1.353154   -2.700622    1.634508
  H      1.007584   -1.929562    2.960836
  O      2.694181    0.506458   -0.647431
  H      2.665373    1.498196   -0.646703
  H      3.081047    0.207668    0.212893
  O      1.441636   -2.991264   -2.570180
  H      1.715590   -2.034747   -2.777347
  H      2.063600   -3.558625   -3.043940
  O      0.887308    2.677552    1.529772
  H      1.183097    2.190884    2.344401
  H     -0.047727    2.942781    1.654819
  O      1.771996    1.229043    3.595010
  H      2.409162    0.730063    3.041799
  H      1.114879    0.549587    3.848416
  O     -3.312915    0.676737   -1.557957
  H     -3.946448    0.576001   -2.282315
  H     -2.421853    0.449734   -1.959847
  O      1.945824   -0.498778   -3.025507
  H      2.349194   -0.121984   -2.206516
  H      1.043830   -0.127868   -3.049110
  O     -1.399170    0.390783    1.851764
  H     -1.624355    1.356983    1.852480
  H     -0.702755    0.272882    1.148231
  O     -3.149853   -1.171610    0.480232
  H     -2.587203   -0.626441    1.082940
  H     -3.354971   -0.553035   -0.255739
  O     -1.790055    3.025577    1.590518
  H     -2.348625    3.597858    2.131667
  H     -2.104900    3.148356    0.617594
  O      2.068952    3.049441   -0.667738
  H      1.620158    2.989140    0.247521
  H      2.572494    3.873237   -0.690014
  O      0.246567   -0.308868   -0.065183
  H      0.423139   -1.285453    0.019216
  H      1.144416    0.098584   -0.212984
  O      0.648041   -2.946666    0.022751
  H     -0.301728   -3.212060   -0.069090
  H      1.057379   -3.099163   -0.863055
  O     -1.242235   -2.538463   -2.950744
  H     -1.602649   -2.891643   -2.107503
  H     -0.319043   -2.870249   -2.974334
  O     -0.896016    0.011479   -2.430914
  H     -1.051904   -0.938399   -2.730271
  H     -0.492841   -0.093002   -1.523555
  O      3.267007   -0.341735    1.827181
  H      4.148197   -0.552925    2.165892
  H      2.694938   -1.154226    2.058822
  O     -0.277892    2.822669   -2.222882
  H     -0.368639    1.897253   -2.510127
  H      0.578405    2.891513   -1.748211
  O     -0.117630   -0.821390    3.767222
  H     -0.699084   -1.066221    4.498606
  H     -0.690405   -0.344546    3.094311
  O     -2.517232    3.253430   -0.845066
  H     -1.676692    3.221881   -1.376511
  H     -2.965648    2.418197   -1.092906
  O     -1.972124   -3.259773   -0.382278
  H     -2.446322   -2.426666   -0.018926
  H     -2.530621   -4.009789   -0.138146

 Total Charge           Charge          ....    0
 Multiplicity           Mult            ....    1
 Number of Electrons    NEL             ....  200
 Basis Dimension        Dim             ....  860

ORBITAL ENERGIES
----------------

  NO   OCC          E(Eh)            E(eV)
   0   2.0000     -19.145955      -520.9879
   1   2.0000     -19.143089      -520.9099
   2   2.0000     -19.140988      -520.8528
   3   2.0000     -19.140673      -520.8442
   4   2.0000     -19.139136      -520.8024
   5   2.0000     -19.132994      -520.6352
   6   2.0000     -19.132128      -520.6117
   7   2.0000     -19.132050      -520.6095
   8   2.0000     -19.130522      -520.5680
   9   2.0000     -19.126370      -520.4550
  10   2.0000     -19.126351      -520.4545
  11   2.0000     -19.126263      -520.4521
  12   2.0000     -19.126252      -520.4518
  13   2.0000     -19.118506      -520.2410
  14   2.0000     -19.117616      -520.2168
  15   2.0000     -19.117455      -520.2124
  16   2.0000     -19.112677      -520.0824
  17   2.0000     -19.107065      -519.9297
  18   2.0000     -19.105277      -519.8810
  19   2.0000     -19.102065      -519.7936
  20   2.0000      -1.042948       -28.3801
  21   2.0000      -1.033766       -28.1302
  22   2.0000      -1.033256       -28.1163
  23   2.0000      -1.029994       -28.0275
  24   2.0000      -1.026936       -27.9444
  25   2.0000      -1.025025       -27.8924
  26   2.0000      -1.022042       -27.8112
  27   2.0000      -1.018810       -27.7232
  28   2.0000      -1.015415       -27.6308
  29   2.0000      -1.012867       -27.5615
  30   2.0000      -1.007481       -27.4150
  31   2.0000      -1.001756       -27.2592
  32   2.0000      -1.000121       -27.2147
  33   2.0000      -0.997712       -27.1491
  34   2.0000      -0.994305       -27.0564
  35   2.0000      -0.992221       -26.9997
  36   2.0000      -0.989961       -26.9382
  37   2.0000      -0.986913       -26.8553
  38   2.0000      -0.980711       -26.6865
  39   2.0000      -0.975643       -26.5486
  40   2.0000      -0.559697       -15.2301
  41   2.0000      -0.558327       -15.1928
  42   2.0000      -0.557181       -15.1617
  43   2.0000      -0.552799       -15.0424
  44   2.0000      -0.550146       -14.9702
  45   2.0000      -0.546667       -14.8756
  46   2.0000      -0.544639       -14.8204
  47   2.0000      -0.543143       -14.7797
  48   2.0000      -0.540707       -14.7134
  49   2.0000      -0.538767       -14.6606
  50   2.0000      -0.537460       -14.6250
  51   2.0000      -0.534712       -14.5503
  52   2.0000      -0.532844       -14.4994
  53   2.0000      -0.528976       -14.3942
  54   2.0000      -0.524945       -14.2845
  55   2.0000      -0.522845       -14.2273
  56   2.0000      -0.522067       -14.2062
  57   2.0000      -0.519773       -14.1438
  58   2.0000      -0.512920       -13.9573
  59   2.0000      -0.507902       -13.8207
  60   2.0000      -0.469072       -12.7641
  61   2.0000      -0.458054       -12.4643
  62   2.0000      -0.448321       -12.1994
  63   2.0000      -0.443811       -12.0767
  64   2.0000      -0.442940       -12.0530
  65   2.0000      -0.436140       -11.8680
  66   2.0000      -0.428714       -11.6659
  67   2.0000      -0.421464       -11.4686
  68   2.0000      -0.410796       -11.1783
  69   2.0000      -0.405595       -11.0368
  70   2.0000      -0.403943       -10.9918
  71   2.0000      -0.393469       -10.7068
  72   2.0000      -0.391211       -10.6454
  73   2.0000      -0.388761       -10.5787
  74   2.0000      -0.382319       -10.4034
  75   2.0000      -0.378506       -10.2997
  76   2.0000      -0.373974       -10.1763
  77   2.0000      -0.369668       -10.0592
  78   2.0000      -0.362166        -9.8550
  79   2.0000      -0.349899        -9.5212
  80   2.0000      -0.338705        -9.2166
  81   2.0000      -0.337115        -9.1734
  82   2.0000      -0.335128        -9.1193
  83   2.0000      -0.334346        -9.0980
  84   2.0000      -0.332540        -9.0489
  85   2.0000      -0.330681        -8.9983
  86   2.0000      -0.329096        -8.9551
  87   2.0000      -0.328629        -8.9424
  88   2.0000      -0.327615        -8.9149
  89   2.0000      -0.326116        -8.8741
  90   2.0000      -0.325500        -8.8573
  91   2.0000      -0.322382        -8.7725
  92   2.0000      -0.318260        -8.6603
  93   2.0000      -0.316547        -8.6137
  94   2.0000      -0.313902        -8.5417
  95   2.0000      -0.312226        -8.4961
  96   2.0000      -0.309971        -8.4348
  97   2.0000      -0.305585        -8.3154
  98   2.0000      -0.299460        -8.1487
  99   2.0000      -0.297156        -8.0860
 100   0.0000      -0.006291        -0.1712
 101   0.0000       0.015921         0.4332
 102   0.0000       0.019301         0.5252
 103   0.0000       0.022665         0.6168
 104   0.0000       0.032084         0.8731

MULLIKEN ATOMIC CHARGES
-----------------------
   0 O :   -0.695774
   1 H :    0.382609
   2 H :    0.357941
   3 O :   -0.752746
   4 H :    0.377056
   5 H :    0.373901
   6 O :   -0.728949
   7 H :    0.376578
   8 H :    0.333646
   9 O :   -0.743017
  10 H :    0.378036
  11 H :    0.363615
  12 O :   -0.687979
  13 H :    0.340589
  14 H :    0.344771
  15 O :   -0.716259
  16 H :    0.334832
  17 H :    0.379337
  18 O :   -0.685906
  19 H :    0.389274
  20 H :    0.340067
  21 O :   -0.767976
  22 H :    0.376150
  23 H :    0.404227
  24 O :   -0.703826
  25 H :    0.374235
  26 H :    0.358842
  27 O :   -0.734635
  28 H :    0.331610
  29 H :    0.380692
  30 O :   -0.730545
  31 H :    0.396053
  32 H :    0.332859
  33 O :   -0.776400
  34 H :    0.360636
  35 H :    0.377401
  36 O :   -0.745993
  37 H :    0.373110
  38 H :    0.373395
  39 O :   -0.693845
  40 H :    0.349104
  41 H :    0.348998
  42 O :   -0.813531
  43 H :    0.391040
  44 H :    0.376742
  45 O :   -0.727351
  46 H :    0.334346
  47 H :    0.372965
  48 O :   -0.698875
  49 H :    0.352225
  50 H :    0.356423
  51 O :   -0.717980
  52 H :    0.331081
  53 H :    0.379353
  54 O :   -0.699789
  55 H :    0.383125
  56 H :    0.353035
  57 O :   -0.737568
  58 H :    0.384578
  59 H :    0.334468
Sum of atomic charges:   -0.0000000

LOEWDIN ATOMIC CHARGES
----------------------
   0 O :   -0.270091
   1 H :    0.142805
   2 H :    0.139203
   3 O :   -0.273773
   4 H :    0.136023
   5 H :    0.138769
   6 O :   -0.296104
   7 H :    0.138747
   8 H :    0.157690
   9 O :   -0.283589
  10 H :    0.138512
  11 H :    0.133710
  12 O :   -0.291490
  13 H :    0.135390
  14 H :    0.137139
  15 O :   -0.281665
  16 H :    0.160622
  17 H :    0.139940
  18 O :   -0.260728
  19 H :    0.143572
  20 H :    0.142019
  21 O :   -0.266987
  22 H :    0.138127
  23 H :    0.133473
  24 O :   -0.270913
  25 H :    0.140727
  26 H :    0.140032
  27 O :   -0.294294
  28 H :    0.154944
  29 H :    0.138544
  30 O :   -0.287905
  31 H :    0.133472
  32 H :    0.156620
  33 O :   -0.262002
  34 H :    0.130584
  35 H :    0.130857
  36 O :   -0.276962
  37 H :    0.136524
  38 H :    0.141360
  39 O :   -0.282296
  40 H :    0.136477
  41 H :    0.137174
  42 O :   -0.308058
  43 H :    0.135163
  44 H :    0.122949
  45 O :   -0.291353
  46 H :    0.157299
  47 H :    0.137486
  48 O :   -0.285221
  49 H :    0.141871
  50 H :    0.143286
  51 O :   -0.289287
  52 H :    0.157806
  53 H :    0.136862
  54 O :   -0.271261
  55 H :    0.143110
  56 H :    0.138269
  57 O :   -0.295987
  58 H :    0.135806
  59 H :    0.157002

  Mayer bond orders larger than 0.1
B(  0-O ,  1-H ) :   0.8217 B(  0-O ,  2-H ) :   0.8203 B(  0-O , 47-H ) :   0.1993
B(  3-O ,  4-H ) :   0.7729 B(  3-O ,  5-H ) :   0.7911 B(  3-O , 35-H ) :   0.1706
B(  4-H , 30-O ) :   0.1313 B(  5-H , 45-O ) :   0.1138 B(  6-O ,  7-H ) :   0.7255
B(  6-O ,  8-H ) :   0.8896 B(  6-O , 38-H ) :   0.1075 B(  7-H , 18-O ) :   0.1799
B(  9-O , 10-H ) :   0.7638 B(  9-O , 11-H ) :   0.8111 B(  9-O , 31-H ) :   0.1645
B( 10-H , 12-O ) :   0.1488 B( 12-O , 13-H ) :   0.8389 B( 12-O , 14-H ) :   0.8434
B( 15-O , 16-H ) :   0.8893 B( 15-O , 17-H ) :   0.7582 B( 17-H , 42-O ) :   0.1272
B( 18-O , 19-H ) :   0.8029 B( 18-O , 20-H ) :   0.8579 B( 21-O , 22-H ) :   0.7768
B( 21-O , 23-H ) :   0.7696 B( 21-O , 25-H ) :   0.1007 B( 21-O , 53-H ) :   0.1354
B( 22-H , 27-O ) :   0.1303 B( 24-O , 25-H ) :   0.8058 B( 24-O , 26-H ) :   0.8223
B( 24-O , 58-H ) :   0.2015 B( 27-O , 28-H ) :   0.8909 B( 27-O , 29-H ) :   0.6942
B( 29-H , 54-O ) :   0.2163 B( 30-O , 31-H ) :   0.7156 B( 30-O , 32-H ) :   0.8900
B( 33-O , 34-H ) :   0.7617 B( 33-O , 35-H ) :   0.7456 B( 33-O , 44-H ) :   0.1188
B( 34-H , 36-O ) :   0.1574 B( 36-O , 37-H ) :   0.7876 B( 36-O , 38-H ) :   0.7991
B( 37-H , 57-O ) :   0.1188 B( 39-O , 40-H ) :   0.8285 B( 39-O , 41-H ) :   0.8315
B( 39-O , 43-H ) :   0.1661 B( 42-O , 43-H ) :   0.7396 B( 42-O , 44-H ) :   0.7536
B( 45-O , 46-H ) :   0.8909 B( 45-O , 47-H ) :   0.7140 B( 48-O , 49-H ) :   0.8598
B( 48-O , 50-H ) :   0.8279 B( 48-O , 55-H ) :   0.1109 B( 51-O , 52-H ) :   0.8910
B( 51-O , 53-H ) :   0.7543 B( 54-O , 55-H ) :   0.7897 B( 54-O , 56-H ) :   0.8400
B( 57-O , 58-H ) :   0.7016 B( 57-O , 59-H ) :   0.8901

Dispersion correction           -0.077083969
FINAL SINGLE POINT ENERGY     -1528.927746107797

DIPOLE MOMENT
-------------
                                X             Y             Z
Electronic contribution:      0.01132       0.20714      -0.08530
Nuclear contribution   :     -0.12301      -1.29129       0.69192
                        -----------------------------------------
Total Dipole Moment    :     -0.11169      -1.08415       0.60662
                        -----------------------------------------
Magnitude (a.u.)       :      1.24734
Magnitude (Debye)      :      3.17048

                             ****ORCA TERMINATED NORMALLY****
TOTAL RUN TIME: 0 days 0 hours 2 minutes 43 seconds 667 msec
