                         Program Version 4.2.0 -  RELEASE  -
|  1> ! MP2 def2-TZVP EnGrad TightSCF FrozenCore
|  2>
|  3> %pal
|  4>     nprocs 12
|  5> end
|  6>
|  7> %maxcore 8000
|  8>
|  9> %scf
| 10>     ConvForced true
| 11> end
| 12>
| 13> *xyz 0 1
| 14> O    -0.2303527359    -0.417139715     -1.3175651731
| 15> H     0.6953531546    -0.4592015344    -0.9533289735
| 16> C    -0.2134554356    -0.6722500534    -2.7194006509
| 17> H    -1.2399354445    -0.5792301845    -3.0832603102
| 18> H     0.1451173518    -1.686154977     -2.9393122476
| 19> H     0.4172499097     0.0502623185    -3.2545494445
| 20> O    -1.2724257558    -1.884534278      0.8898578463
| 21> H    -1.0412567799    -1.4972588477     0.0226839512
| 22> C    -2.1666984965    -0.9863364373     1.52518455
| 23> H    -2.3355046549    -1.357008578      2.5412167794
| 24> H    -3.1445458774    -0.9385165668     1.0176951672
| 25> H    -1.7618293845     0.034355241      1.5920559504
| 26> O    -0.0541207607     1.7588002825     0.4064223055
| 27> H    -0.3996303607     1.1975221917    -0.3199543094
| 28> C    -0.1059395196     3.1235144766     0.0079982411
| 29> H     0.3016802172     3.7164370359     0.8307572537
| 30> H    -1.1377859814     3.4522284646    -0.1772574458
| 31> H     0.4940059589     3.3189932998    -0.8927164934
| 32> O     2.0073438594    -0.0645460372     0.118464548
| 33> H     1.4985419977     0.7152003776     0.43631694
| 34> C     2.0792583948    -1.0142006082     1.1911005241
| 35> H     2.700785025     -1.8426144165     0.8406541524
| 36> H     1.0870143389    -1.3979714269     1.4580160921
| 37> H     2.558194015     -0.5720486811     2.0742507377
| 38> *
| 39>
| 40>                          ****END OF INPUT****

CARTESIAN COORDINATES (ANGSTROEM)
---------------------------------
  O     -0.230353   -0.417140   -1.317565
  H      0.695353   -0.459202   -0.953329
  C     -0.213455   -0.672250   -2.719401
  H     -1.239935   -0.579230   -3.083260
  H      0.145117   -1.686155   -2.939312
  H      0.417250    0.050262   -3.254549
  O     -1.272426   -1.884534    0.889858
  H     -1.041257   -1.497259    0.022684
  C     -2.166698   -0.986336    1.525185
  H     -2.335505   -1.357009    2.541217
  H     -3.144546   -0.938517    1.017695
  H     -1.761829    0.034355    1.592056
  O     -0.054121    1.758800    0.406422
  H     -0.399630    1.197522   -0.319954
  C     -0.105940    3.123514    0.007998
  H      0.301680    3.716437    0.830757
  H     -1.137786    3.452228   -0.177257
  H      0.494006    3.318993   -0.892716
  O      2.007344   -0.064546    0.118465
  H      1.498542    0.715200    0.436317
  C      2.079258   -1.014201    1.191101
  H      2.700785   -1.842614    0.840654
  H      1.087014   -1.397971    1.458016
  H      2.558194   -0.572049    2.074251

 Total Charge           Charge          ....    0
 Multiplicity           Mult            ....    1
 Number of Electrons    NEL             ....   72
 Basis Dimension        Dim             ....  344

ORBITAL ENERGIES
----------------

  NO   OCC          E(Eh)            E(eV)
   0   2.0000     -20.567641      -559.6740
   1   2.0000     -20.563608      -559.5642
   2   2.0000     -20.556213      -559.3630
   3   2.0000     -20.527573      -558.5837
   4   2.0000     -11.282551      -307.0138
   5   2.0000     -11.279684      -306.9358
   6   2.0000     -11.262810      -306.4766
   7   2.0000     -11.251499      -306.1689
   8   2.0000      -1.376996       -37.4700
   9   2.0000      -1.358874       -36.9768
  10   2.0000      -1.347882       -36.6777
  11   2.0000      -1.327961       -36.1357
  12   2.0000      -0.940036       -25.5797
  13   2.0000      -0.928838       -25.2750
  14   2.0000      -0.916370       -24.9357
  15   2.0000      -0.899956       -24.4890
  16   2.0000      -0.709471       -19.3057
  17   2.0000      -0.702091       -19.1049
  18   2.0000      -0.691460       -18.8156
  19   2.0000      -0.674337       -18.3497
  20   2.0000      -0.628455       -17.1011
  21   2.0000      -0.625474       -17.0200
  22   2.0000      -0.619295       -16.8519
  23   2.0000      -0.604017       -16.4361
  24   2.0000      -0.599059       -16.3012
  25   2.0000      -0.593500       -16.1499
  26   2.0000      -0.588350       -16.0098
  27   2.0000      -0.569872       -15.5070
  28   2.0000      -0.522162       -14.2088
  29   2.0000      -0.516006       -14.0412
  30   2.0000      -0.496713       -13.5163
  31   2.0000      -0.483460       -13.1556
  32   2.0000      -0.463543       -12.6136
  33   2.0000      -0.454891       -12.3782
  34   2.0000      -0.449048       -12.2192
  35   2.0000      -0.422931       -11.5085
  36   0.0000       0.124863         3.3977
  37   0.0000       0.155556         4.2329
  38   0.0000       0.162713         4.4276
  39   0.0000       0.175759         4.7826
  40   0.0000       0.189578         5.1587

MULLIKEN ATOMIC CHARGES
-----------------------
   0 O :   -0.602283
   1 H :    0.378572
   2 C :   -0.168102
   3 H :    0.133629
   4 H :    0.129461
   5 H :    0.124211
   6 O :   -0.517830
   7 H :    0.340612
   8 C :   -0.182896
   9 H :    0.120652
  10 H :    0.102709
  11 H :    0.120374
  12 O :   -0.544568
  13 H :    0.359842
  14 C :   -0.176517
  15 H :    0.132972
  16 H :    0.122156
  17 H :    0.117745
  18 O :   -0.547357
  19 H :    0.358111
  20 C :   -0.201499
  21 H :    0.126096
  22 H :    0.154634
  23 H :    0.119277
Sum of atomic charges:    0.0000000

LOEWDIN ATOMIC CHARGES
----------------------
   0 O :   -0.097675
   1 H :    0.170102
   2 C :   -0.376580
   3 H :    0.110752
   4 H :    0.104823
   5 H :    0.103304
   6 O :   -0.098921
   7 H :    0.159733
   8 C :   -0.399501
   9 H :    0.106292
  10 H :    0.094470
  11 H :    0.094997
  12 O :   -0.087346
  13 H :    0.168683
  14 C :   -0.379705
  15 H :    0.111156
  16 H :    0.102159
  17 H :    0.099270
  18 O :   -0.093571
  19 H :    0.167805
  20 C :   -0.376231
  21 H :    0.108888
  22 H :    0.105345
  23 H :    0.101751

  Mayer bond orders larger than 0.100000
B(  0-O ,  1-H ) :   0.7270 B(  0-O ,  2-C ) :   0.8632 B(  1-H , 18-O ) :   0.1159
B(  2-C ,  3-H ) :   0.9422 B(  2-C ,  4-H ) :   0.9402 B(  2-C ,  5-H ) :   0.9375
B(  6-O ,  7-H ) :   0.8077 B(  6-O ,  8-C ) :   0.9188 B(  8-C ,  9-H ) :   0.9423
B(  8-C , 10-H ) :   0.9383 B(  8-C , 11-H ) :   0.9300 B( 12-O , 13-H ) :   0.7805
B( 12-O , 14-C ) :   0.8887 B( 14-C , 15-H ) :   0.9423 B( 14-C , 16-H ) :   0.9388
B( 14-C , 17-H ) :   0.9359 B( 18-O , 19-H ) :   0.7853 B( 18-O , 20-C ) :   0.8658
B( 20-C , 21-H ) :   0.9437 B( 20-C , 22-H ) :   0.9195 B( 20-C , 23-H ) :   0.9408

MP2 TOTAL ENERGY:     -462.071974232 Eh
FINAL SINGLE POINT ENERGY      -462.071974231889

DIPOLE MOMENT
-------------
                                X             Y             Z
Electronic contribution:      1.22101      -1.37218       0.13527
Nuclear contribution   :     -1.21903       2.26348      -0.84951
                        -----------------------------------------
Total Dipole Moment    :      0.00198       0.89130      -0.71424
                        -----------------------------------------
Magnitude (a.u.)       :      1.14217
Magnitude (Debye)      :      2.90317

Rotational constants in cm-1:     0.037611     0.030846     0.030204
Rotational constants in MHz :  1127.537952   924.744246   905.493537

                             ****ORCA TERMINATED NORMALLY****
TOTAL RUN TIME: 0 days 0 hours 3 minutes 13 seconds 164 msec
