                         Program Version 4.2.0 -  RELEASE  -
|  1> # 12h2o.su.etal.mol1,4,7,11
|  2> ! MP2 def2-TZVP EnGrad TightSCF
|  3>
|  4> %pal
|  5>     nprocs 6
|  6> end
|  7>
|  8> %maxcore 8000
|  9>
| 10> %scf
| 11>     ConvForced true
| 12> end
| 13>
| 14> *xyz 0 1
| 15> O  -1.794470000  -0.923410000   2.768350000
| 16> H  -2.338250000  -1.359750000   3.430940000
| 17> H  -0.879480000  -1.303000000   2.865760000
| 18> O  -0.885520000   1.737840000   0.052730000
| 19> H  -1.032320000   2.090180000  -0.841890000
| 20> H  -1.284090000   0.839590000   0.017130000
| 21> O  -1.737840000  -0.885520000  -0.052730000
| 22> H  -2.090180000  -1.032320000   0.841890000
| 23> H  -0.839590000  -1.284090000  -0.017130000
| 24> O  -0.741530000   1.752130000   2.896280000
| 25> H  -0.920500000   2.036450000   1.984040000
| 26> H  -1.242140000   0.921210000   2.984230000
| 27> *
| 28>
| 29>                          ****END OF INPUT****

CARTESIAN COORDINATES (ANGSTROEM)
---------------------------------
  O     -1.794470   -0.923410    2.768350
  H     -2.338250   -1.359750    3.430940
  H     -0.879480   -1.303000    2.865760
  O     -0.885520    1.737840    0.052730
  H     -1.032320    2.090180   -0.841890
  H     -1.284090    0.839590    0.017130
  O     -1.737840   -0.885520   -0.052730
  H     -2.090180   -1.032320    0.841890
  H     -0.839590   -1.284090   -0.017130
  O     -0.741530    1.752130    2.896280
  H     -0.920500    2.036450    1.984040
  H     -1.242140    0.921210    2.984230

 Total Charge           Charge          ....    0
 Multiplicity           Mult            ....    1
 Number of Electrons    NEL             ....   40
 Basis Dimension        Dim             ....  172

ORBITAL ENERGIES
----------------

  NO   OCC          E(Eh)            E(eV)
   0   2.0000     -20.620467      -561.1114
   1   2.0000     -20.580363      -560.0201
   2   2.0000     -20.539304      -558.9029
   3   2.0000     -20.502692      -557.9066
   4   2.0000      -1.400987       -38.1228
   5   2.0000      -1.364077       -37.1184
   6   2.0000      -1.322666       -35.9916
   7   2.0000      -1.287703       -35.0402
   8   2.0000      -0.766328       -20.8528
   9   2.0000      -0.727828       -19.8052
  10   2.0000      -0.696584       -18.9550
  11   2.0000      -0.669730       -18.2243
  12   2.0000      -0.640925       -17.4405
  13   2.0000      -0.601075       -16.3561
  14   2.0000      -0.584636       -15.9088
  15   2.0000      -0.552934       -15.0461
  16   2.0000      -0.521977       -14.2037
  17   2.0000      -0.513777       -13.9806
  18   2.0000      -0.487504       -13.2657
  19   2.0000      -0.452381       -12.3099
  20   0.0000       0.087051         2.3688
  21   0.0000       0.139371         3.7925
  22   0.0000       0.162533         4.4228
  23   0.0000       0.183690         4.9985
  24   0.0000       0.236456         6.4343

MULLIKEN ATOMIC CHARGES
-----------------------
   0 O :   -0.713416
   1 H :    0.367436
   2 H :    0.368423
   3 O :   -0.724151
   4 H :    0.334510
   5 H :    0.354817
   6 O :   -0.690423
   7 H :    0.378945
   8 H :    0.342649
   9 O :   -0.723726
  10 H :    0.370919
  11 H :    0.334017
Sum of atomic charges:   -0.0000000

LOEWDIN ATOMIC CHARGES
----------------------
   0 O :   -0.286747
   1 H :    0.169261
   2 H :    0.191199
   3 O :   -0.342476
   4 H :    0.161788
   5 H :    0.142928
   6 O :   -0.295215
   7 H :    0.152689
   8 H :    0.172790
   9 O :   -0.354960
  10 H :    0.152099
  11 H :    0.136645

  Mayer bond orders larger than 0.100000
B(  0-O ,  1-H ) :   0.8301 B(  0-O ,  2-H ) :   0.8219 B(  3-O ,  4-H ) :   0.8513
B(  3-O ,  5-H ) :   0.7819 B(  6-O ,  7-H ) :   0.8055 B(  6-O ,  8-H ) :   0.8441
B(  9-O , 10-H ) :   0.8180 B(  9-O , 11-H ) :   0.8446

MP2 TOTAL ENERGY:     -305.278430107 Eh
FINAL SINGLE POINT ENERGY      -305.278430106739

DIPOLE MOMENT
-------------
                                X             Y             Z
Electronic contribution:     -0.10813      -0.05313       0.03338
Nuclear contribution   :     -0.25623      -2.04245      -0.05351
                        -----------------------------------------
Total Dipole Moment    :     -0.36436      -2.09558      -0.02013
                        -----------------------------------------
Magnitude (a.u.)       :      2.12712
Magnitude (Debye)      :      5.40671

Rotational constants in cm-1:     0.115228     0.112675     0.057917
Rotational constants in MHz :  3454.443937  3377.914090  1736.316880

                             ****ORCA TERMINATED NORMALLY****
TOTAL RUN TIME: 0 days 0 hours 0 minutes 26 seconds 81 msec
