                         Program Version 4.2.0 -  RELEASE  -
|  1> # 12h2o.su.etal.mol0,2,5,6
|  2> ! MP2 def2-TZVP EnGrad TightSCF
|  3>
|  4> %pal
|  5>     nprocs 6
|  6> end
|  7>
|  8> %maxcore 8000
|  9>
| 10> %scf
| 11>     ConvForced true
| 12> end
| 13>
| 14> *xyz 0 1
| 15> O   1.794470000   0.923410000   2.768350000
| 16> H   2.338250000   1.359750000   3.430940000
| 17> H   0.879480000   1.303000000   2.865760000
| 18> O   0.923410000  -1.794470000  -2.768350000
| 19> H   1.359750000  -2.338250000  -3.430940000
| 20> H   1.303000000  -0.879480000  -2.865760000
| 21> O   0.885520000  -1.737840000   0.052730000
| 22> H   1.284090000  -0.839590000   0.017130000
| 23> H   1.032320000  -2.090180000  -0.841890000
| 24> O   1.737840000   0.885520000  -0.052730000
| 25> H   2.090180000   1.032320000   0.841890000
| 26> H   0.839590000   1.284090000  -0.017130000
| 27> *
| 28>
| 29>                          ****END OF INPUT****

CARTESIAN COORDINATES (ANGSTROEM)
---------------------------------
  O      1.794470    0.923410    2.768350
  H      2.338250    1.359750    3.430940
  H      0.879480    1.303000    2.865760
  O      0.923410   -1.794470   -2.768350
  H      1.359750   -2.338250   -3.430940
  H      1.303000   -0.879480   -2.865760
  O      0.885520   -1.737840    0.052730
  H      1.284090   -0.839590    0.017130
  H      1.032320   -2.090180   -0.841890
  O      1.737840    0.885520   -0.052730
  H      2.090180    1.032320    0.841890
  H      0.839590    1.284090   -0.017130

 Total Charge           Charge          ....    0
 Multiplicity           Mult            ....    1
 Number of Electrons    NEL             ....   40
 Basis Dimension        Dim             ....  172

ORBITAL ENERGIES
----------------

  NO   OCC          E(Eh)            E(eV)
   0   2.0000     -20.593708      -560.3833
   1   2.0000     -20.570576      -559.7538
   2   2.0000     -20.562572      -559.5360
   3   2.0000     -20.481499      -557.3299
   4   2.0000      -1.372061       -37.3357
   5   2.0000      -1.348562       -36.6962
   6   2.0000      -1.345247       -36.6060
   7   2.0000      -1.266173       -34.4543
   8   2.0000      -0.738473       -20.0949
   9   2.0000      -0.715436       -19.4680
  10   2.0000      -0.709645       -19.3104
  11   2.0000      -0.651147       -17.7186
  12   2.0000      -0.614801       -16.7296
  13   2.0000      -0.590902       -16.0793
  14   2.0000      -0.577585       -15.7169
  15   2.0000      -0.538031       -14.6406
  16   2.0000      -0.530561       -14.4373
  17   2.0000      -0.505581       -13.7576
  18   2.0000      -0.481845       -13.1117
  19   2.0000      -0.432671       -11.7736
  20   0.0000       0.099482         2.7071
  21   0.0000       0.126904         3.4532
  22   0.0000       0.157715         4.2916
  23   0.0000       0.185714         5.0535
  24   0.0000       0.211158         5.7459

MULLIKEN ATOMIC CHARGES
-----------------------
   0 O :   -0.687094
   1 H :    0.352201
   2 H :    0.352501
   3 O :   -0.690656
   4 H :    0.343187
   5 H :    0.354718
   6 O :   -0.736760
   7 H :    0.341404
   8 H :    0.353522
   9 O :   -0.698197
  10 H :    0.379074
  11 H :    0.336101
Sum of atomic charges:   -0.0000000

LOEWDIN ATOMIC CHARGES
----------------------
   0 O :   -0.305843
   1 H :    0.163655
   2 H :    0.185228
   3 O :   -0.310695
   4 H :    0.159025
   5 H :    0.184729
   6 O :   -0.373612
   7 H :    0.134814
   8 H :    0.141608
   9 O :   -0.301940
  10 H :    0.153659
  11 H :    0.169371

  Mayer bond orders larger than 0.100000
B(  0-O ,  1-H ) :   0.8418 B(  0-O ,  2-H ) :   0.8358 B(  3-O ,  4-H ) :   0.8465
B(  3-O ,  5-H ) :   0.8340 B(  6-O ,  7-H ) :   0.8125 B(  6-O ,  8-H ) :   0.8334
B(  9-O , 10-H ) :   0.8029 B(  9-O , 11-H ) :   0.8476

MP2 TOTAL ENERGY:     -305.268684922 Eh
FINAL SINGLE POINT ENERGY      -305.268684922379

DIPOLE MOMENT
-------------
                                X             Y             Z
Electronic contribution:      0.04054      -0.10249       0.09435
Nuclear contribution   :      0.36972       1.89647       0.00000
                        -----------------------------------------
Total Dipole Moment    :      0.41026       1.79397       0.09435
                        -----------------------------------------
Magnitude (a.u.)       :      1.84270
Magnitude (Debye)      :      4.68378

Rotational constants in cm-1:     0.303314     0.044320     0.039133
Rotational constants in MHz :  9093.127890  1328.679070  1173.185115

                             ****ORCA TERMINATED NORMALLY****
TOTAL RUN TIME: 0 days 0 hours 0 minutes 19 seconds 336 msec
