                         Program Version 4.2.0 -  RELEASE  -
|  1> # 12mecn.remya.etal.2.mol1,8,11
|  2> ! MP2 def2-TZVP EnGrad TightSCF
|  3>
|  4> %pal
|  5>     nprocs 6
|  6> end
|  7>
|  8> %maxcore 8000
|  9>
| 10> %scf
| 11>     ConvForced true
| 12> end
| 13>
| 14> *xyz 0 1
| 15> C  -4.697980000  -0.249690000   1.746215000
| 16> H  -4.927570000   0.755530000   2.111799000
| 17> H  -3.709180000  -0.561560000   2.093253000
| 18> H  -5.432280000  -0.961520000   2.128066000
| 19> C  -4.714100000  -0.247110000   0.301670000
| 20> N  -4.729750000  -0.234960000  -0.865260000
| 21> C   1.912641000  -2.468050000  -1.750510000
| 22> H   2.876947000  -2.793500000  -2.151200000
| 23> H   1.688016000  -1.463720000  -2.122170000
| 24> H   1.123460000  -3.154780000  -2.069590000
| 25> C   1.977850000  -2.444240000  -0.306900000
| 26> N   2.036566000  -2.426130000   0.858249000
| 27> C   4.214163000   3.378139000   1.593627000
| 28> H   3.242643000   3.657109000   2.012358000
| 29> H   4.969258000   4.086643000   1.941290000
| 30> H   4.482966000   2.372549000   1.931698000
| 31> C   4.130759000   3.388436000   0.150192000
| 32> N   4.050180000   3.381449000  -1.013420000
| 33> *
| 34>
| 35>                          ****END OF INPUT****

CARTESIAN COORDINATES (ANGSTROEM)
---------------------------------
  C     -4.697980   -0.249690    1.746215
  H     -4.927570    0.755530    2.111799
  H     -3.709180   -0.561560    2.093253
  H     -5.432280   -0.961520    2.128066
  C     -4.714100   -0.247110    0.301670
  N     -4.729750   -0.234960   -0.865260
  C      1.912641   -2.468050   -1.750510
  H      2.876947   -2.793500   -2.151200
  H      1.688016   -1.463720   -2.122170
  H      1.123460   -3.154780   -2.069590
  C      1.977850   -2.444240   -0.306900
  N      2.036566   -2.426130    0.858249
  C      4.214163    3.378139    1.593627
  H      3.242643    3.657109    2.012358
  H      4.969258    4.086643    1.941290
  H      4.482966    2.372549    1.931698
  C      4.130759    3.388436    0.150192
  N      4.050180    3.381449   -1.013420

 Total Charge           Charge          ....    0
 Multiplicity           Mult            ....    1
 Number of Electrons    NEL             ....   66
 Basis Dimension        Dim             ....  333

ORBITAL ENERGIES
----------------

  NO   OCC          E(Eh)            E(eV)
   0   2.0000     -15.573037      -423.7639
   1   2.0000     -15.572586      -423.7516
   2   2.0000     -15.572199      -423.7411
   3   2.0000     -11.284131      -307.0568
   4   2.0000     -11.283439      -307.0380
   5   2.0000     -11.281512      -306.9855
   6   2.0000     -11.280202      -306.9499
   7   2.0000     -11.280084      -306.9467
   8   2.0000     -11.279990      -306.9441
   9   2.0000      -1.214358       -33.0444
  10   2.0000      -1.214302       -33.0428
  11   2.0000      -1.214152       -33.0387
  12   2.0000      -1.043662       -28.3995
  13   2.0000      -1.042237       -28.3607
  14   2.0000      -1.040901       -28.3244
  15   2.0000      -0.699618       -19.0376
  16   2.0000      -0.699269       -19.0281
  17   2.0000      -0.696862       -18.9626
  18   2.0000      -0.633529       -17.2392
  19   2.0000      -0.630199       -17.1486
  20   2.0000      -0.629513       -17.1299
  21   2.0000      -0.629353       -17.1256
  22   2.0000      -0.629304       -17.1242
  23   2.0000      -0.627305       -17.0698
  24   2.0000      -0.556018       -15.1300
  25   2.0000      -0.555907       -15.1270
  26   2.0000      -0.555860       -15.1257
  27   2.0000      -0.457656       -12.4535
  28   2.0000      -0.457467       -12.4483
  29   2.0000      -0.457303       -12.4438
  30   2.0000      -0.457276       -12.4431
  31   2.0000      -0.457110       -12.4386
  32   2.0000      -0.456940       -12.4340
  33   0.0000       0.116577         3.1722
  34   0.0000       0.120298         3.2735
  35   0.0000       0.126417         3.4400
  36   0.0000       0.171598         4.6694
  37   0.0000       0.172023         4.6810

MULLIKEN ATOMIC CHARGES
-----------------------
   0 C :   -0.279691
   1 H :    0.171654
   2 H :    0.175600
   3 H :    0.171868
   4 C :   -0.145309
   5 N :   -0.094126
   6 C :   -0.277127
   7 H :    0.171559
   8 H :    0.179293
   9 H :    0.172561
  10 C :   -0.145328
  11 N :   -0.100953
  12 C :   -0.279915
  13 H :    0.171421
  14 H :    0.171180
  15 H :    0.177233
  16 C :   -0.144860
  17 N :   -0.095061
Sum of atomic charges:    0.0000000

LOEWDIN ATOMIC CHARGES
----------------------
   0 C :   -0.283441
   1 H :    0.152896
   2 H :    0.153926
   3 H :    0.151670
   4 C :   -0.219435
   5 N :    0.044383
   6 C :   -0.281987
   7 H :    0.153063
   8 H :    0.155369
   9 H :    0.153052
  10 C :   -0.218427
  11 N :    0.038932
  12 C :   -0.283377
  13 H :    0.153029
  14 H :    0.150818
  15 H :    0.154688
  16 C :   -0.218581
  17 N :    0.043422

  Mayer bond orders larger than 0.100000
B(  0-C ,  1-H ) :   0.9159 B(  0-C ,  2-H ) :   0.9157 B(  0-C ,  3-H ) :   0.9168
B(  0-C ,  4-C ) :   0.9016 B(  4-C ,  5-N ) :   2.8380 B(  6-C ,  7-H ) :   0.9158
B(  6-C ,  8-H ) :   0.9141 B(  6-C ,  9-H ) :   0.9155 B(  6-C , 10-C ) :   0.9022
B( 10-C , 11-N ) :   2.8425 B( 12-C , 13-H ) :   0.9161 B( 12-C , 14-H ) :   0.9166
B( 12-C , 15-H ) :   0.9148 B( 12-C , 16-C ) :   0.9031 B( 16-C , 17-N ) :   2.8389

MP2 TOTAL ENERGY:     -397.451389013 Eh
FINAL SINGLE POINT ENERGY      -397.451389013161

DIPOLE MOMENT
-------------
                                X             Y             Z
Electronic contribution:     -0.07836       0.08810      -3.13697
Nuclear contribution   :      0.12117      -0.12625       4.65074
                        -----------------------------------------
Total Dipole Moment    :      0.04282      -0.03815       1.51376
                        -----------------------------------------
Magnitude (a.u.)       :      1.51485
Magnitude (Debye)      :      3.85044

Rotational constants in cm-1:     0.022435     0.008228     0.006759
Rotational constants in MHz :   672.577656   246.654633   202.634655

                             ****ORCA TERMINATED NORMALLY****
TOTAL RUN TIME: 0 days 0 hours 1 minutes 51 seconds 273 msec
