                         Program Version 4.2.0 -  RELEASE  -
|  1> # 12meoh.boyd.etal.mol3,11
|  2> ! MP2 def2-TZVP EnGrad TightSCF
|  3>
|  4> %pal
|  5>     nprocs 6
|  6> end
|  7>
|  8> %maxcore 8000
|  9>
| 10> %scf
| 11>     ConvForced true
| 12> end
| 13>
| 14> *xyz 0 1
| 15> O  -3.821405976  -2.118091637   0.596795346
| 16> H  -4.342989117  -1.344303030   0.251966383
| 17> C  -3.443883586  -1.809641231   1.934889393
| 18> H  -2.831494349  -2.637429600   2.305201764
| 19> H  -4.325601146  -1.719364371   2.585074667
| 20> H  -2.858527126  -0.882644791   1.996110694
| 21> O   3.252955559   0.588596242   1.858934315
| 22> H   3.621209177  -0.251605199   1.476063364
| 23> C   4.040824528   0.944288422   2.989639460
| 24> H   3.670521436   1.902573549   3.363847391
| 25> H   5.103749934   1.055868619   2.734277559
| 26> H   3.948540682   0.200279590   3.792908518
| 27> *
| 28>
| 29>                          ****END OF INPUT****

CARTESIAN COORDINATES (ANGSTROEM)
---------------------------------
  O     -3.821406   -2.118092    0.596795
  H     -4.342989   -1.344303    0.251966
  C     -3.443884   -1.809641    1.934889
  H     -2.831494   -2.637430    2.305202
  H     -4.325601   -1.719364    2.585075
  H     -2.858527   -0.882645    1.996111
  O      3.252956    0.588596    1.858934
  H      3.621209   -0.251605    1.476063
  C      4.040825    0.944288    2.989639
  H      3.670521    1.902574    3.363847
  H      5.103750    1.055869    2.734278
  H      3.948541    0.200280    3.792909

 Total Charge           Charge          ....    0
 Multiplicity           Mult            ....    1
 Number of Electrons    NEL             ....   36
 Basis Dimension        Dim             ....  172

ORBITAL ENERGIES
----------------

  NO   OCC          E(Eh)            E(eV)
   0   2.0000     -20.557720      -559.4040
   1   2.0000     -20.555367      -559.3400
   2   2.0000     -11.272134      -306.7304
   3   2.0000     -11.269091      -306.6476
   4   2.0000      -1.347030       -36.6545
   5   2.0000      -1.344425       -36.5837
   6   2.0000      -0.920188       -25.0396
   7   2.0000      -0.916648       -24.9433
   8   2.0000      -0.682045       -18.5594
   9   2.0000      -0.678773       -18.4703
  10   2.0000      -0.617467       -16.8021
  11   2.0000      -0.614993       -16.7348
  12   2.0000      -0.591378       -16.0922
  13   2.0000      -0.587692       -15.9919
  14   2.0000      -0.500590       -13.6217
  15   2.0000      -0.498309       -13.5597
  16   2.0000      -0.449593       -12.2341
  17   2.0000      -0.447061       -12.1651
  18   0.0000       0.134879         3.6702
  19   0.0000       0.137485         3.7412
  20   0.0000       0.175349         4.7715
  21   0.0000       0.178726         4.8634
  22   0.0000       0.228644         6.2217

MULLIKEN ATOMIC CHARGES
-----------------------
   0 O :   -0.495583
   1 H :    0.320980
   2 C :   -0.175206
   3 H :    0.128061
   4 H :    0.108188
   5 H :    0.113559
   6 O :   -0.497250
   7 H :    0.322114
   8 C :   -0.172725
   9 H :    0.128979
  10 H :    0.109780
  11 H :    0.109103
Sum of atomic charges:    0.0000000

LOEWDIN ATOMIC CHARGES
----------------------
   0 O :   -0.110126
   1 H :    0.190602
   2 C :   -0.381981
   3 H :    0.110142
   4 H :    0.095062
   5 H :    0.096301
   6 O :   -0.109219
   7 H :    0.190274
   8 C :   -0.381946
   9 H :    0.110179
  10 H :    0.095491
  11 H :    0.095222

  Mayer bond orders larger than 0.100000
B(  0-O ,  1-H ) :   0.8430 B(  0-O ,  2-C ) :   0.9258 B(  2-C ,  3-H ) :   0.9378
B(  2-C ,  4-H ) :   0.9389 B(  2-C ,  5-H ) :   0.9385 B(  6-O ,  7-H ) :   0.8420
B(  6-O ,  8-C ) :   0.9267 B(  8-C ,  9-H ) :   0.9377 B(  8-C , 10-H ) :   0.9389
B(  8-C , 11-H ) :   0.9388

MP2 TOTAL ENERGY:     -231.013399000 Eh
FINAL SINGLE POINT ENERGY      -231.013399000057

DIPOLE MOMENT
-------------
                                X             Y             Z
Electronic contribution:     -1.45415      -0.83041      -3.07827
Nuclear contribution   :      1.84526       1.06314       3.63012
                        -----------------------------------------
Total Dipole Moment    :      0.39111       0.23273       0.55185
                        -----------------------------------------
Magnitude (a.u.)       :      0.71531
Magnitude (Debye)      :      1.81817

Rotational constants in cm-1:     0.561306     0.016658     0.016327
Rotational constants in MHz : 16827.524935   499.403090   489.456570

                             ****ORCA TERMINATED NORMALLY****
TOTAL RUN TIME: 0 days 0 hours 0 minutes 16 seconds 310 msec
