                         Program Version 4.2.0 -  RELEASE  -
|  1> # 12mecn.remya.etal.2.mol3,5,7
|  2> ! MP2 def2-TZVP EnGrad TightSCF
|  3>
|  4> %pal
|  5>     nprocs 6
|  6> end
|  7>
|  8> %maxcore 8000
|  9>
| 10> %scf
| 11>     ConvForced true
| 12> end
| 13>
| 14> *xyz 0 1
| 15> C  -5.181310000   2.853865000  -1.626100000
| 16> H  -5.488260000   3.811434000  -2.053310000
| 17> H  -5.857590000   2.068112000  -1.968630000
| 18> H  -4.170750000   2.611402000  -1.966640000
| 19> C  -5.187260000   2.919160000  -0.181450000
| 20> N  -5.181700000   2.970641000   0.983640000
| 21> C  -1.955700000   2.515080000   1.698463000
| 22> H  -2.923830000   2.883163000   2.049269000
| 23> H  -1.154850000   3.171830000   2.050990000
| 24> H  -1.790380000   1.506115000   2.087896000
| 25> C  -1.948230000   2.482156000   0.253672000
| 26> N  -1.937550000   2.462523000  -0.913150000
| 27> C   1.502241000   0.651296000   1.710523000
| 28> H   1.309219000   1.637164000   2.143202000
| 29> H   2.493408000   0.297996000   2.009069000
| 30> H   0.746597000  -0.059850000   2.055508000
| 31> C   1.447974000   0.738517000   0.269805000
| 32> N   1.405612000   0.808047000  -0.894380000
| 33> *
| 34>
| 35>                          ****END OF INPUT****

CARTESIAN COORDINATES (ANGSTROEM)
---------------------------------
  C     -5.181310    2.853865   -1.626100
  H     -5.488260    3.811434   -2.053310
  H     -5.857590    2.068112   -1.968630
  H     -4.170750    2.611402   -1.966640
  C     -5.187260    2.919160   -0.181450
  N     -5.181700    2.970641    0.983640
  C     -1.955700    2.515080    1.698463
  H     -2.923830    2.883163    2.049269
  H     -1.154850    3.171830    2.050990
  H     -1.790380    1.506115    2.087896
  C     -1.948230    2.482156    0.253672
  N     -1.937550    2.462523   -0.913150
  C      1.502241    0.651296    1.710523
  H      1.309219    1.637164    2.143202
  H      2.493408    0.297996    2.009069
  H      0.746597   -0.059850    2.055508
  C      1.447974    0.738517    0.269805
  N      1.405612    0.808047   -0.894380

 Total Charge           Charge          ....    0
 Multiplicity           Mult            ....    1
 Number of Electrons    NEL             ....   66
 Basis Dimension        Dim             ....  333

ORBITAL ENERGIES
----------------

  NO   OCC          E(Eh)            E(eV)
   0   2.0000     -15.571609      -423.7250
   1   2.0000     -15.570754      -423.7018
   2   2.0000     -15.569217      -423.6599
   3   2.0000     -11.288506      -307.1759
   4   2.0000     -11.282994      -307.0259
   5   2.0000     -11.279318      -306.9258
   6   2.0000     -11.276746      -306.8559
   7   2.0000     -11.276297      -306.8436
   8   2.0000     -11.269779      -306.6663
   9   2.0000      -1.217178       -33.1211
  10   2.0000      -1.212441       -32.9922
  11   2.0000      -1.211362       -32.9628
  12   2.0000      -1.046732       -28.4830
  13   2.0000      -1.038141       -28.2493
  14   2.0000      -1.033051       -28.1108
  15   2.0000      -0.700932       -19.0733
  16   2.0000      -0.695802       -18.9337
  17   2.0000      -0.691226       -18.8092
  18   2.0000      -0.639824       -17.4105
  19   2.0000      -0.636104       -17.3093
  20   2.0000      -0.629702       -17.1351
  21   2.0000      -0.624897       -17.0043
  22   2.0000      -0.621105       -16.9011
  23   2.0000      -0.613745       -16.7009
  24   2.0000      -0.558466       -15.1966
  25   2.0000      -0.554292       -15.0830
  26   2.0000      -0.551768       -15.0144
  27   2.0000      -0.462404       -12.5827
  28   2.0000      -0.459602       -12.5064
  29   2.0000      -0.457507       -12.4494
  30   2.0000      -0.456234       -12.4148
  31   2.0000      -0.453834       -12.3495
  32   2.0000      -0.447004       -12.1636
  33   0.0000       0.101191         2.7535
  34   0.0000       0.136068         3.7026
  35   0.0000       0.147419         4.0115
  36   0.0000       0.155770         4.2387
  37   0.0000       0.165076         4.4919

MULLIKEN ATOMIC CHARGES
-----------------------
   0 C :   -0.287575
   1 H :    0.166464
   2 H :    0.165912
   3 H :    0.209126
   4 C :   -0.100829
   5 N :   -0.152994
   6 C :   -0.298962
   7 H :    0.215694
   8 H :    0.163314
   9 H :    0.158726
  10 C :   -0.102384
  11 N :   -0.136669
  12 C :   -0.285676
  13 H :    0.164958
  14 H :    0.181149
  15 H :    0.170333
  16 C :   -0.153738
  17 N :   -0.076849
Sum of atomic charges:    0.0000000

LOEWDIN ATOMIC CHARGES
----------------------
   0 C :   -0.281767
   1 H :    0.151377
   2 H :    0.150651
   3 H :    0.158305
   4 C :   -0.206166
   5 N :    0.028155
   6 C :   -0.286668
   7 H :    0.157813
   8 H :    0.148542
   9 H :    0.148866
  10 C :   -0.212309
  11 N :    0.043490
  12 C :   -0.287508
  13 H :    0.149032
  14 H :    0.153910
  15 H :    0.151242
  16 C :   -0.225150
  17 N :    0.058185

  Mayer bond orders larger than 0.100000
B(  0-C ,  1-H ) :   0.9144 B(  0-C ,  2-H ) :   0.9160 B(  0-C ,  3-H ) :   0.9002
B(  0-C ,  4-C ) :   0.9023 B(  4-C ,  5-N ) :   2.7717 B(  6-C ,  7-H ) :   0.8948
B(  6-C ,  8-H ) :   0.9231 B(  6-C ,  9-H ) :   0.9188 B(  6-C , 10-C ) :   0.8947
B( 10-C , 11-N ) :   2.7537 B( 12-C , 13-H ) :   0.9197 B( 12-C , 14-H ) :   0.9121
B( 12-C , 15-H ) :   0.9222 B( 12-C , 16-C ) :   0.8945 B( 16-C , 17-N ) :   2.8275

MP2 TOTAL ENERGY:     -397.458022662 Eh
FINAL SINGLE POINT ENERGY      -397.458022662168

DIPOLE MOMENT
-------------
                                X             Y             Z
Electronic contribution:     -0.12699       0.29249      -3.25095
Nuclear contribution   :      0.17795      -0.42595       4.60257
                        -----------------------------------------
Total Dipole Moment    :      0.05096      -0.13345       1.35162
                        -----------------------------------------
Magnitude (a.u.)       :      1.35915
Magnitude (Debye)      :      3.45468

Rotational constants in cm-1:     0.095881     0.016242     0.014236
Rotational constants in MHz :  2874.443317   486.935132   426.791421

                             ****ORCA TERMINATED NORMALLY****
TOTAL RUN TIME: 0 days 0 hours 3 minutes 40 seconds 915 msec
