                         Program Version 4.2.0 -  RELEASE  -
|  1> # 12h2o.su.etal.mol0,1,3,5,8
|  2> ! MP2 def2-TZVP EnGrad TightSCF
|  3>
|  4> %pal
|  5>     nprocs 6
|  6> end
|  7>
|  8> %maxcore 8000
|  9>
| 10> %scf
| 11>     ConvForced true
| 12> end
| 13>
| 14> *xyz 0 1
| 15> O   1.794470000   0.923410000   2.768350000
| 16> H   2.338250000   1.359750000   3.430940000
| 17> H   0.879480000   1.303000000   2.865760000
| 18> O  -1.794470000  -0.923410000   2.768350000
| 19> H  -2.338250000  -1.359750000   3.430940000
| 20> H  -0.879480000  -1.303000000   2.865760000
| 21> O  -1.752130000  -0.741530000  -2.896280000
| 22> H  -2.036450000  -0.920500000  -1.984040000
| 23> H  -0.921210000  -1.242140000  -2.984230000
| 24> O   0.885520000  -1.737840000   0.052730000
| 25> H   1.284090000  -0.839590000   0.017130000
| 26> H   1.032320000  -2.090180000  -0.841890000
| 27> O   1.752130000   0.741530000  -2.896280000
| 28> H   2.036450000   0.920500000  -1.984040000
| 29> H   0.921210000   1.242140000  -2.984230000
| 30> *
| 31>
| 32>                          ****END OF INPUT****

CARTESIAN COORDINATES (ANGSTROEM)
---------------------------------
  O      1.794470    0.923410    2.768350
  H      2.338250    1.359750    3.430940
  H      0.879480    1.303000    2.865760
  O     -1.794470   -0.923410    2.768350
  H     -2.338250   -1.359750    3.430940
  H     -0.879480   -1.303000    2.865760
  O     -1.752130   -0.741530   -2.896280
  H     -2.036450   -0.920500   -1.984040
  H     -0.921210   -1.242140   -2.984230
  O      0.885520   -1.737840    0.052730
  H      1.284090   -0.839590    0.017130
  H      1.032320   -2.090180   -0.841890
  O      1.752130    0.741530   -2.896280
  H      2.036450    0.920500   -1.984040
  H      0.921210    1.242140   -2.984230

 Total Charge           Charge          ....    0
 Multiplicity           Mult            ....    1
 Number of Electrons    NEL             ....   50
 Basis Dimension        Dim             ....  215

ORBITAL ENERGIES
----------------

  NO   OCC          E(Eh)            E(eV)
   0   2.0000     -20.572879      -559.8165
   1   2.0000     -20.570567      -559.7536
   2   2.0000     -20.565754      -559.6226
   3   2.0000     -20.559273      -559.4463
   4   2.0000     -20.558196      -559.4170
   5   2.0000      -1.349608       -36.7247
   6   2.0000      -1.348167       -36.6855
   7   2.0000      -1.341432       -36.5022
   8   2.0000      -1.337271       -36.3890
   9   2.0000      -1.334630       -36.3171
  10   2.0000      -0.716613       -19.5000
  11   2.0000      -0.712409       -19.3856
  12   2.0000      -0.703736       -19.1496
  13   2.0000      -0.702117       -19.1056
  14   2.0000      -0.699778       -19.0419
  15   2.0000      -0.587457       -15.9855
  16   2.0000      -0.584984       -15.9182
  17   2.0000      -0.581368       -15.8198
  18   2.0000      -0.575263       -15.6537
  19   2.0000      -0.571359       -15.5475
  20   2.0000      -0.516412       -14.0523
  21   2.0000      -0.515399       -14.0247
  22   2.0000      -0.508145       -13.8273
  23   2.0000      -0.502517       -13.6742
  24   2.0000      -0.501645       -13.6505
  25   0.0000       0.088262         2.4017
  26   0.0000       0.115954         3.1553
  27   0.0000       0.137658         3.7459
  28   0.0000       0.148642         4.0447
  29   0.0000       0.169029         4.5995

MULLIKEN ATOMIC CHARGES
-----------------------
   0 O :   -0.692854
   1 H :    0.342333
   2 H :    0.352123
   3 O :   -0.693675
   4 H :    0.336569
   5 H :    0.356410
   6 O :   -0.683142
   7 H :    0.346296
   8 H :    0.335806
   9 O :   -0.674320
  10 H :    0.339243
  11 H :    0.333879
  12 O :   -0.680270
  13 H :    0.330735
  14 H :    0.350868
Sum of atomic charges:   -0.0000000

LOEWDIN ATOMIC CHARGES
----------------------
   0 O :   -0.341732
   1 H :    0.159812
   2 H :    0.183663
   3 O :   -0.342761
   4 H :    0.157080
   5 H :    0.184501
   6 O :   -0.332431
   7 H :    0.168361
   8 H :    0.162857
   9 O :   -0.333074
  10 H :    0.170220
  11 H :    0.162049
  12 O :   -0.330052
  13 H :    0.160738
  14 H :    0.170767

  Mayer bond orders larger than 0.100000
B(  0-O ,  1-H ) :   0.8507 B(  0-O ,  2-H ) :   0.8371 B(  3-O ,  4-H ) :   0.8540
B(  3-O ,  5-H ) :   0.8337 B(  6-O ,  7-H ) :   0.8467 B(  6-O ,  8-H ) :   0.8504
B(  9-O , 10-H ) :   0.8459 B(  9-O , 11-H ) :   0.8530 B( 12-O , 13-H ) :   0.8547
B( 12-O , 14-H ) :   0.8411

MP2 TOTAL ENERGY:     -381.573203037 Eh
FINAL SINGLE POINT ENERGY      -381.573203037264

DIPOLE MOMENT
-------------
                                X             Y             Z
Electronic contribution:     -0.06759      -0.06263      -0.26873
Nuclear contribution   :      0.45394       0.45439       1.86312
                        -----------------------------------------
Total Dipole Moment    :      0.38635       0.39176       1.59439
                        -----------------------------------------
Magnitude (a.u.)       :      1.68666
Magnitude (Debye)      :      4.28715

Rotational constants in cm-1:     0.050178     0.026428     0.019620
Rotational constants in MHz :  1504.285441   792.297766   588.197650

                             ****ORCA TERMINATED NORMALLY****
TOTAL RUN TIME: 0 days 0 hours 0 minutes 21 seconds 511 msec
