                         Program Version 4.2.0 -  RELEASE  -
|  1> # 12h2o.su.etal.mol2,4,5,10
|  2> ! MP2 def2-TZVP EnGrad TightSCF
|  3>
|  4> %pal
|  5>     nprocs 6
|  6> end
|  7>
|  8> %maxcore 8000
|  9>
| 10> %scf
| 11>     ConvForced true
| 12> end
| 13>
| 14> *xyz 0 1
| 15> O   0.923410000  -1.794470000  -2.768350000
| 16> H   1.359750000  -2.338250000  -3.430940000
| 17> H   1.303000000  -0.879480000  -2.865760000
| 18> O  -0.885520000   1.737840000   0.052730000
| 19> H  -1.032320000   2.090180000  -0.841890000
| 20> H  -1.284090000   0.839590000   0.017130000
| 21> O   0.885520000  -1.737840000   0.052730000
| 22> H   1.284090000  -0.839590000   0.017130000
| 23> H   1.032320000  -2.090180000  -0.841890000
| 24> O  -0.923410000   1.794470000  -2.768350000
| 25> H  -1.359750000   2.338250000  -3.430940000
| 26> H  -1.303000000   0.879480000  -2.865760000
| 27> *
| 28>
| 29>                          ****END OF INPUT****

CARTESIAN COORDINATES (ANGSTROEM)
---------------------------------
  O      0.923410   -1.794470   -2.768350
  H      1.359750   -2.338250   -3.430940
  H      1.303000   -0.879480   -2.865760
  O     -0.885520    1.737840    0.052730
  H     -1.032320    2.090180   -0.841890
  H     -1.284090    0.839590    0.017130
  O      0.885520   -1.737840    0.052730
  H      1.284090   -0.839590    0.017130
  H      1.032320   -2.090180   -0.841890
  O     -0.923410    1.794470   -2.768350
  H     -1.359750    2.338250   -3.430940
  H     -1.303000    0.879480   -2.865760

 Total Charge           Charge          ....    0
 Multiplicity           Mult            ....    1
 Number of Electrons    NEL             ....   40
 Basis Dimension        Dim             ....  172

ORBITAL ENERGIES
----------------

  NO   OCC          E(Eh)            E(eV)
   0   2.0000     -20.596469      -560.4584
   1   2.0000     -20.596469      -560.4584
   2   2.0000     -20.529748      -558.6428
   3   2.0000     -20.529748      -558.6428
   4   2.0000      -1.374492       -37.4018
   5   2.0000      -1.374099       -37.3911
   6   2.0000      -1.309079       -35.6219
   7   2.0000      -1.308440       -35.6045
   8   2.0000      -0.742531       -20.2053
   9   2.0000      -0.739637       -20.1266
  10   2.0000      -0.680164       -18.5082
  11   2.0000      -0.677838       -18.4449
  12   2.0000      -0.610349       -16.6084
  13   2.0000      -0.610233       -16.6053
  14   2.0000      -0.560712       -15.2577
  15   2.0000      -0.560513       -15.2523
  16   2.0000      -0.527547       -14.3553
  17   2.0000      -0.526257       -14.3202
  18   2.0000      -0.477577       -12.9955
  19   2.0000      -0.473071       -12.8729
  20   0.0000       0.087692         2.3862
  21   0.0000       0.121526         3.3069
  22   0.0000       0.162929         4.4335
  23   0.0000       0.176427         4.8008
  24   0.0000       0.192634         5.2418

MULLIKEN ATOMIC CHARGES
-----------------------
   0 O :   -0.699346
   1 H :    0.352214
   2 H :    0.356264
   3 O :   -0.698127
   4 H :    0.362026
   5 H :    0.326969
   6 O :   -0.698127
   7 H :    0.326969
   8 H :    0.362026
   9 O :   -0.699346
  10 H :    0.352214
  11 H :    0.356264
Sum of atomic charges:    0.0000000

LOEWDIN ATOMIC CHARGES
----------------------
   0 O :   -0.312593
   1 H :    0.163433
   2 H :    0.185010
   3 O :   -0.347114
   4 H :    0.147137
   5 H :    0.164127
   6 O :   -0.347114
   7 H :    0.164127
   8 H :    0.147137
   9 O :   -0.312593
  10 H :    0.163433
  11 H :    0.185010

  Mayer bond orders larger than 0.100000
B(  0-O ,  1-H ) :   0.8413 B(  0-O ,  2-H ) :   0.8308 B(  3-O ,  4-H ) :   0.8240
B(  3-O ,  5-H ) :   0.8531 B(  6-O ,  7-H ) :   0.8531 B(  6-O ,  8-H ) :   0.8240
B(  9-O , 10-H ) :   0.8413 B(  9-O , 11-H ) :   0.8308

MP2 TOTAL ENERGY:     -305.265403922 Eh
FINAL SINGLE POINT ENERGY      -305.265403921768

DIPOLE MOMENT
-------------
                                X             Y             Z
Electronic contribution:     -0.00000       0.00000       0.10732
Nuclear contribution   :      0.00000       0.00000      -2.81375
                        -----------------------------------------
Total Dipole Moment    :     -0.00000       0.00000      -2.70643
                        -----------------------------------------
Magnitude (a.u.)       :      2.70643
Magnitude (Debye)      :      6.87920

Rotational constants in cm-1:     0.114636     0.058639     0.039208
Rotational constants in MHz :  3436.694988  1757.947235  1175.423137

                             ****ORCA TERMINATED NORMALLY****
TOTAL RUN TIME: 0 days 0 hours 0 minutes 15 seconds 17 msec
