                         Program Version 4.2.0 -  RELEASE  -
|  1> # 12h2o.su.etal.mol0,2,3,11
|  2> ! MP2 def2-TZVP EnGrad TightSCF
|  3>
|  4> %pal
|  5>     nprocs 6
|  6> end
|  7>
|  8> %maxcore 8000
|  9>
| 10> %scf
| 11>     ConvForced true
| 12> end
| 13>
| 14> *xyz 0 1
| 15> O   1.794470000   0.923410000   2.768350000
| 16> H   2.338250000   1.359750000   3.430940000
| 17> H   0.879480000   1.303000000   2.865760000
| 18> O   0.923410000  -1.794470000  -2.768350000
| 19> H   1.359750000  -2.338250000  -3.430940000
| 20> H   1.303000000  -0.879480000  -2.865760000
| 21> O  -1.752130000  -0.741530000  -2.896280000
| 22> H  -2.036450000  -0.920500000  -1.984040000
| 23> H  -0.921210000  -1.242140000  -2.984230000
| 24> O  -0.741530000   1.752130000   2.896280000
| 25> H  -0.920500000   2.036450000   1.984040000
| 26> H  -1.242140000   0.921210000   2.984230000
| 27> *
| 28>
| 29>                          ****END OF INPUT****

CARTESIAN COORDINATES (ANGSTROEM)
---------------------------------
  O      1.794470    0.923410    2.768350
  H      2.338250    1.359750    3.430940
  H      0.879480    1.303000    2.865760
  O      0.923410   -1.794470   -2.768350
  H      1.359750   -2.338250   -3.430940
  H      1.303000   -0.879480   -2.865760
  O     -1.752130   -0.741530   -2.896280
  H     -2.036450   -0.920500   -1.984040
  H     -0.921210   -1.242140   -2.984230
  O     -0.741530    1.752130    2.896280
  H     -0.920500    2.036450    1.984040
  H     -1.242140    0.921210    2.984230

 Total Charge           Charge          ....    0
 Multiplicity           Mult            ....    1
 Number of Electrons    NEL             ....   40
 Basis Dimension        Dim             ....  172

ORBITAL ENERGIES
----------------

  NO   OCC          E(Eh)            E(eV)
   0   2.0000     -20.599549      -560.5422
   1   2.0000     -20.589510      -560.2691
   2   2.0000     -20.534103      -558.7614
   3   2.0000     -20.518138      -558.3269
   4   2.0000      -1.384821       -37.6829
   5   2.0000      -1.367179       -37.2028
   6   2.0000      -1.316476       -35.8231
   7   2.0000      -1.300586       -35.3907
   8   2.0000      -0.742344       -20.2002
   9   2.0000      -0.734401       -19.9841
  10   2.0000      -0.691991       -18.8300
  11   2.0000      -0.685712       -18.6592
  12   2.0000      -0.619307       -16.8522
  13   2.0000      -0.606673       -16.5084
  14   2.0000      -0.559245       -15.2178
  15   2.0000      -0.558861       -15.2074
  16   2.0000      -0.526091       -14.3157
  17   2.0000      -0.515500       -14.0275
  18   2.0000      -0.481814       -13.1108
  19   2.0000      -0.468477       -12.7479
  20   0.0000       0.106213         2.8902
  21   0.0000       0.113369         3.0849
  22   0.0000       0.165726         4.5096
  23   0.0000       0.176172         4.7939
  24   0.0000       0.183524         4.9939

MULLIKEN ATOMIC CHARGES
-----------------------
   0 O :   -0.730653
   1 H :    0.325041
   2 H :    0.362950
   3 O :   -0.693649
   4 H :    0.353485
   5 H :    0.361472
   6 O :   -0.704785
   7 H :    0.326229
   8 H :    0.357251
   9 O :   -0.676897
  10 H :    0.359745
  11 H :    0.359812
Sum of atomic charges:    0.0000000

LOEWDIN ATOMIC CHARGES
----------------------
   0 O :   -0.371852
   1 H :    0.148399
   2 H :    0.141205
   3 O :   -0.309952
   4 H :    0.164043
   5 H :    0.188944
   6 O :   -0.349136
   7 H :    0.159079
   8 H :    0.147024
   9 O :   -0.270465
  10 H :    0.175608
  11 H :    0.177103

  Mayer bond orders larger than 0.100000
B(  0-O ,  1-H ) :   0.8608 B(  0-O ,  2-H ) :   0.7907 B(  3-O ,  4-H ) :   0.8412
B(  3-O ,  5-H ) :   0.8303 B(  6-O ,  7-H ) :   0.8600 B(  6-O ,  8-H ) :   0.8177
B(  9-O , 10-H ) :   0.8363 B(  9-O , 11-H ) :   0.8359

MP2 TOTAL ENERGY:     -305.266310235 Eh
FINAL SINGLE POINT ENERGY      -305.266310235434

DIPOLE MOMENT
-------------
                                X             Y             Z
Electronic contribution:     -0.14051       0.01164      -0.01560
Nuclear contribution   :      0.25948      -0.03250       0.00000
                        -----------------------------------------
Total Dipole Moment    :      0.11897      -0.02085      -0.01560
                        -----------------------------------------
Magnitude (a.u.)       :      0.12179
Magnitude (Debye)      :      0.30955

Rotational constants in cm-1:     0.118022     0.023413     0.019656
Rotational constants in MHz :  3538.204022   701.907524   589.272350

                             ****ORCA TERMINATED NORMALLY****
TOTAL RUN TIME: 0 days 0 hours 0 minutes 13 seconds 854 msec
