                         Program Version 4.2.0 -  RELEASE  -
|  1> # 12h2o.su.etal.mol0,2,3,4,5,8,10,11
|  2> ! MP2 def2-TZVP EnGrad TightSCF
|  3>
|  4> %pal
|  5>     nprocs 6
|  6> end
|  7>
|  8> %maxcore 8000
|  9>
| 10> %scf
| 11>     ConvForced true
| 12> end
| 13>
| 14> *xyz 0 1
| 15> O   1.794470000   0.923410000   2.768350000
| 16> H   2.338250000   1.359750000   3.430940000
| 17> H   0.879480000   1.303000000   2.865760000
| 18> O   0.923410000  -1.794470000  -2.768350000
| 19> H   1.359750000  -2.338250000  -3.430940000
| 20> H   1.303000000  -0.879480000  -2.865760000
| 21> O  -1.752130000  -0.741530000  -2.896280000
| 22> H  -2.036450000  -0.920500000  -1.984040000
| 23> H  -0.921210000  -1.242140000  -2.984230000
| 24> O  -0.885520000   1.737840000   0.052730000
| 25> H  -1.032320000   2.090180000  -0.841890000
| 26> H  -1.284090000   0.839590000   0.017130000
| 27> O   0.885520000  -1.737840000   0.052730000
| 28> H   1.284090000  -0.839590000   0.017130000
| 29> H   1.032320000  -2.090180000  -0.841890000
| 30> O   1.752130000   0.741530000  -2.896280000
| 31> H   2.036450000   0.920500000  -1.984040000
| 32> H   0.921210000   1.242140000  -2.984230000
| 33> O  -0.923410000   1.794470000  -2.768350000
| 34> H  -1.359750000   2.338250000  -3.430940000
| 35> H  -1.303000000   0.879480000  -2.865760000
| 36> O  -0.741530000   1.752130000   2.896280000
| 37> H  -0.920500000   2.036450000   1.984040000
| 38> H  -1.242140000   0.921210000   2.984230000
| 39> *
| 40>
| 41>                          ****END OF INPUT****

CARTESIAN COORDINATES (ANGSTROEM)
---------------------------------
  O      1.794470    0.923410    2.768350
  H      2.338250    1.359750    3.430940
  H      0.879480    1.303000    2.865760
  O      0.923410   -1.794470   -2.768350
  H      1.359750   -2.338250   -3.430940
  H      1.303000   -0.879480   -2.865760
  O     -1.752130   -0.741530   -2.896280
  H     -2.036450   -0.920500   -1.984040
  H     -0.921210   -1.242140   -2.984230
  O     -0.885520    1.737840    0.052730
  H     -1.032320    2.090180   -0.841890
  H     -1.284090    0.839590    0.017130
  O      0.885520   -1.737840    0.052730
  H      1.284090   -0.839590    0.017130
  H      1.032320   -2.090180   -0.841890
  O      1.752130    0.741530   -2.896280
  H      2.036450    0.920500   -1.984040
  H      0.921210    1.242140   -2.984230
  O     -0.923410    1.794470   -2.768350
  H     -1.359750    2.338250   -3.430940
  H     -1.303000    0.879480   -2.865760
  O     -0.741530    1.752130    2.896280
  H     -0.920500    2.036450    1.984040
  H     -1.242140    0.921210    2.984230

 Total Charge           Charge          ....    0
 Multiplicity           Mult            ....    1
 Number of Electrons    NEL             ....   80
 Basis Dimension        Dim             ....  344

ORBITAL ENERGIES
----------------

  NO   OCC          E(Eh)            E(eV)
   0   2.0000     -20.594104      -560.3940
   1   2.0000     -20.588470      -560.2408
   2   2.0000     -20.588183      -560.2329
   3   2.0000     -20.578947      -559.9816
   4   2.0000     -20.573623      -559.8367
   5   2.0000     -20.561629      -559.5104
   6   2.0000     -20.534039      -558.7596
   7   2.0000     -20.503197      -557.9203
   8   2.0000      -1.392090       -37.8807
   9   2.0000      -1.379720       -37.5441
  10   2.0000      -1.371328       -37.3157
  11   2.0000      -1.358972       -36.9795
  12   2.0000      -1.356200       -36.9041
  13   2.0000      -1.346385       -36.6370
  14   2.0000      -1.312799       -35.7231
  15   2.0000      -1.285167       -34.9712
  16   2.0000      -0.755165       -20.5491
  17   2.0000      -0.749948       -20.4071
  18   2.0000      -0.740326       -20.1453
  19   2.0000      -0.734827       -19.9957
  20   2.0000      -0.726533       -19.7700
  21   2.0000      -0.707767       -19.2593
  22   2.0000      -0.683138       -18.5891
  23   2.0000      -0.673206       -18.3189
  24   2.0000      -0.650651       -17.7051
  25   2.0000      -0.624582       -16.9957
  26   2.0000      -0.614348       -16.7173
  27   2.0000      -0.607465       -16.5300
  28   2.0000      -0.589391       -16.0381
  29   2.0000      -0.576928       -15.6990
  30   2.0000      -0.559717       -15.2307
  31   2.0000      -0.537912       -14.6373
  32   2.0000      -0.537087       -14.6149
  33   2.0000      -0.532153       -14.4806
  34   2.0000      -0.530531       -14.4365
  35   2.0000      -0.520772       -14.1709
  36   2.0000      -0.519878       -14.1466
  37   2.0000      -0.490384       -13.3440
  38   2.0000      -0.479481       -13.0473
  39   2.0000      -0.453673       -12.3451
  40   0.0000       0.086197         2.3455
  41   0.0000       0.127284         3.4636
  42   0.0000       0.133767         3.6400
  43   0.0000       0.140543         3.8244
  44   0.0000       0.157047         4.2735

MULLIKEN ATOMIC CHARGES
-----------------------
   0 O :   -0.733626
   1 H :    0.319006
   2 H :    0.369541
   3 O :   -0.757501
   4 H :    0.354690
   5 H :    0.380743
   6 O :   -0.704967
   7 H :    0.353035
   8 H :    0.385469
   9 O :   -0.712429
  10 H :    0.378686
  11 H :    0.326678
  12 O :   -0.700263
  13 H :    0.329440
  14 H :    0.360769
  15 O :   -0.706965
  16 H :    0.361070
  17 H :    0.381845
  18 O :   -0.759594
  19 H :    0.357338
  20 H :    0.382596
  21 O :   -0.694478
  22 H :    0.385608
  23 H :    0.343309
Sum of atomic charges:    0.0000000

LOEWDIN ATOMIC CHARGES
----------------------
   0 O :   -0.373861
   1 H :    0.146001
   2 H :    0.142867
   3 O :   -0.315076
   4 H :    0.161084
   5 H :    0.145260
   6 O :   -0.277992
   7 H :    0.169096
   8 H :    0.156599
   9 O :   -0.323861
  10 H :    0.153361
  11 H :    0.163361
  12 O :   -0.346205
  13 H :    0.163029
  14 H :    0.145099
  15 O :   -0.278293
  16 H :    0.172726
  17 H :    0.154972
  18 O :   -0.315109
  19 H :    0.162476
  20 H :    0.145500
  21 O :   -0.278399
  22 H :    0.158385
  23 H :    0.168981

  Mayer bond orders larger than 0.100000
B(  0-O ,  1-H ) :   0.8634 B(  0-O ,  2-H ) :   0.7786 B(  3-O ,  4-H ) :   0.8377
B(  3-O ,  5-H ) :   0.7348 B(  5-H , 15-O ) :   0.1112 B(  6-O ,  7-H ) :   0.8389
B(  6-O ,  8-H ) :   0.7811 B(  6-O , 20-H ) :   0.1146 B(  9-O , 10-H ) :   0.8013
B(  9-O , 11-H ) :   0.8464 B( 12-O , 13-H ) :   0.8487 B( 12-O , 14-H ) :   0.8211
B( 15-O , 16-H ) :   0.8338 B( 15-O , 17-H ) :   0.7883 B( 18-O , 19-H ) :   0.8367
B( 18-O , 20-H ) :   0.7328 B( 21-O , 22-H ) :   0.7997 B( 21-O , 23-H ) :   0.8460

MP2 TOTAL ENERGY:     -610.583414971 Eh
FINAL SINGLE POINT ENERGY      -610.583414971273

DIPOLE MOMENT
-------------
                                X             Y             Z
Electronic contribution:     -0.12060       0.05735      -0.33882
Nuclear contribution   :     -0.87464       0.22418      -1.49504
                        -----------------------------------------
Total Dipole Moment    :     -0.99523       0.28153      -1.83386
                        -----------------------------------------
Magnitude (a.u.)       :      2.10542
Magnitude (Debye)      :      5.35155

Rotational constants in cm-1:     0.034822     0.016645     0.014269
Rotational constants in MHz :  1043.940077   498.995119   427.768170

                             ****ORCA TERMINATED NORMALLY****
TOTAL RUN TIME: 0 days 0 hours 3 minutes 2 seconds 785 msec
