                         Program Version 4.2.0 -  RELEASE  -
|  1> # 12mecn.remya.etal.2.mol0,8,9
|  2> ! MP2 def2-TZVP EnGrad TightSCF
|  3>
|  4> %pal
|  5>     nprocs 6
|  6> end
|  7>
|  8> %maxcore 8000
|  9>
| 10> %scf
| 11>     ConvForced true
| 12> end
| 13>
| 14> *xyz 0 1
| 15> C  -0.869520000  -3.929380000   1.700199000
| 16> H  -0.057420000  -3.268850000   2.015352000
| 17> H  -0.697530000  -4.930670000   2.101524000
| 18> H  -1.821490000  -3.546590000   2.077146000
| 19> C  -0.916080000  -3.969960000   0.256749000
| 20> N  -0.955390000  -3.995980000  -0.909290000
| 21> C   1.912641000  -2.468050000  -1.750510000
| 22> H   2.876947000  -2.793500000  -2.151200000
| 23> H   1.688016000  -1.463720000  -2.122170000
| 24> H   1.123460000  -3.154780000  -2.069590000
| 25> C   1.977850000  -2.444240000  -0.306900000
| 26> N   2.036566000  -2.426130000   0.858249000
| 27> C   0.923766000   4.000693000  -1.575910000
| 28> H   0.011949000   4.478423000  -1.939550000
| 29> H   0.947903000   2.966558000  -1.929960000
| 30> H   1.805950000   4.519548000  -1.956520000
| 31> C   0.942834000   3.994846000  -0.131200000
| 32> N   0.960035000   3.982544000   1.035639000
| 33> *
| 34>
| 35>                          ****END OF INPUT****

CARTESIAN COORDINATES (ANGSTROEM)
---------------------------------
  C     -0.869520   -3.929380    1.700199
  H     -0.057420   -3.268850    2.015352
  H     -0.697530   -4.930670    2.101524
  H     -1.821490   -3.546590    2.077146
  C     -0.916080   -3.969960    0.256749
  N     -0.955390   -3.995980   -0.909290
  C      1.912641   -2.468050   -1.750510
  H      2.876947   -2.793500   -2.151200
  H      1.688016   -1.463720   -2.122170
  H      1.123460   -3.154780   -2.069590
  C      1.977850   -2.444240   -0.306900
  N      2.036566   -2.426130    0.858249
  C      0.923766    4.000693   -1.575910
  H      0.011949    4.478423   -1.939550
  H      0.947903    2.966558   -1.929960
  H      1.805950    4.519548   -1.956520
  C      0.942834    3.994846   -0.131200
  N      0.960035    3.982544    1.035639

 Total Charge           Charge          ....    0
 Multiplicity           Mult            ....    1
 Number of Electrons    NEL             ....   66
 Basis Dimension        Dim             ....  333

ORBITAL ENERGIES
----------------

  NO   OCC          E(Eh)            E(eV)
   0   2.0000     -15.573374      -423.7730
   1   2.0000     -15.571513      -423.7224
   2   2.0000     -15.571486      -423.7217
   3   2.0000     -11.285880      -307.1044
   4   2.0000     -11.283512      -307.0400
   5   2.0000     -11.282824      -307.0212
   6   2.0000     -11.280079      -306.9466
   7   2.0000     -11.274255      -306.7881
   8   2.0000     -11.271421      -306.7109
   9   2.0000      -1.218135       -33.1471
  10   2.0000      -1.214367       -33.0446
  11   2.0000      -1.214138       -33.0384
  12   2.0000      -1.045207       -28.4415
  13   2.0000      -1.037444       -28.2303
  14   2.0000      -1.034438       -28.1485
  15   2.0000      -0.701290       -19.0831
  16   2.0000      -0.695372       -18.9220
  17   2.0000      -0.691075       -18.8051
  18   2.0000      -0.635085       -17.2815
  19   2.0000      -0.631547       -17.1853
  20   2.0000      -0.631335       -17.1795
  21   2.0000      -0.624252       -16.9868
  22   2.0000      -0.621712       -16.9176
  23   2.0000      -0.615699       -16.7540
  24   2.0000      -0.559393       -15.2219
  25   2.0000      -0.556187       -15.1346
  26   2.0000      -0.555741       -15.1225
  27   2.0000      -0.460077       -12.5193
  28   2.0000      -0.459921       -12.5151
  29   2.0000      -0.457922       -12.4607
  30   2.0000      -0.457160       -12.4399
  31   2.0000      -0.456980       -12.4350
  32   2.0000      -0.455734       -12.4011
  33   0.0000       0.105274         2.8646
  34   0.0000       0.130286         3.5453
  35   0.0000       0.141051         3.8382
  36   0.0000       0.164184         4.4677
  37   0.0000       0.170028         4.6267

MULLIKEN ATOMIC CHARGES
-----------------------
   0 C :   -0.284044
   1 H :    0.206003
   2 H :    0.166988
   3 H :    0.167333
   4 C :   -0.103551
   5 N :   -0.152050
   6 C :   -0.282880
   7 H :    0.167758
   8 H :    0.159969
   9 H :    0.205024
  10 C :   -0.105531
  11 N :   -0.145016
  12 C :   -0.278005
  13 H :    0.172850
  14 H :    0.167838
  15 H :    0.172431
  16 C :   -0.145447
  17 N :   -0.089668
Sum of atomic charges:   -0.0000000

LOEWDIN ATOMIC CHARGES
----------------------
   0 C :   -0.281164
   1 H :    0.157754
   2 H :    0.152096
   3 H :    0.151842
   4 C :   -0.207751
   5 N :    0.028108
   6 C :   -0.283130
   7 H :    0.151091
   8 H :    0.151010
   9 H :    0.156873
  10 C :   -0.209531
  11 N :    0.032803
  12 C :   -0.283887
  13 H :    0.151657
  14 H :    0.152150
  15 H :    0.151848
  16 C :   -0.219727
  17 N :    0.047960

  Mayer bond orders larger than 0.100000
B(  0-C ,  1-H ) :   0.9016 B(  0-C ,  2-H ) :   0.9146 B(  0-C ,  3-H ) :   0.9160
B(  0-C ,  4-C ) :   0.9013 B(  4-C ,  5-N ) :   2.7746 B(  6-C ,  7-H ) :   0.9168
B(  6-C ,  8-H ) :   0.9164 B(  6-C ,  9-H ) :   0.9017 B(  6-C , 10-C ) :   0.9012
B( 10-C , 11-N ) :   2.7723 B( 12-C , 13-H ) :   0.9163 B( 12-C , 14-H ) :   0.9181
B( 12-C , 15-H ) :   0.9167 B( 12-C , 16-C ) :   0.9018 B( 16-C , 17-N ) :   2.8351

MP2 TOTAL ENERGY:     -397.458794753 Eh
FINAL SINGLE POINT ENERGY      -397.458794753378

DIPOLE MOMENT
-------------
                                X             Y             Z
Electronic contribution:      0.07848      -0.03994       3.16272
Nuclear contribution   :     -0.12210       0.05671      -4.64242
                        -----------------------------------------
Total Dipole Moment    :     -0.04362       0.01676      -1.47971
                        -----------------------------------------
Magnitude (a.u.)       :      1.48044
Magnitude (Debye)      :      3.76299

Rotational constants in cm-1:     0.051150     0.010396     0.009904
Rotational constants in MHz :  1533.439974   311.654138   296.919531

                             ****ORCA TERMINATED NORMALLY****
TOTAL RUN TIME: 0 days 0 hours 2 minutes 52 seconds 27 msec
