                         Program Version 4.2.0 -  RELEASE  -
|  1> # 12h2o.su.etal.mol5,7,8,10,11
|  2> ! MP2 def2-TZVP EnGrad TightSCF
|  3>
|  4> %pal
|  5>     nprocs 6
|  6> end
|  7>
|  8> %maxcore 8000
|  9>
| 10> %scf
| 11>     ConvForced true
| 12> end
| 13>
| 14> *xyz 0 1
| 15> O   0.885520000  -1.737840000   0.052730000
| 16> H   1.284090000  -0.839590000   0.017130000
| 17> H   1.032320000  -2.090180000  -0.841890000
| 18> O  -1.737840000  -0.885520000  -0.052730000
| 19> H  -2.090180000  -1.032320000   0.841890000
| 20> H  -0.839590000  -1.284090000  -0.017130000
| 21> O   1.752130000   0.741530000  -2.896280000
| 22> H   2.036450000   0.920500000  -1.984040000
| 23> H   0.921210000   1.242140000  -2.984230000
| 24> O  -0.923410000   1.794470000  -2.768350000
| 25> H  -1.359750000   2.338250000  -3.430940000
| 26> H  -1.303000000   0.879480000  -2.865760000
| 27> O  -0.741530000   1.752130000   2.896280000
| 28> H  -0.920500000   2.036450000   1.984040000
| 29> H  -1.242140000   0.921210000   2.984230000
| 30> *
| 31>
| 32>                          ****END OF INPUT****

CARTESIAN COORDINATES (ANGSTROEM)
---------------------------------
  O      0.885520   -1.737840    0.052730
  H      1.284090   -0.839590    0.017130
  H      1.032320   -2.090180   -0.841890
  O     -1.737840   -0.885520   -0.052730
  H     -2.090180   -1.032320    0.841890
  H     -0.839590   -1.284090   -0.017130
  O      1.752130    0.741530   -2.896280
  H      2.036450    0.920500   -1.984040
  H      0.921210    1.242140   -2.984230
  O     -0.923410    1.794470   -2.768350
  H     -1.359750    2.338250   -3.430940
  H     -1.303000    0.879480   -2.865760
  O     -0.741530    1.752130    2.896280
  H     -0.920500    2.036450    1.984040
  H     -1.242140    0.921210    2.984230

 Total Charge           Charge          ....    0
 Multiplicity           Mult            ....    1
 Number of Electrons    NEL             ....   50
 Basis Dimension        Dim             ....  215

ORBITAL ENERGIES
----------------

  NO   OCC          E(Eh)            E(eV)
   0   2.0000     -20.598873      -560.5238
   1   2.0000     -20.589514      -560.2692
   2   2.0000     -20.561738      -559.5133
   3   2.0000     -20.548059      -559.1411
   4   2.0000     -20.543894      -559.0278
   5   2.0000      -1.379502       -37.5382
   6   2.0000      -1.367367       -37.2080
   7   2.0000      -1.340889       -36.4874
   8   2.0000      -1.329868       -36.1875
   9   2.0000      -1.324584       -36.0438
  10   2.0000      -0.737239       -20.0613
  11   2.0000      -0.734552       -19.9882
  12   2.0000      -0.703834       -19.1523
  13   2.0000      -0.699779       -19.0420
  14   2.0000      -0.698081       -18.9957
  15   2.0000      -0.619881       -16.8678
  16   2.0000      -0.609084       -16.5740
  17   2.0000      -0.578878       -15.7521
  18   2.0000      -0.575331       -15.6556
  19   2.0000      -0.568648       -15.4737
  20   2.0000      -0.529452       -14.4071
  21   2.0000      -0.528011       -14.3679
  22   2.0000      -0.506001       -13.7690
  23   2.0000      -0.495123       -13.4730
  24   2.0000      -0.491590       -13.3768
  25   0.0000       0.084298         2.2939
  26   0.0000       0.118670         3.2292
  27   0.0000       0.126702         3.4477
  28   0.0000       0.156455         4.2574
  29   0.0000       0.184273         5.0143

MULLIKEN ATOMIC CHARGES
-----------------------
   0 O :   -0.681042
   1 H :    0.352621
   2 H :    0.363685
   3 O :   -0.714949
   4 H :    0.323374
   5 H :    0.355818
   6 O :   -0.701056
   7 H :    0.319301
   8 H :    0.362585
   9 O :   -0.699678
  10 H :    0.352511
  11 H :    0.368974
  12 O :   -0.676123
  13 H :    0.342589
  14 H :    0.331389
Sum of atomic charges:   -0.0000000

LOEWDIN ATOMIC CHARGES
----------------------
   0 O :   -0.287874
   1 H :    0.176701
   2 H :    0.175493
   3 O :   -0.361895
   4 H :    0.155722
   5 H :    0.142085
   6 O :   -0.345086
   7 H :    0.154192
   8 H :    0.149269
   9 O :   -0.311558
  10 H :    0.163811
  11 H :    0.191133
  12 O :   -0.331763
  13 H :    0.166746
  14 H :    0.163024

  Mayer bond orders larger than 0.100000
B(  0-O ,  1-H ) :   0.8356 B(  0-O ,  2-H ) :   0.8329 B(  3-O ,  4-H ) :   0.8601
B(  3-O ,  5-H ) :   0.7947 B(  6-O ,  7-H ) :   0.8622 B(  6-O ,  8-H ) :   0.8105
B(  9-O , 10-H ) :   0.8415 B(  9-O , 11-H ) :   0.8232 B( 12-O , 13-H ) :   0.8489
B( 12-O , 14-H ) :   0.8555

MP2 TOTAL ENERGY:     -381.585884412 Eh
FINAL SINGLE POINT ENERGY      -381.585884412177

DIPOLE MOMENT
-------------
                                X             Y             Z
Electronic contribution:      0.17139       0.02450       0.01486
Nuclear contribution   :     -0.79143      -0.19784      -0.63259
                        -----------------------------------------
Total Dipole Moment    :     -0.62004      -0.17335      -0.61774
                        -----------------------------------------
Magnitude (a.u.)       :      0.89224
Magnitude (Debye)      :      2.26790

Rotational constants in cm-1:     0.055567     0.030881     0.026639
Rotational constants in MHz :  1665.863771   925.791139   798.608655

                             ****ORCA TERMINATED NORMALLY****
TOTAL RUN TIME: 0 days 0 hours 0 minutes 29 seconds 740 msec
