                         Program Version 3.0.3 - RELEASE   -
|  1> ! wB97X-D3 MA-Def2-TZVP def2-TZVP/J RIJCOSX TightSCF Grid4
|  2>
|  3> %pal nprocs 1 end
|  4>
|  5> %scf
|  6>         maxiter 400
|  7> end
|  8>
|  9> %cosmo
| 10>         SMD true
| 11>         solvent "WATER"
| 12> end
| 13>
| 14> * xyz  0  1
| 15> O  1.137516	-0.247546	1.017017
| 16> H  0.393060	-0.141760	0.363809
| 17> H  1.875978	-0.514251	0.436152
| 18> O  -0.908444	0.078874	-0.820433
| 19> H  -0.938282	1.053868	-0.899676
| 20> H  -1.710116	-0.113757	-0.293098
| 21> **                         ****END OF INPUT****

CARTESIAN COORDINATES (ANGSTROEM)
---------------------------------
  O      1.137516   -0.247546    1.017017
  H      0.393060   -0.141760    0.363809
  H      1.875978   -0.514251    0.436152
  O     -0.908444    0.078874   -0.820433
  H     -0.938282    1.053868   -0.899676
  H     -1.710116   -0.113757   -0.293098

 Total Charge           Charge          ....    0
 Multiplicity           Mult            ....    1
 Number of Electrons    NEL             ....   20
 Basis Dimension        Dim             ....   94

ORBITAL ENERGIES
----------------

  NO   OCC          E(Eh)            E(eV)
   0   2.0000     -19.250256      -523.8261
   1   2.0000     -19.224401      -523.1225
   2   2.0000      -1.136261       -30.9192
   3   2.0000      -1.106355       -30.1055
   4   2.0000      -0.629040       -17.1170
   5   2.0000      -0.611952       -16.6521
   6   2.0000      -0.521571       -14.1927
   7   2.0000      -0.490751       -13.3540
   8   2.0000      -0.428428       -11.6581
   9   2.0000      -0.413077       -11.2404
  10   0.0000       0.079671         2.1680
  11   0.0000       0.119950         3.2640
  12   0.0000       0.139593         3.7985
  13   0.0000       0.142595         3.8802
  14   0.0000       0.171460         4.6657

MULLIKEN ATOMIC CHARGES
-----------------------
   0 O :   -0.817084
   1 H :    0.385915
   2 H :    0.391658
   3 O :   -0.783028
   4 H :    0.411413
   5 H :    0.411125
Sum of atomic charges:    0.0000000

LOEWDIN ATOMIC CHARGES
----------------------
   0 O :   -0.465739
   1 H :    0.189314
   2 H :    0.209383
   3 O :   -0.377526
   4 H :    0.222231
   5 H :    0.222337

  Mayer bond orders larger than 0.1
B(  0-O ,  1-H ) :   0.8077 B(  0-O ,  2-H ) :   0.8534 B(  3-O ,  4-H ) :   0.8450
B(  3-O ,  5-H ) :   0.8451

Dispersion correction           -0.000541643
FINAL SINGLE POINT ENERGY      -152.910647720576

DIPOLE MOMENT
-------------
                                X             Y             Z
Electronic contribution:     -0.19076       0.03827      -0.16611
Nuclear contribution   :     -0.69711       0.51727      -0.65422
                        -----------------------------------------
Total Dipole Moment    :     -0.88787       0.55553      -0.82033
                        -----------------------------------------
Magnitude (a.u.)       :      1.33036
Magnitude (Debye)      :      3.38152

                             ****ORCA TERMINATED NORMALLY****
TOTAL RUN TIME: 0 days 0 hours 0 minutes 19 seconds 843 msec
