                         Program Version 3.0.3 - RELEASE   -
|  1> ! wB97X-D3 Def2-TZVP def2-TZVP/J RIJCOSX TightSCF Grid4
|  2>
|  3> %pal nprocs 12 end
|  4>
|  5> %scf
|  6>         maxiter 400
|  7> end
|  8>
|  9> * xyz  0  1
| 10> O  1.119114	-0.133853	0.975252
| 11> H  0.482644	-0.131862	0.221763
| 12> H  1.867213	-0.640830	0.611010
| 13> O  -0.988983	0.115575	-0.927867
| 14> H  -0.993867	1.086528	-0.818014
| 15> H  -1.636408	-0.180130	-0.258373
| 16> **                         ****END OF INPUT****

CARTESIAN COORDINATES (ANGSTROEM)
---------------------------------
  O      1.119114   -0.133853    0.975252
  H      0.482644   -0.131862    0.221763
  H      1.867213   -0.640830    0.611010
  O     -0.988983    0.115575   -0.927867
  H     -0.993867    1.086528   -0.818014
  H     -1.636408   -0.180130   -0.258373

 Total Charge           Charge          ....    0
 Multiplicity           Mult            ....    1
 Number of Electrons    NEL             ....   20
 Basis Dimension        Dim             ....   86

ORBITAL ENERGIES
----------------

  NO   OCC          E(Eh)            E(eV)
   0   2.0000     -19.266268      -524.2618
   1   2.0000     -19.206709      -522.6411
   2   2.0000      -1.153966       -31.4010
   3   2.0000      -1.094730       -29.7891
   4   2.0000      -0.651998       -17.7418
   5   2.0000      -0.602197       -16.3866
   6   2.0000      -0.524819       -14.2811
   7   2.0000      -0.476921       -12.9777
   8   2.0000      -0.435874       -11.8607
   9   2.0000      -0.390772       -10.6335
  10   0.0000       0.088151         2.3987
  11   0.0000       0.146832         3.9955
  12   0.0000       0.165592         4.5060
  13   0.0000       0.271704         7.3934
  14   0.0000       0.416473        11.3328

MULLIKEN ATOMIC CHARGES
-----------------------
   0 O :   -0.674952
   1 H :    0.314451
   2 H :    0.320297
   3 O :   -0.660005
   4 H :    0.350068
   5 H :    0.350140
Sum of atomic charges:    0.0000000

LOEWDIN ATOMIC CHARGES
----------------------
   0 O :   -0.352813
   1 H :    0.139692
   2 H :    0.157401
   3 O :   -0.288671
   4 H :    0.172117
   5 H :    0.172275

  Mayer bond orders larger than 0.1
B(  0-O ,  1-H ) :   0.8629 B(  0-O ,  2-H ) :   0.9092 B(  3-O ,  4-H ) :   0.8863
B(  3-O ,  5-H ) :   0.8863

Dispersion correction           -0.000547535
FINAL SINGLE POINT ENERGY      -152.885187217206

DIPOLE MOMENT
-------------
                                X             Y             Z
Electronic contribution:     -0.10912       0.00976      -0.09045
Nuclear contribution   :     -0.45004       0.14172      -0.28166
                        -----------------------------------------
Total Dipole Moment    :     -0.55916       0.15148      -0.37211
                        -----------------------------------------
Magnitude (a.u.)       :      0.68853
Magnitude (Debye)      :      1.75009

                             ****ORCA TERMINATED NORMALLY****
TOTAL RUN TIME: 0 days 0 hours 0 minutes 48 seconds 719 msec
