                         Program Version 3.0.3 - RELEASE   -
|  1> ! B3LYP Def2-TZVP def2-TZVP/J RIJCOSX TightSCF Grid4 D3BJ
|  2>
|  3> %pal nprocs 12 end
|  4>
|  5> %scf
|  6>         maxiter 400
|  7> end
|  8>
|  9> * xyz  0  1
| 10> O  1.171575	-0.281205	1.044558
| 11> H  0.443848	-0.149509	0.409290
| 12> H  1.906579	-0.523423	0.465880
| 13> O  -0.925475	0.124486	-0.824605
| 14> H  -1.030347	1.076329	-0.963014
| 15> H  -1.716467	-0.131250	-0.328337
| 16> **                         ****END OF INPUT****

CARTESIAN COORDINATES (ANGSTROEM)
---------------------------------
  O      1.171575   -0.281205    1.044558
  H      0.443848   -0.149509    0.409290
  H      1.906579   -0.523423    0.465880
  O     -0.925475    0.124486   -0.824605
  H     -1.030347    1.076329   -0.963014
  H     -1.716467   -0.131250   -0.328337

 Total Charge           Charge          ....    0
 Multiplicity           Mult            ....    1
 Number of Electrons    NEL             ....   20
 Basis Dimension        Dim             ....   86

ORBITAL ENERGIES
----------------

  NO   OCC          E(Eh)            E(eV)
   0   2.0000     -19.160184      -521.3751
   1   2.0000     -19.090374      -519.4755
   2   2.0000      -1.044482       -28.4218
   3   2.0000      -0.976296       -26.5664
   4   2.0000      -0.560266       -15.2456
   5   2.0000      -0.497585       -13.5400
   6   2.0000      -0.426635       -11.6093
   7   2.0000      -0.368663       -10.0318
   8   2.0000      -0.338138        -9.2012
   9   2.0000      -0.283121        -7.7041
  10   0.0000      -0.004334        -0.1179
  11   0.0000       0.062467         1.6998
  12   0.0000       0.074473         2.0265
  13   0.0000       0.191094         5.1999
  14   0.0000       0.316776         8.6199

MULLIKEN ATOMIC CHARGES
-----------------------
   0 O :   -0.663577
   1 H :    0.325746
   2 H :    0.303856
   3 O :   -0.636728
   4 H :    0.333911
   5 H :    0.336791
Sum of atomic charges:   -0.0000000

LOEWDIN ATOMIC CHARGES
----------------------
   0 O :   -0.341943
   1 H :    0.134116
   2 H :    0.150320
   3 O :   -0.275020
   4 H :    0.165379
   5 H :    0.167148

  Mayer bond orders larger than 0.1
B(  0-O ,  1-H ) :   0.8662 B(  0-O ,  2-H ) :   0.9183 B(  3-O ,  4-H ) :   0.8947
B(  3-O ,  5-H ) :   0.8938

Dispersion correction           -0.002247345
FINAL SINGLE POINT ENERGY      -152.862328431225

DIPOLE MOMENT
-------------
                                X             Y             Z
Electronic contribution:     -0.08048      -0.03886      -0.02582
Nuclear contribution   :     -0.73962       0.48742      -0.71257
                        -----------------------------------------
Total Dipole Moment    :     -0.82010       0.44856      -0.73839
                        -----------------------------------------
Magnitude (a.u.)       :      1.19122
Magnitude (Debye)      :      3.02783

                             ****ORCA TERMINATED NORMALLY****
TOTAL RUN TIME: 0 days 0 hours 0 minutes 48 seconds 801 msec
