                         Program Version 3.0.3 - RELEASE   -
|  1> ! B3LYP Def2-TZVP def2-TZVP/J RIJCOSX TightSCF Grid4 D3BJ COSMO
|  2>
|  3> %pal nprocs 12 end
|  4>
|  5> %scf
|  6>         maxiter 400
|  7> end
|  8>
|  9> %cosmo
| 10>         SMD true
| 11>         solvent "WATER"
| 12> end
| 13>
| 14> * xyz  0  1
| 15> O  1.150924	-0.282354	1.020049
| 16> H  0.382119	-0.162131	0.418934
| 17> H  1.871184	-0.458816	0.396419
| 18> O  -0.902426	0.076142	-0.786964
| 19> H  -0.910459	1.037966	-0.913996
| 20> H  -1.741629	-0.095380	-0.330670
| 21> **                         ****END OF INPUT****

CARTESIAN COORDINATES (ANGSTROEM)
---------------------------------
  O      1.150924   -0.282354    1.020049
  H      0.382119   -0.162131    0.418934
  H      1.871184   -0.458816    0.396419
  O     -0.902426    0.076142   -0.786964
  H     -0.910459    1.037966   -0.913996
  H     -1.741629   -0.095380   -0.330670

 Total Charge           Charge          ....    0
 Multiplicity           Mult            ....    1
 Number of Electrons    NEL             ....   20
 Basis Dimension        Dim             ....   86

ORBITAL ENERGIES
----------------

  NO   OCC          E(Eh)            E(eV)
   0   2.0000     -19.137933      -520.7696
   1   2.0000     -19.108960      -519.9812
   2   2.0000      -1.021186       -27.7879
   3   2.0000      -0.990990       -26.9662
   4   2.0000      -0.530348       -14.4315
   5   2.0000      -0.509907       -13.8753
   6   2.0000      -0.417512       -11.3611
   7   2.0000      -0.384552       -10.4642
   8   2.0000      -0.327538        -8.9128
   9   2.0000      -0.308873        -8.4049
  10   0.0000       0.028463         0.7745
  11   0.0000       0.076522         2.0823
  12   0.0000       0.117076         3.1858
  13   0.0000       0.195769         5.3271
  14   0.0000       0.325939         8.8693

MULLIKEN ATOMIC CHARGES
-----------------------
   0 O :   -0.779331
   1 H :    0.361570
   2 H :    0.367210
   3 O :   -0.723885
   4 H :    0.386689
   5 H :    0.387748
Sum of atomic charges:   -0.0000000

LOEWDIN ATOMIC CHARGES
----------------------
   0 O :   -0.395574
   1 H :    0.139758
   2 H :    0.174498
   3 O :   -0.297338
   4 H :    0.188779
   5 H :    0.189877

  Mayer bond orders larger than 0.1
B(  0-O ,  1-H ) :   0.8148 B(  0-O ,  2-H ) :   0.8752 B(  1-H ,  3-O ) :   0.1170
B(  3-O ,  4-H ) :   0.8567 B(  3-O ,  5-H ) :   0.8565

Dispersion correction           -0.002315048
FINAL SINGLE POINT ENERGY      -152.884874163230

DIPOLE MOMENT
-------------
                                X             Y             Z
Electronic contribution:     -0.20258       0.04005      -0.15897
Nuclear contribution   :     -0.74561       0.61101      -0.74536
                        -----------------------------------------
Total Dipole Moment    :     -0.94819       0.65106      -0.90434
                        -----------------------------------------
Magnitude (a.u.)       :      1.46314
Magnitude (Debye)      :      3.71901

                             ****ORCA TERMINATED NORMALLY****
TOTAL RUN TIME: 0 days 0 hours 0 minutes 50 seconds 62 msec
