                         Program Version 3.0.3 - RELEASE   -
|  1> ! wB97X-D3 Def2-TZVP def2-TZVP/J RIJCOSX TightSCF Grid4
|  2>
|  3> %pal nprocs 12 end
|  4>
|  5> %scf
|  6>         maxiter 400
|  7> end
|  8>
|  9> * xyz  0  1
| 10> O  1.171575	-0.281205	1.044558
| 11> H  0.443848	-0.149509	0.409290
| 12> H  1.906579	-0.523423	0.465880
| 13> O  -0.925475	0.124486	-0.824605
| 14> H  -1.030347	1.076329	-0.963014
| 15> H  -1.716467	-0.131250	-0.328337
| 16> **                         ****END OF INPUT****

CARTESIAN COORDINATES (ANGSTROEM)
---------------------------------
  O      1.171575   -0.281205    1.044558
  H      0.443848   -0.149509    0.409290
  H      1.906579   -0.523423    0.465880
  O     -0.925475    0.124486   -0.824605
  H     -1.030347    1.076329   -0.963014
  H     -1.716467   -0.131250   -0.328337

 Total Charge           Charge          ....    0
 Multiplicity           Mult            ....    1
 Number of Electrons    NEL             ....   20
 Basis Dimension        Dim             ....   86

ORBITAL ENERGIES
----------------

  NO   OCC          E(Eh)            E(eV)
   0   2.0000     -19.266097      -524.2572
   1   2.0000     -19.197383      -522.3873
   2   2.0000      -1.158594       -31.5269
   3   2.0000      -1.091163       -29.6921
   4   2.0000      -0.660443       -17.9716
   5   2.0000      -0.599612       -16.3163
   6   2.0000      -0.526929       -14.3385
   7   2.0000      -0.470165       -12.7938
   8   2.0000      -0.436606       -11.8807
   9   2.0000      -0.383784       -10.4433
  10   0.0000       0.087135         2.3711
  11   0.0000       0.152940         4.1617
  12   0.0000       0.164116         4.4658
  13   0.0000       0.280163         7.6236
  14   0.0000       0.411871        11.2076

MULLIKEN ATOMIC CHARGES
-----------------------
   0 O :   -0.674956
   1 H :    0.326251
   2 H :    0.316965
   3 O :   -0.665247
   4 H :    0.347301
   5 H :    0.349686
Sum of atomic charges:   -0.0000000

LOEWDIN ATOMIC CHARGES
----------------------
   0 O :   -0.341014
   1 H :    0.133400
   2 H :    0.151365
   3 O :   -0.278105
   4 H :    0.166355
   5 H :    0.168000

  Mayer bond orders larger than 0.1
B(  0-O ,  1-H ) :   0.8700 B(  0-O ,  2-H ) :   0.9127 B(  3-O ,  4-H ) :   0.8882
B(  3-O ,  5-H ) :   0.8872

Dispersion correction           -0.000541193
FINAL SINGLE POINT ENERGY      -152.886442363431

DIPOLE MOMENT
-------------
                                X             Y             Z
Electronic contribution:     -0.07978      -0.03505      -0.02732
Nuclear contribution   :     -0.73962       0.48742      -0.71257
                        -----------------------------------------
Total Dipole Moment    :     -0.81940       0.45237      -0.73989
                        -----------------------------------------
Magnitude (a.u.)       :      1.19310
Magnitude (Debye)      :      3.03263

                             ****ORCA TERMINATED NORMALLY****
TOTAL RUN TIME: 0 days 0 hours 0 minutes 49 seconds 173 msec
