                         Program Version 3.0.3 - RELEASE   -
|  1> ! wB97X-D3 MA-Def2-TZVP def2-TZVP/J RIJCOSX TightSCF Grid4
|  2>
|  3> %pal nprocs 1 end
|  4>
|  5> %scf
|  6>         maxiter 400
|  7> end
|  8>
|  9> %cosmo
| 10>         SMD true
| 11>         solvent "WATER"
| 12> end
| 13>
| 14> * xyz  0  1
| 15> O  1.150924	-0.282354	1.020049
| 16> H  0.382119	-0.162131	0.418934
| 17> H  1.871184	-0.458816	0.396419
| 18> O  -0.902426	0.076142	-0.786964
| 19> H  -0.910459	1.037966	-0.913996
| 20> H  -1.741629	-0.095380	-0.330670
| 21> **                         ****END OF INPUT****

CARTESIAN COORDINATES (ANGSTROEM)
---------------------------------
  O      1.150924   -0.282354    1.020049
  H      0.382119   -0.162131    0.418934
  H      1.871184   -0.458816    0.396419
  O     -0.902426    0.076142   -0.786964
  H     -0.910459    1.037966   -0.913996
  H     -1.741629   -0.095380   -0.330670

 Total Charge           Charge          ....    0
 Multiplicity           Mult            ....    1
 Number of Electrons    NEL             ....   20
 Basis Dimension        Dim             ....   94

ORBITAL ENERGIES
----------------

  NO   OCC          E(Eh)            E(eV)
   0   2.0000     -19.247797      -523.7592
   1   2.0000     -19.223051      -523.0858
   2   2.0000      -1.138277       -30.9741
   3   2.0000      -1.110277       -30.2122
   4   2.0000      -0.633100       -17.2275
   5   2.0000      -0.616137       -16.7659
   6   2.0000      -0.522028       -14.2051
   7   2.0000      -0.488998       -13.3063
   8   2.0000      -0.428833       -11.6692
   9   2.0000      -0.413760       -11.2590
  10   0.0000       0.080475         2.1898
  11   0.0000       0.120413         3.2766
  12   0.0000       0.139357         3.7921
  13   0.0000       0.143437         3.9031
  14   0.0000       0.171405         4.6642

MULLIKEN ATOMIC CHARGES
-----------------------
   0 O :   -0.813423
   1 H :    0.388567
   2 H :    0.390399
   3 O :   -0.782478
   4 H :    0.408551
   5 H :    0.408384
Sum of atomic charges:   -0.0000000

LOEWDIN ATOMIC CHARGES
----------------------
   0 O :   -0.451494
   1 H :    0.181693
   2 H :    0.204550
   3 O :   -0.367220
   4 H :    0.216133
   5 H :    0.216338

  Mayer bond orders larger than 0.1
B(  0-O ,  1-H ) :   0.8114 B(  0-O ,  2-H ) :   0.8550 B(  3-O ,  4-H ) :   0.8468
B(  3-O ,  5-H ) :   0.8467

Dispersion correction           -0.000545492
FINAL SINGLE POINT ENERGY      -152.911533252340

DIPOLE MOMENT
-------------
                                X             Y             Z
Electronic contribution:     -0.18905       0.04452      -0.15997
Nuclear contribution   :     -0.74561       0.61101      -0.74536
                        -----------------------------------------
Total Dipole Moment    :     -0.93466       0.65553      -0.90533
                        -----------------------------------------
Magnitude (a.u.)       :      1.45703
Magnitude (Debye)      :      3.70348

                             ****ORCA TERMINATED NORMALLY****
TOTAL RUN TIME: 0 days 0 hours 0 minutes 17 seconds 98 msec
