                         Program Version 4.2.0 -  RELEASE  -
|  1> # 12h2o.su.etal.mol0,4,8,9,11
|  2> ! MP2 def2-TZVP EnGrad TightSCF
|  3>
|  4> %pal
|  5>     nprocs 6
|  6> end
|  7>
|  8> %maxcore 8000
|  9>
| 10> %scf
| 11>     ConvForced true
| 12> end
| 13>
| 14> *xyz 0 1
| 15> O   1.794470000   0.923410000   2.768350000
| 16> H   2.338250000   1.359750000   3.430940000
| 17> H   0.879480000   1.303000000   2.865760000
| 18> O  -0.885520000   1.737840000   0.052730000
| 19> H  -1.032320000   2.090180000  -0.841890000
| 20> H  -1.284090000   0.839590000   0.017130000
| 21> O   1.752130000   0.741530000  -2.896280000
| 22> H   2.036450000   0.920500000  -1.984040000
| 23> H   0.921210000   1.242140000  -2.984230000
| 24> O   0.741530000  -1.752130000   2.896280000
| 25> H   0.920500000  -2.036450000   1.984040000
| 26> H   1.242140000  -0.921210000   2.984230000
| 27> O  -0.741530000   1.752130000   2.896280000
| 28> H  -0.920500000   2.036450000   1.984040000
| 29> H  -1.242140000   0.921210000   2.984230000
| 30> *
| 31>
| 32>                          ****END OF INPUT****

CARTESIAN COORDINATES (ANGSTROEM)
---------------------------------
  O      1.794470    0.923410    2.768350
  H      2.338250    1.359750    3.430940
  H      0.879480    1.303000    2.865760
  O     -0.885520    1.737840    0.052730
  H     -1.032320    2.090180   -0.841890
  H     -1.284090    0.839590    0.017130
  O      1.752130    0.741530   -2.896280
  H      2.036450    0.920500   -1.984040
  H      0.921210    1.242140   -2.984230
  O      0.741530   -1.752130    2.896280
  H      0.920500   -2.036450    1.984040
  H      1.242140   -0.921210    2.984230
  O     -0.741530    1.752130    2.896280
  H     -0.920500    2.036450    1.984040
  H     -1.242140    0.921210    2.984230

 Total Charge           Charge          ....    0
 Multiplicity           Mult            ....    1
 Number of Electrons    NEL             ....   50
 Basis Dimension        Dim             ....  215

ORBITAL ENERGIES
----------------

  NO   OCC          E(Eh)            E(eV)
   0   2.0000     -20.612062      -560.8827
   1   2.0000     -20.578375      -559.9661
   2   2.0000     -20.569539      -559.7256
   3   2.0000     -20.539303      -558.9029
   4   2.0000     -20.528984      -558.6221
   5   2.0000      -1.390918       -37.8488
   6   2.0000      -1.366512       -37.1847
   7   2.0000      -1.348677       -36.6994
   8   2.0000      -1.324423       -36.0394
   9   2.0000      -1.309607       -35.6362
  10   2.0000      -0.754022       -20.5180
  11   2.0000      -0.726946       -19.7812
  12   2.0000      -0.711422       -19.3588
  13   2.0000      -0.707519       -19.2526
  14   2.0000      -0.678930       -18.4746
  15   2.0000      -0.637325       -17.3425
  16   2.0000      -0.603584       -16.4244
  17   2.0000      -0.586070       -15.9478
  18   2.0000      -0.572103       -15.5677
  19   2.0000      -0.555015       -15.1027
  20   2.0000      -0.546893       -14.8817
  21   2.0000      -0.513452       -13.9717
  22   2.0000      -0.513094       -13.9620
  23   2.0000      -0.488520       -13.2933
  24   2.0000      -0.476518       -12.9667
  25   0.0000       0.073276         1.9939
  26   0.0000       0.121375         3.3028
  27   0.0000       0.150402         4.0926
  28   0.0000       0.163946         4.4612
  29   0.0000       0.179666         4.8890

MULLIKEN ATOMIC CHARGES
-----------------------
   0 O :   -0.740939
   1 H :    0.337387
   2 H :    0.382523
   3 O :   -0.692590
   4 H :    0.349535
   5 H :    0.353341
   6 O :   -0.669905
   7 H :    0.346098
   8 H :    0.323023
   9 O :   -0.715703
  10 H :    0.325652
  11 H :    0.362676
  12 O :   -0.698643
  13 H :    0.385458
  14 H :    0.352087
Sum of atomic charges:    0.0000000

LOEWDIN ATOMIC CHARGES
----------------------
   0 O :   -0.341100
   1 H :    0.153853
   2 H :    0.145636
   3 O :   -0.315241
   4 H :    0.170150
   5 H :    0.179021
   6 O :   -0.328908
   7 H :    0.168504
   8 H :    0.159539
   9 O :   -0.353222
  10 H :    0.158036
  11 H :    0.147305
  12 O :   -0.274470
  13 H :    0.159412
  14 H :    0.171484

  Mayer bond orders larger than 0.100000
B(  0-O ,  1-H ) :   0.8505 B(  0-O ,  2-H ) :   0.7588 B(  3-O ,  4-H ) :   0.8419
B(  3-O ,  5-H ) :   0.8367 B(  6-O ,  7-H ) :   0.8473 B(  6-O ,  8-H ) :   0.8606
B(  9-O , 10-H ) :   0.8599 B(  9-O , 11-H ) :   0.8029 B( 12-O , 13-H ) :   0.8041
B( 12-O , 14-H ) :   0.8373

MP2 TOTAL ENERGY:     -381.593615448 Eh
FINAL SINGLE POINT ENERGY      -381.593615448032

DIPOLE MOMENT
-------------
                                X             Y             Z
Electronic contribution:     -0.02916       0.19537      -0.01526
Nuclear contribution   :     -1.21789       0.79041      -0.82779
                        -----------------------------------------
Total Dipole Moment    :     -1.24706       0.98578      -0.84305
                        -----------------------------------------
Magnitude (a.u.)       :      1.79935
Magnitude (Debye)      :      4.57357

Rotational constants in cm-1:     0.065609     0.030507     0.024972
Rotational constants in MHz :  1966.914203   914.591117   748.631496

                             ****ORCA TERMINATED NORMALLY****
TOTAL RUN TIME: 0 days 0 hours 0 minutes 32 seconds 947 msec
