                         Program Version 4.2.0 -  RELEASE  -
|  1> # 12h2o.su.etal.mol0,5,6,9,11
|  2> ! MP2 def2-TZVP EnGrad TightSCF
|  3>
|  4> %pal
|  5>     nprocs 6
|  6> end
|  7>
|  8> %maxcore 8000
|  9>
| 10> %scf
| 11>     ConvForced true
| 12> end
| 13>
| 14> *xyz 0 1
| 15> O   1.794470000   0.923410000   2.768350000
| 16> H   2.338250000   1.359750000   3.430940000
| 17> H   0.879480000   1.303000000   2.865760000
| 18> O   0.885520000  -1.737840000   0.052730000
| 19> H   1.284090000  -0.839590000   0.017130000
| 20> H   1.032320000  -2.090180000  -0.841890000
| 21> O   1.737840000   0.885520000  -0.052730000
| 22> H   2.090180000   1.032320000   0.841890000
| 23> H   0.839590000   1.284090000  -0.017130000
| 24> O   0.741530000  -1.752130000   2.896280000
| 25> H   0.920500000  -2.036450000   1.984040000
| 26> H   1.242140000  -0.921210000   2.984230000
| 27> O  -0.741530000   1.752130000   2.896280000
| 28> H  -0.920500000   2.036450000   1.984040000
| 29> H  -1.242140000   0.921210000   2.984230000
| 30> *
| 31>
| 32>                          ****END OF INPUT****

CARTESIAN COORDINATES (ANGSTROEM)
---------------------------------
  O      1.794470    0.923410    2.768350
  H      2.338250    1.359750    3.430940
  H      0.879480    1.303000    2.865760
  O      0.885520   -1.737840    0.052730
  H      1.284090   -0.839590    0.017130
  H      1.032320   -2.090180   -0.841890
  O      1.737840    0.885520   -0.052730
  H      2.090180    1.032320    0.841890
  H      0.839590    1.284090   -0.017130
  O      0.741530   -1.752130    2.896280
  H      0.920500   -2.036450    1.984040
  H      1.242140   -0.921210    2.984230
  O     -0.741530    1.752130    2.896280
  H     -0.920500    2.036450    1.984040
  H     -1.242140    0.921210    2.984230

 Total Charge           Charge          ....    0
 Multiplicity           Mult            ....    1
 Number of Electrons    NEL             ....   50
 Basis Dimension        Dim             ....  215

ORBITAL ENERGIES
----------------

  NO   OCC          E(Eh)            E(eV)
   0   2.0000     -20.617600      -561.0334
   1   2.0000     -20.578559      -559.9711
   2   2.0000     -20.576279      -559.9090
   3   2.0000     -20.541130      -558.9526
   4   2.0000     -20.502038      -557.8888
   5   2.0000      -1.403864       -38.2011
   6   2.0000      -1.368072       -37.2271
   7   2.0000      -1.356689       -36.9174
   8   2.0000      -1.324297       -36.0359
   9   2.0000      -1.286904       -35.0184
  10   2.0000      -0.759710       -20.6727
  11   2.0000      -0.744693       -20.2641
  12   2.0000      -0.724973       -19.7275
  13   2.0000      -0.698009       -18.9938
  14   2.0000      -0.666453       -18.1351
  15   2.0000      -0.646156       -17.5828
  16   2.0000      -0.616250       -16.7690
  17   2.0000      -0.592626       -16.1262
  18   2.0000      -0.578923       -15.7533
  19   2.0000      -0.552054       -15.0222
  20   2.0000      -0.532697       -14.4954
  21   2.0000      -0.515191       -14.0191
  22   2.0000      -0.510887       -13.9019
  23   2.0000      -0.489207       -13.3120
  24   2.0000      -0.452027       -12.3003
  25   0.0000       0.079411         2.1609
  26   0.0000       0.141581         3.8526
  27   0.0000       0.151644         4.1264
  28   0.0000       0.163585         4.4514
  29   0.0000       0.211181         5.7465

MULLIKEN ATOMIC CHARGES
-----------------------
   0 O :   -0.749818
   1 H :    0.353789
   2 H :    0.380020
   3 O :   -0.727692
   4 H :    0.356990
   5 H :    0.334652
   6 O :   -0.686607
   7 H :    0.383235
   8 H :    0.326410
   9 O :   -0.734403
  10 H :    0.370866
  11 H :    0.342609
  12 O :   -0.682060
  13 H :    0.350822
  14 H :    0.381188
Sum of atomic charges:   -0.0000000

LOEWDIN ATOMIC CHARGES
----------------------
   0 O :   -0.312171
   1 H :    0.160839
   2 H :    0.145526
   3 O :   -0.343915
   4 H :    0.143370
   5 H :    0.161673
   6 O :   -0.294788
   7 H :    0.153865
   8 H :    0.164484
   9 O :   -0.358533
  10 H :    0.151574
  11 H :    0.138076
  12 O :   -0.265607
  13 H :    0.170225
  14 H :    0.185381

  Mayer bond orders larger than 0.100000
B(  0-O ,  1-H ) :   0.8387 B(  0-O ,  2-H ) :   0.7516 B(  3-O ,  4-H ) :   0.7793
B(  3-O ,  5-H ) :   0.8511 B(  6-O ,  7-H ) :   0.7945 B(  6-O ,  8-H ) :   0.8525
B(  9-O , 10-H ) :   0.8181 B(  9-O , 11-H ) :   0.8315 B( 12-O , 13-H ) :   0.8411
B( 12-O , 14-H ) :   0.8174

MP2 TOTAL ENERGY:     -381.607035655 Eh
FINAL SINGLE POINT ENERGY      -381.607035655096

DIPOLE MOMENT
-------------
                                X             Y             Z
Electronic contribution:     -0.10380       0.19341       0.20886
Nuclear contribution   :     -0.30943       1.58749      -0.73962
                        -----------------------------------------
Total Dipole Moment    :     -0.41323       1.78090      -0.53076
                        -----------------------------------------
Magnitude (a.u.)       :      1.90370
Magnitude (Debye)      :      4.83882

Rotational constants in cm-1:     0.081000     0.055289     0.043344
Rotational constants in MHz :  2428.323258  1657.516826  1299.414873

                             ****ORCA TERMINATED NORMALLY****
TOTAL RUN TIME: 0 days 0 hours 0 minutes 36 seconds 875 msec
