                         Program Version 4.2.0 -  RELEASE  -
|  1> # 12meoh.boyd.etal.mol4,5,11
|  2> ! MP2 def2-TZVP EnGrad TightSCF
|  3>
|  4> %pal
|  5>     nprocs 6
|  6> end
|  7>
|  8> %maxcore 8000
|  9>
| 10> %scf
| 11>     ConvForced true
| 12> end
| 13>
| 14> *xyz 0 1
| 15> O  -1.358578914   1.232360421   1.189721000
| 16> H  -1.058250183   1.216459361   0.238591307
| 17> C  -0.389763452   1.957872567   1.943072362
| 18> H  -0.747220771   2.012806578   2.975200343
| 19> H  -0.260410585   2.982763209   1.565366540
| 20> H   0.585220638   1.453754179   1.934070793
| 21> O  -0.662721750   1.449094618  -1.383082065
| 22> H   0.064188300   2.119867608  -1.465650660
| 23> C  -0.353319239   0.341218776  -2.229326771
| 24> H  -1.072358530  -0.454743281  -2.019906495
| 25> H   0.657636746  -0.044472139  -2.042736771
| 26> H  -0.434616607   0.624733901  -3.287793021
| 27> O   3.252955559   0.588596242   1.858934315
| 28> H   3.621209177  -0.251605199   1.476063364
| 29> C   4.040824528   0.944288422   2.989639460
| 30> H   3.670521436   1.902573549   3.363847391
| 31> H   5.103749934   1.055868619   2.734277559
| 32> H   3.948540682   0.200279590   3.792908518
| 33> *
| 34>
| 35>                          ****END OF INPUT****

CARTESIAN COORDINATES (ANGSTROEM)
---------------------------------
  O     -1.358579    1.232360    1.189721
  H     -1.058250    1.216459    0.238591
  C     -0.389763    1.957873    1.943072
  H     -0.747221    2.012807    2.975200
  H     -0.260411    2.982763    1.565367
  H      0.585221    1.453754    1.934071
  O     -0.662722    1.449095   -1.383082
  H      0.064188    2.119868   -1.465651
  C     -0.353319    0.341219   -2.229327
  H     -1.072359   -0.454743   -2.019906
  H      0.657637   -0.044472   -2.042737
  H     -0.434617    0.624734   -3.287793
  O      3.252956    0.588596    1.858934
  H      3.621209   -0.251605    1.476063
  C      4.040825    0.944288    2.989639
  H      3.670521    1.902574    3.363847
  H      5.103750    1.055869    2.734278
  H      3.948541    0.200280    3.792909

 Total Charge           Charge          ....    0
 Multiplicity           Mult            ....    1
 Number of Electrons    NEL             ....   54
 Basis Dimension        Dim             ....  258

ORBITAL ENERGIES
----------------

  NO   OCC          E(Eh)            E(eV)
   0   2.0000     -20.584015      -560.1195
   1   2.0000     -20.563353      -559.5573
   2   2.0000     -20.501766      -557.8814
   3   2.0000     -11.287049      -307.1362
   4   2.0000     -11.275746      -306.8287
   5   2.0000     -11.237240      -305.7808
   6   2.0000      -1.376439       -37.4548
   7   2.0000      -1.352582       -36.8056
   8   2.0000      -1.297497       -35.3067
   9   2.0000      -0.938843       -25.5472
  10   2.0000      -0.924205       -25.1489
  11   2.0000      -0.884214       -24.0607
  12   2.0000      -0.708861       -19.2891
  13   2.0000      -0.687256       -18.7012
  14   2.0000      -0.664912       -18.0932
  15   2.0000      -0.629949       -17.1418
  16   2.0000      -0.621750       -16.9187
  17   2.0000      -0.602844       -16.4042
  18   2.0000      -0.596559       -16.2332
  19   2.0000      -0.578120       -15.7315
  20   2.0000      -0.550244       -14.9729
  21   2.0000      -0.522811       -14.2264
  22   2.0000      -0.505493       -13.7552
  23   2.0000      -0.480874       -13.0853
  24   2.0000      -0.454699       -12.3730
  25   2.0000      -0.447306       -12.1718
  26   2.0000      -0.404447       -11.0056
  27   0.0000       0.115049         3.1306
  28   0.0000       0.133743         3.6393
  29   0.0000       0.159192         4.3318
  30   0.0000       0.171244         4.6598
  31   0.0000       0.194524         5.2933

MULLIKEN ATOMIC CHARGES
-----------------------
   0 O :   -0.532562
   1 H :    0.353133
   2 C :   -0.195534
   3 H :    0.114298
   4 H :    0.086947
   5 H :    0.129314
   6 O :   -0.514781
   7 H :    0.341854
   8 C :   -0.182778
   9 H :    0.148071
  10 H :    0.122214
  11 H :    0.123194
  12 O :   -0.495405
  13 H :    0.319982
  14 C :   -0.173514
  15 H :    0.131868
  16 H :    0.110200
  17 H :    0.113498
Sum of atomic charges:    0.0000000

LOEWDIN ATOMIC CHARGES
----------------------
   0 O :   -0.128488
   1 H :    0.158752
   2 C :   -0.401352
   3 H :    0.104218
   4 H :    0.087488
   5 H :    0.096345
   6 O :   -0.073727
   7 H :    0.198018
   8 C :   -0.367024
   9 H :    0.116546
  10 H :    0.100838
  11 H :    0.103437
  12 O :   -0.107610
  13 H :    0.189759
  14 C :   -0.381251
  15 H :    0.110936
  16 H :    0.096228
  17 H :    0.096888

  Mayer bond orders larger than 0.100000
B(  0-O ,  1-H ) :   0.7922 B(  0-O ,  2-C ) :   0.9359 B(  2-C ,  3-H ) :   0.9393
B(  2-C ,  4-H ) :   0.9382 B(  2-C ,  5-H ) :   0.9357 B(  6-O ,  7-H ) :   0.8282
B(  6-O ,  8-C ) :   0.8754 B(  8-C ,  9-H ) :   0.9392 B(  8-C , 10-H ) :   0.9377
B(  8-C , 11-H ) :   0.9342 B( 12-O , 13-H ) :   0.8409 B( 12-O , 14-C ) :   0.9172
B( 14-C , 15-H ) :   0.9389 B( 14-C , 16-H ) :   0.9350 B( 14-C , 17-H ) :   0.9388

MP2 TOTAL ENERGY:     -346.529159940 Eh
FINAL SINGLE POINT ENERGY      -346.529159940036

DIPOLE MOMENT
-------------
                                X             Y             Z
Electronic contribution:     -2.77744      -0.07300      -1.50660
Nuclear contribution   :      4.58332      -0.17702       0.66705
                        -----------------------------------------
Total Dipole Moment    :      1.80588      -0.25002      -0.83956
                        -----------------------------------------
Magnitude (a.u.)       :      2.00712
Magnitude (Debye)      :      5.10171

Rotational constants in cm-1:     0.089475     0.026735     0.021501
Rotational constants in MHz :  2682.379753   801.490495   644.571751

                             ****ORCA TERMINATED NORMALLY****
TOTAL RUN TIME: 0 days 0 hours 1 minutes 14 seconds 317 msec
