                         Program Version 4.2.0 -  RELEASE  -
|  1> # 12h2o.su.etal.mol1,2,6,7,8,9,10
|  2> ! MP2 def2-TZVP EnGrad TightSCF
|  3>
|  4> %pal
|  5>     nprocs 6
|  6> end
|  7>
|  8> %maxcore 8000
|  9>
| 10> %scf
| 11>     ConvForced true
| 12> end
| 13>
| 14> *xyz 0 1
| 15> O  -1.794470000  -0.923410000   2.768350000
| 16> H  -2.338250000  -1.359750000   3.430940000
| 17> H  -0.879480000  -1.303000000   2.865760000
| 18> O   0.923410000  -1.794470000  -2.768350000
| 19> H   1.359750000  -2.338250000  -3.430940000
| 20> H   1.303000000  -0.879480000  -2.865760000
| 21> O   1.737840000   0.885520000  -0.052730000
| 22> H   2.090180000   1.032320000   0.841890000
| 23> H   0.839590000   1.284090000  -0.017130000
| 24> O  -1.737840000  -0.885520000  -0.052730000
| 25> H  -2.090180000  -1.032320000   0.841890000
| 26> H  -0.839590000  -1.284090000  -0.017130000
| 27> O   1.752130000   0.741530000  -2.896280000
| 28> H   2.036450000   0.920500000  -1.984040000
| 29> H   0.921210000   1.242140000  -2.984230000
| 30> O   0.741530000  -1.752130000   2.896280000
| 31> H   0.920500000  -2.036450000   1.984040000
| 32> H   1.242140000  -0.921210000   2.984230000
| 33> O  -0.923410000   1.794470000  -2.768350000
| 34> H  -1.359750000   2.338250000  -3.430940000
| 35> H  -1.303000000   0.879480000  -2.865760000
| 36> *
| 37>
| 38>                          ****END OF INPUT****

CARTESIAN COORDINATES (ANGSTROEM)
---------------------------------
  O     -1.794470   -0.923410    2.768350
  H     -2.338250   -1.359750    3.430940
  H     -0.879480   -1.303000    2.865760
  O      0.923410   -1.794470   -2.768350
  H      1.359750   -2.338250   -3.430940
  H      1.303000   -0.879480   -2.865760
  O      1.737840    0.885520   -0.052730
  H      2.090180    1.032320    0.841890
  H      0.839590    1.284090   -0.017130
  O     -1.737840   -0.885520   -0.052730
  H     -2.090180   -1.032320    0.841890
  H     -0.839590   -1.284090   -0.017130
  O      1.752130    0.741530   -2.896280
  H      2.036450    0.920500   -1.984040
  H      0.921210    1.242140   -2.984230
  O      0.741530   -1.752130    2.896280
  H      0.920500   -2.036450    1.984040
  H      1.242140   -0.921210    2.984230
  O     -0.923410    1.794470   -2.768350
  H     -1.359750    2.338250   -3.430940
  H     -1.303000    0.879480   -2.865760

 Total Charge           Charge          ....    0
 Multiplicity           Mult            ....    1
 Number of Electrons    NEL             ....   70
 Basis Dimension        Dim             ....  301

ORBITAL ENERGIES
----------------

  NO   OCC          E(Eh)            E(eV)
   0   2.0000     -20.613394      -560.9190
   1   2.0000     -20.593238      -560.3705
   2   2.0000     -20.579364      -559.9930
   3   2.0000     -20.547661      -559.1303
   4   2.0000     -20.538549      -558.8823
   5   2.0000     -20.524708      -558.5057
   6   2.0000     -20.504971      -557.9686
   7   2.0000      -1.398795       -38.0631
   8   2.0000      -1.371779       -37.3280
   9   2.0000      -1.357530       -36.9403
  10   2.0000      -1.332834       -36.2682
  11   2.0000      -1.329909       -36.1887
  12   2.0000      -1.302938       -35.4547
  13   2.0000      -1.286259       -35.0009
  14   2.0000      -0.755947       -20.5704
  15   2.0000      -0.734009       -19.9734
  16   2.0000      -0.724640       -19.7184
  17   2.0000      -0.719010       -19.5653
  18   2.0000      -0.696416       -18.9504
  19   2.0000      -0.673085       -18.3156
  20   2.0000      -0.671420       -18.2703
  21   2.0000      -0.635852       -17.3024
  22   2.0000      -0.619452       -16.8561
  23   2.0000      -0.595790       -16.2123
  24   2.0000      -0.584158       -15.8957
  25   2.0000      -0.568071       -15.4580
  26   2.0000      -0.552523       -15.0349
  27   2.0000      -0.537603       -14.6289
  28   2.0000      -0.533851       -14.5268
  29   2.0000      -0.531341       -14.4585
  30   2.0000      -0.516653       -14.0588
  31   2.0000      -0.493984       -13.4420
  32   2.0000      -0.477601       -12.9962
  33   2.0000      -0.470179       -12.7942
  34   2.0000      -0.455902       -12.4057
  35   0.0000       0.074784         2.0350
  36   0.0000       0.123313         3.3555
  37   0.0000       0.135670         3.6918
  38   0.0000       0.159072         4.3286
  39   0.0000       0.164551         4.4777

MULLIKEN ATOMIC CHARGES
-----------------------
   0 O :   -0.734687
   1 H :    0.337806
   2 H :    0.365825
   3 O :   -0.739912
   4 H :    0.319383
   5 H :    0.368342
   6 O :   -0.700898
   7 H :    0.336975
   8 H :    0.369943
   9 O :   -0.702450
  10 H :    0.366891
  11 H :    0.320481
  12 O :   -0.716348
  13 H :    0.377902
  14 H :    0.361356
  15 O :   -0.673716
  16 H :    0.365324
  17 H :    0.354266
  18 O :   -0.708785
  19 H :    0.350985
  20 H :    0.381315
Sum of atomic charges:   -0.0000000

LOEWDIN ATOMIC CHARGES
----------------------
   0 O :   -0.340083
   1 H :    0.154076
   2 H :    0.142353
   3 O :   -0.377589
   4 H :    0.145899
   5 H :    0.141680
   6 O :   -0.316991
   7 H :    0.163968
   8 H :    0.183218
   9 O :   -0.348585
  10 H :    0.148690
  11 H :    0.158596
  12 O :   -0.288710
  13 H :    0.155225
  14 H :    0.148252
  15 O :   -0.265242
  16 H :    0.175854
  17 H :    0.173956
  18 O :   -0.313423
  19 H :    0.163158
  20 H :    0.195698

  Mayer bond orders larger than 0.100000
B(  0-O ,  1-H ) :   0.8501 B(  0-O ,  2-H ) :   0.7735 B(  3-O ,  4-H ) :   0.8630
B(  3-O ,  5-H ) :   0.7679 B(  5-H , 12-O ) :   0.1042 B(  6-O ,  7-H ) :   0.8488
B(  6-O ,  8-H ) :   0.8215 B(  9-O , 10-H ) :   0.8124 B(  9-O , 11-H ) :   0.8547
B( 12-O , 13-H ) :   0.8132 B( 12-O , 14-H ) :   0.8065 B( 15-O , 16-H ) :   0.8310
B( 15-O , 17-H ) :   0.8382 B( 18-O , 19-H ) :   0.8426 B( 18-O , 20-H ) :   0.8137

MP2 TOTAL ENERGY:     -534.237913976 Eh
FINAL SINGLE POINT ENERGY      -534.237913976389

DIPOLE MOMENT
-------------
                                X             Y             Z
Electronic contribution:      0.05834       0.25946       0.17426
Nuclear contribution   :      0.41967       0.34148       0.91596
                        -----------------------------------------
Total Dipole Moment    :      0.47801       0.60093       1.09022
                        -----------------------------------------
Magnitude (a.u.)       :      1.33349
Magnitude (Debye)      :      3.38946

Rotational constants in cm-1:     0.044082     0.017680     0.016264
Rotational constants in MHz :  1321.551037   530.038826   487.575446

                             ****ORCA TERMINATED NORMALLY****
TOTAL RUN TIME: 0 days 0 hours 2 minutes 24 seconds 307 msec
