                         Program Version 4.2.0 -  RELEASE  -
|  1> # 12h2o.su.etal.mol0,3,6,7,9,10,11
|  2> ! MP2 def2-TZVP EnGrad TightSCF
|  3>
|  4> %pal
|  5>     nprocs 6
|  6> end
|  7>
|  8> %maxcore 8000
|  9>
| 10> %scf
| 11>     ConvForced true
| 12> end
| 13>
| 14> *xyz 0 1
| 15> O   1.794470000   0.923410000   2.768350000
| 16> H   2.338250000   1.359750000   3.430940000
| 17> H   0.879480000   1.303000000   2.865760000
| 18> O  -1.752130000  -0.741530000  -2.896280000
| 19> H  -2.036450000  -0.920500000  -1.984040000
| 20> H  -0.921210000  -1.242140000  -2.984230000
| 21> O   1.737840000   0.885520000  -0.052730000
| 22> H   2.090180000   1.032320000   0.841890000
| 23> H   0.839590000   1.284090000  -0.017130000
| 24> O  -1.737840000  -0.885520000  -0.052730000
| 25> H  -2.090180000  -1.032320000   0.841890000
| 26> H  -0.839590000  -1.284090000  -0.017130000
| 27> O   0.741530000  -1.752130000   2.896280000
| 28> H   0.920500000  -2.036450000   1.984040000
| 29> H   1.242140000  -0.921210000   2.984230000
| 30> O  -0.923410000   1.794470000  -2.768350000
| 31> H  -1.359750000   2.338250000  -3.430940000
| 32> H  -1.303000000   0.879480000  -2.865760000
| 33> O  -0.741530000   1.752130000   2.896280000
| 34> H  -0.920500000   2.036450000   1.984040000
| 35> H  -1.242140000   0.921210000   2.984230000
| 36> *
| 37>
| 38>                          ****END OF INPUT****

CARTESIAN COORDINATES (ANGSTROEM)
---------------------------------
  O      1.794470    0.923410    2.768350
  H      2.338250    1.359750    3.430940
  H      0.879480    1.303000    2.865760
  O     -1.752130   -0.741530   -2.896280
  H     -2.036450   -0.920500   -1.984040
  H     -0.921210   -1.242140   -2.984230
  O      1.737840    0.885520   -0.052730
  H      2.090180    1.032320    0.841890
  H      0.839590    1.284090   -0.017130
  O     -1.737840   -0.885520   -0.052730
  H     -2.090180   -1.032320    0.841890
  H     -0.839590   -1.284090   -0.017130
  O      0.741530   -1.752130    2.896280
  H      0.920500   -2.036450    1.984040
  H      1.242140   -0.921210    2.984230
  O     -0.923410    1.794470   -2.768350
  H     -1.359750    2.338250   -3.430940
  H     -1.303000    0.879480   -2.865760
  O     -0.741530    1.752130    2.896280
  H     -0.920500    2.036450    1.984040
  H     -1.242140    0.921210    2.984230

 Total Charge           Charge          ....    0
 Multiplicity           Mult            ....    1
 Number of Electrons    NEL             ....   70
 Basis Dimension        Dim             ....  301

ORBITAL ENERGIES
----------------

  NO   OCC          E(Eh)            E(eV)
   0   2.0000     -20.619565      -561.0869
   1   2.0000     -20.606339      -560.7270
   2   2.0000     -20.577270      -559.9360
   3   2.0000     -20.571472      -559.7782
   4   2.0000     -20.553064      -559.2773
   5   2.0000     -20.537134      -558.8438
   6   2.0000     -20.510334      -558.1146
   7   2.0000      -1.405783       -38.2533
   8   2.0000      -1.385139       -37.6915
   9   2.0000      -1.363853       -37.1123
  10   2.0000      -1.358948       -36.9788
  11   2.0000      -1.334635       -36.3173
  12   2.0000      -1.315783       -35.8043
  13   2.0000      -1.292368       -35.1671
  14   2.0000      -0.761690       -20.7267
  15   2.0000      -0.748211       -20.3599
  16   2.0000      -0.745980       -20.2992
  17   2.0000      -0.720616       -19.6090
  18   2.0000      -0.703865       -19.1531
  19   2.0000      -0.685853       -18.6630
  20   2.0000      -0.680809       -18.5258
  21   2.0000      -0.646847       -17.6016
  22   2.0000      -0.630953       -17.1691
  23   2.0000      -0.608591       -16.5606
  24   2.0000      -0.591482       -16.0950
  25   2.0000      -0.578809       -15.7502
  26   2.0000      -0.563238       -15.3265
  27   2.0000      -0.550171       -14.9709
  28   2.0000      -0.547176       -14.8894
  29   2.0000      -0.542496       -14.7621
  30   2.0000      -0.519302       -14.1309
  31   2.0000      -0.500334       -13.6148
  32   2.0000      -0.499044       -13.5797
  33   2.0000      -0.482443       -13.1279
  34   2.0000      -0.460829       -12.5398
  35   0.0000       0.068781         1.8716
  36   0.0000       0.117271         3.1911
  37   0.0000       0.132621         3.6088
  38   0.0000       0.140178         3.8144
  39   0.0000       0.157061         4.2738

MULLIKEN ATOMIC CHARGES
-----------------------
   0 O :   -0.750181
   1 H :    0.353311
   2 H :    0.380229
   3 O :   -0.691449
   4 H :    0.383255
   5 H :    0.346791
   6 O :   -0.696666
   7 H :    0.362805
   8 H :    0.322902
   9 O :   -0.699026
  10 H :    0.351506
  11 H :    0.350686
  12 O :   -0.711308
  13 H :    0.325966
  14 H :    0.366908
  15 O :   -0.733913
  16 H :    0.321092
  17 H :    0.368375
  18 O :   -0.680720
  19 H :    0.365866
  20 H :    0.363571
Sum of atomic charges:   -0.0000000

LOEWDIN ATOMIC CHARGES
----------------------
   0 O :   -0.312309
   1 H :    0.160671
   2 H :    0.145423
   3 O :   -0.275751
   4 H :    0.158594
   5 H :    0.170773
   6 O :   -0.344879
   7 H :    0.146175
   8 H :    0.160130
   9 O :   -0.315189
  10 H :    0.169596
  11 H :    0.174871
  12 O :   -0.346932
  13 H :    0.156193
  14 H :    0.148483
  15 O :   -0.373761
  16 H :    0.146991
  17 H :    0.142514
  18 O :   -0.264178
  19 H :    0.176062
  20 H :    0.176522

  Mayer bond orders larger than 0.100000
B(  0-O ,  1-H ) :   0.8385 B(  0-O ,  2-H ) :   0.7517 B(  3-O ,  4-H ) :   0.8061
B(  3-O ,  5-H ) :   0.8440 B(  6-O ,  7-H ) :   0.8188 B(  6-O ,  8-H ) :   0.8531
B(  9-O , 10-H ) :   0.8402 B(  9-O , 11-H ) :   0.8313 B( 12-O , 13-H ) :   0.8576
B( 12-O , 14-H ) :   0.8065 B( 15-O , 16-H ) :   0.8623 B( 15-O , 17-H ) :   0.7801
B( 18-O , 19-H ) :   0.8307 B( 18-O , 20-H ) :   0.8296

MP2 TOTAL ENERGY:     -534.237654517 Eh
FINAL SINGLE POINT ENERGY      -534.237654517047

DIPOLE MOMENT
-------------
                                X             Y             Z
Electronic contribution:     -0.19136       0.01119       0.21639
Nuclear contribution   :     -0.53316      -0.19549       0.86245
                        -----------------------------------------
Total Dipole Moment    :     -0.72452      -0.18430       1.07884
                        -----------------------------------------
Magnitude (a.u.)       :      1.31256
Magnitude (Debye)      :      3.33625

Rotational constants in cm-1:     0.045330     0.017859     0.016173
Rotational constants in MHz :  1358.954792   535.411540   484.844584

                             ****ORCA TERMINATED NORMALLY****
TOTAL RUN TIME: 0 days 0 hours 1 minutes 42 seconds 335 msec
