                         Program Version 4.2.0 -  RELEASE  -
|  1> # 12h2o.su.etal.mol0,1,6,8,10,11
|  2> ! MP2 def2-TZVP EnGrad TightSCF
|  3>
|  4> %pal
|  5>     nprocs 6
|  6> end
|  7>
|  8> %maxcore 8000
|  9>
| 10> %scf
| 11>     ConvForced true
| 12> end
| 13>
| 14> *xyz 0 1
| 15> O   1.794470000   0.923410000   2.768350000
| 16> H   2.338250000   1.359750000   3.430940000
| 17> H   0.879480000   1.303000000   2.865760000
| 18> O  -1.794470000  -0.923410000   2.768350000
| 19> H  -2.338250000  -1.359750000   3.430940000
| 20> H  -0.879480000  -1.303000000   2.865760000
| 21> O   1.737840000   0.885520000  -0.052730000
| 22> H   2.090180000   1.032320000   0.841890000
| 23> H   0.839590000   1.284090000  -0.017130000
| 24> O   1.752130000   0.741530000  -2.896280000
| 25> H   2.036450000   0.920500000  -1.984040000
| 26> H   0.921210000   1.242140000  -2.984230000
| 27> O  -0.923410000   1.794470000  -2.768350000
| 28> H  -1.359750000   2.338250000  -3.430940000
| 29> H  -1.303000000   0.879480000  -2.865760000
| 30> O  -0.741530000   1.752130000   2.896280000
| 31> H  -0.920500000   2.036450000   1.984040000
| 32> H  -1.242140000   0.921210000   2.984230000
| 33> *
| 34>
| 35>                          ****END OF INPUT****

CARTESIAN COORDINATES (ANGSTROEM)
---------------------------------
  O      1.794470    0.923410    2.768350
  H      2.338250    1.359750    3.430940
  H      0.879480    1.303000    2.865760
  O     -1.794470   -0.923410    2.768350
  H     -2.338250   -1.359750    3.430940
  H     -0.879480   -1.303000    2.865760
  O      1.737840    0.885520   -0.052730
  H      2.090180    1.032320    0.841890
  H      0.839590    1.284090   -0.017130
  O      1.752130    0.741530   -2.896280
  H      2.036450    0.920500   -1.984040
  H      0.921210    1.242140   -2.984230
  O     -0.923410    1.794470   -2.768350
  H     -1.359750    2.338250   -3.430940
  H     -1.303000    0.879480   -2.865760
  O     -0.741530    1.752130    2.896280
  H     -0.920500    2.036450    1.984040
  H     -1.242140    0.921210    2.984230

 Total Charge           Charge          ....    0
 Multiplicity           Mult            ....    1
 Number of Electrons    NEL             ....   60
 Basis Dimension        Dim             ....  258

ORBITAL ENERGIES
----------------

  NO   OCC          E(Eh)            E(eV)
   0   2.0000     -20.603353      -560.6458
   1   2.0000     -20.586349      -560.1830
   2   2.0000     -20.585720      -560.1659
   3   2.0000     -20.547533      -559.1268
   4   2.0000     -20.539855      -558.9179
   5   2.0000     -20.489722      -557.5537
   6   2.0000      -1.383768       -37.6542
   7   2.0000      -1.372168       -37.3386
   8   2.0000      -1.363954       -37.1151
   9   2.0000      -1.333347       -36.2822
  10   2.0000      -1.319133       -35.8954
  11   2.0000      -1.275053       -34.6959
  12   2.0000      -0.750422       -20.4200
  13   2.0000      -0.733206       -19.9515
  14   2.0000      -0.730977       -19.8909
  15   2.0000      -0.715720       -19.4757
  16   2.0000      -0.689690       -18.7674
  17   2.0000      -0.652726       -17.7616
  18   2.0000      -0.631885       -17.1945
  19   2.0000      -0.607675       -16.5357
  20   2.0000      -0.601431       -16.3658
  21   2.0000      -0.580275       -15.7901
  22   2.0000      -0.562768       -15.3137
  23   2.0000      -0.544451       -14.8153
  24   2.0000      -0.533816       -14.5259
  25   2.0000      -0.521427       -14.1888
  26   2.0000      -0.506384       -13.7794
  27   2.0000      -0.494926       -13.4676
  28   2.0000      -0.483679       -13.1616
  29   2.0000      -0.439825       -11.9682
  30   0.0000       0.091999         2.5034
  31   0.0000       0.112748         3.0680
  32   0.0000       0.132611         3.6085
  33   0.0000       0.157809         4.2942
  34   0.0000       0.184717         5.0264

MULLIKEN ATOMIC CHARGES
-----------------------
   0 O :   -0.739837
   1 H :    0.337972
   2 H :    0.366965
   3 O :   -0.704233
   4 H :    0.357912
   5 H :    0.372136
   6 O :   -0.704828
   7 H :    0.374701
   8 H :    0.316139
   9 O :   -0.729562
  10 H :    0.368659
  11 H :    0.336048
  12 O :   -0.696828
  13 H :    0.352341
  14 H :    0.361341
  15 O :   -0.697549
  16 H :    0.349931
  17 H :    0.378692
Sum of atomic charges:   -0.0000000

LOEWDIN ATOMIC CHARGES
----------------------
   0 O :   -0.342665
   1 H :    0.154180
   2 H :    0.141846
   3 O :   -0.310955
   4 H :    0.166435
   5 H :    0.193022
   6 O :   -0.325863
   7 H :    0.152496
   8 H :    0.159209
   9 O :   -0.358855
  10 H :    0.149998
  11 H :    0.138081
  12 O :   -0.312898
  13 H :    0.163139
  14 H :    0.188358
  15 O :   -0.279149
  16 H :    0.168241
  17 H :    0.155378

  Mayer bond orders larger than 0.100000
B(  0-O ,  1-H ) :   0.8501 B(  0-O ,  2-H ) :   0.7607 B(  3-O ,  4-H ) :   0.8385
B(  3-O ,  5-H ) :   0.8217 B(  6-O ,  7-H ) :   0.8012 B(  6-O ,  8-H ) :   0.8557
B(  9-O , 10-H ) :   0.8211 B(  9-O , 11-H ) :   0.8375 B( 12-O , 13-H ) :   0.8418
B( 12-O , 14-H ) :   0.8300 B( 15-O , 16-H ) :   0.8421 B( 15-O , 17-H ) :   0.7923

MP2 TOTAL ENERGY:     -457.918749132 Eh
FINAL SINGLE POINT ENERGY      -457.918749131589

DIPOLE MOMENT
-------------
                                X             Y             Z
Electronic contribution:     -0.17617      -0.15863       0.18749
Nuclear contribution   :     -2.15417       0.25565       1.40687
                        -----------------------------------------
Total Dipole Moment    :     -2.33034       0.09703       1.59437
                        -----------------------------------------
Magnitude (a.u.)       :      2.82523
Magnitude (Debye)      :      7.18115

Rotational constants in cm-1:     0.055396     0.020863     0.017612
Rotational constants in MHz :  1660.735530   625.446568   527.994985

                             ****ORCA TERMINATED NORMALLY****
TOTAL RUN TIME: 0 days 0 hours 0 minutes 47 seconds 831 msec
