                         Program Version 4.2.0 -  RELEASE  -
|  1> # 12mecn.remya.etal.2.mol9,10,11
|  2> ! MP2 def2-TZVP EnGrad TightSCF
|  3>
|  4> %pal
|  5>     nprocs 6
|  6> end
|  7>
|  8> %maxcore 8000
|  9>
| 10> %scf
| 11>     ConvForced true
| 12> end
| 13>
| 14> *xyz 0 1
| 15> C   0.923766000   4.000693000  -1.575910000
| 16> H   0.011949000   4.478423000  -1.939550000
| 17> H   0.947903000   2.966558000  -1.929960000
| 18> H   1.805950000   4.519548000  -1.956520000
| 19> C   0.942834000   3.994846000  -0.131200000
| 20> N   0.960035000   3.982544000   1.035639000
| 21> C   4.602033000   0.321019000  -1.784800000
| 22> H   4.827650000  -0.662160000  -2.207910000
| 23> H   5.320558000   1.057980000  -2.148500000
| 24> H   3.601982000   0.643751000  -2.087520000
| 25> C   4.654967000   0.244048000  -0.343060000
| 26> N   4.691648000   0.166590000   0.820757000
| 27> C   4.214163000   3.378139000   1.593627000
| 28> H   3.242643000   3.657109000   2.012358000
| 29> H   4.969258000   4.086643000   1.941290000
| 30> H   4.482966000   2.372549000   1.931698000
| 31> C   4.130759000   3.388436000   0.150192000
| 32> N   4.050180000   3.381449000  -1.013420000
| 33> *
| 34>
| 35>                          ****END OF INPUT****

CARTESIAN COORDINATES (ANGSTROEM)
---------------------------------
  C      0.923766    4.000693   -1.575910
  H      0.011949    4.478423   -1.939550
  H      0.947903    2.966558   -1.929960
  H      1.805950    4.519548   -1.956520
  C      0.942834    3.994846   -0.131200
  N      0.960035    3.982544    1.035639
  C      4.602033    0.321019   -1.784800
  H      4.827650   -0.662160   -2.207910
  H      5.320558    1.057980   -2.148500
  H      3.601982    0.643751   -2.087520
  C      4.654967    0.244048   -0.343060
  N      4.691648    0.166590    0.820757
  C      4.214163    3.378139    1.593627
  H      3.242643    3.657109    2.012358
  H      4.969258    4.086643    1.941290
  H      4.482966    2.372549    1.931698
  C      4.130759    3.388436    0.150192
  N      4.050180    3.381449   -1.013420

 Total Charge           Charge          ....    0
 Multiplicity           Mult            ....    1
 Number of Electrons    NEL             ....   66
 Basis Dimension        Dim             ....  333

ORBITAL ENERGIES
----------------

  NO   OCC          E(Eh)            E(eV)
   0   2.0000     -15.570983      -423.7080
   1   2.0000     -15.570897      -423.7056
   2   2.0000     -15.569550      -423.6690
   3   2.0000     -11.285492      -307.0938
   4   2.0000     -11.282368      -307.0089
   5   2.0000     -11.282324      -307.0076
   6   2.0000     -11.275545      -306.8232
   7   2.0000     -11.275097      -306.8110
   8   2.0000     -11.259364      -306.3829
   9   2.0000      -1.220277       -33.2054
  10   2.0000      -1.215426       -33.0734
  11   2.0000      -1.213198       -33.0128
  12   2.0000      -1.037821       -28.2405
  13   2.0000      -1.037369       -28.2282
  14   2.0000      -1.026101       -27.9216
  15   2.0000      -0.695917       -18.9369
  16   2.0000      -0.694610       -18.9013
  17   2.0000      -0.685353       -18.6494
  18   2.0000      -0.632043       -17.1988
  19   2.0000      -0.630486       -17.1564
  20   2.0000      -0.622752       -16.9460
  21   2.0000      -0.621485       -16.9115
  22   2.0000      -0.611200       -16.6316
  23   2.0000      -0.609355       -16.5814
  24   2.0000      -0.561127       -15.2690
  25   2.0000      -0.555809       -15.1243
  26   2.0000      -0.555664       -15.1204
  27   2.0000      -0.463341       -12.6082
  28   2.0000      -0.461534       -12.5590
  29   2.0000      -0.457781       -12.4569
  30   2.0000      -0.457010       -12.4359
  31   2.0000      -0.454363       -12.3638
  32   2.0000      -0.453507       -12.3406
  33   0.0000       0.111879         3.0444
  34   0.0000       0.145572         3.9612
  35   0.0000       0.154322         4.1993
  36   0.0000       0.167829         4.5669
  37   0.0000       0.172418         4.6917

MULLIKEN ATOMIC CHARGES
-----------------------
   0 C :   -0.270871
   1 H :    0.173178
   2 H :    0.161742
   3 H :    0.190988
   4 C :   -0.113666
   5 N :   -0.141523
   6 C :   -0.254263
   7 H :    0.173457
   8 H :    0.179864
   9 H :    0.164168
  10 C :   -0.120964
  11 N :   -0.142022
  12 C :   -0.295394
  13 H :    0.200567
  14 H :    0.160550
  15 H :    0.200736
  16 C :   -0.070170
  17 N :   -0.196379
Sum of atomic charges:    0.0000000

LOEWDIN ATOMIC CHARGES
----------------------
   0 C :   -0.285441
   1 H :    0.149199
   2 H :    0.153252
   3 H :    0.155775
   4 C :   -0.210469
   5 N :    0.034425
   6 C :   -0.285622
   7 H :    0.150237
   8 H :    0.155343
   9 H :    0.153528
  10 C :   -0.211240
  11 N :    0.033950
  12 C :   -0.280679
  13 H :    0.157243
  14 H :    0.148971
  15 H :    0.157356
  16 C :   -0.199768
  17 N :    0.023940

  Mayer bond orders larger than 0.100000
B(  0-C ,  1-H ) :   0.9122 B(  0-C ,  2-H ) :   0.9178 B(  0-C ,  3-H ) :   0.9087
B(  0-C ,  4-C ) :   0.9073 B(  4-C ,  5-N ) :   2.7718 B(  6-C ,  7-H ) :   0.9100
B(  6-C ,  8-H ) :   0.9128 B(  6-C ,  9-H ) :   0.9158 B(  6-C , 10-C ) :   0.9115
B( 10-C , 11-N ) :   2.7713 B( 12-C , 13-H ) :   0.9023 B( 12-C , 14-H ) :   0.9138
B( 12-C , 15-H ) :   0.9018 B( 12-C , 16-C ) :   0.8967 B( 16-C , 17-N ) :   2.7313

MP2 TOTAL ENERGY:     -397.467149310 Eh
FINAL SINGLE POINT ENERGY      -397.467149309932

DIPOLE MOMENT
-------------
                                X             Y             Z
Electronic contribution:     -0.01140      -0.14295       3.15961
Nuclear contribution   :      0.03801       0.23988      -4.62892
                        -----------------------------------------
Total Dipole Moment    :      0.02661       0.09694      -1.46931
                        -----------------------------------------
Magnitude (a.u.)       :      1.47275
Magnitude (Debye)      :      3.74342

Rotational constants in cm-1:     0.062387     0.025630     0.022086
Rotational constants in MHz :  1870.313769   768.367964   662.135079

                             ****ORCA TERMINATED NORMALLY****
TOTAL RUN TIME: 0 days 0 hours 4 minutes 32 seconds 939 msec
