                         Program Version 4.2.0 -  RELEASE  -
|  1> # 12h2o.su.etal.mol1,4,6,9,11
|  2> ! MP2 def2-TZVP EnGrad TightSCF
|  3>
|  4> %pal
|  5>     nprocs 6
|  6> end
|  7>
|  8> %maxcore 8000
|  9>
| 10> %scf
| 11>     ConvForced true
| 12> end
| 13>
| 14> *xyz 0 1
| 15> O  -1.794470000  -0.923410000   2.768350000
| 16> H  -2.338250000  -1.359750000   3.430940000
| 17> H  -0.879480000  -1.303000000   2.865760000
| 18> O  -0.885520000   1.737840000   0.052730000
| 19> H  -1.032320000   2.090180000  -0.841890000
| 20> H  -1.284090000   0.839590000   0.017130000
| 21> O   1.737840000   0.885520000  -0.052730000
| 22> H   2.090180000   1.032320000   0.841890000
| 23> H   0.839590000   1.284090000  -0.017130000
| 24> O   0.741530000  -1.752130000   2.896280000
| 25> H   0.920500000  -2.036450000   1.984040000
| 26> H   1.242140000  -0.921210000   2.984230000
| 27> O  -0.741530000   1.752130000   2.896280000
| 28> H  -0.920500000   2.036450000   1.984040000
| 29> H  -1.242140000   0.921210000   2.984230000
| 30> *
| 31>
| 32>                          ****END OF INPUT****

CARTESIAN COORDINATES (ANGSTROEM)
---------------------------------
  O     -1.794470   -0.923410    2.768350
  H     -2.338250   -1.359750    3.430940
  H     -0.879480   -1.303000    2.865760
  O     -0.885520    1.737840    0.052730
  H     -1.032320    2.090180   -0.841890
  H     -1.284090    0.839590    0.017130
  O      1.737840    0.885520   -0.052730
  H      2.090180    1.032320    0.841890
  H      0.839590    1.284090   -0.017130
  O      0.741530   -1.752130    2.896280
  H      0.920500   -2.036450    1.984040
  H      1.242140   -0.921210    2.984230
  O     -0.741530    1.752130    2.896280
  H     -0.920500    2.036450    1.984040
  H     -1.242140    0.921210    2.984230

 Total Charge           Charge          ....    0
 Multiplicity           Mult            ....    1
 Number of Electrons    NEL             ....   50
 Basis Dimension        Dim             ....  215

ORBITAL ENERGIES
----------------

  NO   OCC          E(Eh)            E(eV)
   0   2.0000     -20.611966      -560.8801
   1   2.0000     -20.601502      -560.5954
   2   2.0000     -20.551117      -559.2243
   3   2.0000     -20.540025      -558.9225
   4   2.0000     -20.515691      -558.2603
   5   2.0000      -1.394860       -37.9561
   6   2.0000      -1.387341       -37.7515
   7   2.0000      -1.335267       -36.3345
   8   2.0000      -1.320948       -35.9448
   9   2.0000      -1.300529       -35.3892
  10   2.0000      -0.752648       -20.4806
  11   2.0000      -0.743883       -20.2421
  12   2.0000      -0.720114       -19.5953
  13   2.0000      -0.698598       -19.0098
  14   2.0000      -0.680459       -18.5162
  15   2.0000      -0.633653       -17.2426
  16   2.0000      -0.623455       -16.9651
  17   2.0000      -0.585649       -15.9363
  18   2.0000      -0.577143       -15.7049
  19   2.0000      -0.543600       -14.7921
  20   2.0000      -0.534452       -14.5432
  21   2.0000      -0.528508       -14.3814
  22   2.0000      -0.497586       -13.5400
  23   2.0000      -0.487953       -13.2779
  24   2.0000      -0.465531       -12.6677
  25   0.0000       0.092150         2.5075
  26   0.0000       0.121689         3.3113
  27   0.0000       0.151519         4.1230
  28   0.0000       0.169996         4.6258
  29   0.0000       0.191034         5.1983

MULLIKEN ATOMIC CHARGES
-----------------------
   0 O :   -0.742640
   1 H :    0.342639
   2 H :    0.379002
   3 O :   -0.708330
   4 H :    0.365736
   5 H :    0.372340
   6 O :   -0.714877
   7 H :    0.327706
   8 H :    0.356108
   9 O :   -0.685758
  10 H :    0.363409
  11 H :    0.365329
  12 O :   -0.732384
  13 H :    0.361037
  14 H :    0.350682
Sum of atomic charges:    0.0000000

LOEWDIN ATOMIC CHARGES
----------------------
   0 O :   -0.342423
   1 H :    0.156463
   2 H :    0.144943
   3 O :   -0.275666
   4 H :    0.176398
   5 H :    0.185090
   6 O :   -0.359899
   7 H :    0.156473
   8 H :    0.141111
   9 O :   -0.269032
  10 H :    0.176330
  11 H :    0.177088
  12 O :   -0.355381
  13 H :    0.146177
  14 H :    0.142328

  Mayer bond orders larger than 0.100000
B(  0-O ,  1-H ) :   0.8478 B(  0-O ,  2-H ) :   0.7637 B(  3-O ,  4-H ) :   0.8300
B(  3-O ,  5-H ) :   0.8203 B(  6-O ,  7-H ) :   0.8572 B(  6-O ,  8-H ) :   0.8036
B(  9-O , 10-H ) :   0.8326 B(  9-O , 11-H ) :   0.8276 B( 12-O , 13-H ) :   0.8333
B( 12-O , 14-H ) :   0.8147

MP2 TOTAL ENERGY:     -381.600555143 Eh
FINAL SINGLE POINT ENERGY      -381.600555143031

DIPOLE MOMENT
-------------
                                X             Y             Z
Electronic contribution:      0.08066      -0.07040       0.00205
Nuclear contribution   :     -0.59936      -0.67960      -0.73962
                        -----------------------------------------
Total Dipole Moment    :     -0.51870      -0.75000      -0.73757
                        -----------------------------------------
Magnitude (a.u.)       :      1.17284
Magnitude (Debye)      :      2.98112

Rotational constants in cm-1:     0.077476     0.049326     0.037011
Rotational constants in MHz :  2322.685402  1478.754607  1109.560830

                             ****ORCA TERMINATED NORMALLY****
TOTAL RUN TIME: 0 days 0 hours 0 minutes 39 seconds 914 msec
