                         Program Version 4.2.0 -  RELEASE  -
|  1> # 12h2o.su.etal.mol0,6,7,8,9,11
|  2> ! MP2 def2-TZVP EnGrad TightSCF
|  3>
|  4> %pal
|  5>     nprocs 6
|  6> end
|  7>
|  8> %maxcore 8000
|  9>
| 10> %scf
| 11>     ConvForced true
| 12> end
| 13>
| 14> *xyz 0 1
| 15> O   1.794470000   0.923410000   2.768350000
| 16> H   2.338250000   1.359750000   3.430940000
| 17> H   0.879480000   1.303000000   2.865760000
| 18> O   1.737840000   0.885520000  -0.052730000
| 19> H   2.090180000   1.032320000   0.841890000
| 20> H   0.839590000   1.284090000  -0.017130000
| 21> O  -1.737840000  -0.885520000  -0.052730000
| 22> H  -2.090180000  -1.032320000   0.841890000
| 23> H  -0.839590000  -1.284090000  -0.017130000
| 24> O   1.752130000   0.741530000  -2.896280000
| 25> H   2.036450000   0.920500000  -1.984040000
| 26> H   0.921210000   1.242140000  -2.984230000
| 27> O   0.741530000  -1.752130000   2.896280000
| 28> H   0.920500000  -2.036450000   1.984040000
| 29> H   1.242140000  -0.921210000   2.984230000
| 30> O  -0.741530000   1.752130000   2.896280000
| 31> H  -0.920500000   2.036450000   1.984040000
| 32> H  -1.242140000   0.921210000   2.984230000
| 33> *
| 34>
| 35>                          ****END OF INPUT****

CARTESIAN COORDINATES (ANGSTROEM)
---------------------------------
  O      1.794470    0.923410    2.768350
  H      2.338250    1.359750    3.430940
  H      0.879480    1.303000    2.865760
  O      1.737840    0.885520   -0.052730
  H      2.090180    1.032320    0.841890
  H      0.839590    1.284090   -0.017130
  O     -1.737840   -0.885520   -0.052730
  H     -2.090180   -1.032320    0.841890
  H     -0.839590   -1.284090   -0.017130
  O      1.752130    0.741530   -2.896280
  H      2.036450    0.920500   -1.984040
  H      0.921210    1.242140   -2.984230
  O      0.741530   -1.752130    2.896280
  H      0.920500   -2.036450    1.984040
  H      1.242140   -0.921210    2.984230
  O     -0.741530    1.752130    2.896280
  H     -0.920500    2.036450    1.984040
  H     -1.242140    0.921210    2.984230

 Total Charge           Charge          ....    0
 Multiplicity           Mult            ....    1
 Number of Electrons    NEL             ....   60
 Basis Dimension        Dim             ....  258

ORBITAL ENERGIES
----------------

  NO   OCC          E(Eh)            E(eV)
   0   2.0000     -20.627567      -561.3046
   1   2.0000     -20.587666      -560.2189
   2   2.0000     -20.580508      -560.0241
   3   2.0000     -20.572754      -559.8131
   4   2.0000     -20.553184      -559.2806
   5   2.0000     -20.527585      -558.5840
   6   2.0000      -1.413878       -38.4736
   7   2.0000      -1.374583       -37.4043
   8   2.0000      -1.356176       -36.9034
   9   2.0000      -1.353092       -36.8195
  10   2.0000      -1.335013       -36.3276
  11   2.0000      -1.309398       -35.6305
  12   2.0000      -0.769739       -20.9457
  13   2.0000      -0.755950       -20.5704
  14   2.0000      -0.723132       -19.6774
  15   2.0000      -0.717731       -19.5305
  16   2.0000      -0.704610       -19.1734
  17   2.0000      -0.678191       -18.4545
  18   2.0000      -0.656258       -17.8577
  19   2.0000      -0.619703       -16.8630
  20   2.0000      -0.599526       -16.3139
  21   2.0000      -0.595499       -16.2044
  22   2.0000      -0.576561       -15.6890
  23   2.0000      -0.559313       -15.2197
  24   2.0000      -0.546758       -14.8781
  25   2.0000      -0.531100       -14.4520
  26   2.0000      -0.523914       -14.2564
  27   2.0000      -0.516164       -14.0455
  28   2.0000      -0.500327       -13.6146
  29   2.0000      -0.474027       -12.8989
  30   0.0000       0.066114         1.7990
  31   0.0000       0.120663         3.2834
  32   0.0000       0.129240         3.5168
  33   0.0000       0.133942         3.6448
  34   0.0000       0.164892         4.4869

MULLIKEN ATOMIC CHARGES
-----------------------
   0 O :   -0.752196
   1 H :    0.356516
   2 H :    0.381879
   3 O :   -0.706435
   4 H :    0.378046
   5 H :    0.317252
   6 O :   -0.679788
   7 H :    0.333183
   8 H :    0.346380
   9 O :   -0.694895
  10 H :    0.370840
  11 H :    0.316954
  12 O :   -0.710080
  13 H :    0.329221
  14 H :    0.364158
  15 O :   -0.679302
  16 H :    0.358992
  17 H :    0.369275
Sum of atomic charges:   -0.0000000

LOEWDIN ATOMIC CHARGES
----------------------
   0 O :   -0.312287
   1 H :    0.162338
   2 H :    0.145611
   3 O :   -0.323178
   4 H :    0.152849
   5 H :    0.159187
   6 O :   -0.334175
   7 H :    0.161299
   8 H :    0.172604
   9 O :   -0.341188
  10 H :    0.151974
  11 H :    0.156770
  12 O :   -0.345881
  13 H :    0.158004
  14 H :    0.147306
  15 O :   -0.263502
  16 H :    0.173071
  17 H :    0.179198

  Mayer bond orders larger than 0.100000
B(  0-O ,  1-H ) :   0.8370 B(  0-O ,  2-H ) :   0.7504 B(  3-O ,  4-H ) :   0.8013
B(  3-O ,  5-H ) :   0.8525 B(  6-O ,  7-H ) :   0.8531 B(  6-O ,  8-H ) :   0.8404
B(  9-O , 10-H ) :   0.8193 B(  9-O , 11-H ) :   0.8644 B( 12-O , 13-H ) :   0.8555
B( 12-O , 14-H ) :   0.8111 B( 15-O , 16-H ) :   0.8353 B( 15-O , 17-H ) :   0.8253

MP2 TOTAL ENERGY:     -457.915098935 Eh
FINAL SINGLE POINT ENERGY      -457.915098934756

DIPOLE MOMENT
-------------
                                X             Y             Z
Electronic contribution:     -0.04100       0.00438       0.17253
Nuclear contribution   :     -0.76395       1.24480       1.49504
                        -----------------------------------------
Total Dipole Moment    :     -0.80495       1.24918       1.66758
                        -----------------------------------------
Magnitude (a.u.)       :      2.23365
Magnitude (Debye)      :      5.67750

Rotational constants in cm-1:     0.048274     0.026601     0.023364
Rotational constants in MHz :  1447.229815   797.471780   700.441261

                             ****ORCA TERMINATED NORMALLY****
TOTAL RUN TIME: 0 days 0 hours 1 minutes 1 seconds 380 msec
