                         Program Version 4.2.0 -  RELEASE  -
|  1> # 12meoh.boyd.etal.mol3,6,10
|  2> ! MP2 def2-TZVP EnGrad TightSCF
|  3>
|  4> %pal
|  5>     nprocs 6
|  6> end
|  7>
|  8> %maxcore 8000
|  9>
| 10> %scf
| 11>     ConvForced true
| 12> end
| 13>
| 14> *xyz 0 1
| 15> O  -3.821405976  -2.118091637   0.596795346
| 16> H  -4.342989117  -1.344303030   0.251966383
| 17> C  -3.443883586  -1.809641231   1.934889393
| 18> H  -2.831494349  -2.637429600   2.305201764
| 19> H  -4.325601146  -1.719364371   2.585074667
| 20> H  -2.858527126  -0.882644791   1.996110694
| 21> O   2.622209273  -1.703002590  -1.445859723
| 22> H   1.828551432  -1.986513781  -0.909754968
| 23> C   2.781117675  -2.615822239  -2.525472890
| 24> H   3.691063626  -2.339003544  -3.065143454
| 25> H   1.934727323  -2.559520367  -3.223226661
| 26> H   2.879948338  -3.653846211  -2.177750170
| 27> O  -5.201143618   0.064582726  -0.172223772
| 28> H  -4.686891530   0.869258890   0.107806143
| 29> C  -6.513192168   0.171391798   0.359883449
| 30> H  -7.049381312  -0.749234190   0.111361174
| 31> H  -7.057741163   1.017801101  -0.081819420
| 32> H  -6.514770575   0.292264928   1.453058834
| 33> *
| 34>
| 35>                          ****END OF INPUT****

CARTESIAN COORDINATES (ANGSTROEM)
---------------------------------
  O     -3.821406   -2.118092    0.596795
  H     -4.342989   -1.344303    0.251966
  C     -3.443884   -1.809641    1.934889
  H     -2.831494   -2.637430    2.305202
  H     -4.325601   -1.719364    2.585075
  H     -2.858527   -0.882645    1.996111
  O      2.622209   -1.703003   -1.445860
  H      1.828551   -1.986514   -0.909755
  C      2.781118   -2.615822   -2.525473
  H      3.691064   -2.339004   -3.065143
  H      1.934727   -2.559520   -3.223227
  H      2.879948   -3.653846   -2.177750
  O     -5.201144    0.064583   -0.172224
  H     -4.686892    0.869259    0.107806
  C     -6.513192    0.171392    0.359883
  H     -7.049381   -0.749234    0.111361
  H     -7.057741    1.017801   -0.081819
  H     -6.514771    0.292265    1.453059

 Total Charge           Charge          ....    0
 Multiplicity           Mult            ....    1
 Number of Electrons    NEL             ....   54
 Basis Dimension        Dim             ....  258

ORBITAL ENERGIES
----------------

  NO   OCC          E(Eh)            E(eV)
   0   2.0000     -20.593646      -560.3816
   1   2.0000     -20.552720      -559.2679
   2   2.0000     -20.518810      -558.3452
   3   2.0000     -11.293216      -307.3040
   4   2.0000     -11.266756      -306.5840
   5   2.0000     -11.256682      -306.3099
   6   2.0000      -1.387666       -37.7603
   7   2.0000      -1.340878       -36.4871
   8   2.0000      -1.315671       -35.8012
   9   2.0000      -0.945117       -25.7179
  10   2.0000      -0.914444       -24.8833
  11   2.0000      -0.902128       -24.5482
  12   2.0000      -0.718780       -19.5590
  13   2.0000      -0.679932       -18.5019
  14   2.0000      -0.675863       -18.3912
  15   2.0000      -0.636539       -17.3211
  16   2.0000      -0.614969       -16.7342
  17   2.0000      -0.612040       -16.6545
  18   2.0000      -0.598109       -16.2754
  19   2.0000      -0.586351       -15.9554
  20   2.0000      -0.566352       -15.4112
  21   2.0000      -0.530590       -14.4381
  22   2.0000      -0.494955       -13.4684
  23   2.0000      -0.492843       -13.4109
  24   2.0000      -0.461030       -12.5453
  25   2.0000      -0.443980       -12.0813
  26   2.0000      -0.422655       -11.5010
  27   0.0000       0.111294         3.0285
  28   0.0000       0.140481         3.8227
  29   0.0000       0.156176         4.2498
  30   0.0000       0.173119         4.7108
  31   0.0000       0.180797         4.9197

MULLIKEN ATOMIC CHARGES
-----------------------
   0 O :   -0.526818
   1 H :    0.359345
   2 C :   -0.184316
   3 H :    0.125875
   4 H :    0.097668
   5 H :    0.092354
   6 O :   -0.500864
   7 H :    0.324557
   8 C :   -0.171160
   9 H :    0.127213
  10 H :    0.110865
  11 H :    0.109387
  12 O :   -0.514072
  13 H :    0.341481
  14 C :   -0.192599
  15 H :    0.148611
  16 H :    0.127734
  17 H :    0.124739
Sum of atomic charges:    0.0000000

LOEWDIN ATOMIC CHARGES
----------------------
   0 O :   -0.122318
   1 H :    0.159149
   2 C :   -0.399134
   3 H :    0.107120
   4 H :    0.090225
   5 H :    0.088355
   6 O :   -0.112091
   7 H :    0.193829
   8 C :   -0.382478
   9 H :    0.109523
  10 H :    0.095713
  11 H :    0.095503
  12 O :   -0.070063
  13 H :    0.200128
  14 C :   -0.376584
  15 H :    0.117617
  16 H :    0.104518
  17 H :    0.100989

  Mayer bond orders larger than 0.100000
B(  0-O ,  1-H ) :   0.7919 B(  0-O ,  2-C ) :   0.9449 B(  2-C ,  3-H ) :   0.9431
B(  2-C ,  4-H ) :   0.9374 B(  2-C ,  5-H ) :   0.9387 B(  6-O ,  7-H ) :   0.8398
B(  6-O ,  8-C ) :   0.9265 B(  8-C ,  9-H ) :   0.9374 B(  8-C , 10-H ) :   0.9392
B(  8-C , 11-H ) :   0.9392 B( 12-O , 13-H ) :   0.8281 B( 12-O , 14-C ) :   0.8714
B( 14-C , 15-H ) :   0.9387 B( 14-C , 16-H ) :   0.9352 B( 14-C , 17-H ) :   0.9367

MP2 TOTAL ENERGY:     -346.528979006 Eh
FINAL SINGLE POINT ENERGY      -346.528979006486

DIPOLE MOMENT
-------------
                                X             Y             Z
Electronic contribution:      0.86933       0.67015      -1.26156
Nuclear contribution   :     -1.96338       0.15639       1.70150
                        -----------------------------------------
Total Dipole Moment    :     -1.09405       0.82654       0.43993
                        -----------------------------------------
Magnitude (a.u.)       :      1.44001
Magnitude (Debye)      :      3.66023

Rotational constants in cm-1:     0.119083     0.011377     0.010769
Rotational constants in MHz :  3570.005790   341.075670   322.841017

                             ****ORCA TERMINATED NORMALLY****
TOTAL RUN TIME: 0 days 0 hours 0 minutes 58 seconds 716 msec
