                         Program Version 4.2.0 -  RELEASE  -
|  1> # 12h2o.su.etal.mol1,2,4,5,8,10,11
|  2> ! MP2 def2-TZVP EnGrad TightSCF
|  3>
|  4> %pal
|  5>     nprocs 6
|  6> end
|  7>
|  8> %maxcore 8000
|  9>
| 10> %scf
| 11>     ConvForced true
| 12> end
| 13>
| 14> *xyz 0 1
| 15> O  -1.794470000  -0.923410000   2.768350000
| 16> H  -2.338250000  -1.359750000   3.430940000
| 17> H  -0.879480000  -1.303000000   2.865760000
| 18> O   0.923410000  -1.794470000  -2.768350000
| 19> H   1.359750000  -2.338250000  -3.430940000
| 20> H   1.303000000  -0.879480000  -2.865760000
| 21> O  -0.885520000   1.737840000   0.052730000
| 22> H  -1.032320000   2.090180000  -0.841890000
| 23> H  -1.284090000   0.839590000   0.017130000
| 24> O   0.885520000  -1.737840000   0.052730000
| 25> H   1.284090000  -0.839590000   0.017130000
| 26> H   1.032320000  -2.090180000  -0.841890000
| 27> O   1.752130000   0.741530000  -2.896280000
| 28> H   2.036450000   0.920500000  -1.984040000
| 29> H   0.921210000   1.242140000  -2.984230000
| 30> O  -0.923410000   1.794470000  -2.768350000
| 31> H  -1.359750000   2.338250000  -3.430940000
| 32> H  -1.303000000   0.879480000  -2.865760000
| 33> O  -0.741530000   1.752130000   2.896280000
| 34> H  -0.920500000   2.036450000   1.984040000
| 35> H  -1.242140000   0.921210000   2.984230000
| 36> *
| 37>
| 38>                          ****END OF INPUT****

CARTESIAN COORDINATES (ANGSTROEM)
---------------------------------
  O     -1.794470   -0.923410    2.768350
  H     -2.338250   -1.359750    3.430940
  H     -0.879480   -1.303000    2.865760
  O      0.923410   -1.794470   -2.768350
  H      1.359750   -2.338250   -3.430940
  H      1.303000   -0.879480   -2.865760
  O     -0.885520    1.737840    0.052730
  H     -1.032320    2.090180   -0.841890
  H     -1.284090    0.839590    0.017130
  O      0.885520   -1.737840    0.052730
  H      1.284090   -0.839590    0.017130
  H      1.032320   -2.090180   -0.841890
  O      1.752130    0.741530   -2.896280
  H      2.036450    0.920500   -1.984040
  H      0.921210    1.242140   -2.984230
  O     -0.923410    1.794470   -2.768350
  H     -1.359750    2.338250   -3.430940
  H     -1.303000    0.879480   -2.865760
  O     -0.741530    1.752130    2.896280
  H     -0.920500    2.036450    1.984040
  H     -1.242140    0.921210    2.984230

 Total Charge           Charge          ....    0
 Multiplicity           Mult            ....    1
 Number of Electrons    NEL             ....   70
 Basis Dimension        Dim             ....  301

ORBITAL ENERGIES
----------------

  NO   OCC          E(Eh)            E(eV)
   0   2.0000     -20.630858      -561.3942
   1   2.0000     -20.589751      -560.2756
   2   2.0000     -20.570629      -559.7553
   3   2.0000     -20.558807      -559.4336
   4   2.0000     -20.551117      -559.2243
   5   2.0000     -20.532803      -558.7260
   6   2.0000     -20.491323      -557.5973
   7   2.0000      -1.411411       -38.4064
   8   2.0000      -1.378697       -37.5162
   9   2.0000      -1.348356       -36.6906
  10   2.0000      -1.340228       -36.4695
  11   2.0000      -1.335699       -36.3462
  12   2.0000      -1.310810       -35.6689
  13   2.0000      -1.276729       -34.7416
  14   2.0000      -0.777043       -21.1444
  15   2.0000      -0.740448       -20.1486
  16   2.0000      -0.719467       -19.5777
  17   2.0000      -0.715240       -19.4627
  18   2.0000      -0.711351       -19.3569
  19   2.0000      -0.679882       -18.5005
  20   2.0000      -0.654591       -17.8123
  21   2.0000      -0.650647       -17.7050
  22   2.0000      -0.621544       -16.9131
  23   2.0000      -0.596109       -16.2209
  24   2.0000      -0.586464       -15.9585
  25   2.0000      -0.577491       -15.7143
  26   2.0000      -0.560680       -15.2569
  27   2.0000      -0.554105       -15.0780
  28   2.0000      -0.525727       -14.3057
  29   2.0000      -0.524945       -14.2845
  30   2.0000      -0.507108       -13.7991
  31   2.0000      -0.498412       -13.5625
  32   2.0000      -0.496112       -13.4999
  33   2.0000      -0.478124       -13.0104
  34   2.0000      -0.441533       -12.0147
  35   0.0000       0.080276         2.1844
  36   0.0000       0.119712         3.2575
  37   0.0000       0.132782         3.6132
  38   0.0000       0.151595         4.1251
  39   0.0000       0.162747         4.4286

MULLIKEN ATOMIC CHARGES
-----------------------
   0 O :   -0.698752
   1 H :    0.346891
   2 H :    0.370757
   3 O :   -0.742080
   4 H :    0.338603
   5 H :    0.365776
   6 O :   -0.713971
   7 H :    0.365093
   8 H :    0.346298
   9 O :   -0.701201
  10 H :    0.316432
  11 H :    0.369711
  12 O :   -0.697258
  13 H :    0.355867
  14 H :    0.377570
  15 O :   -0.723174
  16 H :    0.370639
  17 H :    0.378511
  18 O :   -0.729450
  19 H :    0.363023
  20 H :    0.340712
Sum of atomic charges:   -0.0000000

LOEWDIN ATOMIC CHARGES
----------------------
   0 O :   -0.312707
   1 H :    0.160845
   2 H :    0.191629
   3 O :   -0.344088
   4 H :    0.154241
   5 H :    0.141511
   6 O :   -0.324912
   7 H :    0.148138
   8 H :    0.171688
   9 O :   -0.348977
  10 H :    0.157853
  11 H :    0.149748
  12 O :   -0.277416
  13 H :    0.170809
  14 H :    0.154123
  15 O :   -0.287748
  16 H :    0.171179
  17 H :    0.194997
  18 O :   -0.359016
  19 H :    0.147966
  20 H :    0.140135

  Mayer bond orders larger than 0.100000
B(  0-O ,  1-H ) :   0.8448 B(  0-O ,  2-H ) :   0.8222 B(  3-O ,  4-H ) :   0.8495
B(  3-O ,  5-H ) :   0.7608 B(  6-O ,  7-H ) :   0.8189 B(  6-O ,  8-H ) :   0.8359
B(  9-O , 10-H ) :   0.8588 B(  9-O , 11-H ) :   0.8101 B( 12-O , 13-H ) :   0.8372
B( 12-O , 14-H ) :   0.8015 B( 15-O , 16-H ) :   0.8282 B( 15-O , 17-H ) :   0.8139
B( 18-O , 19-H ) :   0.8281 B( 18-O , 20-H ) :   0.8308

MP2 TOTAL ENERGY:     -534.240287688 Eh
FINAL SINGLE POINT ENERGY      -534.240287688455

DIPOLE MOMENT
-------------
                                X             Y             Z
Electronic contribution:     -0.03531       0.28235      -0.19269
Nuclear contribution   :     -0.71164      -0.56846      -2.18115
                        -----------------------------------------
Total Dipole Moment    :     -0.74695      -0.28611      -2.37384
                        -----------------------------------------
Magnitude (a.u.)       :      2.50498
Magnitude (Debye)      :      6.36715

Rotational constants in cm-1:     0.042270     0.019426     0.015163
Rotational constants in MHz :  1267.229416   582.370248   454.575952

                             ****ORCA TERMINATED NORMALLY****
TOTAL RUN TIME: 0 days 0 hours 1 minutes 40 seconds 835 msec
