                         Program Version 4.2.0 -  RELEASE  -
|  1> # 12meoh.boyd.etal.mol0
|  2> ! MP2 def2-TZVP EnGrad TightSCF
|  3>
|  4> %pal
|  5>     nprocs 6
|  6> end
|  7>
|  8> %maxcore 8000
|  9>
| 10> %scf
| 11>     ConvForced true
| 12> end
| 13>
| 14> *xyz 0 1
| 15> O  -1.776108874  -2.741384797  -1.019308298
| 16> H  -2.520094035  -2.452295987  -0.420778302
| 17> C  -2.174025166  -3.952700964  -1.647004581
| 18> H  -1.359803895  -4.272673416  -2.304149236
| 19> H  -3.075973971  -3.808692420  -2.256751112
| 20> H  -2.370225393  -4.752784761  -0.918966137
| 21> *
| 22>
| 23>                          ****END OF INPUT****

CARTESIAN COORDINATES (ANGSTROEM)
---------------------------------
  O     -1.776109   -2.741385   -1.019308
  H     -2.520094   -2.452296   -0.420778
  C     -2.174025   -3.952701   -1.647005
  H     -1.359804   -4.272673   -2.304149
  H     -3.075974   -3.808692   -2.256751
  H     -2.370225   -4.752785   -0.918966

 Total Charge           Charge          ....    0
 Multiplicity           Mult            ....    1
 Number of Electrons    NEL             ....   18
 Basis Dimension        Dim             ....   86

ORBITAL ENERGIES
----------------

  NO   OCC          E(Eh)            E(eV)
   0   2.0000     -20.558077      -559.4137
   1   2.0000     -11.271523      -306.7137
   2   2.0000      -1.347183       -36.6587
   3   2.0000      -0.919105       -25.0101
   4   2.0000      -0.681617       -18.5477
   5   2.0000      -0.617304       -16.7977
   6   2.0000      -0.591238       -16.0884
   7   2.0000      -0.500290       -13.6136
   8   2.0000      -0.448994       -12.2177
   9   0.0000       0.134556         3.6615
  10   0.0000       0.175814         4.7841
  11   0.0000       0.229563         6.2467
  12   0.0000       0.230299         6.2668
  13   0.0000       0.254588         6.9277

MULLIKEN ATOMIC CHARGES
-----------------------
   0 O :   -0.495401
   1 H :    0.321491
   2 C :   -0.173380
   3 H :    0.129390
   4 H :    0.109003
   5 H :    0.108897
Sum of atomic charges:   -0.0000000

LOEWDIN ATOMIC CHARGES
----------------------
   0 O :   -0.108791
   1 H :    0.192442
   2 C :   -0.384350
   3 H :    0.110478
   4 H :    0.095079
   5 H :    0.095143

  Mayer bond orders larger than 0.100000
B(  0-O ,  1-H ) :   0.8418 B(  0-O ,  2-C ) :   0.9270 B(  2-C ,  3-H ) :   0.9375
B(  2-C ,  4-H ) :   0.9397 B(  2-C ,  5-H ) :   0.9381

MP2 TOTAL ENERGY:     -115.506469354 Eh
FINAL SINGLE POINT ENERGY      -115.506469353949

DIPOLE MOMENT
-------------
                                X             Y             Z
Electronic contribution:      0.64311       1.51854       0.71979
Nuclear contribution   :     -1.25904      -1.83097      -0.60810
                        -----------------------------------------
Total Dipole Moment    :     -0.61593      -0.31243       0.11169
                        -----------------------------------------
Magnitude (a.u.)       :      0.69961
Magnitude (Debye)      :      1.77826

Rotational constants in cm-1:     4.188034     0.824581     0.792748
Rotational constants in MHz : 125554.088688 24720.319949 23765.978857

                             ****ORCA TERMINATED NORMALLY****
TOTAL RUN TIME: 0 days 0 hours 0 minutes 9 seconds 441 msec
