                         Program Version 4.2.0 -  RELEASE  -
|  1> # 12mecn.remya.etal.2.mol5,6
|  2> ! MP2 def2-TZVP EnGrad TightSCF
|  3>
|  4> %pal
|  5>     nprocs 6
|  6> end
|  7>
|  8> %maxcore 8000
|  9>
| 10> %scf
| 11>     ConvForced true
| 12> end
| 13>
| 14> *xyz 0 1
| 15> C  -1.955700000   2.515080000   1.698463000
| 16> H  -2.923830000   2.883163000   2.049269000
| 17> H  -1.154850000   3.171830000   2.050990000
| 18> H  -1.790380000   1.506115000   2.087896000
| 19> C  -1.948230000   2.482156000   0.253672000
| 20> N  -1.937550000   2.462523000  -0.913150000
| 21> C   5.300864000  -2.920090000   1.401103000
| 22> H   5.986071000  -2.139770000   1.737487000
| 23> H   5.636642000  -3.888750000   1.778233000
| 24> H   4.307359000  -2.697240000   1.799307000
| 25> C   5.234791000  -2.933140000  -0.043290000
| 26> N   5.170868000  -2.941760000  -1.207750000
| 27> *
| 28>
| 29>                          ****END OF INPUT****

CARTESIAN COORDINATES (ANGSTROEM)
---------------------------------
  C     -1.955700    2.515080    1.698463
  H     -2.923830    2.883163    2.049269
  H     -1.154850    3.171830    2.050990
  H     -1.790380    1.506115    2.087896
  C     -1.948230    2.482156    0.253672
  N     -1.937550    2.462523   -0.913150
  C      5.300864   -2.920090    1.401103
  H      5.986071   -2.139770    1.737487
  H      5.636642   -3.888750    1.778233
  H      4.307359   -2.697240    1.799307
  C      5.234791   -2.933140   -0.043290
  N      5.170868   -2.941760   -1.207750

 Total Charge           Charge          ....    0
 Multiplicity           Mult            ....    1
 Number of Electrons    NEL             ....   44
 Basis Dimension        Dim             ....  222

ORBITAL ENERGIES
----------------

  NO   OCC          E(Eh)            E(eV)
   0   2.0000     -15.573523      -423.7771
   1   2.0000     -15.573286      -423.7707
   2   2.0000     -11.286421      -307.1191
   3   2.0000     -11.285649      -307.0981
   4   2.0000     -11.280265      -306.9516
   5   2.0000     -11.280046      -306.9457
   6   2.0000      -1.214776       -33.0557
   7   2.0000      -1.214560       -33.0498
   8   2.0000      -1.044855       -28.4320
   9   2.0000      -1.044503       -28.4224
  10   2.0000      -0.701822       -19.0975
  11   2.0000      -0.700576       -19.0636
  12   2.0000      -0.633991       -17.2518
  13   2.0000      -0.633593       -17.2409
  14   2.0000      -0.632129       -17.2011
  15   2.0000      -0.630880       -17.1671
  16   2.0000      -0.555890       -15.1265
  17   2.0000      -0.555861       -15.1258
  18   2.0000      -0.458170       -12.4674
  19   2.0000      -0.457822       -12.4580
  20   2.0000      -0.457595       -12.4518
  21   2.0000      -0.457590       -12.4516
  22   0.0000       0.117738         3.2038
  23   0.0000       0.118109         3.2139
  24   0.0000       0.170127         4.6294
  25   0.0000       0.170667         4.6441
  26   0.0000       0.170687         4.6446

MULLIKEN ATOMIC CHARGES
-----------------------
   0 C :   -0.279442
   1 H :    0.172403
   2 H :    0.171874
   3 H :    0.170862
   4 C :   -0.145726
   5 N :   -0.089970
   6 C :   -0.280872
   7 H :    0.171971
   8 H :    0.172526
   9 H :    0.170610
  10 C :   -0.145671
  11 N :   -0.088564
Sum of atomic charges:    0.0000000

LOEWDIN ATOMIC CHARGES
----------------------
   0 C :   -0.284417
   1 H :    0.152531
   2 H :    0.152535
   3 H :    0.152114
   4 C :   -0.220277
   5 N :    0.047513
   6 C :   -0.284285
   7 H :    0.151373
   8 H :    0.151335
   9 H :    0.152524
  10 C :   -0.219143
  11 N :    0.048195

  Mayer bond orders larger than 0.100000
B(  0-C ,  1-H ) :   0.9164 B(  0-C ,  2-H ) :   0.9167 B(  0-C ,  3-H ) :   0.9170
B(  0-C ,  4-C ) :   0.9013 B(  4-C ,  5-N ) :   2.8353 B(  6-C ,  7-H ) :   0.9170
B(  6-C ,  8-H ) :   0.9162 B(  6-C ,  9-H ) :   0.9172 B(  6-C , 10-C ) :   0.9028
B( 10-C , 11-N ) :   2.8357

MP2 TOTAL ENERGY:     -264.965819806 Eh
FINAL SINGLE POINT ENERGY      -264.965819805859

DIPOLE MOMENT
-------------
                                X             Y             Z
Electronic contribution:     -0.11471      -0.10668      -6.25288
Nuclear contribution   :      0.17753       0.15272       9.29358
                        -----------------------------------------
Total Dipole Moment    :      0.06282       0.04603       3.04071
                        -----------------------------------------
Magnitude (a.u.)       :      3.04171
Magnitude (Debye)      :      7.73140

Rotational constants in cm-1:     0.154361     0.010090     0.009505
Rotational constants in MHz :  4627.635292   302.492601   284.961779

                             ****ORCA TERMINATED NORMALLY****
TOTAL RUN TIME: 0 days 0 hours 0 minutes 44 seconds 391 msec
