                         Program Version 4.2.0 -  RELEASE  -
|  1> # 12h2o.su.etal.mol1,2,3,4,6,7,9,10
|  2> ! MP2 def2-TZVP EnGrad TightSCF
|  3>
|  4> %pal
|  5>     nprocs 6
|  6> end
|  7>
|  8> %maxcore 8000
|  9>
| 10> %scf
| 11>     ConvForced true
| 12> end
| 13>
| 14> *xyz 0 1
| 15> O  -1.794470000  -0.923410000   2.768350000
| 16> H  -2.338250000  -1.359750000   3.430940000
| 17> H  -0.879480000  -1.303000000   2.865760000
| 18> O   0.923410000  -1.794470000  -2.768350000
| 19> H   1.359750000  -2.338250000  -3.430940000
| 20> H   1.303000000  -0.879480000  -2.865760000
| 21> O  -1.752130000  -0.741530000  -2.896280000
| 22> H  -2.036450000  -0.920500000  -1.984040000
| 23> H  -0.921210000  -1.242140000  -2.984230000
| 24> O  -0.885520000   1.737840000   0.052730000
| 25> H  -1.032320000   2.090180000  -0.841890000
| 26> H  -1.284090000   0.839590000   0.017130000
| 27> O   1.737840000   0.885520000  -0.052730000
| 28> H   2.090180000   1.032320000   0.841890000
| 29> H   0.839590000   1.284090000  -0.017130000
| 30> O  -1.737840000  -0.885520000  -0.052730000
| 31> H  -2.090180000  -1.032320000   0.841890000
| 32> H  -0.839590000  -1.284090000  -0.017130000
| 33> O   0.741530000  -1.752130000   2.896280000
| 34> H   0.920500000  -2.036450000   1.984040000
| 35> H   1.242140000  -0.921210000   2.984230000
| 36> O  -0.923410000   1.794470000  -2.768350000
| 37> H  -1.359750000   2.338250000  -3.430940000
| 38> H  -1.303000000   0.879480000  -2.865760000
| 39> *
| 40>
| 41>                          ****END OF INPUT****

CARTESIAN COORDINATES (ANGSTROEM)
---------------------------------
  O     -1.794470   -0.923410    2.768350
  H     -2.338250   -1.359750    3.430940
  H     -0.879480   -1.303000    2.865760
  O      0.923410   -1.794470   -2.768350
  H      1.359750   -2.338250   -3.430940
  H      1.303000   -0.879480   -2.865760
  O     -1.752130   -0.741530   -2.896280
  H     -2.036450   -0.920500   -1.984040
  H     -0.921210   -1.242140   -2.984230
  O     -0.885520    1.737840    0.052730
  H     -1.032320    2.090180   -0.841890
  H     -1.284090    0.839590    0.017130
  O      1.737840    0.885520   -0.052730
  H      2.090180    1.032320    0.841890
  H      0.839590    1.284090   -0.017130
  O     -1.737840   -0.885520   -0.052730
  H     -2.090180   -1.032320    0.841890
  H     -0.839590   -1.284090   -0.017130
  O      0.741530   -1.752130    2.896280
  H      0.920500   -2.036450    1.984040
  H      1.242140   -0.921210    2.984230
  O     -0.923410    1.794470   -2.768350
  H     -1.359750    2.338250   -3.430940
  H     -1.303000    0.879480   -2.865760

 Total Charge           Charge          ....    0
 Multiplicity           Mult            ....    1
 Number of Electrons    NEL             ....   80
 Basis Dimension        Dim             ....  344

ORBITAL ENERGIES
----------------

  NO   OCC          E(Eh)            E(eV)
   0   2.0000     -20.614515      -560.9495
   1   2.0000     -20.589716      -560.2747
   2   2.0000     -20.581694      -560.0564
   3   2.0000     -20.557208      -559.3901
   4   2.0000     -20.547690      -559.1311
   5   2.0000     -20.529322      -558.6312
   6   2.0000     -20.526471      -558.5537
   7   2.0000     -20.516455      -558.2811
   8   2.0000      -1.400099       -38.0986
   9   2.0000      -1.370557       -37.2948
  10   2.0000      -1.367438       -37.2099
  11   2.0000      -1.341113       -36.4935
  12   2.0000      -1.338694       -36.4277
  13   2.0000      -1.317185       -35.8424
  14   2.0000      -1.310019       -35.6474
  15   2.0000      -1.296590       -35.2820
  16   2.0000      -0.757150       -20.6031
  17   2.0000      -0.735098       -20.0030
  18   2.0000      -0.732568       -19.9342
  19   2.0000      -0.725940       -19.7538
  20   2.0000      -0.704398       -19.1677
  21   2.0000      -0.695658       -18.9298
  22   2.0000      -0.680729       -18.5236
  23   2.0000      -0.677844       -18.4451
  24   2.0000      -0.641270       -17.4498
  25   2.0000      -0.624954       -17.0059
  26   2.0000      -0.605789       -16.4843
  27   2.0000      -0.590060       -16.0563
  28   2.0000      -0.577287       -15.7088
  29   2.0000      -0.574796       -15.6410
  30   2.0000      -0.555628       -15.1194
  31   2.0000      -0.543704       -14.7950
  32   2.0000      -0.538314       -14.6483
  33   2.0000      -0.527200       -14.3458
  34   2.0000      -0.512225       -13.9384
  35   2.0000      -0.506485       -13.7822
  36   2.0000      -0.490275       -13.3411
  37   2.0000      -0.477944       -13.0055
  38   2.0000      -0.475802       -12.9472
  39   2.0000      -0.463062       -12.6006
  40   0.0000       0.082328         2.2403
  41   0.0000       0.117202         3.1892
  42   0.0000       0.140516         3.8236
  43   0.0000       0.153048         4.1647
  44   0.0000       0.159686         4.3453

MULLIKEN ATOMIC CHARGES
-----------------------
   0 O :   -0.732792
   1 H :    0.341609
   2 H :    0.370586
   3 O :   -0.711649
   4 H :    0.353382
   5 H :    0.380891
   6 O :   -0.718468
   7 H :    0.384083
   8 H :    0.364114
   9 O :   -0.733814
  10 H :    0.374994
  11 H :    0.361433
  12 O :   -0.726306
  13 H :    0.310285
  14 H :    0.367594
  15 O :   -0.730327
  16 H :    0.391836
  17 H :    0.345088
  18 O :   -0.677564
  19 H :    0.359109
  20 H :    0.365294
  21 O :   -0.741570
  22 H :    0.332363
  23 H :    0.369828
Sum of atomic charges:   -0.0000000

LOEWDIN ATOMIC CHARGES
----------------------
   0 O :   -0.336291
   1 H :    0.156612
   2 H :    0.143731
   3 O :   -0.314559
   4 H :    0.164248
   5 H :    0.195605
   6 O :   -0.287686
   7 H :    0.154891
   8 H :    0.148797
   9 O :   -0.318860
  10 H :    0.149139
  11 H :    0.139327
  12 O :   -0.367368
  13 H :    0.148672
  14 H :    0.143654
  15 O :   -0.284196
  16 H :    0.158415
  17 H :    0.169565
  18 O :   -0.266034
  19 H :    0.173070
  20 H :    0.178979
  21 O :   -0.344193
  22 H :    0.151415
  23 H :    0.143066

  Mayer bond orders larger than 0.100000
B(  0-O ,  1-H ) :   0.8482 B(  0-O ,  2-H ) :   0.7683 B(  3-O ,  4-H ) :   0.8411
B(  3-O ,  5-H ) :   0.8138 B(  6-O ,  7-H ) :   0.8066 B(  6-O ,  8-H ) :   0.8056
B(  6-O , 23-H ) :   0.1107 B(  9-O , 10-H ) :   0.8007 B(  9-O , 11-H ) :   0.7948
B(  9-O , 14-H ) :   0.1168 B( 12-O , 13-H ) :   0.8665 B( 12-O , 14-H ) :   0.7651
B( 15-O , 16-H ) :   0.7799 B( 15-O , 17-H ) :   0.8334 B( 18-O , 19-H ) :   0.8350
B( 18-O , 20-H ) :   0.8303 B( 21-O , 22-H ) :   0.8529 B( 21-O , 23-H ) :   0.7513

MP2 TOTAL ENERGY:     -610.581786000 Eh
FINAL SINGLE POINT ENERGY      -610.581786000141

DIPOLE MOMENT
-------------
                                X             Y             Z
Electronic contribution:     -0.13281      -0.35017       0.15723
Nuclear contribution   :      0.87566      -1.24423       0.14168
                        -----------------------------------------
Total Dipole Moment    :      0.74285      -1.59440       0.29891
                        -----------------------------------------
Magnitude (a.u.)       :      1.78417
Magnitude (Debye)      :      4.53501

Rotational constants in cm-1:     0.033809     0.017387     0.016918
Rotational constants in MHz :  1013.570958   521.262941   507.184854

                             ****ORCA TERMINATED NORMALLY****
TOTAL RUN TIME: 0 days 0 hours 3 minutes 5 seconds 367 msec
