                         Program Version 4.2.0 -  RELEASE  -
|  1> # 12h2o.su.etal.mol3,6,10
|  2> ! MP2 def2-TZVP EnGrad TightSCF
|  3>
|  4> %pal
|  5>     nprocs 6
|  6> end
|  7>
|  8> %maxcore 8000
|  9>
| 10> %scf
| 11>     ConvForced true
| 12> end
| 13>
| 14> *xyz 0 1
| 15> O  -1.752130000  -0.741530000  -2.896280000
| 16> H  -2.036450000  -0.920500000  -1.984040000
| 17> H  -0.921210000  -1.242140000  -2.984230000
| 18> O   1.737840000   0.885520000  -0.052730000
| 19> H   2.090180000   1.032320000   0.841890000
| 20> H   0.839590000   1.284090000  -0.017130000
| 21> O  -0.923410000   1.794470000  -2.768350000
| 22> H  -1.359750000   2.338250000  -3.430940000
| 23> H  -1.303000000   0.879480000  -2.865760000
| 24> *
| 25>
| 26>                          ****END OF INPUT****

CARTESIAN COORDINATES (ANGSTROEM)
---------------------------------
  O     -1.752130   -0.741530   -2.896280
  H     -2.036450   -0.920500   -1.984040
  H     -0.921210   -1.242140   -2.984230
  O      1.737840    0.885520   -0.052730
  H      2.090180    1.032320    0.841890
  H      0.839590    1.284090   -0.017130
  O     -0.923410    1.794470   -2.768350
  H     -1.359750    2.338250   -3.430940
  H     -1.303000    0.879480   -2.865760

 Total Charge           Charge          ....    0
 Multiplicity           Mult            ....    1
 Number of Electrons    NEL             ....   30
 Basis Dimension        Dim             ....  129

ORBITAL ENERGIES
----------------

  NO   OCC          E(Eh)            E(eV)
   0   2.0000     -20.597813      -560.4950
   1   2.0000     -20.553758      -559.2962
   2   2.0000     -20.519009      -558.3506
   3   2.0000      -1.383084       -37.6356
   4   2.0000      -1.329781       -36.1852
   5   2.0000      -1.301282       -35.4097
   6   2.0000      -0.740594       -20.1526
   7   2.0000      -0.692584       -18.8462
   8   2.0000      -0.691094       -18.8056
   9   2.0000      -0.618062       -16.8183
  10   2.0000      -0.569226       -15.4894
  11   2.0000      -0.558851       -15.2071
  12   2.0000      -0.515351       -14.0234
  13   2.0000      -0.496798       -13.5186
  14   2.0000      -0.469252       -12.7690
  15   0.0000       0.105988         2.8841
  16   0.0000       0.142277         3.8716
  17   0.0000       0.175559         4.7772
  18   0.0000       0.183549         4.9946
  19   0.0000       0.219864         5.9828

MULLIKEN ATOMIC CHARGES
-----------------------
   0 O :   -0.678447
   1 H :    0.357268
   2 H :    0.364636
   3 O :   -0.679471
   4 H :    0.330274
   5 H :    0.346308
   6 O :   -0.729680
   7 H :    0.325415
   8 H :    0.363697
Sum of atomic charges:   -0.0000000

LOEWDIN ATOMIC CHARGES
----------------------
   0 O :   -0.270834
   1 H :    0.174489
   2 H :    0.179227
   3 O :   -0.339258
   4 H :    0.162168
   5 H :    0.174582
   6 O :   -0.371048
   7 H :    0.149161
   8 H :    0.141513

  Mayer bond orders larger than 0.100000
B(  0-O ,  1-H ) :   0.8378 B(  0-O ,  2-H ) :   0.8328 B(  3-O ,  4-H ) :   0.8564
B(  3-O ,  5-H ) :   0.8431 B(  6-O ,  7-H ) :   0.8603 B(  6-O ,  8-H ) :   0.7884

MP2 TOTAL ENERGY:     -228.947295449 Eh
FINAL SINGLE POINT ENERGY      -228.947295448924

DIPOLE MOMENT
-------------
                                X             Y             Z
Electronic contribution:      0.02244      -0.23036      -0.17419
Nuclear contribution   :     -0.67857      -0.42069       0.82779
                        -----------------------------------------
Total Dipole Moment    :     -0.65613      -0.65105       0.65360
                        -----------------------------------------
Magnitude (a.u.)       :      1.13206
Magnitude (Debye)      :      2.87747

Rotational constants in cm-1:     0.285964     0.075795     0.060692
Rotational constants in MHz :  8572.992809  2272.277259  1819.497711

                             ****ORCA TERMINATED NORMALLY****
TOTAL RUN TIME: 0 days 0 hours 0 minutes 11 seconds 52 msec
