                         Program Version 3.0.3 - RELEASE   -
|  1> ! B3LYP Def2-TZVP def2-TZVP/J RIJCOSX TightSCF Grid4 D3BJ COSMO
|  2>
|  3> %pal nprocs 12 end
|  4>
|  5> %scf
|  6>         maxiter 400
|  7> end
|  8>
|  9> %cosmo
| 10>         SMD true
| 11>         solvent "WATER"
| 12> end
| 13>
| 14> * xyz  0  1
| 15> O  3.229003	0.481938	-3.152808
| 16> H  2.593395	-0.108454	-3.651839
| 17> H  3.527783	1.161029	-3.776192
| 18> O  -2.503247	0.207741	-0.478289
| 19> H  -2.193107	-0.433781	0.211554
| 20> H  -3.124820	0.789038	0.024376
| 21> O  -0.584471	-0.677586	-2.262921
| 22> H  -1.422468	-0.291444	-1.933055
| 23> H  0.120542	-0.071906	-1.911654
| 24> O  1.460721	-1.277189	-4.088175
| 25> H  1.736983	-1.992534	-3.464363
| 26> H  0.589958	-1.011798	-3.729021
| 27> O  2.236209	-2.964864	-2.090207
| 28> H  2.625544	-3.815145	-2.347949
| 29> H  3.005922	-2.413677	-1.769293
| 30> O  -3.727954	1.770975	1.351913
| 31> H  -4.591789	2.210829	1.316915
| 32> H  -3.075277	2.485488	1.604242
| 33> O  0.344456	0.554540	2.046916
| 34> H  -0.050143	0.897802	2.887512
| 35> H  0.043552	1.191800	1.351435
| 36> O  -3.281262	-0.103727	3.313299
| 37> H  -2.788674	-0.765886	2.786204
| 38> H  -3.596277	0.535658	2.630107
| 39> O  -1.252404	1.539499	3.966176
| 40> H  -2.019873	0.908715	3.869297
| 41> H  -1.104488	1.649467	4.917767
| 42> O  1.402796	0.800186	-1.238952
| 43> H  2.100502	0.869157	-1.940230
| 44> H  1.772412	0.209244	-0.534840
| 45> O  -1.770414	3.444891	2.045447
| 46> H  -1.184032	3.156823	1.313862
| 47> H  -1.498668	2.896875	2.817501
| 48> O  -1.496899	-1.348510	1.508030
| 49> H  -0.782712	-0.708448	1.766991
| 50> H  -1.012088	-2.059337	1.041417
| 51> O  -0.570476	2.101434	-0.020124
| 52> H  0.221087	1.869880	-0.561410
| 53> H  -1.261129	1.446925	-0.294564
| 54> O  4.133585	-1.270012	-1.251281
| 55> H  3.628906	-0.988846	-0.460433
| 56> H  3.994429	-0.558697	-1.915438
| 57> O  2.138987	-0.955994	0.694365
| 58> H  1.691326	-0.416619	1.385234
| 59> H  1.428226	-1.577215	0.389713
| 60> O  0.183535	-2.511017	-0.387330
| 61> H  0.888186	-2.956368	-0.914698
| 62> H  -0.205374	-1.900876	-1.065207
| 63> **                         ****END OF INPUT****

CARTESIAN COORDINATES (ANGSTROEM)
---------------------------------
  O      3.229003    0.481938   -3.152808
  H      2.593395   -0.108454   -3.651839
  H      3.527783    1.161029   -3.776192
  O     -2.503247    0.207741   -0.478289
  H     -2.193107   -0.433781    0.211554
  H     -3.124820    0.789038    0.024376
  O     -0.584471   -0.677586   -2.262921
  H     -1.422468   -0.291444   -1.933055
  H      0.120542   -0.071906   -1.911654
  O      1.460721   -1.277189   -4.088175
  H      1.736983   -1.992534   -3.464363
  H      0.589958   -1.011798   -3.729021
  O      2.236209   -2.964864   -2.090207
  H      2.625544   -3.815145   -2.347949
  H      3.005922   -2.413677   -1.769293
  O     -3.727954    1.770975    1.351913
  H     -4.591789    2.210829    1.316915
  H     -3.075277    2.485488    1.604242
  O      0.344456    0.554540    2.046916
  H     -0.050143    0.897802    2.887512
  H      0.043552    1.191800    1.351435
  O     -3.281262   -0.103727    3.313299
  H     -2.788674   -0.765886    2.786204
  H     -3.596277    0.535658    2.630107
  O     -1.252404    1.539499    3.966176
  H     -2.019873    0.908715    3.869297
  H     -1.104488    1.649467    4.917767
  O      1.402796    0.800186   -1.238952
  H      2.100502    0.869157   -1.940230
  H      1.772412    0.209244   -0.534840
  O     -1.770414    3.444891    2.045447
  H     -1.184032    3.156823    1.313862
  H     -1.498668    2.896875    2.817501
  O     -1.496899   -1.348510    1.508030
  H     -0.782712   -0.708448    1.766991
  H     -1.012088   -2.059337    1.041417
  O     -0.570476    2.101434   -0.020124
  H      0.221087    1.869880   -0.561410
  H     -1.261129    1.446925   -0.294564
  O      4.133585   -1.270012   -1.251281
  H      3.628906   -0.988846   -0.460433
  H      3.994429   -0.558697   -1.915438
  O      2.138987   -0.955994    0.694365
  H      1.691326   -0.416619    1.385234
  H      1.428226   -1.577215    0.389713
  O      0.183535   -2.511017   -0.387330
  H      0.888186   -2.956368   -0.914698
  H     -0.205374   -1.900876   -1.065207

 Total Charge           Charge          ....    0
 Multiplicity           Mult            ....    1
 Number of Electrons    NEL             ....  160
 Basis Dimension        Dim             ....  688

ORBITAL ENERGIES
----------------

  NO   OCC          E(Eh)            E(eV)
   0   2.0000     -19.134293      -520.6706
   1   2.0000     -19.133941      -520.6610
   2   2.0000     -19.133161      -520.6398
   3   2.0000     -19.132717      -520.6277
   4   2.0000     -19.130199      -520.5592
   5   2.0000     -19.129512      -520.5405
   6   2.0000     -19.128789      -520.5208
   7   2.0000     -19.127912      -520.4970
   8   2.0000     -19.127698      -520.4911
   9   2.0000     -19.126986      -520.4717
  10   2.0000     -19.125714      -520.4371
  11   2.0000     -19.123997      -520.3904
  12   2.0000     -19.123205      -520.3689
  13   2.0000     -19.123193      -520.3685
  14   2.0000     -19.122398      -520.3469
  15   2.0000     -19.121293      -520.3168
  16   2.0000      -1.039627       -28.2897
  17   2.0000      -1.032045       -28.0834
  18   2.0000      -1.022864       -27.8335
  19   2.0000      -1.022769       -27.8310
  20   2.0000      -1.020944       -27.7813
  21   2.0000      -1.016358       -27.6565
  22   2.0000      -1.015558       -27.6347
  23   2.0000      -1.013800       -27.5869
  24   2.0000      -1.007215       -27.4077
  25   2.0000      -1.003568       -27.3085
  26   2.0000      -1.003099       -27.2957
  27   2.0000      -1.000093       -27.2139
  28   2.0000      -0.998301       -27.1651
  29   2.0000      -0.997368       -27.1398
  30   2.0000      -0.990134       -26.9429
  31   2.0000      -0.983652       -26.7665
  32   2.0000      -0.553647       -15.0655
  33   2.0000      -0.548996       -14.9389
  34   2.0000      -0.544602       -14.8194
  35   2.0000      -0.543390       -14.7864
  36   2.0000      -0.541775       -14.7425
  37   2.0000      -0.539544       -14.6817
  38   2.0000      -0.537213       -14.6183
  39   2.0000      -0.530752       -14.4425
  40   2.0000      -0.530183       -14.4270
  41   2.0000      -0.529045       -14.3960
  42   2.0000      -0.527176       -14.3452
  43   2.0000      -0.525840       -14.3088
  44   2.0000      -0.522526       -14.2186
  45   2.0000      -0.519172       -14.1274
  46   2.0000      -0.516142       -14.0449
  47   2.0000      -0.512102       -13.9350
  48   2.0000      -0.475000       -12.9254
  49   2.0000      -0.454199       -12.3594
  50   2.0000      -0.442153       -12.0316
  51   2.0000      -0.440486       -11.9862
  52   2.0000      -0.430434       -11.7127
  53   2.0000      -0.423898       -11.5349
  54   2.0000      -0.416573       -11.3355
  55   2.0000      -0.412714       -11.2305
  56   2.0000      -0.400116       -10.8877
  57   2.0000      -0.397402       -10.8138
  58   2.0000      -0.394183       -10.7263
  59   2.0000      -0.392728       -10.6867
  60   2.0000      -0.379251       -10.3199
  61   2.0000      -0.377027       -10.2594
  62   2.0000      -0.371024       -10.0961
  63   2.0000      -0.359257        -9.7759
  64   2.0000      -0.333361        -9.0712
  65   2.0000      -0.332466        -9.0469
  66   2.0000      -0.331160        -9.0113
  67   2.0000      -0.330335        -8.9889
  68   2.0000      -0.329954        -8.9785
  69   2.0000      -0.328677        -8.9437
  70   2.0000      -0.326817        -8.8932
  71   2.0000      -0.325928        -8.8690
  72   2.0000      -0.324386        -8.8270
  73   2.0000      -0.323768        -8.8102
  74   2.0000      -0.321946        -8.7606
  75   2.0000      -0.321635        -8.7521
  76   2.0000      -0.320128        -8.7111
  77   2.0000      -0.319521        -8.6946
  78   2.0000      -0.318699        -8.6722
  79   2.0000      -0.317435        -8.6379
  80   0.0000       0.010230         0.2784
  81   0.0000       0.030059         0.8179
  82   0.0000       0.056920         1.5489
  83   0.0000       0.057488         1.5643
  84   0.0000       0.065184         1.7738

MULLIKEN ATOMIC CHARGES
-----------------------
   0 O :   -0.746314
   1 H :    0.383617
   2 H :    0.387250
   3 O :   -0.767488
   4 H :    0.366918
   5 H :    0.379106
   6 O :   -0.751892
   7 H :    0.384601
   8 H :    0.361047
   9 O :   -0.743098
  10 H :    0.368358
  11 H :    0.373752
  12 O :   -0.739759
  13 H :    0.386065
  14 H :    0.370380
  15 O :   -0.744149
  16 H :    0.386874
  17 H :    0.369953
  18 O :   -0.760981
  19 H :    0.387384
  20 H :    0.351558
  21 O :   -0.742624
  22 H :    0.379708
  23 H :    0.369857
  24 O :   -0.744549
  25 H :    0.373599
  26 H :    0.388346
  27 O :   -0.767765
  28 H :    0.385419
  29 H :    0.350396
  30 O :   -0.743539
  31 H :    0.385664
  32 H :    0.373569
  33 O :   -0.752453
  34 H :    0.359394
  35 H :    0.386949
  36 O :   -0.761147
  37 H :    0.398144
  38 H :    0.354431
  39 O :   -0.737410
  40 H :    0.379786
  41 H :    0.378803
  42 O :   -0.755588
  43 H :    0.393878
  44 H :    0.362702
  45 O :   -0.759733
  46 H :    0.375035
  47 H :    0.365946
Sum of atomic charges:    0.0000000

LOEWDIN ATOMIC CHARGES
----------------------
   0 O :   -0.277903
   1 H :    0.148863
   2 H :    0.185404
   3 O :   -0.319241
   4 H :    0.135006
   5 H :    0.143674
   6 O :   -0.302809
   7 H :    0.153392
   8 H :    0.131310
   9 O :   -0.314283
  10 H :    0.141248
  11 H :    0.151627
  12 O :   -0.273410
  13 H :    0.185097
  14 H :    0.144171
  15 O :   -0.275921
  16 H :    0.185355
  17 H :    0.143856
  18 O :   -0.290049
  19 H :    0.145839
  20 H :    0.134987
  21 O :   -0.317882
  22 H :    0.151849
  23 H :    0.142909
  24 O :   -0.275881
  25 H :    0.148165
  26 H :    0.186046
  27 O :   -0.279292
  28 H :    0.141642
  29 H :    0.133148
  30 O :   -0.312877
  31 H :    0.144913
  32 H :    0.142672
  33 O :   -0.295673
  34 H :    0.135732
  35 H :    0.157870
  36 O :   -0.299401
  37 H :    0.144668
  38 H :    0.135706
  39 O :   -0.305786
  40 H :    0.149248
  41 H :    0.144614
  42 O :   -0.302592
  43 H :    0.148725
  44 H :    0.136946
  45 O :   -0.316508
  46 H :    0.146812
  47 H :    0.138014

  Mayer bond orders larger than 0.1
B(  0-O ,  1-H ) :   0.7627 B(  0-O ,  2-H ) :   0.8501 B(  0-O , 28-H ) :   0.1341
B(  1-H ,  9-O ) :   0.1314 B(  3-O ,  4-H ) :   0.7828 B(  3-O ,  5-H ) :   0.7999
B(  3-O , 38-H ) :   0.1307 B(  4-H , 33-O ) :   0.1265 B(  5-H , 15-O ) :   0.1041
B(  6-O ,  7-H ) :   0.8252 B(  6-O ,  8-H ) :   0.7754 B(  6-O , 47-H ) :   0.1278
B(  8-H , 27-O ) :   0.1282 B(  9-O , 10-H ) :   0.8013 B(  9-O , 11-H ) :   0.8325
B( 10-H , 12-O ) :   0.1168 B( 12-O , 13-H ) :   0.8531 B( 12-O , 14-H ) :   0.7623
B( 14-H , 39-O ) :   0.1434 B( 15-O , 16-H ) :   0.8520 B( 15-O , 17-H ) :   0.7575
B( 15-O , 23-H ) :   0.1072 B( 17-H , 30-O ) :   0.1500 B( 18-O , 19-H ) :   0.7850
B( 18-O , 20-H ) :   0.7840 B( 18-O , 34-H ) :   0.1347 B( 19-H , 24-O ) :   0.1142
B( 20-H , 36-O ) :   0.1320 B( 21-O , 22-H ) :   0.8319 B( 21-O , 23-H ) :   0.8070
B( 21-O , 25-H ) :   0.1376 B( 24-O , 25-H ) :   0.7660 B( 24-O , 26-H ) :   0.8504
B( 27-O , 28-H ) :   0.7703 B( 27-O , 29-H ) :   0.7765 B( 29-H , 42-O ) :   0.1411
B( 30-O , 31-H ) :   0.8226 B( 30-O , 32-H ) :   0.8121 B( 33-O , 34-H ) :   0.7760
B( 33-O , 35-H ) :   0.8255 B( 36-O , 37-H ) :   0.7950 B( 36-O , 38-H ) :   0.7876
B( 39-O , 40-H ) :   0.8326 B( 39-O , 41-H ) :   0.8101 B( 42-O , 43-H ) :   0.8088
B( 42-O , 44-H ) :   0.7856 B( 44-H , 45-O ) :   0.1299 B( 45-O , 46-H ) :   0.8082
B( 45-O , 47-H ) :   0.7853

Dispersion correction           -0.061496606
FINAL SINGLE POINT ENERGY     -1223.173271914103

DIPOLE MOMENT
-------------
                                X             Y             Z
Electronic contribution:      0.18167       0.08509       0.02403
Nuclear contribution   :      0.14442       0.51863       0.10972
                        -----------------------------------------
Total Dipole Moment    :      0.32609       0.60372       0.13375
                        -----------------------------------------
Magnitude (a.u.)       :      0.69907
Magnitude (Debye)      :      1.77690

                             ****ORCA TERMINATED NORMALLY****
TOTAL RUN TIME: 0 days 0 hours 2 minutes 7 seconds 130 msec
