                         Program Version 3.0.3 - RELEASE   -
|  1> ! wB97X-D3 Def2-TZVP def2-TZVP/J RIJCOSX TightSCF Grid4 COSMO
|  2>
|  3> %pal nprocs 12 end
|  4>
|  5> %scf
|  6>         maxiter 400
|  7> end
|  8>
|  9> %cosmo
| 10>         SMD true
| 11>         solvent "WATER"
| 12> end
| 13>
| 14> * xyz  0  1
| 15> O  3.229003	0.481938	-3.152808
| 16> H  2.593395	-0.108454	-3.651839
| 17> H  3.527783	1.161029	-3.776192
| 18> O  -2.503247	0.207741	-0.478289
| 19> H  -2.193107	-0.433781	0.211554
| 20> H  -3.124820	0.789038	0.024376
| 21> O  -0.584471	-0.677586	-2.262921
| 22> H  -1.422468	-0.291444	-1.933055
| 23> H  0.120542	-0.071906	-1.911654
| 24> O  1.460721	-1.277189	-4.088175
| 25> H  1.736983	-1.992534	-3.464363
| 26> H  0.589958	-1.011798	-3.729021
| 27> O  2.236209	-2.964864	-2.090207
| 28> H  2.625544	-3.815145	-2.347949
| 29> H  3.005922	-2.413677	-1.769293
| 30> O  -3.727954	1.770975	1.351913
| 31> H  -4.591789	2.210829	1.316915
| 32> H  -3.075277	2.485488	1.604242
| 33> O  0.344456	0.554540	2.046916
| 34> H  -0.050143	0.897802	2.887512
| 35> H  0.043552	1.191800	1.351435
| 36> O  -3.281262	-0.103727	3.313299
| 37> H  -2.788674	-0.765886	2.786204
| 38> H  -3.596277	0.535658	2.630107
| 39> O  -1.252404	1.539499	3.966176
| 40> H  -2.019873	0.908715	3.869297
| 41> H  -1.104488	1.649467	4.917767
| 42> O  1.402796	0.800186	-1.238952
| 43> H  2.100502	0.869157	-1.940230
| 44> H  1.772412	0.209244	-0.534840
| 45> O  -1.770414	3.444891	2.045447
| 46> H  -1.184032	3.156823	1.313862
| 47> H  -1.498668	2.896875	2.817501
| 48> O  -1.496899	-1.348510	1.508030
| 49> H  -0.782712	-0.708448	1.766991
| 50> H  -1.012088	-2.059337	1.041417
| 51> O  -0.570476	2.101434	-0.020124
| 52> H  0.221087	1.869880	-0.561410
| 53> H  -1.261129	1.446925	-0.294564
| 54> O  4.133585	-1.270012	-1.251281
| 55> H  3.628906	-0.988846	-0.460433
| 56> H  3.994429	-0.558697	-1.915438
| 57> O  2.138987	-0.955994	0.694365
| 58> H  1.691326	-0.416619	1.385234
| 59> H  1.428226	-1.577215	0.389713
| 60> O  0.183535	-2.511017	-0.387330
| 61> H  0.888186	-2.956368	-0.914698
| 62> H  -0.205374	-1.900876	-1.065207
| 63> **                         ****END OF INPUT****

CARTESIAN COORDINATES (ANGSTROEM)
---------------------------------
  O      3.229003    0.481938   -3.152808
  H      2.593395   -0.108454   -3.651839
  H      3.527783    1.161029   -3.776192
  O     -2.503247    0.207741   -0.478289
  H     -2.193107   -0.433781    0.211554
  H     -3.124820    0.789038    0.024376
  O     -0.584471   -0.677586   -2.262921
  H     -1.422468   -0.291444   -1.933055
  H      0.120542   -0.071906   -1.911654
  O      1.460721   -1.277189   -4.088175
  H      1.736983   -1.992534   -3.464363
  H      0.589958   -1.011798   -3.729021
  O      2.236209   -2.964864   -2.090207
  H      2.625544   -3.815145   -2.347949
  H      3.005922   -2.413677   -1.769293
  O     -3.727954    1.770975    1.351913
  H     -4.591789    2.210829    1.316915
  H     -3.075277    2.485488    1.604242
  O      0.344456    0.554540    2.046916
  H     -0.050143    0.897802    2.887512
  H      0.043552    1.191800    1.351435
  O     -3.281262   -0.103727    3.313299
  H     -2.788674   -0.765886    2.786204
  H     -3.596277    0.535658    2.630107
  O     -1.252404    1.539499    3.966176
  H     -2.019873    0.908715    3.869297
  H     -1.104488    1.649467    4.917767
  O      1.402796    0.800186   -1.238952
  H      2.100502    0.869157   -1.940230
  H      1.772412    0.209244   -0.534840
  O     -1.770414    3.444891    2.045447
  H     -1.184032    3.156823    1.313862
  H     -1.498668    2.896875    2.817501
  O     -1.496899   -1.348510    1.508030
  H     -0.782712   -0.708448    1.766991
  H     -1.012088   -2.059337    1.041417
  O     -0.570476    2.101434   -0.020124
  H      0.221087    1.869880   -0.561410
  H     -1.261129    1.446925   -0.294564
  O      4.133585   -1.270012   -1.251281
  H      3.628906   -0.988846   -0.460433
  H      3.994429   -0.558697   -1.915438
  O      2.138987   -0.955994    0.694365
  H      1.691326   -0.416619    1.385234
  H      1.428226   -1.577215    0.389713
  O      0.183535   -2.511017   -0.387330
  H      0.888186   -2.956368   -0.914698
  H     -0.205374   -1.900876   -1.065207

 Total Charge           Charge          ....    0
 Multiplicity           Mult            ....    1
 Number of Electrons    NEL             ....  160
 Basis Dimension        Dim             ....  688

ORBITAL ENERGIES
----------------

  NO   OCC          E(Eh)            E(eV)
   0   2.0000     -19.242637      -523.6188
   1   2.0000     -19.242148      -523.6055
   2   2.0000     -19.241546      -523.5891
   3   2.0000     -19.241170      -523.5788
   4   2.0000     -19.239815      -523.5420
   5   2.0000     -19.239345      -523.5292
   6   2.0000     -19.238785      -523.5139
   7   2.0000     -19.237559      -523.4806
   8   2.0000     -19.237518      -523.4795
   9   2.0000     -19.236602      -523.4546
  10   2.0000     -19.234611      -523.4004
  11   2.0000     -19.233582      -523.3724
  12   2.0000     -19.232818      -523.3516
  13   2.0000     -19.232101      -523.3321
  14   2.0000     -19.231339      -523.3114
  15   2.0000     -19.230354      -523.2845
  16   2.0000      -1.157807       -31.5055
  17   2.0000      -1.149528       -31.2803
  18   2.0000      -1.140137       -31.0247
  19   2.0000      -1.139786       -31.0151
  20   2.0000      -1.138213       -30.9723
  21   2.0000      -1.133305       -30.8388
  22   2.0000      -1.132506       -30.8170
  23   2.0000      -1.130719       -30.7684
  24   2.0000      -1.123939       -30.5839
  25   2.0000      -1.120125       -30.4802
  26   2.0000      -1.119981       -30.4762
  27   2.0000      -1.116763       -30.3887
  28   2.0000      -1.114844       -30.3364
  29   2.0000      -1.113814       -30.3084
  30   2.0000      -1.106331       -30.1048
  31   2.0000      -1.099974       -29.9318
  32   2.0000      -0.659855       -17.9556
  33   2.0000      -0.655252       -17.8303
  34   2.0000      -0.650512       -17.7013
  35   2.0000      -0.648766       -17.6538
  36   2.0000      -0.647381       -17.6161
  37   2.0000      -0.644649       -17.5418
  38   2.0000      -0.642047       -17.4710
  39   2.0000      -0.635315       -17.2878
  40   2.0000      -0.634216       -17.2579
  41   2.0000      -0.632856       -17.2209
  42   2.0000      -0.631773       -17.1914
  43   2.0000      -0.630468       -17.1559
  44   2.0000      -0.627199       -17.0670
  45   2.0000      -0.623205       -16.9583
  46   2.0000      -0.620324       -16.8799
  47   2.0000      -0.616073       -16.7642
  48   2.0000      -0.583273       -15.8717
  49   2.0000      -0.560472       -15.2512
  50   2.0000      -0.547568       -14.9001
  51   2.0000      -0.545720       -14.8498
  52   2.0000      -0.535291       -14.5660
  53   2.0000      -0.527031       -14.3412
  54   2.0000      -0.521146       -14.1811
  55   2.0000      -0.516000       -14.0411
  56   2.0000      -0.502247       -13.6668
  57   2.0000      -0.499185       -13.5835
  58   2.0000      -0.495202       -13.4751
  59   2.0000      -0.494872       -13.4662
  60   2.0000      -0.479971       -13.0607
  61   2.0000      -0.477420       -12.9913
  62   2.0000      -0.471560       -12.8318
  63   2.0000      -0.459210       -12.4957
  64   2.0000      -0.433849       -11.8056
  65   2.0000      -0.432712       -11.7747
  66   2.0000      -0.431358       -11.7379
  67   2.0000      -0.430462       -11.7135
  68   2.0000      -0.430065       -11.7027
  69   2.0000      -0.428394       -11.6572
  70   2.0000      -0.426763       -11.6128
  71   2.0000      -0.425927       -11.5901
  72   2.0000      -0.424368       -11.5476
  73   2.0000      -0.423726       -11.5302
  74   2.0000      -0.421965       -11.4823
  75   2.0000      -0.421551       -11.4710
  76   2.0000      -0.420102       -11.4316
  77   2.0000      -0.419261       -11.4087
  78   2.0000      -0.418735       -11.3944
  79   2.0000      -0.417226       -11.3533
  80   0.0000       0.088347         2.4041
  81   0.0000       0.112847         3.0707
  82   0.0000       0.143366         3.9012
  83   0.0000       0.143901         3.9157
  84   0.0000       0.149853         4.0777

MULLIKEN ATOMIC CHARGES
-----------------------
   0 O :   -0.777044
   1 H :    0.388425
   2 H :    0.409123
   3 O :   -0.781026
   4 H :    0.368210
   5 H :    0.391710
   6 O :   -0.763040
   7 H :    0.400378
   8 H :    0.352082
   9 O :   -0.755249
  10 H :    0.372964
  11 H :    0.385191
  12 O :   -0.767523
  13 H :    0.407941
  14 H :    0.371851
  15 O :   -0.772986
  16 H :    0.408708
  17 H :    0.373193
  18 O :   -0.772350
  19 H :    0.401588
  20 H :    0.347070
  21 O :   -0.753129
  22 H :    0.389846
  23 H :    0.374681
  24 O :   -0.774263
  25 H :    0.377425
  26 H :    0.410162
  27 O :   -0.779039
  28 H :    0.399412
  29 H :    0.346907
  30 O :   -0.753611
  31 H :    0.394223
  32 H :    0.379616
  33 O :   -0.766937
  34 H :    0.355123
  35 H :    0.404204
  36 O :   -0.773377
  37 H :    0.413008
  38 H :    0.354218
  39 O :   -0.747961
  40 H :    0.387528
  41 H :    0.386856
  42 O :   -0.768293
  43 H :    0.408386
  44 H :    0.364051
  45 O :   -0.774925
  46 H :    0.388970
  47 H :    0.367703
Sum of atomic charges:    0.0000000

LOEWDIN ATOMIC CHARGES
----------------------
   0 O :   -0.282459
   1 H :    0.149470
   2 H :    0.188490
   3 O :   -0.321798
   4 H :    0.135759
   5 H :    0.145615
   6 O :   -0.305696
   7 H :    0.155556
   8 H :    0.131411
   9 O :   -0.315574
  10 H :    0.142201
  11 H :    0.153114
  12 O :   -0.278391
  13 H :    0.188284
  14 H :    0.144663
  15 O :   -0.280760
  16 H :    0.188570
  17 H :    0.144526
  18 O :   -0.292974
  19 H :    0.148023
  20 H :    0.135576
  21 O :   -0.319038
  22 H :    0.153074
  23 H :    0.143803
  24 O :   -0.280489
  25 H :    0.148801
  26 H :    0.189169
  27 O :   -0.282303
  28 H :    0.143768
  29 H :    0.133916
  30 O :   -0.314090
  31 H :    0.145912
  32 H :    0.143582
  33 O :   -0.298522
  34 H :    0.136159
  35 H :    0.160278
  36 O :   -0.301856
  37 H :    0.146896
  38 H :    0.136473
  39 O :   -0.306993
  40 H :    0.150085
  41 H :    0.145552
  42 O :   -0.305076
  43 H :    0.150852
  44 H :    0.137751
  45 O :   -0.319136
  46 H :    0.148996
  47 H :    0.138830

  Mayer bond orders larger than 0.1
B(  0-O ,  1-H ) :   0.7670 B(  0-O ,  2-H ) :   0.8370 B(  0-O , 28-H ) :   0.1257
B(  1-H ,  9-O ) :   0.1231 B(  3-O ,  4-H ) :   0.7855 B(  3-O ,  5-H ) :   0.7965
B(  3-O , 38-H ) :   0.1274 B(  4-H , 33-O ) :   0.1226 B(  6-O ,  7-H ) :   0.8194
B(  6-O ,  8-H ) :   0.7827 B(  6-O , 47-H ) :   0.1228 B(  8-H , 27-O ) :   0.1282
B(  9-O , 10-H ) :   0.8022 B(  9-O , 11-H ) :   0.8294 B( 10-H , 12-O ) :   0.1087
B( 12-O , 13-H ) :   0.8395 B( 12-O , 14-H ) :   0.7680 B( 14-H , 39-O ) :   0.1374
B( 15-O , 16-H ) :   0.8386 B( 15-O , 17-H ) :   0.7625 B( 17-H , 30-O ) :   0.1432
B( 18-O , 19-H ) :   0.7802 B( 18-O , 20-H ) :   0.7890 B( 18-O , 34-H ) :   0.1327
B( 19-H , 24-O ) :   0.1059 B( 20-H , 36-O ) :   0.1311 B( 21-O , 22-H ) :   0.8293
B( 21-O , 23-H ) :   0.8081 B( 21-O , 25-H ) :   0.1306 B( 24-O , 25-H ) :   0.7703
B( 24-O , 26-H ) :   0.8370 B( 27-O , 28-H ) :   0.7654 B( 27-O , 29-H ) :   0.7812
B( 29-H , 42-O ) :   0.1405 B( 30-O , 31-H ) :   0.8214 B( 30-O , 32-H ) :   0.8118
B( 33-O , 34-H ) :   0.7810 B( 33-O , 35-H ) :   0.8188 B( 36-O , 37-H ) :   0.7907
B( 36-O , 38-H ) :   0.7909 B( 39-O , 40-H ) :   0.8313 B( 39-O , 41-H ) :   0.8086
B( 42-O , 43-H ) :   0.8043 B( 42-O , 44-H ) :   0.7886 B( 44-H , 45-O ) :   0.1250
B( 45-O , 46-H ) :   0.8046 B( 45-O , 47-H ) :   0.7879

Dispersion correction           -0.032303711
FINAL SINGLE POINT ENERGY     -1223.359304736250

DIPOLE MOMENT
-------------
                                X             Y             Z
Electronic contribution:      0.17957       0.09130       0.02610
Nuclear contribution   :      0.14442       0.51863       0.10972
                        -----------------------------------------
Total Dipole Moment    :      0.32399       0.60994       0.13582
                        -----------------------------------------
Magnitude (a.u.)       :      0.70388
Magnitude (Debye)      :      1.78911

                             ****ORCA TERMINATED NORMALLY****
TOTAL RUN TIME: 0 days 0 hours 2 minutes 18 seconds 533 msec
