                         Program Version 3.0.3 - RELEASE   -
|  1> ! wB97X-D3 MA-Def2-TZVP def2-TZVP/J RIJCOSX TightSCF Grid4
|  2>
|  3> %pal nprocs 1 end
|  4>
|  5> %scf
|  6>         maxiter 400
|  7> end
|  8>
|  9> * xyz  0  1
| 10> O  3.074174	0.224032	-3.143939
| 11> H  2.385441	-0.437264	-3.574818
| 12> H  3.597188	0.590515	-3.880001
| 13> O  -2.211738	0.458902	-0.445911
| 14> H  -1.942671	-0.245188	0.235801
| 15> H  -3.036057	0.855982	-0.040719
| 16> O  -0.445410	-0.449688	-2.210867
| 17> H  -1.309619	-0.112647	-1.845262
| 18> H  0.223147	0.257841	-1.919890
| 19> O  1.335959	-1.449557	-3.989090
| 20> H  1.581789	-2.242684	-3.433272
| 21> H  0.498174	-1.126541	-3.558847
| 22> O  2.143171	-3.236612	-2.086105
| 23> H  2.529200	-4.117172	-2.246177
| 24> H  2.929081	-2.633198	-1.748469
| 25> O  -3.919254	1.553518	1.272845
| 26> H  -4.803609	1.958047	1.206631
| 27> H  -3.274530	2.314122	1.592573
| 28> O  0.476579	0.542405	2.202061
| 29> H  0.037782	0.866744	3.041554
| 30> H  0.205100	1.245444	1.520873
| 31> O  -3.088049	-0.209619	3.185250
| 32> H  -2.572536	-0.840080	2.612865
| 33> H  -3.567175	0.358509	2.516430
| 34> O  -1.304610	1.460044	3.951608
| 35> H  -2.041674	0.751588	3.724067
| 36> H  -1.334326	1.583515	4.918028
| 37> O  1.409784	1.239222	-1.335557
| 38> H  2.080385	1.141676	-2.072867
| 39> H  1.770927	0.615133	-0.620042
| 40> O  -2.190702	3.256518	2.090722
| 41> H  -1.460944	3.157982	1.420260
| 42> H  -1.834927	2.758655	2.880713
| 43> O  -1.331553	-1.232049	1.397038
| 44> H  -0.598945	-0.621986	1.748435
| 45> H  -0.832288	-1.917170	0.873104
| 46> O  -0.397588	2.226036	0.347686
| 47> H  0.314488	2.214263	-0.349384
| 48> H  -1.106962	1.601356	-0.025945
| 49> O  3.940929	-1.591722	-1.296120
| 50> H  3.532700	-1.194753	-0.479284
| 51> H  3.811875	-0.875253	-1.980545
| 52> O  2.179151	-0.544027	0.472136
| 53> H  1.834600	-0.184528	1.334980
| 54> H  1.486247	-1.240034	0.211573
| 55> O  0.335580	-2.238835	-0.411586
| 56> H  0.913229	-2.871630	-0.928989
| 57> H  -0.021512	-1.619810	-1.133549
| 58> **                         ****END OF INPUT****

CARTESIAN COORDINATES (ANGSTROEM)
---------------------------------
  O      3.074174    0.224032   -3.143939
  H      2.385441   -0.437264   -3.574818
  H      3.597188    0.590515   -3.880001
  O     -2.211738    0.458902   -0.445911
  H     -1.942671   -0.245188    0.235801
  H     -3.036057    0.855982   -0.040719
  O     -0.445410   -0.449688   -2.210867
  H     -1.309619   -0.112647   -1.845262
  H      0.223147    0.257841   -1.919890
  O      1.335959   -1.449557   -3.989090
  H      1.581789   -2.242684   -3.433272
  H      0.498174   -1.126541   -3.558847
  O      2.143171   -3.236612   -2.086105
  H      2.529200   -4.117172   -2.246177
  H      2.929081   -2.633198   -1.748469
  O     -3.919254    1.553518    1.272845
  H     -4.803609    1.958047    1.206631
  H     -3.274530    2.314122    1.592573
  O      0.476579    0.542405    2.202061
  H      0.037782    0.866744    3.041554
  H      0.205100    1.245444    1.520873
  O     -3.088049   -0.209619    3.185250
  H     -2.572536   -0.840080    2.612865
  H     -3.567175    0.358509    2.516430
  O     -1.304610    1.460044    3.951608
  H     -2.041674    0.751588    3.724067
  H     -1.334326    1.583515    4.918028
  O      1.409784    1.239222   -1.335557
  H      2.080385    1.141676   -2.072867
  H      1.770927    0.615133   -0.620042
  O     -2.190702    3.256518    2.090722
  H     -1.460944    3.157982    1.420260
  H     -1.834927    2.758655    2.880713
  O     -1.331553   -1.232049    1.397038
  H     -0.598945   -0.621986    1.748435
  H     -0.832288   -1.917170    0.873104
  O     -0.397588    2.226036    0.347686
  H      0.314488    2.214263   -0.349384
  H     -1.106962    1.601356   -0.025945
  O      3.940929   -1.591722   -1.296120
  H      3.532700   -1.194753   -0.479284
  H      3.811875   -0.875253   -1.980545
  O      2.179151   -0.544027    0.472136
  H      1.834600   -0.184528    1.334980
  H      1.486247   -1.240034    0.211573
  O      0.335580   -2.238835   -0.411586
  H      0.913229   -2.871630   -0.928989
  H     -0.021512   -1.619810   -1.133549

 Total Charge           Charge          ....    0
 Multiplicity           Mult            ....    1
 Number of Electrons    NEL             ....  160
 Basis Dimension        Dim             ....  752

ORBITAL ENERGIES
----------------

  NO   OCC          E(Eh)            E(eV)
   0   2.0000     -19.253687      -523.9195
   1   2.0000     -19.253569      -523.9162
   2   2.0000     -19.253475      -523.9137
   3   2.0000     -19.253265      -523.9080
   4   2.0000     -19.242326      -523.6103
   5   2.0000     -19.242080      -523.6036
   6   2.0000     -19.242030      -523.6022
   7   2.0000     -19.241495      -523.5877
   8   2.0000     -19.240794      -523.5686
   9   2.0000     -19.240739      -523.5671
  10   2.0000     -19.240031      -523.5479
  11   2.0000     -19.239936      -523.5453
  12   2.0000     -19.237983      -523.4921
  13   2.0000     -19.237891      -523.4896
  14   2.0000     -19.237502      -523.4790
  15   2.0000     -19.237443      -523.4774
  16   2.0000      -1.161988       -31.6193
  17   2.0000      -1.155059       -31.4308
  18   2.0000      -1.144783       -31.1511
  19   2.0000      -1.143381       -31.1130
  20   2.0000      -1.141168       -31.0528
  21   2.0000      -1.136536       -30.9267
  22   2.0000      -1.134157       -30.8620
  23   2.0000      -1.131437       -30.7880
  24   2.0000      -1.125082       -30.6150
  25   2.0000      -1.119222       -30.4556
  26   2.0000      -1.118863       -30.4458
  27   2.0000      -1.114303       -30.3217
  28   2.0000      -1.112929       -30.2843
  29   2.0000      -1.111778       -30.2530
  30   2.0000      -1.103431       -30.0259
  31   2.0000      -1.093462       -29.7546
  32   2.0000      -0.660738       -17.9796
  33   2.0000      -0.660072       -17.9615
  34   2.0000      -0.659587       -17.9483
  35   2.0000      -0.655703       -17.8426
  36   2.0000      -0.654206       -17.8019
  37   2.0000      -0.650342       -17.6967
  38   2.0000      -0.648911       -17.6578
  39   2.0000      -0.643766       -17.5178
  40   2.0000      -0.636427       -17.3181
  41   2.0000      -0.635161       -17.2836
  42   2.0000      -0.631539       -17.1850
  43   2.0000      -0.626239       -17.0408
  44   2.0000      -0.625033       -17.0080
  45   2.0000      -0.619602       -16.8602
  46   2.0000      -0.619563       -16.8592
  47   2.0000      -0.619334       -16.8529
  48   2.0000      -0.598368       -16.2824
  49   2.0000      -0.575994       -15.6736
  50   2.0000      -0.551869       -15.0171
  51   2.0000      -0.550650       -14.9839
  52   2.0000      -0.538913       -14.6646
  53   2.0000      -0.537215       -14.6184
  54   2.0000      -0.527439       -14.3523
  55   2.0000      -0.525525       -14.3003
  56   2.0000      -0.507031       -13.7970
  57   2.0000      -0.504241       -13.7211
  58   2.0000      -0.503855       -13.7106
  59   2.0000      -0.502359       -13.6699
  60   2.0000      -0.482554       -13.1309
  61   2.0000      -0.477109       -12.9828
  62   2.0000      -0.471886       -12.8407
  63   2.0000      -0.450050       -12.2465
  64   2.0000      -0.439719       -11.9654
  65   2.0000      -0.436756       -11.8847
  66   2.0000      -0.436271       -11.8715
  67   2.0000      -0.434279       -11.8173
  68   2.0000      -0.430610       -11.7175
  69   2.0000      -0.428345       -11.6559
  70   2.0000      -0.427424       -11.6308
  71   2.0000      -0.426180       -11.5970
  72   2.0000      -0.424826       -11.5601
  73   2.0000      -0.424287       -11.5454
  74   2.0000      -0.422364       -11.4931
  75   2.0000      -0.420267       -11.4360
  76   2.0000      -0.419722       -11.4212
  77   2.0000      -0.419631       -11.4188
  78   2.0000      -0.419473       -11.4144
  79   2.0000      -0.417212       -11.3529
  80   0.0000       0.052019         1.4155
  81   0.0000       0.059757         1.6261
  82   0.0000       0.074976         2.0402
  83   0.0000       0.075285         2.0486
  84   0.0000       0.091129         2.4797

MULLIKEN ATOMIC CHARGES
-----------------------
   0 O :   -0.860916
   1 H :    0.425761
   2 H :    0.361694
   3 O :   -0.827920
   4 H :    0.429852
   5 H :    0.425234
   6 O :   -0.904997
   7 H :    0.446720
   8 H :    0.416230
   9 O :   -0.751627
  10 H :    0.416802
  11 H :    0.432325
  12 O :   -0.859319
  13 H :    0.361859
  14 H :    0.424015
  15 O :   -0.860633
  16 H :    0.361965
  17 H :    0.425371
  18 O :   -0.828551
  19 H :    0.427135
  20 H :    0.430468
  21 O :   -0.753568
  22 H :    0.430959
  23 H :    0.417435
  24 O :   -0.859025
  25 H :    0.425767
  26 H :    0.362004
  27 O :   -0.835812
  28 H :    0.426745
  29 H :    0.431999
  30 O :   -0.750997
  31 H :    0.432171
  32 H :    0.415995
  33 O :   -0.915362
  34 H :    0.419855
  35 H :    0.445793
  36 O :   -0.921605
  37 H :    0.446613
  38 H :    0.419953
  39 O :   -0.750404
  40 H :    0.431898
  41 H :    0.415674
  42 O :   -0.910113
  43 H :    0.445590
  44 H :    0.420011
  45 O :   -0.841378
  46 H :    0.426560
  47 H :    0.431776
Sum of atomic charges:    0.0000000

LOEWDIN ATOMIC CHARGES
----------------------
   0 O :   -0.417546
   1 H :    0.194683
   2 H :    0.195190
   3 O :   -0.413726
   4 H :    0.196692
   5 H :    0.202505
   6 O :   -0.411231
   7 H :    0.208696
   8 H :    0.195627
   9 O :   -0.356440
  10 H :    0.200757
  11 H :    0.206076
  12 O :   -0.417816
  13 H :    0.195398
  14 H :    0.195225
  15 O :   -0.417799
  16 H :    0.195421
  17 H :    0.195355
  18 O :   -0.415507
  19 H :    0.202659
  20 H :    0.196505
  21 O :   -0.357944
  22 H :    0.205721
  23 H :    0.200619
  24 O :   -0.417899
  25 H :    0.195407
  26 H :    0.195399
  27 O :   -0.415374
  28 H :    0.202346
  29 H :    0.196591
  30 O :   -0.357938
  31 H :    0.205453
  32 H :    0.200383
  33 O :   -0.410337
  34 H :    0.196226
  35 H :    0.208898
  36 O :   -0.410295
  37 H :    0.209198
  38 H :    0.195697
  39 O :   -0.357973
  40 H :    0.205654
  41 H :    0.200143
  42 O :   -0.410114
  43 H :    0.208969
  44 H :    0.195823
  45 O :   -0.414769
  46 H :    0.202385
  47 H :    0.197008

  Mayer bond orders larger than 0.1
B(  0-O ,  1-H ) :   0.7114 B(  0-O ,  2-H ) :   0.8696 B(  1-H ,  9-O ) :   0.1570
B(  3-O ,  4-H ) :   0.7867 B(  3-O ,  5-H ) :   0.8015 B(  6-O ,  7-H ) :   0.8062
B(  6-O ,  8-H ) :   0.7871 B(  9-O , 10-H ) :   0.8367 B(  9-O , 11-H ) :   0.8222
B( 12-O , 13-H ) :   0.8698 B( 12-O , 14-H ) :   0.7118 B( 14-H , 39-O ) :   0.1589
B( 15-O , 16-H ) :   0.8695 B( 15-O , 17-H ) :   0.7117 B( 17-H , 30-O ) :   0.1570
B( 18-O , 19-H ) :   0.8011 B( 18-O , 20-H ) :   0.7870 B( 21-O , 22-H ) :   0.8226
B( 21-O , 23-H ) :   0.8357 B( 21-O , 25-H ) :   0.1562 B( 24-O , 25-H ) :   0.7122
B( 24-O , 26-H ) :   0.8698 B( 27-O , 28-H ) :   0.8012 B( 27-O , 29-H ) :   0.7881
B( 30-O , 31-H ) :   0.8219 B( 30-O , 32-H ) :   0.8368 B( 33-O , 34-H ) :   0.7871
B( 33-O , 35-H ) :   0.8068 B( 36-O , 37-H ) :   0.8070 B( 36-O , 38-H ) :   0.7862
B( 39-O , 40-H ) :   0.8222 B( 39-O , 41-H ) :   0.8369 B( 42-O , 43-H ) :   0.8066
B( 42-O , 44-H ) :   0.7874 B( 45-O , 46-H ) :   0.8013 B( 45-O , 47-H ) :   0.7871

Dispersion correction           -0.033059056
FINAL SINGLE POINT ENERGY     -1223.308413889396

DIPOLE MOMENT
-------------
                                X             Y             Z
Electronic contribution:     -0.00351       0.00265      -0.00280
Nuclear contribution   :     -0.01604      -0.02139      -0.00043
                        -----------------------------------------
Total Dipole Moment    :     -0.01955      -0.01875      -0.00323
                        -----------------------------------------
Magnitude (a.u.)       :      0.02728
Magnitude (Debye)      :      0.06934

                             ****ORCA TERMINATED NORMALLY****
TOTAL RUN TIME: 0 days 1 hours 8 minutes 7 seconds 497 msec
