                         Program Version 3.0.3 - RELEASE   -
|  1> ! wB97X-D3 MA-Def2-TZVP def2-TZVP/J RIJCOSX TightSCF Grid4
|  2>
|  3> %pal nprocs 1 end
|  4>
|  5> %scf
|  6>         maxiter 400
|  7> end
|  8>
|  9> %cosmo
| 10>         SMD true
| 11>         solvent "WATER"
| 12> end
| 13>
| 14> * xyz  0  1
| 15> O  3.089375	0.190112	-3.115998
| 16> H  2.421271	-0.433526	-3.587822
| 17> H  3.636319	0.582632	-3.824640
| 18> O  -2.239161	0.426745	-0.422520
| 19> H  -1.946710	-0.263967	0.260634
| 20> H  -3.038504	0.846923	0.020204
| 21> O  -0.439052	-0.392303	-2.221248
| 22> H  -1.288454	-0.069046	-1.811210
| 23> H  0.246296	0.293558	-1.918641
| 24> O  1.305570	-1.480010	-4.030252
| 25> H  1.586084	-2.244434	-3.443659
| 26> H  0.503328	-1.129010	-3.560092
| 27> O  2.127428	-3.208975	-2.115682
| 28> H  2.469414	-4.110284	-2.278007
| 29> H  2.929699	-2.663085	-1.777415
| 30> O  -3.908144	1.522568	1.307116
| 31> H  -4.810412	1.889359	1.222526
| 32> H  -3.314735	2.306523	1.604969
| 33> O  0.471948	0.588097	2.202690
| 34> H  -0.015282	0.903228	3.025323
| 35> H  0.190147	1.269572	1.506545
| 36> O  -3.129820	-0.252048	3.198112
| 37> H  -2.571460	-0.839446	2.622515
| 38> H  -3.571525	0.350850	2.527587
| 39> O  -1.320437	1.489731	3.920199
| 40> H  -2.047041	0.781314	3.754641
| 41> H  -1.305101	1.639330	4.886224
| 42> O  1.463000	1.237827	-1.318749
| 43> H  2.116818	1.086894	-2.069642
| 44> H  1.797001	0.599164	-0.604957
| 45> O  -2.172388	3.309981	2.107340
| 46> H  -1.468223	3.155770	1.422509
| 47> H  -1.844131	2.764256	2.883267
| 48> O  -1.296377	-1.243819	1.427528
| 49> H  -0.578460	-0.610078	1.765287
| 50> H  -0.789159	-1.892423	0.865937
| 51> O  -0.426409	2.228647	0.301272
| 52> H  0.300260	2.167446	-0.377673
| 53> H  -1.135393	1.588695	-0.045387
| 54> O  3.994630	-1.577653	-1.280347
| 55> H  3.537438	-1.200030	-0.482248
| 56> H  3.816703	-0.881287	-1.981303
| 57> O  2.167505	-0.581836	0.493005
| 58> H  1.790348	-0.202187	1.332858
| 59> H  1.471095	-1.264048	0.206874
| 60> O  0.318311	-2.240878	-0.454276
| 61> H  0.931377	-2.838923	-0.982723
| 62> H  -0.024988	-1.599921	-1.160671
| 63> **                         ****END OF INPUT****

CARTESIAN COORDINATES (ANGSTROEM)
---------------------------------
  O      3.089375    0.190112   -3.115998
  H      2.421271   -0.433526   -3.587822
  H      3.636319    0.582632   -3.824640
  O     -2.239161    0.426745   -0.422520
  H     -1.946710   -0.263967    0.260634
  H     -3.038504    0.846923    0.020204
  O     -0.439052   -0.392303   -2.221248
  H     -1.288454   -0.069046   -1.811210
  H      0.246296    0.293558   -1.918641
  O      1.305570   -1.480010   -4.030252
  H      1.586084   -2.244434   -3.443659
  H      0.503328   -1.129010   -3.560092
  O      2.127428   -3.208975   -2.115682
  H      2.469414   -4.110284   -2.278007
  H      2.929699   -2.663085   -1.777415
  O     -3.908144    1.522568    1.307116
  H     -4.810412    1.889359    1.222526
  H     -3.314735    2.306523    1.604969
  O      0.471948    0.588097    2.202690
  H     -0.015282    0.903228    3.025323
  H      0.190147    1.269572    1.506545
  O     -3.129820   -0.252048    3.198112
  H     -2.571460   -0.839446    2.622515
  H     -3.571525    0.350850    2.527587
  O     -1.320437    1.489731    3.920199
  H     -2.047041    0.781314    3.754641
  H     -1.305101    1.639330    4.886224
  O      1.463000    1.237827   -1.318749
  H      2.116818    1.086894   -2.069642
  H      1.797001    0.599164   -0.604957
  O     -2.172388    3.309981    2.107340
  H     -1.468223    3.155770    1.422509
  H     -1.844131    2.764256    2.883267
  O     -1.296377   -1.243819    1.427528
  H     -0.578460   -0.610078    1.765287
  H     -0.789159   -1.892423    0.865937
  O     -0.426409    2.228647    0.301272
  H      0.300260    2.167446   -0.377673
  H     -1.135393    1.588695   -0.045387
  O      3.994630   -1.577653   -1.280347
  H      3.537438   -1.200030   -0.482248
  H      3.816703   -0.881287   -1.981303
  O      2.167505   -0.581836    0.493005
  H      1.790348   -0.202187    1.332858
  H      1.471095   -1.264048    0.206874
  O      0.318311   -2.240878   -0.454276
  H      0.931377   -2.838923   -0.982723
  H     -0.024988   -1.599921   -1.160671

 Total Charge           Charge          ....    0
 Multiplicity           Mult            ....    1
 Number of Electrons    NEL             ....  160
 Basis Dimension        Dim             ....  752

ORBITAL ENERGIES
----------------

  NO   OCC          E(Eh)            E(eV)
   0   2.0000     -19.242805      -523.6233
   1   2.0000     -19.242782      -523.6227
   2   2.0000     -19.242779      -523.6226
   3   2.0000     -19.242643      -523.6189
   4   2.0000     -19.238589      -523.5086
   5   2.0000     -19.238571      -523.5081
   6   2.0000     -19.238480      -523.5057
   7   2.0000     -19.238431      -523.5043
   8   2.0000     -19.235638      -523.4283
   9   2.0000     -19.235473      -523.4238
  10   2.0000     -19.234944      -523.4094
  11   2.0000     -19.234914      -523.4086
  12   2.0000     -19.234769      -523.4047
  13   2.0000     -19.234591      -523.3998
  14   2.0000     -19.234216      -523.3896
  15   2.0000     -19.234194      -523.3890
  16   2.0000      -1.156103       -31.4592
  17   2.0000      -1.147579       -31.2272
  18   2.0000      -1.137176       -30.9441
  19   2.0000      -1.136343       -30.9215
  20   2.0000      -1.134173       -30.8624
  21   2.0000      -1.129484       -30.7348
  22   2.0000      -1.128305       -30.7027
  23   2.0000      -1.125785       -30.6342
  24   2.0000      -1.118919       -30.4473
  25   2.0000      -1.114512       -30.3274
  26   2.0000      -1.113788       -30.3077
  27   2.0000      -1.109011       -30.1777
  28   2.0000      -1.107494       -30.1364
  29   2.0000      -1.106888       -30.1200
  30   2.0000      -1.097759       -29.8715
  31   2.0000      -1.088643       -29.6235
  32   2.0000      -0.654919       -17.8213
  33   2.0000      -0.651026       -17.7153
  34   2.0000      -0.650794       -17.7090
  35   2.0000      -0.648951       -17.6588
  36   2.0000      -0.643174       -17.5017
  37   2.0000      -0.640085       -17.4176
  38   2.0000      -0.638592       -17.3770
  39   2.0000      -0.631713       -17.1898
  40   2.0000      -0.628977       -17.1153
  41   2.0000      -0.628840       -17.1116
  42   2.0000      -0.624581       -16.9957
  43   2.0000      -0.620221       -16.8771
  44   2.0000      -0.619174       -16.8486
  45   2.0000      -0.615847       -16.7580
  46   2.0000      -0.615432       -16.7468
  47   2.0000      -0.614599       -16.7241
  48   2.0000      -0.591776       -16.1030
  49   2.0000      -0.568074       -15.4581
  50   2.0000      -0.548030       -14.9127
  51   2.0000      -0.546141       -14.8613
  52   2.0000      -0.536574       -14.6009
  53   2.0000      -0.530423       -14.4336
  54   2.0000      -0.523828       -14.2541
  55   2.0000      -0.519907       -14.1474
  56   2.0000      -0.503352       -13.6969
  57   2.0000      -0.500906       -13.6303
  58   2.0000      -0.498732       -13.5712
  59   2.0000      -0.494230       -13.4487
  60   2.0000      -0.478805       -13.0290
  61   2.0000      -0.471945       -12.8423
  62   2.0000      -0.470557       -12.8045
  63   2.0000      -0.450797       -12.2668
  64   2.0000      -0.431990       -11.7550
  65   2.0000      -0.428075       -11.6485
  66   2.0000      -0.427577       -11.6350
  67   2.0000      -0.427486       -11.6325
  68   2.0000      -0.426320       -11.6008
  69   2.0000      -0.425260       -11.5719
  70   2.0000      -0.423339       -11.5196
  71   2.0000      -0.422514       -11.4972
  72   2.0000      -0.421147       -11.4600
  73   2.0000      -0.420114       -11.4319
  74   2.0000      -0.419975       -11.4281
  75   2.0000      -0.419714       -11.4210
  76   2.0000      -0.418548       -11.3893
  77   2.0000      -0.418230       -11.3806
  78   2.0000      -0.416400       -11.3308
  79   2.0000      -0.415839       -11.3156
  80   0.0000       0.062233         1.6934
  81   0.0000       0.074652         2.0314
  82   0.0000       0.093069         2.5325
  83   0.0000       0.093533         2.5452
  84   0.0000       0.102598         2.7918

MULLIKEN ATOMIC CHARGES
-----------------------
   0 O :   -0.878050
   1 H :    0.440848
   2 H :    0.419301
   3 O :   -0.876433
   4 H :    0.446236
   5 H :    0.445841
   6 O :   -0.941190
   7 H :    0.463115
   8 H :    0.436160
   9 O :   -0.821454
  10 H :    0.433697
  11 H :    0.442367
  12 O :   -0.874960
  13 H :    0.419200
  14 H :    0.437946
  15 O :   -0.877158
  16 H :    0.419399
  17 H :    0.439342
  18 O :   -0.877618
  19 H :    0.446766
  20 H :    0.445383
  21 O :   -0.823394
  22 H :    0.443208
  23 H :    0.432163
  24 O :   -0.875644
  25 H :    0.440912
  26 H :    0.419423
  27 O :   -0.883915
  28 H :    0.446417
  29 H :    0.448622
  30 O :   -0.821801
  31 H :    0.443385
  32 H :    0.431244
  33 O :   -0.950144
  34 H :    0.438510
  35 H :    0.463388
  36 O :   -0.957960
  37 H :    0.463605
  38 H :    0.439644
  39 O :   -0.821041
  40 H :    0.443257
  41 H :    0.430593
  42 O :   -0.946189
  43 H :    0.461731
  44 H :    0.440632
  45 O :   -0.886770
  46 H :    0.446634
  47 H :    0.444747
Sum of atomic charges:   -0.0000000

LOEWDIN ATOMIC CHARGES
----------------------
   0 O :   -0.388556
   1 H :    0.201474
   2 H :    0.220515
   3 O :   -0.424136
   4 H :    0.198612
   5 H :    0.204976
   6 O :   -0.421340
   7 H :    0.209625
   8 H :    0.198156
   9 O :   -0.404186
  10 H :    0.202680
  11 H :    0.206141
  12 O :   -0.388877
  13 H :    0.220624
  14 H :    0.201810
  15 O :   -0.389003
  16 H :    0.220708
  17 H :    0.202006
  18 O :   -0.427337
  19 H :    0.204458
  20 H :    0.198314
  21 O :   -0.406009
  22 H :    0.206109
  23 H :    0.202271
  24 O :   -0.388751
  25 H :    0.201964
  26 H :    0.220663
  27 O :   -0.427792
  28 H :    0.204381
  29 H :    0.197965
  30 O :   -0.407355
  31 H :    0.205636
  32 H :    0.201731
  33 O :   -0.419975
  34 H :    0.198015
  35 H :    0.209923
  36 O :   -0.420396
  37 H :    0.209828
  38 H :    0.197508
  39 O :   -0.407078
  40 H :    0.205971
  41 H :    0.201508
  42 O :   -0.419010
  43 H :    0.210176
  44 H :    0.198275
  45 O :   -0.424821
  46 H :    0.204444
  47 H :    0.198150

  Mayer bond orders larger than 0.1
B(  0-O ,  1-H ) :   0.7451 B(  0-O ,  2-H ) :   0.8278 B(  3-O ,  4-H ) :   0.7791
B(  3-O ,  5-H ) :   0.7744 B(  6-O ,  7-H ) :   0.7946 B(  6-O ,  8-H ) :   0.7742
B(  9-O , 10-H ) :   0.8025 B(  9-O , 11-H ) :   0.8140 B( 12-O , 13-H ) :   0.8280
B( 12-O , 14-H ) :   0.7472 B( 15-O , 16-H ) :   0.8280 B( 15-O , 17-H ) :   0.7474
B( 18-O , 19-H ) :   0.7736 B( 18-O , 20-H ) :   0.7799 B( 21-O , 22-H ) :   0.8124
B( 21-O , 23-H ) :   0.8029 B( 24-O , 25-H ) :   0.7466 B( 24-O , 26-H ) :   0.8279
B( 27-O , 28-H ) :   0.7733 B( 27-O , 29-H ) :   0.7789 B( 30-O , 31-H ) :   0.8129
B( 30-O , 32-H ) :   0.8022 B( 33-O , 34-H ) :   0.7746 B( 33-O , 35-H ) :   0.7951
B( 36-O , 37-H ) :   0.7959 B( 36-O , 38-H ) :   0.7725 B( 39-O , 40-H ) :   0.8123
B( 39-O , 41-H ) :   0.8027 B( 42-O , 43-H ) :   0.7960 B( 42-O , 44-H ) :   0.7737
B( 45-O , 46-H ) :   0.7737 B( 45-O , 47-H ) :   0.7805

Dispersion correction           -0.033013194
FINAL SINGLE POINT ENERGY     -1223.347782803999

DIPOLE MOMENT
-------------
                                X             Y             Z
Electronic contribution:     -0.01118      -0.02041      -0.00646
Nuclear contribution   :     -0.01493      -0.04041       0.00452
                        -----------------------------------------
Total Dipole Moment    :     -0.02611      -0.06083      -0.00194
                        -----------------------------------------
Magnitude (a.u.)       :      0.06622
Magnitude (Debye)      :      0.16833

                             ****ORCA TERMINATED NORMALLY****
TOTAL RUN TIME: 0 days 0 hours 32 minutes 12 seconds 617 msec
