                         Program Version 3.0.3 - RELEASE   -
|  1> ! wB97X-D3 Def2-TZVP def2-TZVP/J RIJCOSX TightSCF Grid4 COSMO
|  2>
|  3> %pal nprocs 12 end
|  4>
|  5> %scf
|  6>         maxiter 400
|  7> end
|  8>
|  9> %cosmo
| 10>         SMD true
| 11>         solvent "WATER"
| 12> end
| 13>
| 14> * xyz  0  1
| 15> O  3.089375	0.190112	-3.115998
| 16> H  2.421271	-0.433526	-3.587822
| 17> H  3.636319	0.582632	-3.824640
| 18> O  -2.239161	0.426745	-0.422520
| 19> H  -1.946710	-0.263967	0.260634
| 20> H  -3.038504	0.846923	0.020204
| 21> O  -0.439052	-0.392303	-2.221248
| 22> H  -1.288454	-0.069046	-1.811210
| 23> H  0.246296	0.293558	-1.918641
| 24> O  1.305570	-1.480010	-4.030252
| 25> H  1.586084	-2.244434	-3.443659
| 26> H  0.503328	-1.129010	-3.560092
| 27> O  2.127428	-3.208975	-2.115682
| 28> H  2.469414	-4.110284	-2.278007
| 29> H  2.929699	-2.663085	-1.777415
| 30> O  -3.908144	1.522568	1.307116
| 31> H  -4.810412	1.889359	1.222526
| 32> H  -3.314735	2.306523	1.604969
| 33> O  0.471948	0.588097	2.202690
| 34> H  -0.015282	0.903228	3.025323
| 35> H  0.190147	1.269572	1.506545
| 36> O  -3.129820	-0.252048	3.198112
| 37> H  -2.571460	-0.839446	2.622515
| 38> H  -3.571525	0.350850	2.527587
| 39> O  -1.320437	1.489731	3.920199
| 40> H  -2.047041	0.781314	3.754641
| 41> H  -1.305101	1.639330	4.886224
| 42> O  1.463000	1.237827	-1.318749
| 43> H  2.116818	1.086894	-2.069642
| 44> H  1.797001	0.599164	-0.604957
| 45> O  -2.172388	3.309981	2.107340
| 46> H  -1.468223	3.155770	1.422509
| 47> H  -1.844131	2.764256	2.883267
| 48> O  -1.296377	-1.243819	1.427528
| 49> H  -0.578460	-0.610078	1.765287
| 50> H  -0.789159	-1.892423	0.865937
| 51> O  -0.426409	2.228647	0.301272
| 52> H  0.300260	2.167446	-0.377673
| 53> H  -1.135393	1.588695	-0.045387
| 54> O  3.994630	-1.577653	-1.280347
| 55> H  3.537438	-1.200030	-0.482248
| 56> H  3.816703	-0.881287	-1.981303
| 57> O  2.167505	-0.581836	0.493005
| 58> H  1.790348	-0.202187	1.332858
| 59> H  1.471095	-1.264048	0.206874
| 60> O  0.318311	-2.240878	-0.454276
| 61> H  0.931377	-2.838923	-0.982723
| 62> H  -0.024988	-1.599921	-1.160671
| 63> **                         ****END OF INPUT****

CARTESIAN COORDINATES (ANGSTROEM)
---------------------------------
  O      3.089375    0.190112   -3.115998
  H      2.421271   -0.433526   -3.587822
  H      3.636319    0.582632   -3.824640
  O     -2.239161    0.426745   -0.422520
  H     -1.946710   -0.263967    0.260634
  H     -3.038504    0.846923    0.020204
  O     -0.439052   -0.392303   -2.221248
  H     -1.288454   -0.069046   -1.811210
  H      0.246296    0.293558   -1.918641
  O      1.305570   -1.480010   -4.030252
  H      1.586084   -2.244434   -3.443659
  H      0.503328   -1.129010   -3.560092
  O      2.127428   -3.208975   -2.115682
  H      2.469414   -4.110284   -2.278007
  H      2.929699   -2.663085   -1.777415
  O     -3.908144    1.522568    1.307116
  H     -4.810412    1.889359    1.222526
  H     -3.314735    2.306523    1.604969
  O      0.471948    0.588097    2.202690
  H     -0.015282    0.903228    3.025323
  H      0.190147    1.269572    1.506545
  O     -3.129820   -0.252048    3.198112
  H     -2.571460   -0.839446    2.622515
  H     -3.571525    0.350850    2.527587
  O     -1.320437    1.489731    3.920199
  H     -2.047041    0.781314    3.754641
  H     -1.305101    1.639330    4.886224
  O      1.463000    1.237827   -1.318749
  H      2.116818    1.086894   -2.069642
  H      1.797001    0.599164   -0.604957
  O     -2.172388    3.309981    2.107340
  H     -1.468223    3.155770    1.422509
  H     -1.844131    2.764256    2.883267
  O     -1.296377   -1.243819    1.427528
  H     -0.578460   -0.610078    1.765287
  H     -0.789159   -1.892423    0.865937
  O     -0.426409    2.228647    0.301272
  H      0.300260    2.167446   -0.377673
  H     -1.135393    1.588695   -0.045387
  O      3.994630   -1.577653   -1.280347
  H      3.537438   -1.200030   -0.482248
  H      3.816703   -0.881287   -1.981303
  O      2.167505   -0.581836    0.493005
  H      1.790348   -0.202187    1.332858
  H      1.471095   -1.264048    0.206874
  O      0.318311   -2.240878   -0.454276
  H      0.931377   -2.838923   -0.982723
  H     -0.024988   -1.599921   -1.160671

 Total Charge           Charge          ....    0
 Multiplicity           Mult            ....    1
 Number of Electrons    NEL             ....  160
 Basis Dimension        Dim             ....  688

ORBITAL ENERGIES
----------------

  NO   OCC          E(Eh)            E(eV)
   0   2.0000     -19.241188      -523.5794
   1   2.0000     -19.241142      -523.5781
   2   2.0000     -19.241141      -523.5781
   3   2.0000     -19.241008      -523.5744
   4   2.0000     -19.237477      -523.4784
   5   2.0000     -19.237444      -523.4775
   6   2.0000     -19.237354      -523.4750
   7   2.0000     -19.237313      -523.4739
   8   2.0000     -19.234472      -523.3966
   9   2.0000     -19.234288      -523.3916
  10   2.0000     -19.233759      -523.3772
  11   2.0000     -19.233732      -523.3765
  12   2.0000     -19.232894      -523.3537
  13   2.0000     -19.232712      -523.3487
  14   2.0000     -19.232333      -523.3384
  15   2.0000     -19.232311      -523.3378
  16   2.0000      -1.155300       -31.4373
  17   2.0000      -1.146597       -31.2005
  18   2.0000      -1.136179       -30.9170
  19   2.0000      -1.135508       -30.8987
  20   2.0000      -1.133363       -30.8404
  21   2.0000      -1.128509       -30.7083
  22   2.0000      -1.127485       -30.6804
  23   2.0000      -1.124868       -30.6092
  24   2.0000      -1.117883       -30.4192
  25   2.0000      -1.113452       -30.2986
  26   2.0000      -1.112928       -30.2843
  27   2.0000      -1.108210       -30.1559
  28   2.0000      -1.106461       -30.1083
  29   2.0000      -1.106030       -30.0966
  30   2.0000      -1.096764       -29.8445
  31   2.0000      -1.087814       -29.6009
  32   2.0000      -0.654143       -17.8001
  33   2.0000      -0.650248       -17.6941
  34   2.0000      -0.650025       -17.6881
  35   2.0000      -0.648242       -17.6396
  36   2.0000      -0.642199       -17.4751
  37   2.0000      -0.639173       -17.3928
  38   2.0000      -0.637696       -17.3526
  39   2.0000      -0.630825       -17.1656
  40   2.0000      -0.628113       -17.0918
  41   2.0000      -0.628044       -17.0899
  42   2.0000      -0.623764       -16.9735
  43   2.0000      -0.619344       -16.8532
  44   2.0000      -0.618246       -16.8233
  45   2.0000      -0.615022       -16.7356
  46   2.0000      -0.614626       -16.7248
  47   2.0000      -0.613891       -16.7048
  48   2.0000      -0.590933       -16.0801
  49   2.0000      -0.567067       -15.4307
  50   2.0000      -0.547273       -14.8920
  51   2.0000      -0.545402       -14.8412
  52   2.0000      -0.535668       -14.5763
  53   2.0000      -0.529418       -14.4062
  54   2.0000      -0.523060       -14.2332
  55   2.0000      -0.518961       -14.1216
  56   2.0000      -0.502430       -13.6718
  57   2.0000      -0.499969       -13.6049
  58   2.0000      -0.497665       -13.5421
  59   2.0000      -0.493383       -13.4256
  60   2.0000      -0.477941       -13.0054
  61   2.0000      -0.471039       -12.8176
  62   2.0000      -0.469488       -12.7754
  63   2.0000      -0.449735       -12.2379
  64   2.0000      -0.431125       -11.7315
  65   2.0000      -0.427167       -11.6238
  66   2.0000      -0.426760       -11.6127
  67   2.0000      -0.426720       -11.6117
  68   2.0000      -0.425363       -11.5747
  69   2.0000      -0.424380       -11.5480
  70   2.0000      -0.422418       -11.4946
  71   2.0000      -0.421545       -11.4708
  72   2.0000      -0.420313       -11.4373
  73   2.0000      -0.419100       -11.4043
  74   2.0000      -0.418978       -11.4010
  75   2.0000      -0.418833       -11.3970
  76   2.0000      -0.417652       -11.3649
  77   2.0000      -0.417197       -11.3525
  78   2.0000      -0.415387       -11.3032
  79   2.0000      -0.415021       -11.2933
  80   0.0000       0.091103         2.4790
  81   0.0000       0.114411         3.1133
  82   0.0000       0.144928         3.9437
  83   0.0000       0.145342         3.9550
  84   0.0000       0.150993         4.1087

MULLIKEN ATOMIC CHARGES
-----------------------
   0 O :   -0.784041
   1 H :    0.383016
   2 H :    0.409180
   3 O :   -0.790546
   4 H :    0.369607
   5 H :    0.402052
   6 O :   -0.787756
   7 H :    0.414456
   8 H :    0.362708
   9 O :   -0.756526
  10 H :    0.382827
  11 H :    0.398085
  12 O :   -0.782852
  13 H :    0.408930
  14 H :    0.381027
  15 O :   -0.783158
  16 H :    0.409103
  17 H :    0.381664
  18 O :   -0.792349
  19 H :    0.401301
  20 H :    0.369453
  21 O :   -0.757448
  22 H :    0.398828
  23 H :    0.381399
  24 O :   -0.783649
  25 H :    0.382625
  26 H :    0.409459
  27 O :   -0.793284
  28 H :    0.401203
  29 H :    0.370849
  30 O :   -0.758270
  31 H :    0.398314
  32 H :    0.381347
  33 O :   -0.786806
  34 H :    0.362762
  35 H :    0.414920
  36 O :   -0.787965
  37 H :    0.414632
  38 H :    0.362920
  39 O :   -0.757794
  40 H :    0.398283
  41 H :    0.380989
  42 O :   -0.785979
  43 H :    0.413896
  44 H :    0.363165
  45 O :   -0.791104
  46 H :    0.401753
  47 H :    0.368772
Sum of atomic charges:    0.0000000

LOEWDIN ATOMIC CHARGES
----------------------
   0 O :   -0.292360
   1 H :    0.151768
   2 H :    0.191342
   3 O :   -0.317973
   4 H :    0.142078
   5 H :    0.153103
   6 O :   -0.313083
   7 H :    0.158545
   8 H :    0.142193
   9 O :   -0.317938
  10 H :    0.150918
  11 H :    0.155727
  12 O :   -0.292923
  13 H :    0.191503
  14 H :    0.151975
  15 O :   -0.292973
  16 H :    0.191593
  17 H :    0.152230
  18 O :   -0.321600
  19 H :    0.152370
  20 H :    0.141740
  21 O :   -0.319852
  22 H :    0.155801
  23 H :    0.150339
  24 O :   -0.292629
  25 H :    0.152163
  26 H :    0.191528
  27 O :   -0.322041
  28 H :    0.152293
  29 H :    0.141394
  30 O :   -0.321358
  31 H :    0.155165
  32 H :    0.149879
  33 O :   -0.311435
  34 H :    0.141970
  35 H :    0.158989
  36 O :   -0.311686
  37 H :    0.158773
  38 H :    0.141580
  39 O :   -0.321039
  40 H :    0.155546
  41 H :    0.149596
  42 O :   -0.310282
  43 H :    0.159306
  44 H :    0.142273
  45 O :   -0.318609
  46 H :    0.152504
  47 H :    0.141600

  Mayer bond orders larger than 0.1
B(  0-O ,  1-H ) :   0.7320 B(  0-O ,  2-H ) :   0.8359 B(  0-O , 28-H ) :   0.1185
B(  0-O , 41-H ) :   0.1123 B(  1-H ,  9-O ) :   0.1660 B(  3-O ,  4-H ) :   0.7586
B(  3-O ,  5-H ) :   0.7694 B(  3-O , 38-H ) :   0.1557 B(  4-H , 33-O ) :   0.1471
B(  5-H , 15-O ) :   0.1161 B(  6-O ,  7-H ) :   0.7899 B(  6-O ,  8-H ) :   0.7554
B(  6-O , 47-H ) :   0.1465 B(  8-H , 27-O ) :   0.1543 B(  9-O , 10-H ) :   0.7905
B(  9-O , 11-H ) :   0.8115 B( 10-H , 12-O ) :   0.1098 B( 12-O , 13-H ) :   0.8362
B( 12-O , 14-H ) :   0.7345 B( 12-O , 46-H ) :   0.1179 B( 14-H , 39-O ) :   0.1655
B( 15-O , 16-H ) :   0.8360 B( 15-O , 17-H ) :   0.7347 B( 15-O , 23-H ) :   0.1110
B( 17-H , 30-O ) :   0.1647 B( 18-O , 19-H ) :   0.7687 B( 18-O , 20-H ) :   0.7595
B( 18-O , 34-H ) :   0.1543 B( 19-H , 24-O ) :   0.1183 B( 20-H , 36-O ) :   0.1461
B( 21-O , 22-H ) :   0.8107 B( 21-O , 23-H ) :   0.7908 B( 21-O , 25-H ) :   0.1651
B( 24-O , 25-H ) :   0.7334 B( 24-O , 26-H ) :   0.8356 B( 24-O , 32-H ) :   0.1120
B( 27-O , 28-H ) :   0.7685 B( 27-O , 29-H ) :   0.7582 B( 29-H , 42-O ) :   0.1461
B( 30-O , 31-H ) :   0.8109 B( 30-O , 32-H ) :   0.7902 B( 33-O , 34-H ) :   0.7556
B( 33-O , 35-H ) :   0.7902 B( 36-O , 37-H ) :   0.7909 B( 36-O , 38-H ) :   0.7537
B( 39-O , 40-H ) :   0.8104 B( 39-O , 41-H ) :   0.7903 B( 42-O , 43-H ) :   0.7919
B( 42-O , 44-H ) :   0.7551 B( 44-H , 45-O ) :   0.1542 B( 45-O , 46-H ) :   0.7684
B( 45-O , 47-H ) :   0.7597

Dispersion correction           -0.033013194
FINAL SINGLE POINT ENERGY     -1223.341649145199

DIPOLE MOMENT
-------------
                                X             Y             Z
Electronic contribution:     -0.01113      -0.01985      -0.00641
Nuclear contribution   :     -0.01493      -0.04041       0.00452
                        -----------------------------------------
Total Dipole Moment    :     -0.02606      -0.06026      -0.00189
                        -----------------------------------------
Magnitude (a.u.)       :      0.06568
Magnitude (Debye)      :      0.16696

                             ****ORCA TERMINATED NORMALLY****
TOTAL RUN TIME: 0 days 0 hours 2 minutes 19 seconds 739 msec
