                         Program Version 3.0.3 - RELEASE   -
|  1> ! wB97X-D3 MA-Def2-TZVP def2-TZVP/J RIJCOSX TightSCF Grid4
|  2>
|  3> %pal nprocs 1 end
|  4>
|  5> %scf
|  6>         maxiter 400
|  7> end
|  8>
|  9> * xyz  0  1
| 10> O  3.128243	0.296750	-3.245878
| 11> H  2.480321	-0.380283	-3.634228
| 12> H  3.591577	0.699303	-3.991790
| 13> O  -2.399392	0.340093	-0.491321
| 14> H  -2.138445	-0.323426	0.199909
| 15> H  -3.127669	0.840361	-0.060908
| 16> O  -0.492261	-0.494580	-2.280162
| 17> H  -1.358192	-0.173321	-1.950491
| 18> H  0.162719	0.189023	-1.982045
| 19> O  1.418214	-1.511946	-3.984593
| 20> H  1.678388	-2.256997	-3.396989
| 21> H  0.556186	-1.216964	-3.623382
| 22> O  2.288655	-3.185584	-1.995643
| 23> H  2.698311	-4.049785	-2.137820
| 24> H  3.040655	-2.569657	-1.709242
| 25> O  -3.841990	1.750873	1.341641
| 26> H  -4.687697	2.219215	1.315073
| 27> H  -3.166181	2.427126	1.672745
| 28> O  0.386847	0.558510	2.089518
| 29> H  0.008397	0.847330	2.951862
| 30> H  0.080831	1.239389	1.434751
| 31> O  -3.262410	-0.187061	3.244251
| 32> H  -2.795333	-0.849143	2.692824
| 33> H  -3.652992	0.430106	2.586230
| 34> O  -1.285762	1.328936	4.051377
| 35> H  -2.066730	0.721303	3.837364
| 36> H  -1.263214	1.422346	5.012574
| 37> O  1.427200	1.168411	-1.354498
| 38> H  2.088059	1.114394	-2.083763
| 39> H  1.782607	0.564104	-0.649119
| 40> O  -1.953411	3.336645	2.213509
| 41> H  -1.307265	3.213974	1.486762
| 42> H  -1.613813	2.788383	2.953524
| 43> O  -1.477008	-1.310285	1.450664
| 44> H  -0.754637	-0.695559	1.742113
| 45> H  -0.992667	-1.993867	0.940346
| 46> O  -0.521409	2.224565	0.160128
| 47> H  0.219438	2.147697	-0.481650
| 48> H  -1.219927	1.606880	-0.176519
| 49> O  4.106517	-1.433801	-1.308156
| 50> H  3.683913	-1.066024	-0.502998
| 51> H  3.961705	-0.747269	-1.995237
| 52> O  2.200962	-0.634378	0.505775
| 53> H  1.816084	-0.204902	1.301962
| 54> H  1.505033	-1.295101	0.250425
| 55> O  0.262170	-2.295727	-0.401819
| 56> H  0.887201	-2.891743	-0.871777
| 57> H  -0.081828	-1.708309	-1.125301
| 58> **                         ****END OF INPUT****

CARTESIAN COORDINATES (ANGSTROEM)
---------------------------------
  O      3.128243    0.296750   -3.245878
  H      2.480321   -0.380283   -3.634228
  H      3.591577    0.699303   -3.991790
  O     -2.399392    0.340093   -0.491321
  H     -2.138445   -0.323426    0.199909
  H     -3.127669    0.840361   -0.060908
  O     -0.492261   -0.494580   -2.280162
  H     -1.358192   -0.173321   -1.950491
  H      0.162719    0.189023   -1.982045
  O      1.418214   -1.511946   -3.984593
  H      1.678388   -2.256997   -3.396989
  H      0.556186   -1.216964   -3.623382
  O      2.288655   -3.185584   -1.995643
  H      2.698311   -4.049785   -2.137820
  H      3.040655   -2.569657   -1.709242
  O     -3.841990    1.750873    1.341641
  H     -4.687697    2.219215    1.315073
  H     -3.166181    2.427126    1.672745
  O      0.386847    0.558510    2.089518
  H      0.008397    0.847330    2.951862
  H      0.080831    1.239389    1.434751
  O     -3.262410   -0.187061    3.244251
  H     -2.795333   -0.849143    2.692824
  H     -3.652992    0.430106    2.586230
  O     -1.285762    1.328936    4.051377
  H     -2.066730    0.721303    3.837364
  H     -1.263214    1.422346    5.012574
  O      1.427200    1.168411   -1.354498
  H      2.088059    1.114394   -2.083763
  H      1.782607    0.564104   -0.649119
  O     -1.953411    3.336645    2.213509
  H     -1.307265    3.213974    1.486762
  H     -1.613813    2.788383    2.953524
  O     -1.477008   -1.310285    1.450664
  H     -0.754637   -0.695559    1.742113
  H     -0.992667   -1.993867    0.940346
  O     -0.521409    2.224565    0.160128
  H      0.219438    2.147697   -0.481650
  H     -1.219927    1.606880   -0.176519
  O      4.106517   -1.433801   -1.308156
  H      3.683913   -1.066024   -0.502998
  H      3.961705   -0.747269   -1.995237
  O      2.200962   -0.634378    0.505775
  H      1.816084   -0.204902    1.301962
  H      1.505033   -1.295101    0.250425
  O      0.262170   -2.295727   -0.401819
  H      0.887201   -2.891743   -0.871777
  H     -0.081828   -1.708309   -1.125301

 Total Charge           Charge          ....    0
 Multiplicity           Mult            ....    1
 Number of Electrons    NEL             ....  160
 Basis Dimension        Dim             ....  752

ORBITAL ENERGIES
----------------

  NO   OCC          E(Eh)            E(eV)
   0   2.0000     -19.255883      -523.9792
   1   2.0000     -19.255370      -523.9652
   2   2.0000     -19.254929      -523.9533
   3   2.0000     -19.254369      -523.9380
   4   2.0000     -19.243264      -523.6358
   5   2.0000     -19.243074      -523.6307
   6   2.0000     -19.242921      -523.6265
   7   2.0000     -19.242564      -523.6168
   8   2.0000     -19.241844      -523.5972
   9   2.0000     -19.240920      -523.5720
  10   2.0000     -19.239851      -523.5429
  11   2.0000     -19.239091      -523.5223
  12   2.0000     -19.236236      -523.4446
  13   2.0000     -19.234831      -523.4064
  14   2.0000     -19.234372      -523.3939
  15   2.0000     -19.234346      -523.3932
  16   2.0000      -1.162911       -31.6444
  17   2.0000      -1.157352       -31.4932
  18   2.0000      -1.148573       -31.2543
  19   2.0000      -1.147944       -31.2371
  20   2.0000      -1.146724       -31.2040
  21   2.0000      -1.140305       -31.0293
  22   2.0000      -1.138839       -30.9894
  23   2.0000      -1.136943       -30.9378
  24   2.0000      -1.129574       -30.7373
  25   2.0000      -1.125465       -30.6255
  26   2.0000      -1.124452       -30.5979
  27   2.0000      -1.121037       -30.5050
  28   2.0000      -1.119146       -30.4535
  29   2.0000      -1.118853       -30.4455
  30   2.0000      -1.111919       -30.2569
  31   2.0000      -1.104578       -30.0571
  32   2.0000      -0.665647       -18.1132
  33   2.0000      -0.664159       -18.0727
  34   2.0000      -0.660125       -17.9629
  35   2.0000      -0.658022       -17.9057
  36   2.0000      -0.655518       -17.8376
  37   2.0000      -0.655016       -17.8239
  38   2.0000      -0.650541       -17.7021
  39   2.0000      -0.647615       -17.6225
  40   2.0000      -0.642351       -17.4793
  41   2.0000      -0.639586       -17.4040
  42   2.0000      -0.638333       -17.3699
  43   2.0000      -0.632940       -17.2232
  44   2.0000      -0.630508       -17.1570
  45   2.0000      -0.628808       -17.1107
  46   2.0000      -0.626069       -17.0362
  47   2.0000      -0.624911       -17.0047
  48   2.0000      -0.589607       -16.0440
  49   2.0000      -0.568922       -15.4812
  50   2.0000      -0.551692       -15.0123
  51   2.0000      -0.550307       -14.9746
  52   2.0000      -0.537810       -14.6346
  53   2.0000      -0.535460       -14.5706
  54   2.0000      -0.525616       -14.3028
  55   2.0000      -0.523423       -14.2431
  56   2.0000      -0.506798       -13.7907
  57   2.0000      -0.503025       -13.6880
  58   2.0000      -0.502669       -13.6783
  59   2.0000      -0.500337       -13.6149
  60   2.0000      -0.482085       -13.1182
  61   2.0000      -0.479291       -13.0422
  62   2.0000      -0.473491       -12.8843
  63   2.0000      -0.455774       -12.4022
  64   2.0000      -0.443289       -12.0625
  65   2.0000      -0.441541       -12.0149
  66   2.0000      -0.440470       -11.9858
  67   2.0000      -0.439910       -11.9706
  68   2.0000      -0.433558       -11.7977
  69   2.0000      -0.433170       -11.7871
  70   2.0000      -0.430810       -11.7229
  71   2.0000      -0.428695       -11.6654
  72   2.0000      -0.428632       -11.6637
  73   2.0000      -0.427540       -11.6340
  74   2.0000      -0.424192       -11.5429
  75   2.0000      -0.422890       -11.5074
  76   2.0000      -0.421396       -11.4668
  77   2.0000      -0.420252       -11.4356
  78   2.0000      -0.419448       -11.4138
  79   2.0000      -0.418307       -11.3827
  80   0.0000       0.050814         1.3827
  81   0.0000       0.059748         1.6258
  82   0.0000       0.074440         2.0256
  83   0.0000       0.074922         2.0387
  84   0.0000       0.090442         2.4610

MULLIKEN ATOMIC CHARGES
-----------------------
   0 O :   -0.837032
   1 H :    0.424301
   2 H :    0.361079
   3 O :   -0.816848
   4 H :    0.422275
   5 H :    0.409077
   6 O :   -0.845166
   7 H :    0.428615
   8 H :    0.396659
   9 O :   -0.754725
  10 H :    0.403746
  11 H :    0.417994
  12 O :   -0.836792
  13 H :    0.360534
  14 H :    0.411960
  15 O :   -0.847027
  16 H :    0.360361
  17 H :    0.412467
  18 O :   -0.844380
  19 H :    0.425081
  20 H :    0.388060
  21 O :   -0.732426
  22 H :    0.416199
  23 H :    0.398542
  24 O :   -0.840209
  25 H :    0.418178
  26 H :    0.363298
  27 O :   -0.843710
  28 H :    0.425832
  29 H :    0.402937
  30 O :   -0.727663
  31 H :    0.406770
  32 H :    0.398144
  33 O :   -0.840022
  34 H :    0.400321
  35 H :    0.428322
  36 O :   -0.830540
  37 H :    0.435942
  38 H :    0.398597
  39 O :   -0.737797
  40 H :    0.409357
  41 H :    0.407031
  42 O :   -0.829408
  43 H :    0.431206
  44 H :    0.403173
  45 O :   -0.837280
  46 H :    0.410186
  47 H :    0.424779
Sum of atomic charges:    0.0000000

LOEWDIN ATOMIC CHARGES
----------------------
   0 O :   -0.395880
   1 H :    0.189725
   2 H :    0.191107
   3 O :   -0.405271
   4 H :    0.190992
   5 H :    0.195478
   6 O :   -0.395546
   7 H :    0.203293
   8 H :    0.188148
   9 O :   -0.356789
  10 H :    0.190868
  11 H :    0.198958
  12 O :   -0.395222
  13 H :    0.192254
  14 H :    0.191322
  15 O :   -0.397570
  16 H :    0.192275
  17 H :    0.190111
  18 O :   -0.398913
  19 H :    0.194722
  20 H :    0.188523
  21 O :   -0.358312
  22 H :    0.199281
  23 H :    0.191591
  24 O :   -0.397001
  25 H :    0.192274
  26 H :    0.191824
  27 O :   -0.399176
  28 H :    0.195084
  29 H :    0.190254
  30 O :   -0.355364
  31 H :    0.196139
  32 H :    0.192446
  33 O :   -0.396464
  34 H :    0.190529
  35 H :    0.203524
  36 O :   -0.394877
  37 H :    0.199330
  38 H :    0.191940
  39 O :   -0.356761
  40 H :    0.198138
  41 H :    0.192594
  42 O :   -0.397131
  43 H :    0.200124
  44 H :    0.190169
  45 O :   -0.400698
  46 H :    0.196287
  47 H :    0.191673

  Mayer bond orders larger than 0.1
B(  0-O ,  1-H ) :   0.7512 B(  0-O ,  2-H ) :   0.8727 B(  1-H ,  9-O ) :   0.1029
B(  3-O ,  4-H ) :   0.8201 B(  3-O ,  5-H ) :   0.8329 B(  6-O ,  7-H ) :   0.8306
B(  6-O ,  8-H ) :   0.8199 B(  9-O , 10-H ) :   0.8474 B(  9-O , 11-H ) :   0.8407
B( 12-O , 13-H ) :   0.8734 B( 12-O , 14-H ) :   0.7496 B( 14-H , 39-O ) :   0.1258
B( 15-O , 16-H ) :   0.8743 B( 15-O , 17-H ) :   0.7525 B( 17-H , 30-O ) :   0.1220
B( 18-O , 19-H ) :   0.8196 B( 18-O , 20-H ) :   0.8192 B( 21-O , 22-H ) :   0.8437
B( 21-O , 23-H ) :   0.8541 B( 21-O , 25-H ) :   0.1086 B( 24-O , 25-H ) :   0.7527
B( 24-O , 26-H ) :   0.8714 B( 27-O , 28-H ) :   0.8137 B( 27-O , 29-H ) :   0.8090
B( 30-O , 31-H ) :   0.8480 B( 30-O , 32-H ) :   0.8583 B( 33-O , 34-H ) :   0.8218
B( 33-O , 35-H ) :   0.8296 B( 36-O , 37-H ) :   0.8171 B( 36-O , 38-H ) :   0.8233
B( 39-O , 40-H ) :   0.8490 B( 39-O , 41-H ) :   0.8526 B( 42-O , 43-H ) :   0.8236
B( 42-O , 44-H ) :   0.8177 B( 45-O , 46-H ) :   0.8323 B( 45-O , 47-H ) :   0.8187

Dispersion correction           -0.031996680
FINAL SINGLE POINT ENERGY     -1223.329449841175

DIPOLE MOMENT
-------------
                                X             Y             Z
Electronic contribution:      0.02929      -0.03530       0.00237
Nuclear contribution   :      0.03704       0.12131       0.01300
                        -----------------------------------------
Total Dipole Moment    :      0.06633       0.08601       0.01537
                        -----------------------------------------
Magnitude (a.u.)       :      0.10970
Magnitude (Debye)      :      0.27883

                             ****ORCA TERMINATED NORMALLY****
TOTAL RUN TIME: 0 days 0 hours 28 minutes 0 seconds 632 msec
