                         Program Version 3.0.3 - RELEASE   -
|  1> ! B3LYP Def2-TZVP def2-TZVP/J RIJCOSX TightSCF Grid4 D3BJ
|  2>
|  3> %pal nprocs 12 end
|  4>
|  5> %scf
|  6>         maxiter 400
|  7> end
|  8>
|  9> * xyz  0  1
| 10> O  3.074174	0.224032	-3.143939
| 11> H  2.385441	-0.437264	-3.574818
| 12> H  3.597188	0.590515	-3.880001
| 13> O  -2.211738	0.458902	-0.445911
| 14> H  -1.942671	-0.245188	0.235801
| 15> H  -3.036057	0.855982	-0.040719
| 16> O  -0.445410	-0.449688	-2.210867
| 17> H  -1.309619	-0.112647	-1.845262
| 18> H  0.223147	0.257841	-1.919890
| 19> O  1.335959	-1.449557	-3.989090
| 20> H  1.581789	-2.242684	-3.433272
| 21> H  0.498174	-1.126541	-3.558847
| 22> O  2.143171	-3.236612	-2.086105
| 23> H  2.529200	-4.117172	-2.246177
| 24> H  2.929081	-2.633198	-1.748469
| 25> O  -3.919254	1.553518	1.272845
| 26> H  -4.803609	1.958047	1.206631
| 27> H  -3.274530	2.314122	1.592573
| 28> O  0.476579	0.542405	2.202061
| 29> H  0.037782	0.866744	3.041554
| 30> H  0.205100	1.245444	1.520873
| 31> O  -3.088049	-0.209619	3.185250
| 32> H  -2.572536	-0.840080	2.612865
| 33> H  -3.567175	0.358509	2.516430
| 34> O  -1.304610	1.460044	3.951608
| 35> H  -2.041674	0.751588	3.724067
| 36> H  -1.334326	1.583515	4.918028
| 37> O  1.409784	1.239222	-1.335557
| 38> H  2.080385	1.141676	-2.072867
| 39> H  1.770927	0.615133	-0.620042
| 40> O  -2.190702	3.256518	2.090722
| 41> H  -1.460944	3.157982	1.420260
| 42> H  -1.834927	2.758655	2.880713
| 43> O  -1.331553	-1.232049	1.397038
| 44> H  -0.598945	-0.621986	1.748435
| 45> H  -0.832288	-1.917170	0.873104
| 46> O  -0.397588	2.226036	0.347686
| 47> H  0.314488	2.214263	-0.349384
| 48> H  -1.106962	1.601356	-0.025945
| 49> O  3.940929	-1.591722	-1.296120
| 50> H  3.532700	-1.194753	-0.479284
| 51> H  3.811875	-0.875253	-1.980545
| 52> O  2.179151	-0.544027	0.472136
| 53> H  1.834600	-0.184528	1.334980
| 54> H  1.486247	-1.240034	0.211573
| 55> O  0.335580	-2.238835	-0.411586
| 56> H  0.913229	-2.871630	-0.928989
| 57> H  -0.021512	-1.619810	-1.133549
| 58> **                         ****END OF INPUT****

CARTESIAN COORDINATES (ANGSTROEM)
---------------------------------
  O      3.074174    0.224032   -3.143939
  H      2.385441   -0.437264   -3.574818
  H      3.597188    0.590515   -3.880001
  O     -2.211738    0.458902   -0.445911
  H     -1.942671   -0.245188    0.235801
  H     -3.036057    0.855982   -0.040719
  O     -0.445410   -0.449688   -2.210867
  H     -1.309619   -0.112647   -1.845262
  H      0.223147    0.257841   -1.919890
  O      1.335959   -1.449557   -3.989090
  H      1.581789   -2.242684   -3.433272
  H      0.498174   -1.126541   -3.558847
  O      2.143171   -3.236612   -2.086105
  H      2.529200   -4.117172   -2.246177
  H      2.929081   -2.633198   -1.748469
  O     -3.919254    1.553518    1.272845
  H     -4.803609    1.958047    1.206631
  H     -3.274530    2.314122    1.592573
  O      0.476579    0.542405    2.202061
  H      0.037782    0.866744    3.041554
  H      0.205100    1.245444    1.520873
  O     -3.088049   -0.209619    3.185250
  H     -2.572536   -0.840080    2.612865
  H     -3.567175    0.358509    2.516430
  O     -1.304610    1.460044    3.951608
  H     -2.041674    0.751588    3.724067
  H     -1.334326    1.583515    4.918028
  O      1.409784    1.239222   -1.335557
  H      2.080385    1.141676   -2.072867
  H      1.770927    0.615133   -0.620042
  O     -2.190702    3.256518    2.090722
  H     -1.460944    3.157982    1.420260
  H     -1.834927    2.758655    2.880713
  O     -1.331553   -1.232049    1.397038
  H     -0.598945   -0.621986    1.748435
  H     -0.832288   -1.917170    0.873104
  O     -0.397588    2.226036    0.347686
  H      0.314488    2.214263   -0.349384
  H     -1.106962    1.601356   -0.025945
  O      3.940929   -1.591722   -1.296120
  H      3.532700   -1.194753   -0.479284
  H      3.811875   -0.875253   -1.980545
  O      2.179151   -0.544027    0.472136
  H      1.834600   -0.184528    1.334980
  H      1.486247   -1.240034    0.211573
  O      0.335580   -2.238835   -0.411586
  H      0.913229   -2.871630   -0.928989
  H     -0.021512   -1.619810   -1.133549

 Total Charge           Charge          ....    0
 Multiplicity           Mult            ....    1
 Number of Electrons    NEL             ....  160
 Basis Dimension        Dim             ....  688

ORBITAL ENERGIES
----------------

  NO   OCC          E(Eh)            E(eV)
   0   2.0000     -19.143457      -520.9200
   1   2.0000     -19.143355      -520.9172
   2   2.0000     -19.143257      -520.9145
   3   2.0000     -19.143060      -520.9091
   4   2.0000     -19.131754      -520.6015
   5   2.0000     -19.131511      -520.5949
   6   2.0000     -19.131467      -520.5937
   7   2.0000     -19.130946      -520.5795
   8   2.0000     -19.130225      -520.5599
   9   2.0000     -19.130145      -520.5577
  10   2.0000     -19.129435      -520.5384
  11   2.0000     -19.129369      -520.5366
  12   2.0000     -19.127571      -520.4877
  13   2.0000     -19.127413      -520.4834
  14   2.0000     -19.127051      -520.4735
  15   2.0000     -19.126994      -520.4720
  16   2.0000      -1.043150       -28.3856
  17   2.0000      -1.036706       -28.2102
  18   2.0000      -1.026788       -27.9403
  19   2.0000      -1.025365       -27.9016
  20   2.0000      -1.023307       -27.8456
  21   2.0000      -1.018517       -27.7152
  22   2.0000      -1.016433       -27.6586
  23   2.0000      -1.013674       -27.5835
  24   2.0000      -1.007416       -27.4132
  25   2.0000      -1.001767       -27.2595
  26   2.0000      -1.001238       -27.2451
  27   2.0000      -0.996977       -27.1291
  28   2.0000      -0.995630       -27.0925
  29   2.0000      -0.994532       -27.0626
  30   2.0000      -0.986341       -26.8397
  31   2.0000      -0.976513       -26.5723
  32   2.0000      -0.553979       -15.0745
  33   2.0000      -0.553265       -15.0551
  34   2.0000      -0.553171       -15.0525
  35   2.0000      -0.549677       -14.9575
  36   2.0000      -0.547921       -14.9097
  37   2.0000      -0.544320       -14.8117
  38   2.0000      -0.542542       -14.7633
  39   2.0000      -0.538434       -14.6515
  40   2.0000      -0.529701       -14.4139
  41   2.0000      -0.529119       -14.3981
  42   2.0000      -0.525928       -14.3112
  43   2.0000      -0.521290       -14.1850
  44   2.0000      -0.519465       -14.1353
  45   2.0000      -0.514606       -14.0031
  46   2.0000      -0.514497       -14.0002
  47   2.0000      -0.514236       -13.9931
  48   2.0000      -0.489126       -13.3098
  49   2.0000      -0.468748       -12.7553
  50   2.0000      -0.446187       -12.1414
  51   2.0000      -0.445282       -12.1167
  52   2.0000      -0.435228       -11.8432
  53   2.0000      -0.431922       -11.7532
  54   2.0000      -0.423993       -11.5374
  55   2.0000      -0.420226       -11.4349
  56   2.0000      -0.404770       -11.0144
  57   2.0000      -0.401444       -10.9238
  58   2.0000      -0.400628       -10.9016
  59   2.0000      -0.399971       -10.8838
  60   2.0000      -0.380984       -10.3671
  61   2.0000      -0.376599       -10.2478
  62   2.0000      -0.370075       -10.0702
  63   2.0000      -0.349899        -9.5212
  64   2.0000      -0.339165        -9.2292
  65   2.0000      -0.336594        -9.1592
  66   2.0000      -0.336052        -9.1444
  67   2.0000      -0.334557        -9.1038
  68   2.0000      -0.330228        -8.9860
  69   2.0000      -0.328352        -8.9349
  70   2.0000      -0.327404        -8.9091
  71   2.0000      -0.326051        -8.8723
  72   2.0000      -0.324690        -8.8353
  73   2.0000      -0.324239        -8.8230
  74   2.0000      -0.322267        -8.7693
  75   2.0000      -0.320204        -8.7132
  76   2.0000      -0.319585        -8.6963
  77   2.0000      -0.319556        -8.6956
  78   2.0000      -0.319449        -8.6926
  79   2.0000      -0.317393        -8.6367
  80   0.0000      -0.001036        -0.0282
  81   0.0000       0.010428         0.2838
  82   0.0000       0.029152         0.7933
  83   0.0000       0.029331         0.7981
  84   0.0000       0.048140         1.3100

MULLIKEN ATOMIC CHARGES
-----------------------
   0 O :   -0.742550
   1 H :    0.368482
   2 H :    0.335125
   3 O :   -0.745260
   4 H :    0.361564
   5 H :    0.371202
   6 O :   -0.745855
   7 H :    0.385824
   8 H :    0.351416
   9 O :   -0.677880
  10 H :    0.358790
  11 H :    0.380280
  12 O :   -0.741479
  13 H :    0.334949
  14 H :    0.367313
  15 O :   -0.742012
  16 H :    0.335127
  17 H :    0.367974
  18 O :   -0.746475
  19 H :    0.371528
  20 H :    0.361959
  21 O :   -0.678778
  22 H :    0.379812
  23 H :    0.358822
  24 O :   -0.742037
  25 H :    0.368158
  26 H :    0.335417
  27 O :   -0.746294
  28 H :    0.371339
  29 H :    0.361927
  30 O :   -0.678484
  31 H :    0.380174
  32 H :    0.358005
  33 O :   -0.745437
  34 H :    0.351744
  35 H :    0.385777
  36 O :   -0.746248
  37 H :    0.386119
  38 H :    0.351649
  39 O :   -0.678434
  40 H :    0.379876
  41 H :    0.358370
  42 O :   -0.745491
  43 H :    0.385782
  44 H :    0.351769
  45 O :   -0.746417
  46 H :    0.371376
  47 H :    0.361482
Sum of atomic charges:   -0.0000000

LOEWDIN ATOMIC CHARGES
----------------------
   0 O :   -0.314966
   1 H :    0.143221
   2 H :    0.160366
   3 O :   -0.303118
   4 H :    0.138989
   5 H :    0.147744
   6 O :   -0.299104
   7 H :    0.155531
   8 H :    0.138091
   9 O :   -0.267942
  10 H :    0.147462
  11 H :    0.155142
  12 O :   -0.315262
  13 H :    0.160576
  14 H :    0.143640
  15 O :   -0.315156
  16 H :    0.160600
  17 H :    0.143799
  18 O :   -0.305339
  19 H :    0.147850
  20 H :    0.138801
  21 O :   -0.269506
  22 H :    0.154803
  23 H :    0.147187
  24 O :   -0.315357
  25 H :    0.143805
  26 H :    0.160578
  27 O :   -0.305069
  28 H :    0.147527
  29 H :    0.138840
  30 O :   -0.269661
  31 H :    0.154541
  32 H :    0.147005
  33 O :   -0.297716
  34 H :    0.138553
  35 H :    0.155769
  36 O :   -0.297573
  37 H :    0.156062
  38 H :    0.138114
  39 O :   -0.269681
  40 H :    0.154703
  41 H :    0.146813
  42 O :   -0.297573
  43 H :    0.155930
  44 H :    0.138221
  45 O :   -0.304087
  46 H :    0.147618
  47 H :    0.139226

  Mayer bond orders larger than 0.1
B(  0-O ,  1-H ) :   0.6927 B(  0-O ,  2-H ) :   0.8865 B(  0-O , 28-H ) :   0.1126
B(  0-O , 41-H ) :   0.1068 B(  1-H ,  9-O ) :   0.2229 B(  3-O ,  4-H ) :   0.7548
B(  3-O ,  5-H ) :   0.7981 B(  3-O , 38-H ) :   0.1665 B(  4-H , 33-O ) :   0.1594
B(  5-H , 15-O ) :   0.1113 B(  6-O ,  7-H ) :   0.8042 B(  6-O ,  8-H ) :   0.7553
B(  6-O , 47-H ) :   0.1593 B(  8-H , 27-O ) :   0.1662 B(  9-O , 10-H ) :   0.8140
B(  9-O , 11-H ) :   0.8162 B( 10-H , 12-O ) :   0.1055 B( 12-O , 13-H ) :   0.8867
B( 12-O , 14-H ) :   0.6938 B( 12-O , 46-H ) :   0.1121 B( 14-H , 39-O ) :   0.2230
B( 15-O , 16-H ) :   0.8865 B( 15-O , 17-H ) :   0.6933 B( 15-O , 23-H ) :   0.1068
B( 17-H , 30-O ) :   0.2230 B( 18-O , 19-H ) :   0.7977 B( 18-O , 20-H ) :   0.7554
B( 18-O , 34-H ) :   0.1659 B( 19-H , 24-O ) :   0.1118 B( 20-H , 36-O ) :   0.1586
B( 21-O , 22-H ) :   0.8166 B( 21-O , 23-H ) :   0.8130 B( 21-O , 25-H ) :   0.2219
B( 24-O , 25-H ) :   0.6938 B( 24-O , 26-H ) :   0.8863 B( 24-O , 32-H ) :   0.1069
B( 27-O , 28-H ) :   0.7972 B( 27-O , 29-H ) :   0.7558 B( 29-H , 42-O ) :   0.1581
B( 30-O , 31-H ) :   0.8157 B( 30-O , 32-H ) :   0.8139 B( 33-O , 34-H ) :   0.7553
B( 33-O , 35-H ) :   0.8046 B( 36-O , 37-H ) :   0.8047 B( 36-O , 38-H ) :   0.7543
B( 39-O , 40-H ) :   0.8163 B( 39-O , 41-H ) :   0.8136 B( 42-O , 43-H ) :   0.8051
B( 42-O , 44-H ) :   0.7558 B( 44-H , 45-O ) :   0.1647 B( 45-O , 46-H ) :   0.7974
B( 45-O , 47-H ) :   0.7553

Dispersion correction           -0.063228767
FINAL SINGLE POINT ENERGY     -1223.121758415508

DIPOLE MOMENT
-------------
                                X             Y             Z
Electronic contribution:     -0.00280       0.00294      -0.00371
Nuclear contribution   :     -0.01604      -0.02139      -0.00043
                        -----------------------------------------
Total Dipole Moment    :     -0.01884      -0.01845      -0.00414
                        -----------------------------------------
Magnitude (a.u.)       :      0.02669
Magnitude (Debye)      :      0.06784

                             ****ORCA TERMINATED NORMALLY****
TOTAL RUN TIME: 0 days 0 hours 1 minutes 57 seconds 383 msec
