                         Program Version 3.0.3 - RELEASE   -
|  1> ! B3LYP Def2-TZVP def2-TZVP/J RIJCOSX TightSCF Grid4 D3BJ
|  2>
|  3> %pal nprocs 12 end
|  4>
|  5> %scf
|  6>         maxiter 400
|  7> end
|  8>
|  9> * xyz  0  1
| 10> O  3.128243	0.296750	-3.245878
| 11> H  2.480321	-0.380283	-3.634228
| 12> H  3.591577	0.699303	-3.991790
| 13> O  -2.399392	0.340093	-0.491321
| 14> H  -2.138445	-0.323426	0.199909
| 15> H  -3.127669	0.840361	-0.060908
| 16> O  -0.492261	-0.494580	-2.280162
| 17> H  -1.358192	-0.173321	-1.950491
| 18> H  0.162719	0.189023	-1.982045
| 19> O  1.418214	-1.511946	-3.984593
| 20> H  1.678388	-2.256997	-3.396989
| 21> H  0.556186	-1.216964	-3.623382
| 22> O  2.288655	-3.185584	-1.995643
| 23> H  2.698311	-4.049785	-2.137820
| 24> H  3.040655	-2.569657	-1.709242
| 25> O  -3.841990	1.750873	1.341641
| 26> H  -4.687697	2.219215	1.315073
| 27> H  -3.166181	2.427126	1.672745
| 28> O  0.386847	0.558510	2.089518
| 29> H  0.008397	0.847330	2.951862
| 30> H  0.080831	1.239389	1.434751
| 31> O  -3.262410	-0.187061	3.244251
| 32> H  -2.795333	-0.849143	2.692824
| 33> H  -3.652992	0.430106	2.586230
| 34> O  -1.285762	1.328936	4.051377
| 35> H  -2.066730	0.721303	3.837364
| 36> H  -1.263214	1.422346	5.012574
| 37> O  1.427200	1.168411	-1.354498
| 38> H  2.088059	1.114394	-2.083763
| 39> H  1.782607	0.564104	-0.649119
| 40> O  -1.953411	3.336645	2.213509
| 41> H  -1.307265	3.213974	1.486762
| 42> H  -1.613813	2.788383	2.953524
| 43> O  -1.477008	-1.310285	1.450664
| 44> H  -0.754637	-0.695559	1.742113
| 45> H  -0.992667	-1.993867	0.940346
| 46> O  -0.521409	2.224565	0.160128
| 47> H  0.219438	2.147697	-0.481650
| 48> H  -1.219927	1.606880	-0.176519
| 49> O  4.106517	-1.433801	-1.308156
| 50> H  3.683913	-1.066024	-0.502998
| 51> H  3.961705	-0.747269	-1.995237
| 52> O  2.200962	-0.634378	0.505775
| 53> H  1.816084	-0.204902	1.301962
| 54> H  1.505033	-1.295101	0.250425
| 55> O  0.262170	-2.295727	-0.401819
| 56> H  0.887201	-2.891743	-0.871777
| 57> H  -0.081828	-1.708309	-1.125301
| 58> **                         ****END OF INPUT****

CARTESIAN COORDINATES (ANGSTROEM)
---------------------------------
  O      3.128243    0.296750   -3.245878
  H      2.480321   -0.380283   -3.634228
  H      3.591577    0.699303   -3.991790
  O     -2.399392    0.340093   -0.491321
  H     -2.138445   -0.323426    0.199909
  H     -3.127669    0.840361   -0.060908
  O     -0.492261   -0.494580   -2.280162
  H     -1.358192   -0.173321   -1.950491
  H      0.162719    0.189023   -1.982045
  O      1.418214   -1.511946   -3.984593
  H      1.678388   -2.256997   -3.396989
  H      0.556186   -1.216964   -3.623382
  O      2.288655   -3.185584   -1.995643
  H      2.698311   -4.049785   -2.137820
  H      3.040655   -2.569657   -1.709242
  O     -3.841990    1.750873    1.341641
  H     -4.687697    2.219215    1.315073
  H     -3.166181    2.427126    1.672745
  O      0.386847    0.558510    2.089518
  H      0.008397    0.847330    2.951862
  H      0.080831    1.239389    1.434751
  O     -3.262410   -0.187061    3.244251
  H     -2.795333   -0.849143    2.692824
  H     -3.652992    0.430106    2.586230
  O     -1.285762    1.328936    4.051377
  H     -2.066730    0.721303    3.837364
  H     -1.263214    1.422346    5.012574
  O      1.427200    1.168411   -1.354498
  H      2.088059    1.114394   -2.083763
  H      1.782607    0.564104   -0.649119
  O     -1.953411    3.336645    2.213509
  H     -1.307265    3.213974    1.486762
  H     -1.613813    2.788383    2.953524
  O     -1.477008   -1.310285    1.450664
  H     -0.754637   -0.695559    1.742113
  H     -0.992667   -1.993867    0.940346
  O     -0.521409    2.224565    0.160128
  H      0.219438    2.147697   -0.481650
  H     -1.219927    1.606880   -0.176519
  O      4.106517   -1.433801   -1.308156
  H      3.683913   -1.066024   -0.502998
  H      3.961705   -0.747269   -1.995237
  O      2.200962   -0.634378    0.505775
  H      1.816084   -0.204902    1.301962
  H      1.505033   -1.295101    0.250425
  O      0.262170   -2.295727   -0.401819
  H      0.887201   -2.891743   -0.871777
  H     -0.081828   -1.708309   -1.125301

 Total Charge           Charge          ....    0
 Multiplicity           Mult            ....    1
 Number of Electrons    NEL             ....  160
 Basis Dimension        Dim             ....  688

ORBITAL ENERGIES
----------------

  NO   OCC          E(Eh)            E(eV)
   0   2.0000     -19.145146      -520.9659
   1   2.0000     -19.144777      -520.9559
   2   2.0000     -19.144173      -520.9394
   3   2.0000     -19.143882      -520.9315
   4   2.0000     -19.132395      -520.6189
   5   2.0000     -19.132125      -520.6116
   6   2.0000     -19.131981      -520.6077
   7   2.0000     -19.131570      -520.5965
   8   2.0000     -19.131069      -520.5829
   9   2.0000     -19.130072      -520.5557
  10   2.0000     -19.129120      -520.5298
  11   2.0000     -19.128212      -520.5051
  12   2.0000     -19.125634      -520.4350
  13   2.0000     -19.124318      -520.3991
  14   2.0000     -19.123904      -520.3879
  15   2.0000     -19.123595      -520.3795
  16   2.0000      -1.044037       -28.4097
  17   2.0000      -1.038932       -28.2708
  18   2.0000      -1.030484       -28.0409
  19   2.0000      -1.029876       -28.0244
  20   2.0000      -1.028753       -27.9938
  21   2.0000      -1.022220       -27.8160
  22   2.0000      -1.020934       -27.7810
  23   2.0000      -1.018990       -27.7281
  24   2.0000      -1.011748       -27.5311
  25   2.0000      -1.007775       -27.4229
  26   2.0000      -1.006764       -27.3955
  27   2.0000      -1.003567       -27.3085
  28   2.0000      -1.001723       -27.2583
  29   2.0000      -1.001401       -27.2495
  30   2.0000      -0.994665       -27.0662
  31   2.0000      -0.987431       -26.8694
  32   2.0000      -0.559028       -15.2119
  33   2.0000      -0.557884       -15.1808
  34   2.0000      -0.554129       -15.0786
  35   2.0000      -0.552174       -15.0254
  36   2.0000      -0.549274       -14.9465
  37   2.0000      -0.548731       -14.9317
  38   2.0000      -0.544142       -14.8069
  39   2.0000      -0.542292       -14.7565
  40   2.0000      -0.536221       -14.5913
  41   2.0000      -0.533796       -14.5253
  42   2.0000      -0.532585       -14.4924
  43   2.0000      -0.527693       -14.3593
  44   2.0000      -0.525467       -14.2987
  45   2.0000      -0.523550       -14.2465
  46   2.0000      -0.521169       -14.1817
  47   2.0000      -0.519960       -14.1488
  48   2.0000      -0.480398       -13.0723
  49   2.0000      -0.461635       -12.5617
  50   2.0000      -0.445642       -12.1265
  51   2.0000      -0.444473       -12.0947
  52   2.0000      -0.432240       -11.7618
  53   2.0000      -0.431380       -11.7385
  54   2.0000      -0.421640       -11.4734
  55   2.0000      -0.418441       -11.3864
  56   2.0000      -0.403939       -10.9917
  57   2.0000      -0.400838       -10.9074
  58   2.0000      -0.399284       -10.8651
  59   2.0000      -0.396782       -10.7970
  60   2.0000      -0.380229       -10.3466
  61   2.0000      -0.378142       -10.2898
  62   2.0000      -0.371546       -10.1103
  63   2.0000      -0.355217        -9.6659
  64   2.0000      -0.341877        -9.3029
  65   2.0000      -0.340319        -9.2605
  66   2.0000      -0.339434        -9.2365
  67   2.0000      -0.339073        -9.2267
  68   2.0000      -0.332351        -9.0437
  69   2.0000      -0.332147        -9.0382
  70   2.0000      -0.329823        -8.9749
  71   2.0000      -0.327778        -8.9193
  72   2.0000      -0.327765        -8.9189
  73   2.0000      -0.326627        -8.8880
  74   2.0000      -0.323212        -8.7950
  75   2.0000      -0.321893        -8.7591
  76   2.0000      -0.320482        -8.7208
  77   2.0000      -0.319470        -8.6932
  78   2.0000      -0.318654        -8.6710
  79   2.0000      -0.317780        -8.6472
  80   0.0000      -0.002591        -0.0705
  81   0.0000       0.009626         0.2619
  82   0.0000       0.028823         0.7843
  83   0.0000       0.029187         0.7942
  84   0.0000       0.045831         1.2471

MULLIKEN ATOMIC CHARGES
-----------------------
   0 O :   -0.728746
   1 H :    0.371286
   2 H :    0.333338
   3 O :   -0.730576
   4 H :    0.355968
   5 H :    0.362565
   6 O :   -0.730031
   7 H :    0.377344
   8 H :    0.346505
   9 O :   -0.682931
  10 H :    0.353389
  11 H :    0.371868
  12 O :   -0.726866
  13 H :    0.334589
  14 H :    0.365421
  15 O :   -0.727778
  16 H :    0.334470
  17 H :    0.364179
  18 O :   -0.737966
  19 H :    0.371419
  20 H :    0.344731
  21 O :   -0.677597
  22 H :    0.371284
  23 H :    0.350328
  24 O :   -0.728947
  25 H :    0.367557
  26 H :    0.335110
  27 O :   -0.740824
  28 H :    0.370099
  29 H :    0.350853
  30 O :   -0.675485
  31 H :    0.374127
  32 H :    0.350474
  33 O :   -0.726945
  34 H :    0.348126
  35 H :    0.375196
  36 O :   -0.732236
  37 H :    0.384054
  38 H :    0.346326
  39 O :   -0.678062
  40 H :    0.372313
  41 H :    0.354121
  42 O :   -0.729134
  43 H :    0.378915
  44 H :    0.348658
  45 O :   -0.730151
  46 H :    0.363045
  47 H :    0.356618
Sum of atomic charges:   -0.0000000

LOEWDIN ATOMIC CHARGES
----------------------
   0 O :   -0.296953
   1 H :    0.138998
   2 H :    0.157833
   3 O :   -0.300048
   4 H :    0.134563
   5 H :    0.142844
   6 O :   -0.286921
   7 H :    0.152423
   8 H :    0.131960
   9 O :   -0.269444
  10 H :    0.139034
  11 H :    0.149500
  12 O :   -0.295958
  13 H :    0.158748
  14 H :    0.140212
  15 O :   -0.298147
  16 H :    0.158734
  17 H :    0.139048
  18 O :   -0.288756
  19 H :    0.141342
  20 H :    0.131817
  21 O :   -0.271860
  22 H :    0.150291
  23 H :    0.139978
  24 O :   -0.298375
  25 H :    0.141469
  26 H :    0.158648
  27 O :   -0.289783
  28 H :    0.141460
  29 H :    0.133765
  30 O :   -0.268388
  31 H :    0.147210
  32 H :    0.140550
  33 O :   -0.288312
  34 H :    0.134051
  35 H :    0.152768
  36 O :   -0.285616
  37 H :    0.147677
  38 H :    0.135383
  39 O :   -0.269869
  40 H :    0.148998
  41 H :    0.140792
  42 O :   -0.289017
  43 H :    0.148586
  44 H :    0.133609
  45 O :   -0.293558
  46 H :    0.143548
  47 H :    0.135163

  Mayer bond orders larger than 0.1
B(  0-O ,  1-H ) :   0.7287 B(  0-O ,  2-H ) :   0.8894 B(  0-O , 28-H ) :   0.1046
B(  1-H ,  9-O ) :   0.1819 B(  3-O ,  4-H ) :   0.7836 B(  3-O ,  5-H ) :   0.8257
B(  3-O , 38-H ) :   0.1384 B(  4-H , 33-O ) :   0.1362 B(  6-O ,  7-H ) :   0.8274
B(  6-O ,  8-H ) :   0.7830 B(  6-O , 47-H ) :   0.1350 B(  8-H , 27-O ) :   0.1391
B(  9-O , 10-H ) :   0.8246 B(  9-O , 11-H ) :   0.8337 B( 12-O , 13-H ) :   0.8895
B( 12-O , 14-H ) :   0.7295 B( 14-H , 39-O ) :   0.1884 B( 15-O , 16-H ) :   0.8898
B( 15-O , 17-H ) :   0.7313 B( 17-H , 30-O ) :   0.1870 B( 18-O , 19-H ) :   0.8110
B( 18-O , 20-H ) :   0.7797 B( 18-O , 34-H ) :   0.1367 B( 20-H , 36-O ) :   0.1430
B( 21-O , 22-H ) :   0.8359 B( 21-O , 23-H ) :   0.8316 B( 21-O , 25-H ) :   0.1842
B( 24-O , 25-H ) :   0.7323 B( 24-O , 26-H ) :   0.8888 B( 27-O , 28-H ) :   0.8071
B( 27-O , 29-H ) :   0.7749 B( 29-H , 42-O ) :   0.1483 B( 30-O , 31-H ) :   0.8329
B( 30-O , 32-H ) :   0.8365 B( 33-O , 34-H ) :   0.7867 B( 33-O , 35-H ) :   0.8282
B( 36-O , 37-H ) :   0.8128 B( 36-O , 38-H ) :   0.7894 B( 39-O , 40-H ) :   0.8342
B( 39-O , 41-H ) :   0.8318 B( 42-O , 43-H ) :   0.8197 B( 42-O , 44-H ) :   0.7844
B( 44-H , 45-O ) :   0.1433 B( 45-O , 46-H ) :   0.8247 B( 45-O , 47-H ) :   0.7827

Dispersion correction           -0.060846452
FINAL SINGLE POINT ENERGY     -1223.137887494697

DIPOLE MOMENT
-------------
                                X             Y             Z
Electronic contribution:      0.03283      -0.03468       0.00435
Nuclear contribution   :      0.03704       0.12131       0.01300
                        -----------------------------------------
Total Dipole Moment    :      0.06987       0.08663       0.01735
                        -----------------------------------------
Magnitude (a.u.)       :      0.11264
Magnitude (Debye)      :      0.28631

                             ****ORCA TERMINATED NORMALLY****
TOTAL RUN TIME: 0 days 0 hours 1 minutes 55 seconds 978 msec
