                         Program Version 4.2.0 -  RELEASE  -
|  1> # 12mecn.remya.etal.2.mol5,10
|  2> ! MP2 def2-TZVP EnGrad TightSCF
|  3>
|  4> %pal
|  5>     nprocs 6
|  6> end
|  7>
|  8> %maxcore 8000
|  9>
| 10> %scf
| 11>     ConvForced true
| 12> end
| 13>
| 14> *xyz 0 1
| 15> C  -1.955700000   2.515080000   1.698463000
| 16> H  -2.923830000   2.883163000   2.049269000
| 17> H  -1.154850000   3.171830000   2.050990000
| 18> H  -1.790380000   1.506115000   2.087896000
| 19> C  -1.948230000   2.482156000   0.253672000
| 20> N  -1.937550000   2.462523000  -0.913150000
| 21> C   4.602033000   0.321019000  -1.784800000
| 22> H   4.827650000  -0.662160000  -2.207910000
| 23> H   5.320558000   1.057980000  -2.148500000
| 24> H   3.601982000   0.643751000  -2.087520000
| 25> C   4.654967000   0.244048000  -0.343060000
| 26> N   4.691648000   0.166590000   0.820757000
| 27> *
| 28>
| 29>                          ****END OF INPUT****

CARTESIAN COORDINATES (ANGSTROEM)
---------------------------------
  C     -1.955700    2.515080    1.698463
  H     -2.923830    2.883163    2.049269
  H     -1.154850    3.171830    2.050990
  H     -1.790380    1.506115    2.087896
  C     -1.948230    2.482156    0.253672
  N     -1.937550    2.462523   -0.913150
  C      4.602033    0.321019   -1.784800
  H      4.827650   -0.662160   -2.207910
  H      5.320558    1.057980   -2.148500
  H      3.601982    0.643751   -2.087520
  C      4.654967    0.244048   -0.343060
  N      4.691648    0.166590    0.820757

 Total Charge           Charge          ....    0
 Multiplicity           Mult            ....    1
 Number of Electrons    NEL             ....   44
 Basis Dimension        Dim             ....  222

ORBITAL ENERGIES
----------------

  NO   OCC          E(Eh)            E(eV)
   0   2.0000     -15.573451      -423.7751
   1   2.0000     -15.572619      -423.7525
   2   2.0000     -11.284367      -307.0632
   3   2.0000     -11.283204      -307.0316
   4   2.0000     -11.280821      -306.9667
   5   2.0000     -11.279949      -306.9430
   6   2.0000      -1.214858       -33.0580
   7   2.0000      -1.214098       -33.0373
   8   2.0000      -1.043355       -28.3911
   9   2.0000      -1.042855       -28.3775
  10   2.0000      -0.699214       -19.0266
  11   2.0000      -0.698736       -19.0136
  12   2.0000      -0.632821       -17.2199
  13   2.0000      -0.632157       -17.2019
  14   2.0000      -0.630198       -17.1486
  15   2.0000      -0.628292       -17.0967
  16   2.0000      -0.556529       -15.1439
  17   2.0000      -0.555719       -15.1219
  18   2.0000      -0.458078       -12.4649
  19   2.0000      -0.457784       -12.4569
  20   2.0000      -0.457437       -12.4475
  21   2.0000      -0.456829       -12.4309
  22   0.0000       0.118710         3.2303
  23   0.0000       0.122618         3.3366
  24   0.0000       0.171852         4.6763
  25   0.0000       0.172217         4.6863
  26   0.0000       0.172390         4.6910

MULLIKEN ATOMIC CHARGES
-----------------------
   0 C :   -0.277763
   1 H :    0.171548
   2 H :    0.173842
   3 H :    0.173784
   4 C :   -0.145500
   5 N :   -0.095902
   6 C :   -0.279488
   7 H :    0.171923
   8 H :    0.171470
   9 H :    0.177187
  10 C :   -0.145552
  11 N :   -0.095549
Sum of atomic charges:   -0.0000000

LOEWDIN ATOMIC CHARGES
----------------------
   0 C :   -0.283087
   1 H :    0.152458
   2 H :    0.153565
   3 H :    0.153402
   4 C :   -0.219275
   5 N :    0.042941
   6 C :   -0.283043
   7 H :    0.153035
   8 H :    0.151521
   9 H :    0.154688
  10 C :   -0.219348
  11 N :    0.043144

  Mayer bond orders larger than 0.100000
B(  0-C ,  1-H ) :   0.9164 B(  0-C ,  2-H ) :   0.9156 B(  0-C ,  3-H ) :   0.9158
B(  0-C ,  4-C ) :   0.9017 B(  4-C ,  5-N ) :   2.8391 B(  6-C ,  7-H ) :   0.9157
B(  6-C ,  8-H ) :   0.9167 B(  6-C ,  9-H ) :   0.9154 B(  6-C , 10-C ) :   0.9014
B( 10-C , 11-N ) :   2.8392

MP2 TOTAL ENERGY:     -264.967186365 Eh
FINAL SINGLE POINT ENERGY      -264.967186364534

DIPOLE MOMENT
-------------
                                X             Y             Z
Electronic contribution:      0.13487      -0.24369      -0.00690
Nuclear contribution   :     -0.20322       0.36896       0.01112
                        -----------------------------------------
Total Dipole Moment    :     -0.06835       0.12527       0.00422
                        -----------------------------------------
Magnitude (a.u.)       :      0.14277
Magnitude (Debye)      :      0.36288

Rotational constants in cm-1:     0.156410     0.016516     0.015027
Rotational constants in MHz :  4689.059905   495.152112   450.505553

                             ****ORCA TERMINATED NORMALLY****
TOTAL RUN TIME: 0 days 0 hours 0 minutes 38 seconds 674 msec
