                         Program Version 4.2.0 -  RELEASE  -
|  1> # 12meoh.boyd.etal.mol1,4,6
|  2> ! MP2 def2-TZVP EnGrad TightSCF
|  3>
|  4> %pal
|  5>     nprocs 6
|  6> end
|  7>
|  8> %maxcore 8000
|  9>
| 10> %scf
| 11>     ConvForced true
| 12> end
| 13>
| 14> *xyz 0 1
| 15> O   0.666045193  -2.600503172   0.138317521
| 16> H  -0.227115049  -2.712051982  -0.281868004
| 17> C   0.490021232  -1.851247678   1.341189459
| 18> H   1.466500502  -1.466176022   1.645844415
| 19> H   0.097564527  -2.488364683   2.146902740
| 20> H  -0.187588112  -1.000787499   1.200739571
| 21> O  -1.358578914   1.232360421   1.189721000
| 22> H  -1.058250183   1.216459361   0.238591307
| 23> C  -0.389763452   1.957872567   1.943072362
| 24> H  -0.747220771   2.012806578   2.975200343
| 25> H  -0.260410585   2.982763209   1.565366540
| 26> H   0.585220638   1.453754179   1.934070793
| 27> O   2.622209273  -1.703002590  -1.445859723
| 28> H   1.828551432  -1.986513781  -0.909754968
| 29> C   2.781117675  -2.615822239  -2.525472890
| 30> H   3.691063626  -2.339003544  -3.065143454
| 31> H   1.934727323  -2.559520367  -3.223226661
| 32> H   2.879948338  -3.653846211  -2.177750170
| 33> *
| 34>
| 35>                          ****END OF INPUT****

CARTESIAN COORDINATES (ANGSTROEM)
---------------------------------
  O      0.666045   -2.600503    0.138318
  H     -0.227115   -2.712052   -0.281868
  C      0.490021   -1.851248    1.341189
  H      1.466501   -1.466176    1.645844
  H      0.097565   -2.488365    2.146903
  H     -0.187588   -1.000787    1.200740
  O     -1.358579    1.232360    1.189721
  H     -1.058250    1.216459    0.238591
  C     -0.389763    1.957873    1.943072
  H     -0.747221    2.012807    2.975200
  H     -0.260411    2.982763    1.565367
  H      0.585221    1.453754    1.934071
  O      2.622209   -1.703003   -1.445860
  H      1.828551   -1.986514   -0.909755
  C      2.781118   -2.615822   -2.525473
  H      3.691064   -2.339004   -3.065143
  H      1.934727   -2.559520   -3.223227
  H      2.879948   -3.653846   -2.177750

 Total Charge           Charge          ....    0
 Multiplicity           Mult            ....    1
 Number of Electrons    NEL             ....   54
 Basis Dimension        Dim             ....  258

ORBITAL ENERGIES
----------------

  NO   OCC          E(Eh)            E(eV)
   0   2.0000     -20.587055      -560.2022
   1   2.0000     -20.569420      -559.7224
   2   2.0000     -20.513016      -558.1875
   3   2.0000     -11.282365      -307.0088
   4   2.0000     -11.279395      -306.9279
   5   2.0000     -11.249094      -306.1034
   6   2.0000      -1.379361       -37.5343
   7   2.0000      -1.356992       -36.9256
   8   2.0000      -1.309196       -35.6250
   9   2.0000      -0.936648       -25.4875
  10   2.0000      -0.927860       -25.2483
  11   2.0000      -0.895475       -24.3671
  12   2.0000      -0.712712       -19.3939
  13   2.0000      -0.690752       -18.7963
  14   2.0000      -0.670750       -18.2520
  15   2.0000      -0.633437       -17.2367
  16   2.0000      -0.623162       -16.9571
  17   2.0000      -0.605440       -16.4749
  18   2.0000      -0.600026       -16.3276
  19   2.0000      -0.590237       -16.0612
  20   2.0000      -0.561062       -15.2673
  21   2.0000      -0.524811       -14.2808
  22   2.0000      -0.509910       -13.8754
  23   2.0000      -0.484803       -13.1921
  24   2.0000      -0.458870       -12.4865
  25   2.0000      -0.454130       -12.3575
  26   2.0000      -0.416097       -11.3226
  27   0.0000       0.111416         3.0318
  28   0.0000       0.136378         3.7110
  29   0.0000       0.163220         4.4414
  30   0.0000       0.173009         4.7078
  31   0.0000       0.187610         5.1051

MULLIKEN ATOMIC CHARGES
-----------------------
   0 O :   -0.518557
   1 H :    0.340555
   2 C :   -0.185195
   3 H :    0.144599
   4 H :    0.122612
   5 H :    0.121361
   6 O :   -0.498662
   7 H :    0.329171
   8 C :   -0.179563
   9 H :    0.132094
  10 H :    0.121759
  11 H :    0.114853
  12 O :   -0.536337
  13 H :    0.341178
  14 C :   -0.164150
  15 H :    0.120451
  16 H :    0.090376
  17 H :    0.103456
Sum of atomic charges:    0.0000000

LOEWDIN ATOMIC CHARGES
----------------------
   0 O :   -0.078221
   1 H :    0.197219
   2 C :   -0.370970
   3 H :    0.115132
   4 H :    0.104627
   5 H :    0.102703
   6 O :   -0.109501
   7 H :    0.192777
   8 C :   -0.380860
   9 H :    0.111362
  10 H :    0.099818
  11 H :    0.095592
  12 O :   -0.129902
  13 H :    0.158940
  14 C :   -0.396059
  15 H :    0.105505
  16 H :    0.088708
  17 H :    0.093129

  Mayer bond orders larger than 0.100000
B(  0-O ,  1-H ) :   0.8290 B(  0-O ,  2-C ) :   0.8567 B(  0-O , 13-H ) :   0.1011
B(  2-C ,  3-H ) :   0.9386 B(  2-C ,  4-H ) :   0.9311 B(  2-C ,  5-H ) :   0.9330
B(  6-O ,  7-H ) :   0.8373 B(  6-O ,  8-C ) :   0.9049 B(  8-C ,  9-H ) :   0.9377
B(  8-C , 10-H ) :   0.9394 B(  8-C , 11-H ) :   0.9372 B( 12-O , 13-H ) :   0.7854
B( 12-O , 14-C ) :   0.9437 B( 14-C , 15-H ) :   0.9414 B( 14-C , 16-H ) :   0.9414
B( 14-C , 17-H ) :   0.9371

MP2 TOTAL ENERGY:     -346.531342142 Eh
FINAL SINGLE POINT ENERGY      -346.531342142446

DIPOLE MOMENT
-------------
                                X             Y             Z
Electronic contribution:     -1.29946      -0.56454      -0.59642
Nuclear contribution   :      0.52829       0.63595       0.82775
                        -----------------------------------------
Total Dipole Moment    :     -0.77117       0.07141       0.23133
                        -----------------------------------------
Magnitude (a.u.)       :      0.80828
Magnitude (Debye)      :      2.05448

Rotational constants in cm-1:     0.126408     0.024433     0.022018
Rotational constants in MHz :  3789.627182   732.497204   660.077914

                             ****ORCA TERMINATED NORMALLY****
TOTAL RUN TIME: 0 days 0 hours 1 minutes 15 seconds 563 msec
