                         Program Version 4.2.0 -  RELEASE  -
|  1> # 12meoh.boyd.etal.mol0,2,11
|  2> ! MP2 def2-TZVP EnGrad TightSCF
|  3>
|  4> %pal
|  5>     nprocs 6
|  6> end
|  7>
|  8> %maxcore 8000
|  9>
| 10> %scf
| 11>     ConvForced true
| 12> end
| 13>
| 14> *xyz 0 1
| 15> O  -1.776108874  -2.741384797  -1.019308298
| 16> H  -2.520094035  -2.452295987  -0.420778302
| 17> C  -2.174025166  -3.952700964  -1.647004581
| 18> H  -1.359803895  -4.272673416  -2.304149236
| 19> H  -3.075973971  -3.808692420  -2.256751112
| 20> H  -2.370225393  -4.752784761  -0.918966137
| 21> O  -3.839777402   2.233595098   0.660436763
| 22> H  -2.958345897   1.907036203   0.973588449
| 23> C  -3.600368059   3.168790682  -0.390480452
| 24> H  -4.551709193   3.344148967  -0.901254863
| 25> H  -2.868237594   2.789240199  -1.113617525
| 26> H  -3.243594915   4.128998607   0.009549480
| 27> O   3.252955559   0.588596242   1.858934315
| 28> H   3.621209177  -0.251605199   1.476063364
| 29> C   4.040824528   0.944288422   2.989639460
| 30> H   3.670521436   1.902573549   3.363847391
| 31> H   5.103749934   1.055868619   2.734277559
| 32> H   3.948540682   0.200279590   3.792908518
| 33> *
| 34>
| 35>                          ****END OF INPUT****

CARTESIAN COORDINATES (ANGSTROEM)
---------------------------------
  O     -1.776109   -2.741385   -1.019308
  H     -2.520094   -2.452296   -0.420778
  C     -2.174025   -3.952701   -1.647005
  H     -1.359804   -4.272673   -2.304149
  H     -3.075974   -3.808692   -2.256751
  H     -2.370225   -4.752785   -0.918966
  O     -3.839777    2.233595    0.660437
  H     -2.958346    1.907036    0.973588
  C     -3.600368    3.168791   -0.390480
  H     -4.551709    3.344149   -0.901255
  H     -2.868238    2.789240   -1.113618
  H     -3.243595    4.128999    0.009549
  O      3.252956    0.588596    1.858934
  H      3.621209   -0.251605    1.476063
  C      4.040825    0.944288    2.989639
  H      3.670521    1.902574    3.363847
  H      5.103750    1.055869    2.734278
  H      3.948541    0.200280    3.792909

 Total Charge           Charge          ....    0
 Multiplicity           Mult            ....    1
 Number of Electrons    NEL             ....   54
 Basis Dimension        Dim             ....  258

ORBITAL ENERGIES
----------------

  NO   OCC          E(Eh)            E(eV)
   0   2.0000     -20.556827      -559.3797
   1   2.0000     -20.556582      -559.3730
   2   2.0000     -20.553340      -559.2848
   3   2.0000     -11.271469      -306.7123
   4   2.0000     -11.270339      -306.6815
   5   2.0000     -11.267935      -306.6161
   6   2.0000      -1.346159       -36.6308
   7   2.0000      -1.345741       -36.6195
   8   2.0000      -1.342811       -36.5398
   9   2.0000      -0.919479       -25.0203
  10   2.0000      -0.917876       -24.9767
  11   2.0000      -0.915860       -24.9218
  12   2.0000      -0.681250       -18.5377
  13   2.0000      -0.680227       -18.5099
  14   2.0000      -0.677890       -18.4463
  15   2.0000      -0.616728       -16.7820
  16   2.0000      -0.616004       -16.7623
  17   2.0000      -0.612919       -16.6784
  18   2.0000      -0.590618       -16.0715
  19   2.0000      -0.590014       -16.0551
  20   2.0000      -0.586429       -15.9575
  21   2.0000      -0.499875       -13.6023
  22   2.0000      -0.499060       -13.5801
  23   2.0000      -0.498007       -13.5514
  24   2.0000      -0.448777       -12.2118
  25   2.0000      -0.447628       -12.1806
  26   2.0000      -0.445589       -12.1251
  27   0.0000       0.126738         3.4487
  28   0.0000       0.136137         3.7045
  29   0.0000       0.147747         4.0204
  30   0.0000       0.175314         4.7705
  31   0.0000       0.176275         4.7967

MULLIKEN ATOMIC CHARGES
-----------------------
   0 O :   -0.497494
   1 H :    0.323620
   2 C :   -0.173028
   3 H :    0.127805
   4 H :    0.110306
   5 H :    0.108712
   6 O :   -0.501207
   7 H :    0.324009
   8 C :   -0.175248
   9 H :    0.126873
  10 H :    0.115885
  11 H :    0.109767
  12 O :   -0.497678
  13 H :    0.323094
  14 C :   -0.172781
  15 H :    0.128302
  16 H :    0.109631
  17 H :    0.109431
Sum of atomic charges:    0.0000000

LOEWDIN ATOMIC CHARGES
----------------------
   0 O :   -0.109447
   1 H :    0.193331
   2 C :   -0.384429
   3 H :    0.109909
   4 H :    0.095500
   5 H :    0.095083
   6 O :   -0.112788
   7 H :    0.189101
   8 C :   -0.378339
   9 H :    0.108975
  10 H :    0.097243
  11 H :    0.095860
  12 O :   -0.109313
  13 H :    0.190765
  14 C :   -0.382134
  15 H :    0.109946
  16 H :    0.095428
  17 H :    0.095308

  Mayer bond orders larger than 0.100000
B(  0-O ,  1-H ) :   0.8406 B(  0-O ,  2-C ) :   0.9275 B(  2-C ,  3-H ) :   0.9376
B(  2-C ,  4-H ) :   0.9398 B(  2-C ,  5-H ) :   0.9382 B(  6-O ,  7-H ) :   0.8426
B(  6-O ,  8-C ) :   0.9250 B(  8-C ,  9-H ) :   0.9380 B(  8-C , 10-H ) :   0.9411
B(  8-C , 11-H ) :   0.9378 B( 12-O , 13-H ) :   0.8415 B( 12-O , 14-C ) :   0.9272
B( 14-C , 15-H ) :   0.9378 B( 14-C , 16-H ) :   0.9389 B( 14-C , 17-H ) :   0.9388

MP2 TOTAL ENERGY:     -346.520598492 Eh
FINAL SINGLE POINT ENERGY      -346.520598491801

DIPOLE MOMENT
-------------
                                X             Y             Z
Electronic contribution:     -0.86118       0.03859       0.59617
Nuclear contribution   :      1.44536      -0.54936      -0.50941
                        -----------------------------------------
Total Dipole Moment    :      0.58419      -0.51077       0.08676
                        -----------------------------------------
Magnitude (a.u.)       :      0.78082
Magnitude (Debye)      :      1.98469

Rotational constants in cm-1:     0.023873     0.014500     0.009244
Rotational constants in MHz :   715.695467   434.705267   277.126481

                             ****ORCA TERMINATED NORMALLY****
TOTAL RUN TIME: 0 days 0 hours 0 minutes 37 seconds 439 msec
