                         Program Version 4.2.0 -  RELEASE  -
|  1> # 12mecn.remya.etal.2.mol0,3
|  2> ! MP2 def2-TZVP EnGrad TightSCF
|  3>
|  4> %pal
|  5>     nprocs 6
|  6> end
|  7>
|  8> %maxcore 8000
|  9>
| 10> %scf
| 11>     ConvForced true
| 12> end
| 13>
| 14> *xyz 0 1
| 15> C  -0.869520000  -3.929380000   1.700199000
| 16> H  -0.057420000  -3.268850000   2.015352000
| 17> H  -0.697530000  -4.930670000   2.101524000
| 18> H  -1.821490000  -3.546590000   2.077146000
| 19> C  -0.916080000  -3.969960000   0.256749000
| 20> N  -0.955390000  -3.995980000  -0.909290000
| 21> C  -5.181310000   2.853865000  -1.626100000
| 22> H  -5.488260000   3.811434000  -2.053310000
| 23> H  -5.857590000   2.068112000  -1.968630000
| 24> H  -4.170750000   2.611402000  -1.966640000
| 25> C  -5.187260000   2.919160000  -0.181450000
| 26> N  -5.181700000   2.970641000   0.983640000
| 27> *
| 28>
| 29>                          ****END OF INPUT****

CARTESIAN COORDINATES (ANGSTROEM)
---------------------------------
  C     -0.869520   -3.929380    1.700199
  H     -0.057420   -3.268850    2.015352
  H     -0.697530   -4.930670    2.101524
  H     -1.821490   -3.546590    2.077146
  C     -0.916080   -3.969960    0.256749
  N     -0.955390   -3.995980   -0.909290
  C     -5.181310    2.853865   -1.626100
  H     -5.488260    3.811434   -2.053310
  H     -5.857590    2.068112   -1.968630
  H     -4.170750    2.611402   -1.966640
  C     -5.187260    2.919160   -0.181450
  N     -5.181700    2.970641    0.983640

 Total Charge           Charge          ....    0
 Multiplicity           Mult            ....    1
 Number of Electrons    NEL             ....   44
 Basis Dimension        Dim             ....  222

ORBITAL ENERGIES
----------------

  NO   OCC          E(Eh)            E(eV)
   0   2.0000     -15.573432      -423.7746
   1   2.0000     -15.573247      -423.7696
   2   2.0000     -11.284413      -307.0645
   3   2.0000     -11.284141      -307.0571
   4   2.0000     -11.280617      -306.9612
   5   2.0000     -11.280460      -306.9569
   6   2.0000      -1.215008       -33.0620
   7   2.0000      -1.214794       -33.0562
   8   2.0000      -1.043981       -28.4082
   9   2.0000      -1.043222       -28.3875
  10   2.0000      -0.700694       -19.0668
  11   2.0000      -0.699906       -19.0454
  12   2.0000      -0.632130       -17.2011
  13   2.0000      -0.631853       -17.1936
  14   2.0000      -0.631402       -17.1813
  15   2.0000      -0.629530       -17.1304
  16   2.0000      -0.556382       -15.1399
  17   2.0000      -0.556361       -15.1393
  18   2.0000      -0.458330       -12.4718
  19   2.0000      -0.457919       -12.4606
  20   2.0000      -0.457811       -12.4577
  21   2.0000      -0.457781       -12.4568
  22   0.0000       0.119761         3.2589
  23   0.0000       0.120250         3.2722
  24   0.0000       0.171342         4.6625
  25   0.0000       0.171657         4.6710
  26   0.0000       0.172317         4.6890

MULLIKEN ATOMIC CHARGES
-----------------------
   0 C :   -0.278292
   1 H :    0.172432
   2 H :    0.171965
   3 H :    0.173945
   4 C :   -0.145826
   5 N :   -0.094223
   6 C :   -0.280216
   7 H :    0.172107
   8 H :    0.172887
   9 H :    0.173729
  10 C :   -0.145688
  11 N :   -0.092820
Sum of atomic charges:    0.0000000

LOEWDIN ATOMIC CHARGES
----------------------
   0 C :   -0.283104
   1 H :    0.153083
   2 H :    0.151669
   3 H :    0.153601
   4 C :   -0.219454
   5 N :    0.044205
   6 C :   -0.283419
   7 H :    0.151464
   8 H :    0.151968
   9 H :    0.153718
  10 C :   -0.218545
  11 N :    0.044815

  Mayer bond orders larger than 0.100000
B(  0-C ,  1-H ) :   0.9162 B(  0-C ,  2-H ) :   0.9166 B(  0-C ,  3-H ) :   0.9159
B(  0-C ,  4-C ) :   0.9014 B(  4-C ,  5-N ) :   2.8383 B(  6-C ,  7-H ) :   0.9162
B(  6-C ,  8-H ) :   0.9164 B(  6-C ,  9-H ) :   0.9161 B(  6-C , 10-C ) :   0.9026
B( 10-C , 11-N ) :   2.8385

MP2 TOTAL ENERGY:     -264.966914206 Eh
FINAL SINGLE POINT ENERGY      -264.966914206369

DIPOLE MOMENT
-------------
                                X             Y             Z
Electronic contribution:     -0.12427       0.06029       0.01497
Nuclear contribution   :      0.17750      -0.09326      -0.01588
                        -----------------------------------------
Total Dipole Moment    :      0.05323      -0.03297      -0.00091
                        -----------------------------------------
Magnitude (a.u.)       :      0.06262
Magnitude (Debye)      :      0.15918

Rotational constants in cm-1:     0.155030     0.012368     0.011504
Rotational constants in MHz :  4647.675056   370.777082   344.883126

                             ****ORCA TERMINATED NORMALLY****
TOTAL RUN TIME: 0 days 0 hours 0 minutes 34 seconds 771 msec
