                         Program Version 4.2.0 -  RELEASE  -
|  1> # 12h2o.su.etal.mol1,3,4,5,6,8,9,11
|  2> ! MP2 def2-TZVP EnGrad TightSCF
|  3>
|  4> %pal
|  5>     nprocs 6
|  6> end
|  7>
|  8> %maxcore 8000
|  9>
| 10> %scf
| 11>     ConvForced true
| 12> end
| 13>
| 14> *xyz 0 1
| 15> O  -1.794470000  -0.923410000   2.768350000
| 16> H  -2.338250000  -1.359750000   3.430940000
| 17> H  -0.879480000  -1.303000000   2.865760000
| 18> O  -1.752130000  -0.741530000  -2.896280000
| 19> H  -2.036450000  -0.920500000  -1.984040000
| 20> H  -0.921210000  -1.242140000  -2.984230000
| 21> O  -0.885520000   1.737840000   0.052730000
| 22> H  -1.032320000   2.090180000  -0.841890000
| 23> H  -1.284090000   0.839590000   0.017130000
| 24> O   0.885520000  -1.737840000   0.052730000
| 25> H   1.284090000  -0.839590000   0.017130000
| 26> H   1.032320000  -2.090180000  -0.841890000
| 27> O   1.737840000   0.885520000  -0.052730000
| 28> H   2.090180000   1.032320000   0.841890000
| 29> H   0.839590000   1.284090000  -0.017130000
| 30> O   1.752130000   0.741530000  -2.896280000
| 31> H   2.036450000   0.920500000  -1.984040000
| 32> H   0.921210000   1.242140000  -2.984230000
| 33> O   0.741530000  -1.752130000   2.896280000
| 34> H   0.920500000  -2.036450000   1.984040000
| 35> H   1.242140000  -0.921210000   2.984230000
| 36> O  -0.741530000   1.752130000   2.896280000
| 37> H  -0.920500000   2.036450000   1.984040000
| 38> H  -1.242140000   0.921210000   2.984230000
| 39> *
| 40>
| 41>                          ****END OF INPUT****

CARTESIAN COORDINATES (ANGSTROEM)
---------------------------------
  O     -1.794470   -0.923410    2.768350
  H     -2.338250   -1.359750    3.430940
  H     -0.879480   -1.303000    2.865760
  O     -1.752130   -0.741530   -2.896280
  H     -2.036450   -0.920500   -1.984040
  H     -0.921210   -1.242140   -2.984230
  O     -0.885520    1.737840    0.052730
  H     -1.032320    2.090180   -0.841890
  H     -1.284090    0.839590    0.017130
  O      0.885520   -1.737840    0.052730
  H      1.284090   -0.839590    0.017130
  H      1.032320   -2.090180   -0.841890
  O      1.737840    0.885520   -0.052730
  H      2.090180    1.032320    0.841890
  H      0.839590    1.284090   -0.017130
  O      1.752130    0.741530   -2.896280
  H      2.036450    0.920500   -1.984040
  H      0.921210    1.242140   -2.984230
  O      0.741530   -1.752130    2.896280
  H      0.920500   -2.036450    1.984040
  H      1.242140   -0.921210    2.984230
  O     -0.741530    1.752130    2.896280
  H     -0.920500    2.036450    1.984040
  H     -1.242140    0.921210    2.984230

 Total Charge           Charge          ....    0
 Multiplicity           Mult            ....    1
 Number of Electrons    NEL             ....   80
 Basis Dimension        Dim             ....  344

ORBITAL ENERGIES
----------------

  NO   OCC          E(Eh)            E(eV)
   0   2.0000     -20.631336      -561.4072
   1   2.0000     -20.603590      -560.6522
   2   2.0000     -20.583475      -560.1048
   3   2.0000     -20.578095      -559.9584
   4   2.0000     -20.576364      -559.9113
   5   2.0000     -20.557792      -559.4060
   6   2.0000     -20.545970      -559.0843
   7   2.0000     -20.522899      -558.4565
   8   2.0000      -1.415825       -38.5266
   9   2.0000      -1.390898       -37.8483
  10   2.0000      -1.369879       -37.2763
  11   2.0000      -1.362344       -37.0713
  12   2.0000      -1.356031       -36.8995
  13   2.0000      -1.339347       -36.4455
  14   2.0000      -1.329724       -36.1836
  15   2.0000      -1.307222       -35.5713
  16   2.0000      -0.771366       -20.9899
  17   2.0000      -0.759561       -20.6687
  18   2.0000      -0.736233       -20.0339
  19   2.0000      -0.725150       -19.7323
  20   2.0000      -0.724084       -19.7033
  21   2.0000      -0.713464       -19.4144
  22   2.0000      -0.710045       -19.3213
  23   2.0000      -0.690696       -18.7948
  24   2.0000      -0.654272       -17.8036
  25   2.0000      -0.634217       -17.2579
  26   2.0000      -0.622367       -16.9355
  27   2.0000      -0.600390       -16.3374
  28   2.0000      -0.598521       -16.2866
  29   2.0000      -0.578974       -15.7547
  30   2.0000      -0.574605       -15.6358
  31   2.0000      -0.563859       -15.3434
  32   2.0000      -0.545202       -14.8357
  33   2.0000      -0.541688       -14.7401
  34   2.0000      -0.528262       -14.3747
  35   2.0000      -0.525553       -14.3010
  36   2.0000      -0.514147       -13.9907
  37   2.0000      -0.503495       -13.7008
  38   2.0000      -0.494132       -13.4460
  39   2.0000      -0.472573       -12.8594
  40   0.0000       0.065863         1.7922
  41   0.0000       0.109071         2.9680
  42   0.0000       0.117336         3.1929
  43   0.0000       0.134993         3.6733
  44   0.0000       0.157515         4.2862

MULLIKEN ATOMIC CHARGES
-----------------------
   0 O :   -0.748236
   1 H :    0.340744
   2 H :    0.385245
   3 O :   -0.678109
   4 H :    0.334345
   5 H :    0.345885
   6 O :   -0.712423
   7 H :    0.368859
   8 H :    0.374793
   9 O :   -0.735409
  10 H :    0.358137
  11 H :    0.346447
  12 O :   -0.735562
  13 H :    0.364637
  14 H :    0.371481
  15 O :   -0.693994
  16 H :    0.373126
  17 H :    0.321591
  18 O :   -0.697582
  19 H :    0.391289
  20 H :    0.343320
  21 O :   -0.731856
  22 H :    0.359178
  23 H :    0.354093
Sum of atomic charges:    0.0000000

LOEWDIN ATOMIC CHARGES
----------------------
   0 O :   -0.344579
   1 H :    0.155530
   2 H :    0.146076
   3 O :   -0.327817
   4 H :    0.161334
   5 H :    0.167813
   6 O :   -0.270454
   7 H :    0.175751
   8 H :    0.183962
   9 O :   -0.340543
  10 H :    0.141675
  11 H :    0.165385
  12 O :   -0.292331
  13 H :    0.172502
  14 H :    0.146469
  15 O :   -0.335399
  16 H :    0.151663
  17 H :    0.156519
  18 O :   -0.274481
  19 H :    0.160661
  20 H :    0.166965
  21 O :   -0.355169
  22 H :    0.144663
  23 H :    0.143805

  Mayer bond orders larger than 0.100000
B(  0-O ,  1-H ) :   0.8487 B(  0-O ,  2-H ) :   0.7538 B(  3-O ,  4-H ) :   0.8524
B(  3-O ,  5-H ) :   0.8432 B(  6-O ,  7-H ) :   0.8262 B(  6-O ,  8-H ) :   0.8130
B(  9-O , 10-H ) :   0.7758 B(  9-O , 11-H ) :   0.8438 B( 12-O , 13-H ) :   0.8299
B( 12-O , 14-H ) :   0.7646 B( 15-O , 16-H ) :   0.8195 B( 15-O , 17-H ) :   0.8582
B( 18-O , 19-H ) :   0.7952 B( 18-O , 20-H ) :   0.8422 B( 21-O , 22-H ) :   0.8370
B( 21-O , 23-H ) :   0.8091

MP2 TOTAL ENERGY:     -610.571789467 Eh
FINAL SINGLE POINT ENERGY      -610.571789466715

DIPOLE MOMENT
-------------
                                X             Y             Z
Electronic contribution:      0.10267       0.03733      -0.12467
Nuclear contribution   :     -0.14541      -0.22520      -0.14168
                        -----------------------------------------
Total Dipole Moment    :     -0.04274      -0.18787      -0.26635
                        -----------------------------------------
Magnitude (a.u.)       :      0.32874
Magnitude (Debye)      :      0.83558

Rotational constants in cm-1:     0.032406     0.017023     0.016751
Rotational constants in MHz :   971.514308   510.339539   502.177024

                             ****ORCA TERMINATED NORMALLY****
TOTAL RUN TIME: 0 days 0 hours 3 minutes 0 seconds 821 msec
