                         Program Version 4.2.0 -  RELEASE  -
|  1> # 12meoh.boyd.etal.mol0,1,8
|  2> ! MP2 def2-TZVP EnGrad TightSCF
|  3>
|  4> %pal
|  5>     nprocs 6
|  6> end
|  7>
|  8> %maxcore 8000
|  9>
| 10> %scf
| 11>     ConvForced true
| 12> end
| 13>
| 14> *xyz 0 1
| 15> O  -1.776108874  -2.741384797  -1.019308298
| 16> H  -2.520094035  -2.452295987  -0.420778302
| 17> C  -2.174025166  -3.952700964  -1.647004581
| 18> H  -1.359803895  -4.272673416  -2.304149236
| 19> H  -3.075973971  -3.808692420  -2.256751112
| 20> H  -2.370225393  -4.752784761  -0.918966137
| 21> O   0.666045193  -2.600503172   0.138317521
| 22> H  -0.227115049  -2.712051982  -0.281868004
| 23> C   0.490021232  -1.851247678   1.341189459
| 24> H   1.466500502  -1.466176022   1.645844415
| 25> H   0.097564527  -2.488364683   2.146902740
| 26> H  -0.187588112  -1.000787499   1.200739571
| 27> O   3.570084754   2.361662577  -0.202416728
| 28> H   3.393280933   1.755669977   0.560634073
| 29> C   4.368082883   1.644741793  -1.143112807
| 30> H   4.552851717   2.311801738  -1.989632421
| 31> H   3.862427494   0.740851663  -1.508095690
| 32> H   5.333949674   1.357289092  -0.706288100
| 33> *
| 34>
| 35>                          ****END OF INPUT****

CARTESIAN COORDINATES (ANGSTROEM)
---------------------------------
  O     -1.776109   -2.741385   -1.019308
  H     -2.520094   -2.452296   -0.420778
  C     -2.174025   -3.952701   -1.647005
  H     -1.359804   -4.272673   -2.304149
  H     -3.075974   -3.808692   -2.256751
  H     -2.370225   -4.752785   -0.918966
  O      0.666045   -2.600503    0.138318
  H     -0.227115   -2.712052   -0.281868
  C      0.490021   -1.851248    1.341189
  H      1.466501   -1.466176    1.645844
  H      0.097565   -2.488365    2.146903
  H     -0.187588   -1.000787    1.200740
  O      3.570085    2.361663   -0.202417
  H      3.393281    1.755670    0.560634
  C      4.368083    1.644742   -1.143113
  H      4.552852    2.311802   -1.989632
  H      3.862427    0.740852   -1.508096
  H      5.333950    1.357289   -0.706288

 Total Charge           Charge          ....    0
 Multiplicity           Mult            ....    1
 Number of Electrons    NEL             ....   54
 Basis Dimension        Dim             ....  258

ORBITAL ENERGIES
----------------

  NO   OCC          E(Eh)            E(eV)
   0   2.0000     -20.592624      -560.3538
   1   2.0000     -20.549913      -559.1916
   2   2.0000     -20.517772      -558.3169
   3   2.0000     -11.291691      -307.2625
   4   2.0000     -11.263884      -306.5059
   5   2.0000     -11.255796      -306.2858
   6   2.0000      -1.385243       -37.6944
   7   2.0000      -1.339357       -36.4458
   8   2.0000      -1.313383       -35.7390
   9   2.0000      -0.943180       -25.6652
  10   2.0000      -0.912164       -24.8212
  11   2.0000      -0.902089       -24.5471
  12   2.0000      -0.717603       -19.5270
  13   2.0000      -0.675200       -18.3731
  14   2.0000      -0.674315       -18.3491
  15   2.0000      -0.637793       -17.3552
  16   2.0000      -0.612633       -16.6706
  17   2.0000      -0.609217       -16.5776
  18   2.0000      -0.595837       -16.2135
  19   2.0000      -0.582355       -15.8467
  20   2.0000      -0.565911       -15.3992
  21   2.0000      -0.530056       -14.4236
  22   2.0000      -0.494160       -13.4468
  23   2.0000      -0.489256       -13.3133
  24   2.0000      -0.462601       -12.5880
  25   2.0000      -0.442229       -12.0337
  26   2.0000      -0.421403       -11.4670
  27   0.0000       0.111916         3.0454
  28   0.0000       0.128569         3.4985
  29   0.0000       0.156717         4.2645
  30   0.0000       0.177168         4.8210
  31   0.0000       0.191278         5.2049

MULLIKEN ATOMIC CHARGES
-----------------------
   0 O :   -0.518314
   1 H :    0.340480
   2 C :   -0.185158
   3 H :    0.148695
   4 H :    0.124700
   5 H :    0.124374
   6 O :   -0.528391
   7 H :    0.356643
   8 C :   -0.177354
   9 H :    0.114086
  10 H :    0.098561
  11 H :    0.101763
  12 O :   -0.498799
  13 H :    0.320956
  14 C :   -0.176715
  15 H :    0.126142
  16 H :    0.120818
  17 H :    0.107510
Sum of atomic charges:    0.0000000

LOEWDIN ATOMIC CHARGES
----------------------
   0 O :   -0.077006
   1 H :    0.200917
   2 C :   -0.373938
   3 H :    0.117682
   4 H :    0.103772
   5 H :    0.101390
   6 O :   -0.125993
   7 H :    0.160827
   8 C :   -0.393390
   9 H :    0.103154
  10 H :    0.091023
  11 H :    0.091589
  12 O :   -0.111304
  13 H :    0.187550
  14 C :   -0.378808
  15 H :    0.109309
  16 H :    0.098314
  17 H :    0.094914

  Mayer bond orders larger than 0.100000
B(  0-O ,  1-H ) :   0.8279 B(  0-O ,  2-C ) :   0.8733 B(  2-C ,  3-H ) :   0.9387
B(  2-C ,  4-H ) :   0.9340 B(  2-C ,  5-H ) :   0.9373 B(  6-O ,  7-H ) :   0.7934
B(  6-O ,  8-C ) :   0.9468 B(  8-C ,  9-H ) :   0.9434 B(  8-C , 10-H ) :   0.9365
B(  8-C , 11-H ) :   0.9405 B( 12-O , 13-H ) :   0.8441 B( 12-O , 14-C ) :   0.9232
B( 14-C , 15-H ) :   0.9376 B( 14-C , 16-H ) :   0.9377 B( 14-C , 17-H ) :   0.9395

MP2 TOTAL ENERGY:     -346.528940576 Eh
FINAL SINGLE POINT ENERGY      -346.528940576157

DIPOLE MOMENT
-------------
                                X             Y             Z
Electronic contribution:     -0.31448       1.42744       0.03190
Nuclear contribution   :     -1.03306      -2.32450       0.10738
                        -----------------------------------------
Total Dipole Moment    :     -1.34754      -0.89706       0.13928
                        -----------------------------------------
Magnitude (a.u.)       :      1.62480
Magnitude (Debye)      :      4.12991

Rotational constants in cm-1:     0.125693     0.015115     0.014271
Rotational constants in MHz :  3768.176128   453.141075   427.829396

                             ****ORCA TERMINATED NORMALLY****
TOTAL RUN TIME: 0 days 0 hours 1 minutes 21 seconds 360 msec
