                         Program Version 4.2.0 -  RELEASE  -
|  1> ! MP2 def2-TZVP EnGrad TightSCF FrozenCore
|  2>
|  3> %pal
|  4>     nprocs 12
|  5> end
|  6>
|  7> %maxcore 8000
|  8>
|  9> %scf
| 10>     ConvForced true
| 11> end
| 12>
| 13> *xyz 0 1
| 14> O    -0.9911690389     0.9817601805    -0.5152373053
| 15> H    -0.1387448824     0.631540284     -0.1377703185
| 16> C    -0.7475641627     1.3447140379    -1.8871586388
| 17> H    -1.7144975396     1.3787602182    -2.3955486009
| 18> H    -0.0972239031     0.6104699418    -2.3730867888
| 19> H    -0.2841966119     2.3376357567    -1.9386764323
| 20> O    -2.2606906688    -1.3832599331     0.0803999481
| 21> H    -1.9268902749    -0.5070437836    -0.2312737357
| 22> C    -3.3292405929    -1.155052391      0.9916213198
| 23> H    -3.6591955593    -2.1293231239     1.3619805862
| 24> H    -4.1791721006    -0.6663628928     0.4962563408
| 25> H    -3.0229123529    -0.5403336731     1.850293398
| 26> O     1.2371235709    -0.1087878238     0.5386974669
| 27> H     0.8996762306    -1.0115144426     0.8179906018
| 28> C     1.8030740336     0.5823686279     1.6613105722
| 29> H     1.6074689133     1.6498160698     1.5330552363
| 30> H     2.8837232558     0.4036624553     1.7206209928
| 31> H     1.3373145418     0.246537855      2.5951017401
| 32> O    -0.1973998401     3.3081649139     0.8706992899
| 33> H    -0.6849401889     2.5678734813     0.456445541
| 34> C    -1.0689183559     3.9689412103     1.7677506901
| 35> H    -0.5076887427     4.7894672082     2.2255961766
| 36> H    -1.4291202569     3.3121280483     2.576562701
| 37> H    -1.9479601144     4.4008198136     1.2630024567
| 38> O     0.0679915694    -2.4280973225     1.0262311895
| 39> H    -0.8300907069    -2.1373215079     0.7186374527
| 40> C     0.550498886     -3.4140071729     0.1064682491
| 41> H     1.441249993     -3.8662376204     0.552087037
| 42> H     0.8220903405    -2.971013167     -0.8602153318
| 43> H    -0.197915557     -4.2007688895    -0.0483952293
| 44> O     1.8203668723    -0.9238677367    -2.0811584823
| 45> H     1.8361997493    -0.5594544272    -1.1730926984
| 46> C     3.1201723464    -0.8144756625    -2.632698747
| 47> H     3.0814920355    -1.2271629399    -3.6453159389
| 48> H     3.8703128937    -1.3841971493    -2.0617538923
| 49> H     3.4631081929     0.229792361     -2.7033188212
| 50> *
| 51>
| 52>                          ****END OF INPUT****

CARTESIAN COORDINATES (ANGSTROEM)
---------------------------------
  O     -0.991169    0.981760   -0.515237
  H     -0.138745    0.631540   -0.137770
  C     -0.747564    1.344714   -1.887159
  H     -1.714498    1.378760   -2.395549
  H     -0.097224    0.610470   -2.373087
  H     -0.284197    2.337636   -1.938676
  O     -2.260691   -1.383260    0.080400
  H     -1.926890   -0.507044   -0.231274
  C     -3.329241   -1.155052    0.991621
  H     -3.659196   -2.129323    1.361981
  H     -4.179172   -0.666363    0.496256
  H     -3.022912   -0.540334    1.850293
  O      1.237124   -0.108788    0.538697
  H      0.899676   -1.011514    0.817991
  C      1.803074    0.582369    1.661311
  H      1.607469    1.649816    1.533055
  H      2.883723    0.403662    1.720621
  H      1.337315    0.246538    2.595102
  O     -0.197400    3.308165    0.870699
  H     -0.684940    2.567873    0.456446
  C     -1.068918    3.968941    1.767751
  H     -0.507689    4.789467    2.225596
  H     -1.429120    3.312128    2.576563
  H     -1.947960    4.400820    1.263002
  O      0.067992   -2.428097    1.026231
  H     -0.830091   -2.137322    0.718637
  C      0.550499   -3.414007    0.106468
  H      1.441250   -3.866238    0.552087
  H      0.822090   -2.971013   -0.860215
  H     -0.197916   -4.200769   -0.048395
  O      1.820367   -0.923868   -2.081158
  H      1.836200   -0.559454   -1.173093
  C      3.120172   -0.814476   -2.632699
  H      3.081492   -1.227163   -3.645316
  H      3.870313   -1.384197   -2.061754
  H      3.463108    0.229792   -2.703319

 Total Charge           Charge          ....    0
 Multiplicity           Mult            ....    1
 Number of Electrons    NEL             ....  108
 Basis Dimension        Dim             ....  516

ORBITAL ENERGIES
----------------

  NO   OCC          E(Eh)            E(eV)
   0   2.0000     -20.564345      -559.5843
   1   2.0000     -20.563216      -559.5536
   2   2.0000     -20.556988      -559.3841
   3   2.0000     -20.553630      -559.2927
   4   2.0000     -20.538181      -558.8723
   5   2.0000     -20.536589      -558.8290
   6   2.0000     -11.274544      -306.7959
   7   2.0000     -11.272518      -306.7408
   8   2.0000     -11.267949      -306.6165
   9   2.0000     -11.264417      -306.5204
  10   2.0000     -11.263386      -306.4923
  11   2.0000     -11.262503      -306.4683
  12   2.0000      -1.376472       -37.4557
  13   2.0000      -1.359745       -37.0005
  14   2.0000      -1.357204       -36.9314
  15   2.0000      -1.342015       -36.5181
  16   2.0000      -1.337793       -36.4032
  17   2.0000      -1.335520       -36.3413
  18   2.0000      -0.931485       -25.3470
  19   2.0000      -0.927096       -25.2276
  20   2.0000      -0.922029       -25.0897
  21   2.0000      -0.916909       -24.9504
  22   2.0000      -0.911023       -24.7902
  23   2.0000      -0.909445       -24.7473
  24   2.0000      -0.721638       -19.6368
  25   2.0000      -0.701623       -19.0921
  26   2.0000      -0.696504       -18.9528
  27   2.0000      -0.689530       -18.7631
  28   2.0000      -0.683555       -18.6005
  29   2.0000      -0.680976       -18.5303
  30   2.0000      -0.622845       -16.9485
  31   2.0000      -0.620183       -16.8760
  32   2.0000      -0.618255       -16.8236
  33   2.0000      -0.616636       -16.7795
  34   2.0000      -0.606225       -16.4962
  35   2.0000      -0.604944       -16.4614
  36   2.0000      -0.597194       -16.2505
  37   2.0000      -0.595983       -16.2175
  38   2.0000      -0.593418       -16.1477
  39   2.0000      -0.587977       -15.9997
  40   2.0000      -0.580901       -15.8071
  41   2.0000      -0.578808       -15.7502
  42   2.0000      -0.526766       -14.3340
  43   2.0000      -0.512373       -13.9424
  44   2.0000      -0.509002       -13.8506
  45   2.0000      -0.496104       -13.4997
  46   2.0000      -0.491863       -13.3843
  47   2.0000      -0.485186       -13.2026
  48   2.0000      -0.459310       -12.4985
  49   2.0000      -0.454359       -12.3637
  50   2.0000      -0.451853       -12.2955
  51   2.0000      -0.447159       -12.1678
  52   2.0000      -0.433780       -11.8037
  53   2.0000      -0.432315       -11.7639
  54   0.0000       0.123174         3.3517
  55   0.0000       0.141886         3.8609
  56   0.0000       0.159985         4.3534
  57   0.0000       0.166277         4.5246
  58   0.0000       0.173518         4.7217

MULLIKEN ATOMIC CHARGES
-----------------------
   0 O :   -0.611743
   1 H :    0.377547
   2 C :   -0.208522
   3 H :    0.127362
   4 H :    0.166977
   5 H :    0.136468
   6 O :   -0.553627
   7 H :    0.365975
   8 C :   -0.171144
   9 H :    0.131220
  10 H :    0.123067
  11 H :    0.116640
  12 O :   -0.614864
  13 H :    0.386407
  14 C :   -0.194522
  15 H :    0.169959
  16 H :    0.120406
  17 H :    0.129316
  18 O :   -0.520426
  19 H :    0.353870
  20 C :   -0.172206
  21 H :    0.123118
  22 H :    0.101476
  23 H :    0.108142
  24 O :   -0.554808
  25 H :    0.365939
  26 C :   -0.203209
  27 H :    0.124383
  28 H :    0.151345
  29 H :    0.124363
  30 O :   -0.520459
  31 H :    0.353178
  32 C :   -0.173108
  33 H :    0.124595
  34 H :    0.106850
  35 H :    0.110033
Sum of atomic charges:   -0.0000000

LOEWDIN ATOMIC CHARGES
----------------------
   0 O :   -0.099282
   1 H :    0.160170
   2 C :   -0.374118
   3 H :    0.107573
   4 H :    0.108988
   5 H :    0.105452
   6 O :   -0.086386
   7 H :    0.166031
   8 C :   -0.382087
   9 H :    0.110200
  10 H :    0.103485
  11 H :    0.099320
  12 O :   -0.093201
  13 H :    0.165061
  14 C :   -0.372183
  15 H :    0.112904
  16 H :    0.101821
  17 H :    0.106770
  18 O :   -0.095495
  19 H :    0.165022
  20 C :   -0.395193
  21 H :    0.107639
  22 H :    0.093367
  23 H :    0.096079
  24 O :   -0.089060
  25 H :    0.165701
  26 C :   -0.380092
  27 H :    0.107842
  28 H :    0.103700
  29 H :    0.104291
  30 O :   -0.093287
  31 H :    0.162134
  32 C :   -0.393493
  33 H :    0.108052
  34 H :    0.095839
  35 H :    0.096435

  Mayer bond orders larger than 0.100000
B(  0-O ,  1-H ) :   0.7197 B(  0-O ,  2-C ) :   0.8362 B(  1-H , 12-O ) :   0.1137
B(  2-C ,  3-H ) :   0.9408 B(  2-C ,  4-H ) :   0.9262 B(  2-C ,  5-H ) :   0.9352
B(  6-O ,  7-H ) :   0.7631 B(  6-O ,  8-C ) :   0.8848 B(  6-O , 25-H ) :   0.1154
B(  8-C ,  9-H ) :   0.9415 B(  8-C , 10-H ) :   0.9392 B(  8-C , 11-H ) :   0.9371
B( 12-O , 13-H ) :   0.7012 B( 12-O , 14-C ) :   0.8462 B( 13-H , 24-O ) :   0.1467
B( 14-C , 15-H ) :   0.9286 B( 14-C , 16-H ) :   0.9397 B( 14-C , 17-H ) :   0.9410
B( 18-O , 19-H ) :   0.7916 B( 18-O , 20-C ) :   0.9322 B( 20-C , 21-H ) :   0.9412
B( 20-C , 22-H ) :   0.9380 B( 20-C , 23-H ) :   0.9388 B( 24-O , 25-H ) :   0.7513
B( 24-O , 26-C ) :   0.8676 B( 26-C , 27-H ) :   0.9421 B( 26-C , 28-H ) :   0.9265
B( 26-C , 29-H ) :   0.9399 B( 30-O , 31-H ) :   0.7850 B( 30-O , 32-C ) :   0.9199
B( 32-C , 33-H ) :   0.9428 B( 32-C , 34-H ) :   0.9369 B( 32-C , 35-H ) :   0.9378

MP2 TOTAL ENERGY:     -693.120812472 Eh
FINAL SINGLE POINT ENERGY      -693.120812472452

DIPOLE MOMENT
-------------
                                X             Y             Z
Electronic contribution:     -0.77552      -1.47940      -0.29138
Nuclear contribution   :      0.65094       1.42327       0.63082
                        -----------------------------------------
Total Dipole Moment    :     -0.12459      -0.05613       0.33944
                        -----------------------------------------
Magnitude (a.u.)       :      0.36591
Magnitude (Debye)      :      0.93007

Rotational constants in cm-1:     0.018700     0.014061     0.010842
Rotational constants in MHz :   560.598429   421.544614   325.042791

                             ****ORCA TERMINATED NORMALLY****
TOTAL RUN TIME: 0 days 0 hours 12 minutes 3 seconds 436 msec
