                         Program Version 3.0.3 - RELEASE   -
|  1> ! B3LYP Def2-TZVP def2-TZVP/J RIJCOSX TightSCF Grid4 D3BJ COSMO
|  2>
|  3> %pal nprocs 12 end
|  4>
|  5> %scf
|  6>         maxiter 400
|  7> end
|  8>
|  9> %cosmo
| 10>         SMD true
| 11>         solvent "WATER"
| 12> end
| 13>
| 14> * xyz  0  1
| 15> O  0.098158	-0.448630	1.481896
| 16> H  0.120838	-0.063310	0.563944
| 17> H  -0.776425	-0.152173	1.799804
| 18> O  0.066384	0.551895	-1.100803
| 19> H  -0.469999	-0.155511	-1.513179
| 20> H  0.963163	0.355064	-1.440446
| 21> **                         ****END OF INPUT****

CARTESIAN COORDINATES (ANGSTROEM)
---------------------------------
  O      0.098158   -0.448630    1.481896
  H      0.120838   -0.063310    0.563944
  H     -0.776425   -0.152173    1.799804
  O      0.066384    0.551895   -1.100803
  H     -0.469999   -0.155511   -1.513179
  H      0.963163    0.355064   -1.440446

 Total Charge           Charge          ....    0
 Multiplicity           Mult            ....    1
 Number of Electrons    NEL             ....   20
 Basis Dimension        Dim             ....   86

ORBITAL ENERGIES
----------------

  NO   OCC          E(Eh)            E(eV)
   0   2.0000     -19.140725      -520.8456
   1   2.0000     -19.110302      -520.0178
   2   2.0000      -1.019635       -27.7457
   3   2.0000      -0.987326       -26.8665
   4   2.0000      -0.526257       -14.3202
   5   2.0000      -0.505770       -13.7627
   6   2.0000      -0.417066       -11.3489
   7   2.0000      -0.387723       -10.5505
   8   2.0000      -0.327567        -8.9135
   9   2.0000      -0.308122        -8.3844
  10   0.0000       0.026460         0.7200
  11   0.0000       0.075475         2.0538
  12   0.0000       0.114898         3.1265
  13   0.0000       0.194480         5.2921
  14   0.0000       0.320672         8.7259

MULLIKEN ATOMIC CHARGES
-----------------------
   0 O :   -0.783894
   1 H :    0.361990
   2 H :    0.368560
   3 O :   -0.725255
   4 H :    0.388226
   5 H :    0.390372
Sum of atomic charges:   -0.0000000

LOEWDIN ATOMIC CHARGES
----------------------
   0 O :   -0.409108
   1 H :    0.147387
   2 H :    0.179089
   3 O :   -0.307525
   4 H :    0.194322
   5 H :    0.195835

  Mayer bond orders larger than 0.1
B(  0-O ,  1-H ) :   0.8098 B(  0-O ,  2-H ) :   0.8735 B(  1-H ,  3-O ) :   0.1194
B(  3-O ,  4-H ) :   0.8549 B(  3-O ,  5-H ) :   0.8543

Dispersion correction           -0.002329967
FINAL SINGLE POINT ENERGY      -152.887920956207

DIPOLE MOMENT
-------------
                                X             Y             Z
Electronic contribution:      0.01033       0.08870      -0.25002
Nuclear contribution   :     -0.40911      -0.18517      -1.12540
                        -----------------------------------------
Total Dipole Moment    :     -0.39878      -0.09647      -1.37542
                        -----------------------------------------
Magnitude (a.u.)       :      1.43531
Magnitude (Debye)      :      3.64827

                             ****ORCA TERMINATED NORMALLY****
TOTAL RUN TIME: 0 days 0 hours 0 minutes 50 seconds 342 msec
