                         Program Version 3.0.3 - RELEASE   -
|  1> ! wB97X-D3 MA-Def2-TZVP def2-TZVP/J RIJCOSX TightSCF Grid4
|  2>
|  3> %pal nprocs 1 end
|  4>
|  5> %scf
|  6>         maxiter 400
|  7> end
|  8>
|  9> * xyz  0  1
| 10> O  -0.082089	-0.598644	1.394479
| 11> H  -0.155252	-0.092574	0.565020
| 12> H  -0.411134	0.017300	2.061549
| 13> O  -0.029736	0.525865	-1.254991
| 14> H  -0.257105	-0.314349	-1.678774
| 15> H  0.937436	0.549736	-1.296067
| 16> **                         ****END OF INPUT****

CARTESIAN COORDINATES (ANGSTROEM)
---------------------------------
  O     -0.082089   -0.598644    1.394479
  H     -0.155252   -0.092574    0.565020
  H     -0.411134    0.017300    2.061549
  O     -0.029736    0.525865   -1.254991
  H     -0.257105   -0.314349   -1.678774
  H      0.937436    0.549736   -1.296067

 Total Charge           Charge          ....    0
 Multiplicity           Mult            ....    1
 Number of Electrons    NEL             ....   20
 Basis Dimension        Dim             ....   94

ORBITAL ENERGIES
----------------

  NO   OCC          E(Eh)            E(eV)
   0   2.0000     -19.266412      -524.2657
   1   2.0000     -19.213685      -522.8309
   2   2.0000      -1.157536       -31.4982
   3   2.0000      -1.104250       -30.0482
   4   2.0000      -0.658013       -17.9054
   5   2.0000      -0.612497       -16.6669
   6   2.0000      -0.525260       -14.2930
   7   2.0000      -0.478827       -13.0295
   8   2.0000      -0.440293       -11.9810
   9   2.0000      -0.396926       -10.8009
  10   0.0000       0.062186         1.6922
  11   0.0000       0.107867         2.9352
  12   0.0000       0.127164         3.4603
  13   0.0000       0.142027         3.8648
  14   0.0000       0.166366         4.5270

MULLIKEN ATOMIC CHARGES
-----------------------
   0 O :   -0.685307
   1 H :    0.338917
   2 H :    0.322992
   3 O :   -0.690975
   4 H :    0.357895
   5 H :    0.356478
Sum of atomic charges:   -0.0000000

LOEWDIN ATOMIC CHARGES
----------------------
   0 O :   -0.395980
   1 H :    0.176233
   2 H :    0.180790
   3 O :   -0.349697
   4 H :    0.194697
   5 H :    0.193957

  Mayer bond orders larger than 0.1
B(  0-O ,  1-H ) :   0.8699 B(  0-O ,  2-H ) :   0.9029 B(  3-O ,  4-H ) :   0.8904
B(  3-O ,  5-H ) :   0.8910

Dispersion correction           -0.000543777
FINAL SINGLE POINT ENERGY      -152.888904723845

DIPOLE MOMENT
-------------
                                X             Y             Z
Electronic contribution:     -0.03942       0.03046      -0.11267
Nuclear contribution   :      0.28100       0.25443      -0.52210
                        -----------------------------------------
Total Dipole Moment    :      0.24158       0.28489      -0.63477
                        -----------------------------------------
Magnitude (a.u.)       :      0.73652
Magnitude (Debye)      :      1.87208

                             ****ORCA TERMINATED NORMALLY****
TOTAL RUN TIME: 0 days 0 hours 0 minutes 20 seconds 447 msec
