                         Program Version 3.0.3 - RELEASE   -
|  1> ! wB97X-D3 Def2-TZVP def2-TZVP/J RIJCOSX TightSCF Grid4
|  2>
|  3> %pal nprocs 12 end
|  4>
|  5> %scf
|  6>         maxiter 400
|  7> end
|  8>
|  9> * xyz  0  1
| 10> O  -0.016940	-0.571838	1.362028
| 11> H  -0.107795	-0.037060	0.538560
| 12> H  -0.507612	-0.038431	2.012999
| 13> O  -0.006167	0.564585	-1.245458
| 14> H  -0.324208	-0.289940	-1.596979
| 15> H  0.964841	0.460017	-1.279934
| 16> **                         ****END OF INPUT****

CARTESIAN COORDINATES (ANGSTROEM)
---------------------------------
  O     -0.016940   -0.571838    1.362028
  H     -0.107795   -0.037060    0.538560
  H     -0.507612   -0.038431    2.012999
  O     -0.006167    0.564585   -1.245458
  H     -0.324208   -0.289940   -1.596979
  H      0.964841    0.460017   -1.279934

 Total Charge           Charge          ....    0
 Multiplicity           Mult            ....    1
 Number of Electrons    NEL             ....   20
 Basis Dimension        Dim             ....   86

ORBITAL ENERGIES
----------------

  NO   OCC          E(Eh)            E(eV)
   0   2.0000     -19.265458      -524.2398
   1   2.0000     -19.207525      -522.6633
   2   2.0000      -1.153423       -31.3862
   3   2.0000      -1.095592       -29.8126
   4   2.0000      -0.650929       -17.7127
   5   2.0000      -0.603489       -16.4218
   6   2.0000      -0.524378       -14.2691
   7   2.0000      -0.477021       -12.9804
   8   2.0000      -0.435725       -11.8567
   9   2.0000      -0.391679       -10.6581
  10   0.0000       0.088819         2.4169
  11   0.0000       0.146312         3.9814
  12   0.0000       0.166346         4.5265
  13   0.0000       0.269308         7.3282
  14   0.0000       0.417333        11.3562

MULLIKEN ATOMIC CHARGES
-----------------------
   0 O :   -0.675616
   1 H :    0.315411
   2 H :    0.320396
   3 O :   -0.659586
   4 H :    0.349532
   5 H :    0.349862
Sum of atomic charges:   -0.0000000

LOEWDIN ATOMIC CHARGES
----------------------
   0 O :   -0.352659
   1 H :    0.139885
   2 H :    0.157447
   3 O :   -0.289007
   4 H :    0.172130
   5 H :    0.172203

  Mayer bond orders larger than 0.1
B(  0-O ,  1-H ) :   0.8623 B(  0-O ,  2-H ) :   0.9089 B(  3-O ,  4-H ) :   0.8867
B(  3-O ,  5-H ) :   0.8866

Dispersion correction           -0.000548053
FINAL SINGLE POINT ENERGY      -152.885171176439

DIPOLE MOMENT
-------------
                                X             Y             Z
Electronic contribution:      0.00395       0.05652      -0.13867
Nuclear contribution   :      0.05946       0.09080      -0.46487
                        -----------------------------------------
Total Dipole Moment    :      0.06341       0.14732      -0.60354
                        -----------------------------------------
Magnitude (a.u.)       :      0.62449
Magnitude (Debye)      :      1.58732

                             ****ORCA TERMINATED NORMALLY****
TOTAL RUN TIME: 0 days 0 hours 0 minutes 48 seconds 609 msec
