                         Program Version 3.0.3 - RELEASE   -
|  1> ! B3LYP Def2-TZVP def2-TZVP/J RIJCOSX TightSCF Grid4 D3BJ COSMO
|  2>
|  3> %pal nprocs 12 end
|  4>
|  5> %scf
|  6>         maxiter 400
|  7> end
|  8>
|  9> %cosmo
| 10>         SMD true
| 11>         solvent "WATER"
| 12> end
| 13>
| 14> * xyz  0  1
| 15> O  -0.107050	-0.613560	1.463137
| 16> H  -0.081741	-0.264415	0.544615
| 17> H  -0.421254	0.150988	1.967927
| 18> O  -0.029172	0.453798	-1.123288
| 19> H  -0.271721	-0.239152	-1.757289
| 20> H  0.913058	0.599676	-1.303886
| 21> **                         ****END OF INPUT****

CARTESIAN COORDINATES (ANGSTROEM)
---------------------------------
  O     -0.107050   -0.613560    1.463137
  H     -0.081741   -0.264415    0.544615
  H     -0.421254    0.150988    1.967927
  O     -0.029172    0.453798   -1.123288
  H     -0.271721   -0.239152   -1.757289
  H      0.913058    0.599676   -1.303886

 Total Charge           Charge          ....    0
 Multiplicity           Mult            ....    1
 Number of Electrons    NEL             ....   20
 Basis Dimension        Dim             ....   86

ORBITAL ENERGIES
----------------

  NO   OCC          E(Eh)            E(eV)
   0   2.0000     -19.136861      -520.7404
   1   2.0000     -19.110275      -520.0170
   2   2.0000      -1.019519       -27.7425
   3   2.0000      -0.992047       -26.9950
   4   2.0000      -0.529143       -14.3987
   5   2.0000      -0.510757       -13.8984
   6   2.0000      -0.416448       -11.3321
   7   2.0000      -0.383876       -10.4458
   8   2.0000      -0.327468        -8.9109
   9   2.0000      -0.309714        -8.4277
  10   0.0000       0.028454         0.7743
  11   0.0000       0.075176         2.0456
  12   0.0000       0.117420         3.1952
  13   0.0000       0.195336         5.3154
  14   0.0000       0.325502         8.8574

MULLIKEN ATOMIC CHARGES
-----------------------
   0 O :   -0.776162
   1 H :    0.360644
   2 H :    0.368406
   3 O :   -0.725756
   4 H :    0.386693
   5 H :    0.386175
Sum of atomic charges:   -0.0000000

LOEWDIN ATOMIC CHARGES
----------------------
   0 O :   -0.393246
   1 H :    0.142854
   2 H :    0.175224
   3 O :   -0.302585
   4 H :    0.188972
   5 H :    0.188782

  Mayer bond orders larger than 0.1
B(  0-O ,  1-H ) :   0.8217 B(  0-O ,  2-H ) :   0.8742 B(  1-H ,  3-O ) :   0.1071
B(  3-O ,  4-H ) :   0.8573 B(  3-O ,  5-H ) :   0.8573

Dispersion correction           -0.002271131
FINAL SINGLE POINT ENERGY      -152.885093334530

DIPOLE MOMENT
-------------
                                X             Y             Z
Electronic contribution:      0.01293       0.08056      -0.22732
Nuclear contribution   :      0.34192       0.47163      -1.02241
                        -----------------------------------------
Total Dipole Moment    :      0.35485       0.55219      -1.24974
                        -----------------------------------------
Magnitude (a.u.)       :      1.41162
Magnitude (Debye)      :      3.58806

                             ****ORCA TERMINATED NORMALLY****
TOTAL RUN TIME: 0 days 0 hours 0 minutes 50 seconds 78 msec
