                         Program Version 3.0.3 - RELEASE   -
|  1> ! wB97X-D3 Def2-TZVP def2-TZVP/J RIJCOSX TightSCF Grid4 COSMO
|  2>
|  3> %pal nprocs 12 end
|  4>
|  5> %scf
|  6>         maxiter 400
|  7> end
|  8>
|  9> %cosmo
| 10>         SMD true
| 11>         solvent "WATER"
| 12> end
| 13>
| 14> * xyz  0  1
| 15> O  -0.107050	-0.613560	1.463137
| 16> H  -0.081741	-0.264415	0.544615
| 17> H  -0.421254	0.150988	1.967927
| 18> O  -0.029172	0.453798	-1.123288
| 19> H  -0.271721	-0.239152	-1.757289
| 20> H  0.913058	0.599676	-1.303886
| 21> **                         ****END OF INPUT****

CARTESIAN COORDINATES (ANGSTROEM)
---------------------------------
  O     -0.107050   -0.613560    1.463137
  H     -0.081741   -0.264415    0.544615
  H     -0.421254    0.150988    1.967927
  O     -0.029172    0.453798   -1.123288
  H     -0.271721   -0.239152   -1.757289
  H      0.913058    0.599676   -1.303886

 Total Charge           Charge          ....    0
 Multiplicity           Mult            ....    1
 Number of Electrons    NEL             ....   20
 Basis Dimension        Dim             ....   86

ORBITAL ENERGIES
----------------

  NO   OCC          E(Eh)            E(eV)
   0   2.0000     -19.243511      -523.6425
   1   2.0000     -19.218440      -522.9603
   2   2.0000      -1.134531       -30.8722
   3   2.0000      -1.107884       -30.1470
   4   2.0000      -0.630156       -17.1474
   5   2.0000      -0.613841       -16.7035
   6   2.0000      -0.518560       -14.1107
   7   2.0000      -0.485458       -13.2100
   8   2.0000      -0.426724       -11.6118
   9   2.0000      -0.411388       -11.1944
  10   0.0000       0.118757         3.2315
  11   0.0000       0.166489         4.5304
  12   0.0000       0.206830         5.6281
  13   0.0000       0.283735         7.7208
  14   0.0000       0.419821        11.4239

MULLIKEN ATOMIC CHARGES
-----------------------
   0 O :   -0.789616
   1 H :    0.362011
   2 H :    0.383820
   3 O :   -0.757507
   4 H :    0.400868
   5 H :    0.400424
Sum of atomic charges:    0.0000000

LOEWDIN ATOMIC CHARGES
----------------------
   0 O :   -0.392167
   1 H :    0.142475
   2 H :    0.176693
   3 O :   -0.306544
   4 H :    0.189821
   5 H :    0.189722

  Mayer bond orders larger than 0.1
B(  0-O ,  1-H ) :   0.8260 B(  0-O ,  2-H ) :   0.8646 B(  3-O ,  4-H ) :   0.8481
B(  3-O ,  5-H ) :   0.8481

Dispersion correction           -0.000538152
FINAL SINGLE POINT ENERGY      -152.909540923495

DIPOLE MOMENT
-------------
                                X             Y             Z
Electronic contribution:      0.01622       0.08080      -0.22254
Nuclear contribution   :      0.34192       0.47163      -1.02241
                        -----------------------------------------
Total Dipole Moment    :      0.35814       0.55244      -1.24496
                        -----------------------------------------
Magnitude (a.u.)       :      1.40832
Magnitude (Debye)      :      3.57967

                             ****ORCA TERMINATED NORMALLY****
TOTAL RUN TIME: 0 days 0 hours 0 minutes 51 seconds 341 msec
