                         Program Version 4.2.0 -  RELEASE  -
|  1> # 12h2o.su.etal.mol0,1,2,3,4,5,6,9,10
|  2> ! MP2 def2-TZVP EnGrad TightSCF
|  3>
|  4> %pal
|  5>     nprocs 6
|  6> end
|  7>
|  8> %maxcore 8000
|  9>
| 10> %scf
| 11>     ConvForced true
| 12> end
| 13>
| 14> *xyz 0 1
| 15> O   1.794470000   0.923410000   2.768350000
| 16> H   2.338250000   1.359750000   3.430940000
| 17> H   0.879480000   1.303000000   2.865760000
| 18> O  -1.794470000  -0.923410000   2.768350000
| 19> H  -2.338250000  -1.359750000   3.430940000
| 20> H  -0.879480000  -1.303000000   2.865760000
| 21> O   0.923410000  -1.794470000  -2.768350000
| 22> H   1.359750000  -2.338250000  -3.430940000
| 23> H   1.303000000  -0.879480000  -2.865760000
| 24> O  -1.752130000  -0.741530000  -2.896280000
| 25> H  -2.036450000  -0.920500000  -1.984040000
| 26> H  -0.921210000  -1.242140000  -2.984230000
| 27> O  -0.885520000   1.737840000   0.052730000
| 28> H  -1.032320000   2.090180000  -0.841890000
| 29> H  -1.284090000   0.839590000   0.017130000
| 30> O   0.885520000  -1.737840000   0.052730000
| 31> H   1.284090000  -0.839590000   0.017130000
| 32> H   1.032320000  -2.090180000  -0.841890000
| 33> O   1.737840000   0.885520000  -0.052730000
| 34> H   2.090180000   1.032320000   0.841890000
| 35> H   0.839590000   1.284090000  -0.017130000
| 36> O   0.741530000  -1.752130000   2.896280000
| 37> H   0.920500000  -2.036450000   1.984040000
| 38> H   1.242140000  -0.921210000   2.984230000
| 39> O  -0.923410000   1.794470000  -2.768350000
| 40> H  -1.359750000   2.338250000  -3.430940000
| 41> H  -1.303000000   0.879480000  -2.865760000
| 42> *
| 43>
| 44>                          ****END OF INPUT****

CARTESIAN COORDINATES (ANGSTROEM)
---------------------------------
  O      1.794470    0.923410    2.768350
  H      2.338250    1.359750    3.430940
  H      0.879480    1.303000    2.865760
  O     -1.794470   -0.923410    2.768350
  H     -2.338250   -1.359750    3.430940
  H     -0.879480   -1.303000    2.865760
  O      0.923410   -1.794470   -2.768350
  H      1.359750   -2.338250   -3.430940
  H      1.303000   -0.879480   -2.865760
  O     -1.752130   -0.741530   -2.896280
  H     -2.036450   -0.920500   -1.984040
  H     -0.921210   -1.242140   -2.984230
  O     -0.885520    1.737840    0.052730
  H     -1.032320    2.090180   -0.841890
  H     -1.284090    0.839590    0.017130
  O      0.885520   -1.737840    0.052730
  H      1.284090   -0.839590    0.017130
  H      1.032320   -2.090180   -0.841890
  O      1.737840    0.885520   -0.052730
  H      2.090180    1.032320    0.841890
  H      0.839590    1.284090   -0.017130
  O      0.741530   -1.752130    2.896280
  H      0.920500   -2.036450    1.984040
  H      1.242140   -0.921210    2.984230
  O     -0.923410    1.794470   -2.768350
  H     -1.359750    2.338250   -3.430940
  H     -1.303000    0.879480   -2.865760

 Total Charge           Charge          ....    0
 Multiplicity           Mult            ....    1
 Number of Electrons    NEL             ....   90
 Basis Dimension        Dim             ....  387

ORBITAL ENERGIES
----------------

  NO   OCC          E(Eh)            E(eV)
   0   2.0000     -20.614474      -560.9483
   1   2.0000     -20.603086      -560.6385
   2   2.0000     -20.582252      -560.0715
   3   2.0000     -20.555003      -559.3301
   4   2.0000     -20.549977      -559.1933
   5   2.0000     -20.531596      -558.6931
   6   2.0000     -20.530593      -558.6658
   7   2.0000     -20.522858      -558.4554
   8   2.0000     -20.503006      -557.9152
   9   2.0000      -1.395346       -37.9693
  10   2.0000      -1.383607       -37.6499
  11   2.0000      -1.371280       -37.3144
  12   2.0000      -1.343903       -36.5695
  13   2.0000      -1.330725       -36.2109
  14   2.0000      -1.325828       -36.0776
  15   2.0000      -1.320164       -35.9235
  16   2.0000      -1.304025       -35.4843
  17   2.0000      -1.283871       -34.9359
  18   2.0000      -0.760938       -20.7062
  19   2.0000      -0.748835       -20.3768
  20   2.0000      -0.732109       -19.9217
  21   2.0000      -0.717501       -19.5242
  22   2.0000      -0.701260       -19.0823
  23   2.0000      -0.695844       -18.9349
  24   2.0000      -0.694703       -18.9038
  25   2.0000      -0.684452       -18.6249
  26   2.0000      -0.669499       -18.2180
  27   2.0000      -0.638087       -17.3632
  28   2.0000      -0.626577       -17.0500
  29   2.0000      -0.614677       -16.7262
  30   2.0000      -0.594951       -16.1894
  31   2.0000      -0.584870       -15.9151
  32   2.0000      -0.574371       -15.6294
  33   2.0000      -0.568654       -15.4739
  34   2.0000      -0.554903       -15.0997
  35   2.0000      -0.542132       -14.7522
  36   2.0000      -0.531694       -14.4681
  37   2.0000      -0.519872       -14.1464
  38   2.0000      -0.519324       -14.1315
  39   2.0000      -0.499156       -13.5827
  40   2.0000      -0.494648       -13.4601
  41   2.0000      -0.480489       -13.0748
  42   2.0000      -0.474222       -12.9042
  43   2.0000      -0.469784       -12.7835
  44   2.0000      -0.453900       -12.3512
  45   0.0000       0.095047         2.5864
  46   0.0000       0.112907         3.0724
  47   0.0000       0.131260         3.5718
  48   0.0000       0.157063         4.2739
  49   0.0000       0.175191         4.7672

MULLIKEN ATOMIC CHARGES
-----------------------
   0 O :   -0.723570
   1 H :    0.361800
   2 H :    0.385993
   3 O :   -0.743834
   4 H :    0.319533
   5 H :    0.370869
   6 O :   -0.723640
   7 H :    0.364665
   8 H :    0.385913
   9 O :   -0.701641
  10 H :    0.358638
  11 H :    0.379010
  12 O :   -0.709461
  13 H :    0.380255
  14 H :    0.348232
  15 O :   -0.749657
  16 H :    0.346342
  17 H :    0.358742
  18 O :   -0.733424
  19 H :    0.368019
  20 H :    0.367534
  21 O :   -0.719575
  22 H :    0.386490
  23 H :    0.356428
  24 O :   -0.741984
  25 H :    0.339650
  26 H :    0.368673
Sum of atomic charges:   -0.0000000

LOEWDIN ATOMIC CHARGES
----------------------
   0 O :   -0.288482
   1 H :    0.166859
   2 H :    0.197482
   3 O :   -0.379545
   4 H :    0.145928
   5 H :    0.142119
   6 O :   -0.287874
   7 H :    0.168449
   8 H :    0.197424
   9 O :   -0.278719
  10 H :    0.171779
  11 H :    0.154862
  12 O :   -0.300174
  13 H :    0.153330
  14 H :    0.171167
  15 O :   -0.350709
  16 H :    0.137773
  17 H :    0.143908
  18 O :   -0.320515
  19 H :    0.146129
  20 H :    0.142084
  21 O :   -0.290798
  22 H :    0.157258
  23 H :    0.145397
  24 O :   -0.342593
  25 H :    0.155022
  26 H :    0.142438

  Mayer bond orders larger than 0.100000
B(  0-O ,  1-H ) :   0.8335 B(  0-O ,  2-H ) :   0.8081 B(  3-O ,  4-H ) :   0.8630
B(  3-O ,  5-H ) :   0.7639 B(  5-H , 21-O ) :   0.1072 B(  6-O ,  7-H ) :   0.8317
B(  6-O ,  8-H ) :   0.8085 B(  9-O , 10-H ) :   0.8356 B(  9-O , 11-H ) :   0.7977
B(  9-O , 26-H ) :   0.1022 B( 12-O , 13-H ) :   0.7940 B( 12-O , 14-H ) :   0.8340
B( 15-O , 16-H ) :   0.7671 B( 15-O , 17-H ) :   0.8277 B( 16-H , 18-O ) :   0.1155
B( 18-O , 19-H ) :   0.8184 B( 18-O , 20-H ) :   0.7726 B( 21-O , 22-H ) :   0.7961
B( 21-O , 23-H ) :   0.8194 B( 24-O , 25-H ) :   0.8491 B( 24-O , 26-H ) :   0.7568

MP2 TOTAL ENERGY:     -686.911538341 Eh
FINAL SINGLE POINT ENERGY      -686.911538340826

DIPOLE MOMENT
-------------
                                X             Y             Z
Electronic contribution:      0.22243      -0.01763      -0.30391
Nuclear contribution   :      0.56623       0.34326      -0.77428
                        -----------------------------------------
Total Dipole Moment    :      0.78866       0.32563      -1.07818
                        -----------------------------------------
Magnitude (a.u.)       :      1.37495
Magnitude (Debye)      :      3.49486

Rotational constants in cm-1:     0.028172     0.014444     0.013691
Rotational constants in MHz :   844.565114   433.032518   410.448973

                             ****ORCA TERMINATED NORMALLY****
TOTAL RUN TIME: 0 days 0 hours 4 minutes 22 seconds 984 msec
