                         Program Version 4.2.0 -  RELEASE  -
|  1> # Functional Basis-set
|  2> ! MP2 Def2-TZVP
|  3>
|  4> # Type of calculation
|  5> ! OPT
|  6>
|  7> # Options
|  8> ! TightSCF
|  9>
| 10> %pal nprocs 6 end
| 11>
| 12> *xyz  0  1
| 13>     O     -1.16609362      1.93035252     -0.43340026
| 14>     H     -0.94466589      2.68109885     -0.98438261
| 15>     H     -1.11511917      1.17729701     -1.02207746
| 16>     O     -0.88582246     -0.19399696     -2.10575329
| 17>     H     -0.13544057     -0.69672072     -1.78885002
| 18>     H     -1.50399687     -0.85553833     -2.41632578
| 19>     O      1.17064948     -1.20209127      1.57702651
| 20>     H      0.70741854     -0.38024831      1.73896197
| 21>     H      0.92673397     -1.76401234      2.31254115
| 22>     O     -0.27538246      1.07436048      1.99204725
| 23>     H     -0.67965846      1.66702609      2.62571928
| 24>     H     -0.59265774      1.37922852      1.14197448
| 25>     O      1.18690596     -1.63904580     -1.10550265
| 26>     H      1.17441771     -1.52076746     -0.15572050
| 27>     H      2.11618946     -1.64033052     -1.33498546
| 28> *
| 29>
| 30>                          ****END OF INPUT****
 Total Charge           Charge          ....    0
 Multiplicity           Mult            ....    1
 Number of Electrons    NEL             ....   50
MP2 TOTAL ENERGY:     -381.625167889 Eh
FINAL SINGLE POINT ENERGY      -381.625167888715
MP2 TOTAL ENERGY:     -381.628043556 Eh
FINAL SINGLE POINT ENERGY      -381.628043555537
MP2 TOTAL ENERGY:     -381.628373365 Eh
FINAL SINGLE POINT ENERGY      -381.628373365097
MP2 TOTAL ENERGY:     -381.629226991 Eh
FINAL SINGLE POINT ENERGY      -381.629226991466
MP2 TOTAL ENERGY:     -381.629380045 Eh
FINAL SINGLE POINT ENERGY      -381.629380044871
MP2 TOTAL ENERGY:     -381.629453113 Eh
FINAL SINGLE POINT ENERGY      -381.629453113057
FINAL SINGLE POINT ENERGY      -381.629541611376
FINAL SINGLE POINT ENERGY      -381.629570883087
FINAL SINGLE POINT ENERGY      -381.629632610678
FINAL SINGLE POINT ENERGY      -381.629706186842
FINAL SINGLE POINT ENERGY      -381.630320266719
FINAL SINGLE POINT ENERGY      -381.630358419568
FINAL SINGLE POINT ENERGY      -381.630387531451
FINAL SINGLE POINT ENERGY      -381.630400888417
MP2 TOTAL ENERGY:     -381.630405597 Eh
FINAL SINGLE POINT ENERGY      -381.630405597248
MP2 TOTAL ENERGY:     -381.630409192 Eh
FINAL SINGLE POINT ENERGY      -381.630409191603
MP2 TOTAL ENERGY:     -381.630410977 Eh
FINAL SINGLE POINT ENERGY      -381.630410977271
MP2 TOTAL ENERGY:     -381.630414544 Eh
FINAL SINGLE POINT ENERGY      -381.630414543768
MP2 TOTAL ENERGY:     -381.630416320 Eh
FINAL SINGLE POINT ENERGY      -381.630416320422
                    ***********************HURRAY********************

CARTESIAN COORDINATES (ANGSTROEM)
---------------------------------
  O     -1.337941    1.842714   -0.406982
  H     -1.038268    2.633888   -0.865430
  H     -1.199854    1.109286   -1.050961
  O     -0.768460   -0.145291   -2.153187
  H     -0.055549   -0.724548   -1.795515
  H     -1.435081   -0.743877   -2.503078
  O      1.205032   -1.144572    1.613225
  H      0.749896   -0.291616    1.798988
  H      0.797704   -1.788396    2.200381
  O     -0.090295    1.225244    1.917010
  H     -0.635944    1.521531    2.650791
  H     -0.571798    1.483791    1.096739
  O      1.130322   -1.714062   -1.033266
  H      1.198764   -1.529198   -0.067110
  H      2.034949   -1.718283   -1.360333

 Multiplicity           Mult            ....    1
 Number of Electrons    NEL             ....   50
 Basis Dimension        Dim             ....  215

ORBITAL ENERGIES
----------------

  NO   OCC          E(Eh)            E(eV)
   0   2.0000     -20.551172      -559.2258
   1   2.0000     -20.550179      -559.1988
   2   2.0000     -20.549879      -559.1906
   3   2.0000     -20.549464      -559.1793
   4   2.0000     -20.549125      -559.1701
   5   2.0000      -1.354956       -36.8702
   6   2.0000      -1.344240       -36.5786
   7   2.0000      -1.343507       -36.5587
   8   2.0000      -1.325694       -36.0740
   9   2.0000      -1.324810       -36.0499
  10   2.0000      -0.719431       -19.5767
  11   2.0000      -0.715235       -19.4625
  12   2.0000      -0.712470       -19.3873
  13   2.0000      -0.711341       -19.3566
  14   2.0000      -0.709913       -19.3177
  15   2.0000      -0.616246       -16.7689
  16   2.0000      -0.612049       -16.6547
  17   2.0000      -0.566973       -15.4281
  18   2.0000      -0.565789       -15.3959
  19   2.0000      -0.537440       -14.6245
  20   2.0000      -0.504868       -13.7382
  21   2.0000      -0.500877       -13.6296
  22   2.0000      -0.499838       -13.6013
  23   2.0000      -0.497779       -13.5453
  24   2.0000      -0.495642       -13.4871
  25   0.0000       0.122628         3.3369
  26   0.0000       0.151468         4.1216
  27   0.0000       0.154797         4.2122
  28   0.0000       0.178066         4.8454
  29   0.0000       0.181820         4.9476

MULLIKEN ATOMIC CHARGES
-----------------------
   0 O :   -0.738556
   1 H :    0.344556
   2 H :    0.397435
   3 O :   -0.742119
   4 H :    0.396355
   5 H :    0.344480
   6 O :   -0.736674
   7 H :    0.402718
   8 H :    0.341005
   9 O :   -0.745265
  10 H :    0.341477
  11 H :    0.395445
  12 O :   -0.741421
  13 H :    0.395479
  14 H :    0.345086
Sum of atomic charges:   -0.0000000

LOEWDIN ATOMIC CHARGES
----------------------
   0 O :   -0.308340
   1 H :    0.159205
   2 H :    0.151135
   3 O :   -0.310334
   4 H :    0.150520
   5 H :    0.158812
   6 O :   -0.304768
   7 H :    0.153840
   8 H :    0.157552
   9 O :   -0.314375
  10 H :    0.156817
  11 H :    0.150346
  12 O :   -0.310287
  13 H :    0.150742
  14 H :    0.159134

  Mayer bond orders larger than 0.100000
B(  0-O ,  1-H ) :   0.8466 B(  0-O ,  2-H ) :   0.7521 B(  3-O ,  4-H ) :   0.7511
B(  3-O ,  5-H ) :   0.8465 B(  6-O ,  7-H ) :   0.7573 B(  6-O ,  8-H ) :   0.8477
B(  9-O , 10-H ) :   0.8490 B(  9-O , 11-H ) :   0.7506 B( 12-O , 13-H ) :   0.7518
B( 12-O , 14-H ) :   0.8460

MP2 TOTAL ENERGY:     -381.630418405 Eh
FINAL SINGLE POINT ENERGY      -381.630418405071

DIPOLE MOMENT
-------------
                                X             Y             Z
Electronic contribution:      0.06895       0.01252      -0.03373
Nuclear contribution   :     -0.35999      -0.14607       0.19217
                        -----------------------------------------
Total Dipole Moment    :     -0.29105      -0.13355       0.15844
                        -----------------------------------------
Magnitude (a.u.)       :      0.35728
Magnitude (Debye)      :      0.90813

Rotational constants in cm-1:     0.068994     0.068007     0.034954
Rotational constants in MHz :  2068.373942  2038.784371  1047.889559

                             ****ORCA TERMINATED NORMALLY****
TOTAL RUN TIME: 0 days 0 hours 32 minutes 55 seconds 790 msec
