                         Program Version 4.2.0 -  RELEASE  -
|  1> # 12meoh.boyd.etal.mol0,1,11
|  2> ! MP2 def2-TZVP EnGrad TightSCF
|  3>
|  4> %pal
|  5>     nprocs 6
|  6> end
|  7>
|  8> %maxcore 8000
|  9>
| 10> %scf
| 11>     ConvForced true
| 12> end
| 13>
| 14> *xyz 0 1
| 15> O  -1.776108874  -2.741384797  -1.019308298
| 16> H  -2.520094035  -2.452295987  -0.420778302
| 17> C  -2.174025166  -3.952700964  -1.647004581
| 18> H  -1.359803895  -4.272673416  -2.304149236
| 19> H  -3.075973971  -3.808692420  -2.256751112
| 20> H  -2.370225393  -4.752784761  -0.918966137
| 21> O   0.666045193  -2.600503172   0.138317521
| 22> H  -0.227115049  -2.712051982  -0.281868004
| 23> C   0.490021232  -1.851247678   1.341189459
| 24> H   1.466500502  -1.466176022   1.645844415
| 25> H   0.097564527  -2.488364683   2.146902740
| 26> H  -0.187588112  -1.000787499   1.200739571
| 27> O   3.252955559   0.588596242   1.858934315
| 28> H   3.621209177  -0.251605199   1.476063364
| 29> C   4.040824528   0.944288422   2.989639460
| 30> H   3.670521436   1.902573549   3.363847391
| 31> H   5.103749934   1.055868619   2.734277559
| 32> H   3.948540682   0.200279590   3.792908518
| 33> *
| 34>
| 35>                          ****END OF INPUT****

CARTESIAN COORDINATES (ANGSTROEM)
---------------------------------
  O     -1.776109   -2.741385   -1.019308
  H     -2.520094   -2.452296   -0.420778
  C     -2.174025   -3.952701   -1.647005
  H     -1.359804   -4.272673   -2.304149
  H     -3.075974   -3.808692   -2.256751
  H     -2.370225   -4.752785   -0.918966
  O      0.666045   -2.600503    0.138318
  H     -0.227115   -2.712052   -0.281868
  C      0.490021   -1.851248    1.341189
  H      1.466501   -1.466176    1.645844
  H      0.097565   -2.488365    2.146903
  H     -0.187588   -1.000787    1.200740
  O      3.252956    0.588596    1.858934
  H      3.621209   -0.251605    1.476063
  C      4.040825    0.944288    2.989639
  H      3.670521    1.902574    3.363847
  H      5.103750    1.055869    2.734278
  H      3.948541    0.200280    3.792909

 Total Charge           Charge          ....    0
 Multiplicity           Mult            ....    1
 Number of Electrons    NEL             ....   54
 Basis Dimension        Dim             ....  258

ORBITAL ENERGIES
----------------

  NO   OCC          E(Eh)            E(eV)
   0   2.0000     -20.588823      -560.2504
   1   2.0000     -20.552871      -559.2721
   2   2.0000     -20.510357      -558.1152
   3   2.0000     -11.288717      -307.1816
   4   2.0000     -11.267710      -306.6100
   5   2.0000     -11.245036      -305.9930
   6   2.0000      -1.381457       -37.5913
   7   2.0000      -1.342184       -36.5227
   8   2.0000      -1.305932       -35.5362
   9   2.0000      -0.940019       -25.5792
  10   2.0000      -0.915826       -24.9209
  11   2.0000      -0.892103       -24.2754
  12   2.0000      -0.713754       -19.4222
  13   2.0000      -0.677389       -18.4327
  14   2.0000      -0.669175       -18.2092
  15   2.0000      -0.633970       -17.2512
  16   2.0000      -0.613422       -16.6920
  17   2.0000      -0.607822       -16.5397
  18   2.0000      -0.588649       -16.0179
  19   2.0000      -0.584923       -15.9166
  20   2.0000      -0.556407       -15.1406
  21   2.0000      -0.526198       -14.3186
  22   2.0000      -0.495905       -13.4943
  23   2.0000      -0.484260       -13.1774
  24   2.0000      -0.456733       -12.4283
  25   2.0000      -0.443536       -12.0692
  26   2.0000      -0.413139       -11.2421
  27   0.0000       0.116569         3.1720
  28   0.0000       0.140923         3.8347
  29   0.0000       0.159858         4.3500
  30   0.0000       0.178446         4.8558
  31   0.0000       0.195130         5.3098

MULLIKEN ATOMIC CHARGES
-----------------------
   0 O :   -0.516615
   1 H :    0.340242
   2 C :   -0.185196
   3 H :    0.148218
   4 H :    0.123555
   5 H :    0.123669
   6 O :   -0.533587
   7 H :    0.355854
   8 C :   -0.155897
   9 H :    0.094943
  10 H :    0.089535
  11 H :    0.100015
  12 O :   -0.485217
  13 H :    0.330030
  14 C :   -0.178450
  15 H :    0.127802
  16 H :    0.111778
  17 H :    0.109322
Sum of atomic charges:    0.0000000

LOEWDIN ATOMIC CHARGES
----------------------
   0 O :   -0.076360
   1 H :    0.200895
   2 C :   -0.374493
   3 H :    0.117479
   4 H :    0.103317
   5 H :    0.101126
   6 O :   -0.128401
   7 H :    0.160113
   8 C :   -0.393091
   9 H :    0.100346
  10 H :    0.088467
  11 H :    0.093296
  12 O :   -0.102258
  13 H :    0.191113
  14 C :   -0.382388
  15 H :    0.109712
  16 H :    0.096024
  17 H :    0.095104

  Mayer bond orders larger than 0.100000
B(  0-O ,  1-H ) :   0.8280 B(  0-O ,  2-C ) :   0.8752 B(  2-C ,  3-H ) :   0.9388
B(  2-C ,  4-H ) :   0.9340 B(  2-C ,  5-H ) :   0.9373 B(  6-O ,  7-H ) :   0.7957
B(  6-O ,  8-C ) :   0.9459 B(  8-C ,  9-H ) :   0.9389 B(  8-C , 10-H ) :   0.9355
B(  8-C , 11-H ) :   0.9443 B( 12-O , 13-H ) :   0.8356 B( 12-O , 14-C ) :   0.9343
B( 14-C , 15-H ) :   0.9382 B( 14-C , 16-H ) :   0.9393 B( 14-C , 17-H ) :   0.9369

MP2 TOTAL ENERGY:     -346.529588875 Eh
FINAL SINGLE POINT ENERGY      -346.529588875146

DIPOLE MOMENT
-------------
                                X             Y             Z
Electronic contribution:     -0.33146       0.18115      -2.43813
Nuclear contribution   :     -0.63349      -0.69693       2.72707
                        -----------------------------------------
Total Dipole Moment    :     -0.96496      -0.51578       0.28894
                        -----------------------------------------
Magnitude (a.u.)       :      1.13166
Magnitude (Debye)      :      2.87645

Rotational constants in cm-1:     0.384640     0.015828     0.015798
Rotational constants in MHz : 11531.212138   474.524265   473.618853

                             ****ORCA TERMINATED NORMALLY****
TOTAL RUN TIME: 0 days 0 hours 1 minutes 15 seconds 758 msec
