                         Program Version 4.2.0 -  RELEASE  -
|  1> # 12mecn.remya.etal.2.mol4,5,10
|  2> ! MP2 def2-TZVP EnGrad TightSCF
|  3>
|  4> %pal
|  5>     nprocs 6
|  6> end
|  7>
|  8> %maxcore 8000
|  9>
| 10> %scf
| 11>     ConvForced true
| 12> end
| 13>
| 14> *xyz 0 1
| 15> C  -1.509690000  -0.693960000  -1.610140000
| 16> H  -1.327010000  -1.692700000  -2.017370000
| 17> H  -0.742170000  -0.000650000  -1.964400000
| 18> H  -2.491920000  -0.334310000  -1.929350000
| 19> C  -1.473570000  -0.748120000  -0.167200000
| 20> N  -1.447490000  -0.793720000   0.998938000
| 21> C  -1.955700000   2.515080000   1.698463000
| 22> H  -2.923830000   2.883163000   2.049269000
| 23> H  -1.154850000   3.171830000   2.050990000
| 24> H  -1.790380000   1.506115000   2.087896000
| 25> C  -1.948230000   2.482156000   0.253672000
| 26> N  -1.937550000   2.462523000  -0.913150000
| 27> C   4.602033000   0.321019000  -1.784800000
| 28> H   4.827650000  -0.662160000  -2.207910000
| 29> H   5.320558000   1.057980000  -2.148500000
| 30> H   3.601982000   0.643751000  -2.087520000
| 31> C   4.654967000   0.244048000  -0.343060000
| 32> N   4.691648000   0.166590000   0.820757000
| 33> *
| 34>
| 35>                          ****END OF INPUT****

CARTESIAN COORDINATES (ANGSTROEM)
---------------------------------
  C     -1.509690   -0.693960   -1.610140
  H     -1.327010   -1.692700   -2.017370
  H     -0.742170   -0.000650   -1.964400
  H     -2.491920   -0.334310   -1.929350
  C     -1.473570   -0.748120   -0.167200
  N     -1.447490   -0.793720    0.998938
  C     -1.955700    2.515080    1.698463
  H     -2.923830    2.883163    2.049269
  H     -1.154850    3.171830    2.050990
  H     -1.790380    1.506115    2.087896
  C     -1.948230    2.482156    0.253672
  N     -1.937550    2.462523   -0.913150
  C      4.602033    0.321019   -1.784800
  H      4.827650   -0.662160   -2.207910
  H      5.320558    1.057980   -2.148500
  H      3.601982    0.643751   -2.087520
  C      4.654967    0.244048   -0.343060
  N      4.691648    0.166590    0.820757

 Total Charge           Charge          ....    0
 Multiplicity           Mult            ....    1
 Number of Electrons    NEL             ....   66
 Basis Dimension        Dim             ....  333

ORBITAL ENERGIES
----------------

  NO   OCC          E(Eh)            E(eV)
   0   2.0000     -15.573015      -423.7633
   1   2.0000     -15.571662      -423.7265
   2   2.0000     -15.570601      -423.6976
   3   2.0000     -11.285524      -307.0947
   4   2.0000     -11.283410      -307.0372
   5   2.0000     -11.281981      -306.9983
   6   2.0000     -11.279781      -306.9384
   7   2.0000     -11.274994      -306.8082
   8   2.0000     -11.272100      -306.7294
   9   2.0000      -1.217696       -33.1352
  10   2.0000      -1.214142       -33.0385
  11   2.0000      -1.213318       -33.0161
  12   2.0000      -1.044623       -28.4256
  13   2.0000      -1.037432       -28.2300
  14   2.0000      -1.034400       -28.1475
  15   2.0000      -0.700362       -19.0578
  16   2.0000      -0.694503       -18.8984
  17   2.0000      -0.690630       -18.7930
  18   2.0000      -0.634888       -17.2762
  19   2.0000      -0.630744       -17.1634
  20   2.0000      -0.630503       -17.1569
  21   2.0000      -0.624415       -16.9912
  22   2.0000      -0.621554       -16.9133
  23   2.0000      -0.616074       -16.7642
  24   2.0000      -0.559139       -15.2150
  25   2.0000      -0.555734       -15.1223
  26   2.0000      -0.555469       -15.1151
  27   2.0000      -0.462148       -12.5757
  28   2.0000      -0.459006       -12.4902
  29   2.0000      -0.457560       -12.4508
  30   2.0000      -0.456987       -12.4352
  31   2.0000      -0.456625       -12.4254
  32   2.0000      -0.453241       -12.3333
  33   0.0000       0.106833         2.9071
  34   0.0000       0.129737         3.5303
  35   0.0000       0.143795         3.9129
  36   0.0000       0.164230         4.4689
  37   0.0000       0.170939         4.6515

MULLIKEN ATOMIC CHARGES
-----------------------
   0 C :   -0.257543
   1 H :    0.171421
   2 H :    0.173659
   3 H :    0.176398
   4 C :   -0.121234
   5 N :   -0.142515
   6 C :   -0.285185
   7 H :    0.166090
   8 H :    0.168512
   9 H :    0.206229
  10 C :   -0.115192
  11 N :   -0.140629
  12 C :   -0.279327
  13 H :    0.172115
  14 H :    0.172490
  15 H :    0.170573
  16 C :   -0.145449
  17 N :   -0.090411
Sum of atomic charges:   -0.0000000

LOEWDIN ATOMIC CHARGES
----------------------
   0 C :   -0.285074
   1 H :    0.149609
   2 H :    0.154992
   3 H :    0.157011
   4 C :   -0.212012
   5 N :    0.032071
   6 C :   -0.281053
   7 H :    0.151899
   8 H :    0.152988
   9 H :    0.157755
  10 C :   -0.209783
  11 N :    0.031599
  12 C :   -0.284049
  13 H :    0.152715
  14 H :    0.151638
  15 H :    0.152526
  16 C :   -0.220159
  17 N :    0.047326

  Mayer bond orders larger than 0.100000
B(  0-C ,  1-H ) :   0.9107 B(  0-C ,  2-H ) :   0.9136 B(  0-C ,  3-H ) :   0.9129
B(  0-C ,  4-C ) :   0.9108 B(  4-C ,  5-N ) :   2.7757 B(  6-C ,  7-H ) :   0.9154
B(  6-C ,  8-H ) :   0.9147 B(  6-C ,  9-H ) :   0.9028 B(  6-C , 10-C ) :   0.8986
B( 10-C , 11-N ) :   2.7973 B( 12-C , 13-H ) :   0.9162 B( 12-C , 14-H ) :   0.9168
B( 12-C , 15-H ) :   0.9172 B( 12-C , 16-C ) :   0.9012 B( 16-C , 17-N ) :   2.8355

MP2 TOTAL ENERGY:     -397.458792725 Eh
FINAL SINGLE POINT ENERGY      -397.458792724680

DIPOLE MOMENT
-------------
                                X             Y             Z
Electronic contribution:      0.22023      -0.37865       3.13568
Nuclear contribution   :     -0.32036       0.55620      -4.61448
                        -----------------------------------------
Total Dipole Moment    :     -0.10013       0.17755      -1.47880
                        -----------------------------------------
Magnitude (a.u.)       :      1.49278
Magnitude (Debye)      :      3.79436

Rotational constants in cm-1:     0.044992     0.013034     0.012211
Rotational constants in MHz :  1348.821334   390.739546   366.082555

                             ****ORCA TERMINATED NORMALLY****
TOTAL RUN TIME: 0 days 0 hours 2 minutes 59 seconds 198 msec
