                         Program Version 4.2.0 -  RELEASE  -
|  1> # 12mecn.remya.etal.2.mol1,8,9
|  2> ! MP2 def2-TZVP EnGrad TightSCF
|  3>
|  4> %pal
|  5>     nprocs 6
|  6> end
|  7>
|  8> %maxcore 8000
|  9>
| 10> %scf
| 11>     ConvForced true
| 12> end
| 13>
| 14> *xyz 0 1
| 15> C  -4.697980000  -0.249690000   1.746215000
| 16> H  -4.927570000   0.755530000   2.111799000
| 17> H  -3.709180000  -0.561560000   2.093253000
| 18> H  -5.432280000  -0.961520000   2.128066000
| 19> C  -4.714100000  -0.247110000   0.301670000
| 20> N  -4.729750000  -0.234960000  -0.865260000
| 21> C   1.912641000  -2.468050000  -1.750510000
| 22> H   2.876947000  -2.793500000  -2.151200000
| 23> H   1.688016000  -1.463720000  -2.122170000
| 24> H   1.123460000  -3.154780000  -2.069590000
| 25> C   1.977850000  -2.444240000  -0.306900000
| 26> N   2.036566000  -2.426130000   0.858249000
| 27> C   0.923766000   4.000693000  -1.575910000
| 28> H   0.011949000   4.478423000  -1.939550000
| 29> H   0.947903000   2.966558000  -1.929960000
| 30> H   1.805950000   4.519548000  -1.956520000
| 31> C   0.942834000   3.994846000  -0.131200000
| 32> N   0.960035000   3.982544000   1.035639000
| 33> *
| 34>
| 35>                          ****END OF INPUT****

CARTESIAN COORDINATES (ANGSTROEM)
---------------------------------
  C     -4.697980   -0.249690    1.746215
  H     -4.927570    0.755530    2.111799
  H     -3.709180   -0.561560    2.093253
  H     -5.432280   -0.961520    2.128066
  C     -4.714100   -0.247110    0.301670
  N     -4.729750   -0.234960   -0.865260
  C      1.912641   -2.468050   -1.750510
  H      2.876947   -2.793500   -2.151200
  H      1.688016   -1.463720   -2.122170
  H      1.123460   -3.154780   -2.069590
  C      1.977850   -2.444240   -0.306900
  N      2.036566   -2.426130    0.858249
  C      0.923766    4.000693   -1.575910
  H      0.011949    4.478423   -1.939550
  H      0.947903    2.966558   -1.929960
  H      1.805950    4.519548   -1.956520
  C      0.942834    3.994846   -0.131200
  N      0.960035    3.982544    1.035639

 Total Charge           Charge          ....    0
 Multiplicity           Mult            ....    1
 Number of Electrons    NEL             ....   66
 Basis Dimension        Dim             ....  333

ORBITAL ENERGIES
----------------

  NO   OCC          E(Eh)            E(eV)
   0   2.0000     -15.573390      -423.7735
   1   2.0000     -15.573035      -423.7638
   2   2.0000     -15.572817      -423.7579
   3   2.0000     -11.286067      -307.1095
   4   2.0000     -11.285112      -307.0835
   5   2.0000     -11.282202      -307.0043
   6   2.0000     -11.280486      -306.9576
   7   2.0000     -11.280222      -306.9504
   8   2.0000     -11.279874      -306.9410
   9   2.0000      -1.214686       -33.0533
  10   2.0000      -1.214415       -33.0459
  11   2.0000      -1.214104       -33.0375
  12   2.0000      -1.044551       -28.4237
  13   2.0000      -1.044532       -28.4232
  14   2.0000      -1.042176       -28.3591
  15   2.0000      -0.700670       -19.0662
  16   2.0000      -0.700225       -19.0541
  17   2.0000      -0.698256       -19.0005
  18   2.0000      -0.634311       -17.2605
  19   2.0000      -0.633489       -17.2381
  20   2.0000      -0.631947       -17.1962
  21   2.0000      -0.631699       -17.1894
  22   2.0000      -0.630617       -17.1600
  23   2.0000      -0.627491       -17.0749
  24   2.0000      -0.556322       -15.1383
  25   2.0000      -0.555934       -15.1277
  26   2.0000      -0.555559       -15.1175
  27   2.0000      -0.457905       -12.4602
  28   2.0000      -0.457692       -12.4544
  29   2.0000      -0.457668       -12.4538
  30   2.0000      -0.457644       -12.4531
  31   2.0000      -0.457154       -12.4398
  32   2.0000      -0.456854       -12.4316
  33   0.0000       0.102028         2.7763
  34   0.0000       0.122509         3.3336
  35   0.0000       0.127194         3.4611
  36   0.0000       0.158997         4.3265
  37   0.0000       0.171100         4.6559

MULLIKEN ATOMIC CHARGES
-----------------------
   0 C :   -0.278041
   1 H :    0.173170
   2 H :    0.178311
   3 H :    0.171142
   4 C :   -0.145462
   5 N :   -0.099123
   6 C :   -0.276388
   7 H :    0.172135
   8 H :    0.167041
   9 H :    0.174443
  10 C :   -0.146614
  11 N :   -0.090615
  12 C :   -0.276759
  13 H :    0.174115
  14 H :    0.167280
  15 H :    0.171926
  16 C :   -0.145656
  17 N :   -0.090905
Sum of atomic charges:   -0.0000000

LOEWDIN ATOMIC CHARGES
----------------------
   0 C :   -0.282241
   1 H :    0.153752
   2 H :    0.155100
   3 H :    0.151622
   4 C :   -0.218679
   5 N :    0.040445
   6 C :   -0.283812
   7 H :    0.152579
   8 H :    0.151383
   9 H :    0.153266
  10 C :   -0.220278
  11 N :    0.046862
  12 C :   -0.283514
  13 H :    0.152182
  14 H :    0.152169
  15 H :    0.151679
  16 C :   -0.219495
  17 N :    0.046979

  Mayer bond orders larger than 0.100000
B(  0-C ,  1-H ) :   0.9150 B(  0-C ,  2-H ) :   0.9146 B(  0-C ,  3-H ) :   0.9168
B(  0-C ,  4-C ) :   0.9018 B(  4-C ,  5-N ) :   2.8413 B(  6-C ,  7-H ) :   0.9167
B(  6-C ,  8-H ) :   0.9175 B(  6-C ,  9-H ) :   0.9158 B(  6-C , 10-C ) :   0.9016
B( 10-C , 11-N ) :   2.8362 B( 12-C , 13-H ) :   0.9158 B( 12-C , 14-H ) :   0.9179
B( 12-C , 15-H ) :   0.9168 B( 12-C , 16-C ) :   0.9023 B( 16-C , 17-N ) :   2.8360

MP2 TOTAL ENERGY:     -397.450128048 Eh
FINAL SINGLE POINT ENERGY      -397.450128048182

DIPOLE MOMENT
-------------
                                X             Y             Z
Electronic contribution:      0.13498       0.07627       3.16033
Nuclear contribution   :     -0.20524      -0.10929      -4.63871
                        -----------------------------------------
Total Dipole Moment    :     -0.07025      -0.03302      -1.47838
                        -----------------------------------------
Magnitude (a.u.)       :      1.48042
Magnitude (Debye)      :      3.76292

Rotational constants in cm-1:     0.016284     0.013452     0.008537
Rotational constants in MHz :   488.185719   403.278220   255.921469

                             ****ORCA TERMINATED NORMALLY****
TOTAL RUN TIME: 0 days 0 hours 1 minutes 58 seconds 957 msec
