                         Program Version 4.2.0 -  RELEASE  -
|  1> # 12h2o.su.etal.mol2,4,5,6,10,11
|  2> ! MP2 def2-TZVP EnGrad TightSCF
|  3>
|  4> %pal
|  5>     nprocs 6
|  6> end
|  7>
|  8> %maxcore 8000
|  9>
| 10> %scf
| 11>     ConvForced true
| 12> end
| 13>
| 14> *xyz 0 1
| 15> O   0.923410000  -1.794470000  -2.768350000
| 16> H   1.359750000  -2.338250000  -3.430940000
| 17> H   1.303000000  -0.879480000  -2.865760000
| 18> O  -0.885520000   1.737840000   0.052730000
| 19> H  -1.032320000   2.090180000  -0.841890000
| 20> H  -1.284090000   0.839590000   0.017130000
| 21> O   0.885520000  -1.737840000   0.052730000
| 22> H   1.284090000  -0.839590000   0.017130000
| 23> H   1.032320000  -2.090180000  -0.841890000
| 24> O   1.737840000   0.885520000  -0.052730000
| 25> H   2.090180000   1.032320000   0.841890000
| 26> H   0.839590000   1.284090000  -0.017130000
| 27> O  -0.923410000   1.794470000  -2.768350000
| 28> H  -1.359750000   2.338250000  -3.430940000
| 29> H  -1.303000000   0.879480000  -2.865760000
| 30> O  -0.741530000   1.752130000   2.896280000
| 31> H  -0.920500000   2.036450000   1.984040000
| 32> H  -1.242140000   0.921210000   2.984230000
| 33> *
| 34>
| 35>                          ****END OF INPUT****

CARTESIAN COORDINATES (ANGSTROEM)
---------------------------------
  O      0.923410   -1.794470   -2.768350
  H      1.359750   -2.338250   -3.430940
  H      1.303000   -0.879480   -2.865760
  O     -0.885520    1.737840    0.052730
  H     -1.032320    2.090180   -0.841890
  H     -1.284090    0.839590    0.017130
  O      0.885520   -1.737840    0.052730
  H      1.284090   -0.839590    0.017130
  H      1.032320   -2.090180   -0.841890
  O      1.737840    0.885520   -0.052730
  H      2.090180    1.032320    0.841890
  H      0.839590    1.284090   -0.017130
  O     -0.923410    1.794470   -2.768350
  H     -1.359750    2.338250   -3.430940
  H     -1.303000    0.879480   -2.865760
  O     -0.741530    1.752130    2.896280
  H     -0.920500    2.036450    1.984040
  H     -1.242140    0.921210    2.984230

 Total Charge           Charge          ....    0
 Multiplicity           Mult            ....    1
 Number of Electrons    NEL             ....   60
 Basis Dimension        Dim             ....  258

ORBITAL ENERGIES
----------------

  NO   OCC          E(Eh)            E(eV)
   0   2.0000     -20.610858      -560.8500
   1   2.0000     -20.591780      -560.3308
   2   2.0000     -20.584831      -560.1417
   3   2.0000     -20.547917      -559.1372
   4   2.0000     -20.534497      -558.7721
   5   2.0000     -20.494467      -557.6828
   6   2.0000      -1.390659       -37.8418
   7   2.0000      -1.376154       -37.4471
   8   2.0000      -1.362721       -37.0815
   9   2.0000      -1.333333       -36.2818
  10   2.0000      -1.316414       -35.8214
  11   2.0000      -1.278655       -34.7940
  12   2.0000      -0.756257       -20.5788
  13   2.0000      -0.740263       -20.1436
  14   2.0000      -0.729417       -19.8484
  15   2.0000      -0.703793       -19.1512
  16   2.0000      -0.686850       -18.6901
  17   2.0000      -0.661915       -18.0116
  18   2.0000      -0.636191       -17.3116
  19   2.0000      -0.612439       -16.6653
  20   2.0000      -0.600779       -16.3480
  21   2.0000      -0.583086       -15.8666
  22   2.0000      -0.558349       -15.1934
  23   2.0000      -0.549154       -14.9433
  24   2.0000      -0.542933       -14.7740
  25   2.0000      -0.526388       -14.3238
  26   2.0000      -0.512146       -13.9362
  27   2.0000      -0.482567       -13.1313
  28   2.0000      -0.480674       -13.0798
  29   2.0000      -0.445690       -12.1279
  30   0.0000       0.083249         2.2653
  31   0.0000       0.124930         3.3995
  32   0.0000       0.133355         3.6288
  33   0.0000       0.166507         4.5309
  34   0.0000       0.178095         4.8462

MULLIKEN ATOMIC CHARGES
-----------------------
   0 O :   -0.702554
   1 H :    0.347968
   2 H :    0.361503
   3 O :   -0.728411
   4 H :    0.388956
   5 H :    0.354288
   6 O :   -0.741602
   7 H :    0.339302
   8 H :    0.355623
   9 O :   -0.719611
  10 H :    0.354396
  11 H :    0.373277
  12 O :   -0.702633
  13 H :    0.358813
  14 H :    0.362582
  15 O :   -0.696392
  16 H :    0.367489
  17 H :    0.327005
Sum of atomic charges:    0.0000000

LOEWDIN ATOMIC CHARGES
----------------------
   0 O :   -0.314640
   1 H :    0.161399
   2 H :    0.186354
   3 O :   -0.283044
   4 H :    0.157496
   5 H :    0.176229
   6 O :   -0.375867
   7 H :    0.133779
   8 H :    0.141836
   9 O :   -0.313553
  10 H :    0.169210
  11 H :    0.144673
  12 O :   -0.310598
  13 H :    0.166942
  14 H :    0.188186
  15 O :   -0.339366
  16 H :    0.149432
  17 H :    0.161532

  Mayer bond orders larger than 0.100000
B(  0-O ,  1-H ) :   0.8436 B(  0-O ,  2-H ) :   0.8275 B(  3-O ,  4-H ) :   0.7916
B(  3-O ,  5-H ) :   0.8281 B(  6-O ,  7-H ) :   0.8012 B(  6-O ,  8-H ) :   0.8325
B(  9-O , 10-H ) :   0.8392 B(  9-O , 11-H ) :   0.7846 B( 12-O , 13-H ) :   0.8380
B( 12-O , 14-H ) :   0.8270 B( 15-O , 16-H ) :   0.8235 B( 15-O , 17-H ) :   0.8585

MP2 TOTAL ENERGY:     -457.918260490 Eh
FINAL SINGLE POINT ENERGY      -457.918260490241

DIPOLE MOMENT
-------------
                                X             Y             Z
Electronic contribution:      0.01094       0.34825      -0.07772
Nuclear contribution   :     -1.02005      -0.00102      -2.72557
                        -----------------------------------------
Total Dipole Moment    :     -1.00911       0.34723      -2.80329
                        -----------------------------------------
Magnitude (a.u.)       :      2.99955
Magnitude (Debye)      :      7.62425

Rotational constants in cm-1:     0.053357     0.030640     0.022363
Rotational constants in MHz :  1599.604065   918.575901   670.417863

                             ****ORCA TERMINATED NORMALLY****
TOTAL RUN TIME: 0 days 0 hours 1 minutes 5 seconds 214 msec
