                         Program Version 4.2.0 -  RELEASE  -
|  1> # 12meoh.boyd.etal.mol1,5,6
|  2> ! MP2 def2-TZVP EnGrad TightSCF
|  3>
|  4> %pal
|  5>     nprocs 6
|  6> end
|  7>
|  8> %maxcore 8000
|  9>
| 10> %scf
| 11>     ConvForced true
| 12> end
| 13>
| 14> *xyz 0 1
| 15> O   0.666045193  -2.600503172   0.138317521
| 16> H  -0.227115049  -2.712051982  -0.281868004
| 17> C   0.490021232  -1.851247678   1.341189459
| 18> H   1.466500502  -1.466176022   1.645844415
| 19> H   0.097564527  -2.488364683   2.146902740
| 20> H  -0.187588112  -1.000787499   1.200739571
| 21> O  -0.662721750   1.449094618  -1.383082065
| 22> H   0.064188300   2.119867608  -1.465650660
| 23> C  -0.353319239   0.341218776  -2.229326771
| 24> H  -1.072358530  -0.454743281  -2.019906495
| 25> H   0.657636746  -0.044472139  -2.042736771
| 26> H  -0.434616607   0.624733901  -3.287793021
| 27> O   2.622209273  -1.703002590  -1.445859723
| 28> H   1.828551432  -1.986513781  -0.909754968
| 29> C   2.781117675  -2.615822239  -2.525472890
| 30> H   3.691063626  -2.339003544  -3.065143454
| 31> H   1.934727323  -2.559520367  -3.223226661
| 32> H   2.879948338  -3.653846211  -2.177750170
| 33> *
| 34>
| 35>                          ****END OF INPUT****

CARTESIAN COORDINATES (ANGSTROEM)
---------------------------------
  O      0.666045   -2.600503    0.138318
  H     -0.227115   -2.712052   -0.281868
  C      0.490021   -1.851248    1.341189
  H      1.466501   -1.466176    1.645844
  H      0.097565   -2.488365    2.146903
  H     -0.187588   -1.000787    1.200740
  O     -0.662722    1.449095   -1.383082
  H      0.064188    2.119868   -1.465651
  C     -0.353319    0.341219   -2.229327
  H     -1.072359   -0.454743   -2.019906
  H      0.657637   -0.044472   -2.042737
  H     -0.434617    0.624734   -3.287793
  O      2.622209   -1.703003   -1.445860
  H      1.828551   -1.986514   -0.909755
  C      2.781118   -2.615822   -2.525473
  H      3.691064   -2.339004   -3.065143
  H      1.934727   -2.559520   -3.223227
  H      2.879948   -3.653846   -2.177750

 Total Charge           Charge          ....    0
 Multiplicity           Mult            ....    1
 Number of Electrons    NEL             ....   54
 Basis Dimension        Dim             ....  258

ORBITAL ENERGIES
----------------

  NO   OCC          E(Eh)            E(eV)
   0   2.0000     -20.590674      -560.3007
   1   2.0000     -20.554944      -559.3285
   2   2.0000     -20.519069      -558.3523
   3   2.0000     -11.287134      -307.1385
   4   2.0000     -11.267421      -306.6021
   5   2.0000     -11.253714      -306.2291
   6   2.0000      -1.382843       -37.6291
   7   2.0000      -1.343193       -36.5501
   8   2.0000      -1.315196       -35.7883
   9   2.0000      -0.940053       -25.5801
  10   2.0000      -0.917384       -24.9633
  11   2.0000      -0.900370       -24.5003
  12   2.0000      -0.716352       -19.4929
  13   2.0000      -0.678357       -18.4590
  14   2.0000      -0.674767       -18.3613
  15   2.0000      -0.633934       -17.2502
  16   2.0000      -0.614325       -16.7166
  17   2.0000      -0.609086       -16.5741
  18   2.0000      -0.594794       -16.1852
  19   2.0000      -0.589470       -16.0403
  20   2.0000      -0.566223       -15.4077
  21   2.0000      -0.528361       -14.3774
  22   2.0000      -0.498467       -13.5640
  23   2.0000      -0.488495       -13.2926
  24   2.0000      -0.459455       -12.5024
  25   2.0000      -0.447226       -12.1696
  26   2.0000      -0.420206       -11.4344
  27   0.0000       0.110860         3.0167
  28   0.0000       0.139991         3.8093
  29   0.0000       0.160000         4.3538
  30   0.0000       0.175943         4.7877
  31   0.0000       0.195513         5.3202

MULLIKEN ATOMIC CHARGES
-----------------------
   0 O :   -0.518742
   1 H :    0.340106
   2 C :   -0.198637
   3 H :    0.149052
   4 H :    0.127579
   5 H :    0.143906
   6 O :   -0.510503
   7 H :    0.326254
   8 C :   -0.191504
   9 H :    0.100430
  10 H :    0.145321
  11 H :    0.113116
  12 O :   -0.532924
  13 H :    0.354597
  14 C :   -0.171971
  15 H :    0.122023
  16 H :    0.091315
  17 H :    0.110582
Sum of atomic charges:   -0.0000000

LOEWDIN ATOMIC CHARGES
----------------------
   0 O :   -0.076047
   1 H :    0.196173
   2 C :   -0.366577
   3 H :    0.117176
   4 H :    0.104187
   5 H :    0.105988
   6 O :   -0.115619
   7 H :    0.190759
   8 C :   -0.385734
   9 H :    0.101322
  10 H :    0.102473
  11 H :    0.096915
  12 O :   -0.122464
  13 H :    0.158662
  14 C :   -0.396761
  15 H :    0.106233
  16 H :    0.088275
  17 H :    0.095039

  Mayer bond orders larger than 0.100000
B(  0-O ,  1-H ) :   0.8291 B(  0-O ,  2-C ) :   0.8644 B(  2-C ,  3-H ) :   0.9387
B(  2-C ,  4-H ) :   0.9351 B(  2-C ,  5-H ) :   0.9355 B(  6-O ,  7-H ) :   0.8404
B(  6-O ,  8-C ) :   0.9045 B(  8-C ,  9-H ) :   0.9377 B(  8-C , 10-H ) :   0.9300
B(  8-C , 11-H ) :   0.9334 B( 12-O , 13-H ) :   0.7750 B( 12-O , 14-C ) :   0.9400
B( 14-C , 15-H ) :   0.9419 B( 14-C , 16-H ) :   0.9369 B( 14-C , 17-H ) :   0.9408

MP2 TOTAL ENERGY:     -346.532861100 Eh
FINAL SINGLE POINT ENERGY      -346.532861100233

DIPOLE MOMENT
-------------
                                X             Y             Z
Electronic contribution:     -0.36201       1.56558       1.30019
Nuclear contribution   :     -0.25183      -1.92829      -1.20666
                        -----------------------------------------
Total Dipole Moment    :     -0.61384      -0.36272       0.09353
                        -----------------------------------------
Magnitude (a.u.)       :      0.71910
Magnitude (Debye)      :      1.82781

Rotational constants in cm-1:     0.071178     0.044440     0.030011
Rotational constants in MHz :  2133.853783  1332.279397   899.697006

                             ****ORCA TERMINATED NORMALLY****
TOTAL RUN TIME: 0 days 0 hours 1 minutes 38 seconds 207 msec
