                         Program Version 4.2.0 -  RELEASE  -
|  1> # 12h2o.su.etal.mol0,2,4,5,6,8,10
|  2> ! MP2 def2-TZVP EnGrad TightSCF
|  3>
|  4> %pal
|  5>     nprocs 6
|  6> end
|  7>
|  8> %maxcore 8000
|  9>
| 10> %scf
| 11>     ConvForced true
| 12> end
| 13>
| 14> *xyz 0 1
| 15> O   1.794470000   0.923410000   2.768350000
| 16> H   2.338250000   1.359750000   3.430940000
| 17> H   0.879480000   1.303000000   2.865760000
| 18> O   0.923410000  -1.794470000  -2.768350000
| 19> H   1.359750000  -2.338250000  -3.430940000
| 20> H   1.303000000  -0.879480000  -2.865760000
| 21> O  -0.885520000   1.737840000   0.052730000
| 22> H  -1.032320000   2.090180000  -0.841890000
| 23> H  -1.284090000   0.839590000   0.017130000
| 24> O   0.885520000  -1.737840000   0.052730000
| 25> H   1.284090000  -0.839590000   0.017130000
| 26> H   1.032320000  -2.090180000  -0.841890000
| 27> O   1.737840000   0.885520000  -0.052730000
| 28> H   2.090180000   1.032320000   0.841890000
| 29> H   0.839590000   1.284090000  -0.017130000
| 30> O   1.752130000   0.741530000  -2.896280000
| 31> H   2.036450000   0.920500000  -1.984040000
| 32> H   0.921210000   1.242140000  -2.984230000
| 33> O  -0.923410000   1.794470000  -2.768350000
| 34> H  -1.359750000   2.338250000  -3.430940000
| 35> H  -1.303000000   0.879480000  -2.865760000
| 36> *
| 37>
| 38>                          ****END OF INPUT****

CARTESIAN COORDINATES (ANGSTROEM)
---------------------------------
  O      1.794470    0.923410    2.768350
  H      2.338250    1.359750    3.430940
  H      0.879480    1.303000    2.865760
  O      0.923410   -1.794470   -2.768350
  H      1.359750   -2.338250   -3.430940
  H      1.303000   -0.879480   -2.865760
  O     -0.885520    1.737840    0.052730
  H     -1.032320    2.090180   -0.841890
  H     -1.284090    0.839590    0.017130
  O      0.885520   -1.737840    0.052730
  H      1.284090   -0.839590    0.017130
  H      1.032320   -2.090180   -0.841890
  O      1.737840    0.885520   -0.052730
  H      2.090180    1.032320    0.841890
  H      0.839590    1.284090   -0.017130
  O      1.752130    0.741530   -2.896280
  H      2.036450    0.920500   -1.984040
  H      0.921210    1.242140   -2.984230
  O     -0.923410    1.794470   -2.768350
  H     -1.359750    2.338250   -3.430940
  H     -1.303000    0.879480   -2.865760

 Total Charge           Charge          ....    0
 Multiplicity           Mult            ....    1
 Number of Electrons    NEL             ....   70
 Basis Dimension        Dim             ....  301

ORBITAL ENERGIES
----------------

  NO   OCC          E(Eh)            E(eV)
   0   2.0000     -20.626574      -561.2776
   1   2.0000     -20.582035      -560.0656
   2   2.0000     -20.580682      -560.0288
   3   2.0000     -20.548179      -559.1444
   4   2.0000     -20.542054      -558.9777
   5   2.0000     -20.525300      -558.5218
   6   2.0000     -20.477049      -557.2088
   7   2.0000      -1.407153       -38.2906
   8   2.0000      -1.365657       -37.1614
   9   2.0000      -1.359839       -37.0031
  10   2.0000      -1.343894       -36.5692
  11   2.0000      -1.329076       -36.1660
  12   2.0000      -1.308507       -35.6063
  13   2.0000      -1.261197       -34.3189
  14   2.0000      -0.772361       -21.0170
  15   2.0000      -0.729001       -19.8371
  16   2.0000      -0.726701       -19.7745
  17   2.0000      -0.712754       -19.3950
  18   2.0000      -0.702691       -19.1212
  19   2.0000      -0.692144       -18.8342
  20   2.0000      -0.649959       -17.6863
  21   2.0000      -0.644061       -17.5258
  22   2.0000      -0.614276       -16.7153
  23   2.0000      -0.607360       -16.5271
  24   2.0000      -0.592625       -16.1261
  25   2.0000      -0.566741       -15.4218
  26   2.0000      -0.562651       -15.3105
  27   2.0000      -0.548718       -14.9314
  28   2.0000      -0.525624       -14.3030
  29   2.0000      -0.522555       -14.2195
  30   2.0000      -0.511382       -13.9154
  31   2.0000      -0.489877       -13.3302
  32   2.0000      -0.479515       -13.0483
  33   2.0000      -0.466935       -12.7060
  34   2.0000      -0.428386       -11.6570
  35   0.0000       0.086831         2.3628
  36   0.0000       0.117885         3.2078
  37   0.0000       0.149409         4.0656
  38   0.0000       0.165863         4.5134
  39   0.0000       0.182411         4.9637

MULLIKEN ATOMIC CHARGES
-----------------------
   0 O :   -0.689963
   1 H :    0.348310
   2 H :    0.359925
   3 O :   -0.742942
   4 H :    0.330146
   5 H :    0.367761
   6 O :   -0.704927
   7 H :    0.378153
   8 H :    0.357401
   9 O :   -0.746777
  10 H :    0.346112
  11 H :    0.357534
  12 O :   -0.750564
  13 H :    0.380386
  14 H :    0.353120
  15 O :   -0.716170
  16 H :    0.389418
  17 H :    0.358198
  18 O :   -0.725167
  19 H :    0.369803
  20 H :    0.380243
Sum of atomic charges:   -0.0000000

LOEWDIN ATOMIC CHARGES
----------------------
   0 O :   -0.307002
   1 H :    0.161987
   2 H :    0.187587
   3 O :   -0.347012
   4 H :    0.149898
   5 H :    0.142139
   6 O :   -0.298612
   7 H :    0.152338
   8 H :    0.177738
   9 O :   -0.377392
  10 H :    0.133417
  11 H :    0.142319
  12 O :   -0.304301
  13 H :    0.152992
  14 H :    0.139841
  15 O :   -0.286967
  16 H :    0.157135
  17 H :    0.145741
  18 O :   -0.288356
  19 H :    0.170616
  20 H :    0.195897

  Mayer bond orders larger than 0.100000
B(  0-O ,  1-H ) :   0.8441 B(  0-O ,  2-H ) :   0.8309 B(  3-O ,  4-H ) :   0.8538
B(  3-O ,  5-H ) :   0.7544 B(  5-H , 15-O ) :   0.1077 B(  6-O ,  7-H ) :   0.8075
B(  6-O ,  8-H ) :   0.8306 B(  9-O , 10-H ) :   0.8086 B(  9-O , 11-H ) :   0.8230
B( 12-O , 13-H ) :   0.8013 B( 12-O , 14-H ) :   0.7744 B( 15-O , 16-H ) :   0.7956
B( 15-O , 17-H ) :   0.8203 B( 18-O , 19-H ) :   0.8289 B( 18-O , 20-H ) :   0.8122

MP2 TOTAL ENERGY:     -534.256582540 Eh
FINAL SINGLE POINT ENERGY      -534.256582540186

DIPOLE MOMENT
-------------
                                X             Y             Z
Electronic contribution:     -0.02441       0.40555       0.17347
Nuclear contribution   :     -1.21834       1.69875      -0.72077
                        -----------------------------------------
Total Dipole Moment    :     -1.24275       2.10430      -0.54730
                        -----------------------------------------
Magnitude (a.u.)       :      2.50441
Magnitude (Debye)      :      6.36569

Rotational constants in cm-1:     0.043531     0.027337     0.020971
Rotational constants in MHz :  1305.031239   819.542150   628.681136

                             ****ORCA TERMINATED NORMALLY****
TOTAL RUN TIME: 0 days 0 hours 2 minutes 21 seconds 412 msec
