                         Program Version 4.2.0 -  RELEASE  -
|  1> # 12h2o.su.etal.mol2,3,4,8
|  2> ! MP2 def2-TZVP EnGrad TightSCF
|  3>
|  4> %pal
|  5>     nprocs 6
|  6> end
|  7>
|  8> %maxcore 8000
|  9>
| 10> %scf
| 11>     ConvForced true
| 12> end
| 13>
| 14> *xyz 0 1
| 15> O   0.923410000  -1.794470000  -2.768350000
| 16> H   1.359750000  -2.338250000  -3.430940000
| 17> H   1.303000000  -0.879480000  -2.865760000
| 18> O  -1.752130000  -0.741530000  -2.896280000
| 19> H  -2.036450000  -0.920500000  -1.984040000
| 20> H  -0.921210000  -1.242140000  -2.984230000
| 21> O  -0.885520000   1.737840000   0.052730000
| 22> H  -1.032320000   2.090180000  -0.841890000
| 23> H  -1.284090000   0.839590000   0.017130000
| 24> O   1.752130000   0.741530000  -2.896280000
| 25> H   2.036450000   0.920500000  -1.984040000
| 26> H   0.921210000   1.242140000  -2.984230000
| 27> *
| 28>
| 29>                          ****END OF INPUT****

CARTESIAN COORDINATES (ANGSTROEM)
---------------------------------
  O      0.923410   -1.794470   -2.768350
  H      1.359750   -2.338250   -3.430940
  H      1.303000   -0.879480   -2.865760
  O     -1.752130   -0.741530   -2.896280
  H     -2.036450   -0.920500   -1.984040
  H     -0.921210   -1.242140   -2.984230
  O     -0.885520    1.737840    0.052730
  H     -1.032320    2.090180   -0.841890
  H     -1.284090    0.839590    0.017130
  O      1.752130    0.741530   -2.896280
  H      2.036450    0.920500   -1.984040
  H      0.921210    1.242140   -2.984230

 Total Charge           Charge          ....    0
 Multiplicity           Mult            ....    1
 Number of Electrons    NEL             ....   40
 Basis Dimension        Dim             ....  172

ORBITAL ENERGIES
----------------

  NO   OCC          E(Eh)            E(eV)
   0   2.0000     -20.605372      -560.7007
   1   2.0000     -20.575443      -559.8863
   2   2.0000     -20.551458      -559.2336
   3   2.0000     -20.544091      -559.0331
   4   2.0000      -1.391107       -37.8539
   5   2.0000      -1.351149       -36.7666
   6   2.0000      -1.337477       -36.3946
   7   2.0000      -1.324028       -36.0286
   8   2.0000      -0.747772       -20.3479
   9   2.0000      -0.721257       -19.6264
  10   2.0000      -0.713444       -19.4138
  11   2.0000      -0.693685       -18.8761
  12   2.0000      -0.630617       -17.1600
  13   2.0000      -0.590430       -16.0664
  14   2.0000      -0.588832       -16.0229
  15   2.0000      -0.562855       -15.3161
  16   2.0000      -0.533581       -14.5195
  17   2.0000      -0.518048       -14.0968
  18   2.0000      -0.500940       -13.6313
  19   2.0000      -0.490828       -13.3561
  20   0.0000       0.085545         2.3278
  21   0.0000       0.132953         3.6178
  22   0.0000       0.149340         4.0637
  23   0.0000       0.171090         4.6556
  24   0.0000       0.201003         5.4696

MULLIKEN ATOMIC CHARGES
-----------------------
   0 O :   -0.738142
   1 H :    0.341961
   2 H :    0.378280
   3 O :   -0.710131
   4 H :    0.319687
   5 H :    0.365503
   6 O :   -0.673349
   7 H :    0.335280
   8 H :    0.337482
   9 O :   -0.683385
  10 H :    0.365801
  11 H :    0.361012
Sum of atomic charges:   -0.0000000

LOEWDIN ATOMIC CHARGES
----------------------
   0 O :   -0.339299
   1 H :    0.156153
   2 H :    0.144942
   3 O :   -0.348340
   4 H :    0.154077
   5 H :    0.148724
   6 O :   -0.333715
   7 H :    0.162381
   8 H :    0.170619
   9 O :   -0.268251
  10 H :    0.177536
  11 H :    0.175174

  Mayer bond orders larger than 0.100000
B(  0-O ,  1-H ) :   0.8480 B(  0-O ,  2-H ) :   0.7657 B(  3-O ,  4-H ) :   0.8615
B(  3-O ,  5-H ) :   0.8004 B(  6-O ,  7-H ) :   0.8525 B(  6-O ,  8-H ) :   0.8491
B(  9-O , 10-H ) :   0.8315 B(  9-O , 11-H ) :   0.8313

MP2 TOTAL ENERGY:     -305.274427933 Eh
FINAL SINGLE POINT ENERGY      -305.274427932789

DIPOLE MOMENT
-------------
                                X             Y             Z
Electronic contribution:      0.26467       0.24149      -0.01205
Nuclear contribution   :      0.22520      -0.14541      -0.03466
                        -----------------------------------------
Total Dipole Moment    :      0.48988       0.09607      -0.04671
                        -----------------------------------------
Magnitude (a.u.)       :      0.50139
Magnitude (Debye)      :      1.27443

Rotational constants in cm-1:     0.107437     0.065774     0.046972
Rotational constants in MHz :  3220.893160  1971.869645  1408.190746

                             ****ORCA TERMINATED NORMALLY****
TOTAL RUN TIME: 0 days 0 hours 0 minutes 18 seconds 602 msec
