                         Program Version 4.2.0 -  RELEASE  -
|  1> # 12mecn.remya.etal.2.mol4,8,11
|  2> ! MP2 def2-TZVP EnGrad TightSCF
|  3>
|  4> %pal
|  5>     nprocs 6
|  6> end
|  7>
|  8> %maxcore 8000
|  9>
| 10> %scf
| 11>     ConvForced true
| 12> end
| 13>
| 14> *xyz 0 1
| 15> C  -1.509690000  -0.693960000  -1.610140000
| 16> H  -1.327010000  -1.692700000  -2.017370000
| 17> H  -0.742170000  -0.000650000  -1.964400000
| 18> H  -2.491920000  -0.334310000  -1.929350000
| 19> C  -1.473570000  -0.748120000  -0.167200000
| 20> N  -1.447490000  -0.793720000   0.998938000
| 21> C   1.912641000  -2.468050000  -1.750510000
| 22> H   2.876947000  -2.793500000  -2.151200000
| 23> H   1.688016000  -1.463720000  -2.122170000
| 24> H   1.123460000  -3.154780000  -2.069590000
| 25> C   1.977850000  -2.444240000  -0.306900000
| 26> N   2.036566000  -2.426130000   0.858249000
| 27> C   4.214163000   3.378139000   1.593627000
| 28> H   3.242643000   3.657109000   2.012358000
| 29> H   4.969258000   4.086643000   1.941290000
| 30> H   4.482966000   2.372549000   1.931698000
| 31> C   4.130759000   3.388436000   0.150192000
| 32> N   4.050180000   3.381449000  -1.013420000
| 33> *
| 34>
| 35>                          ****END OF INPUT****

CARTESIAN COORDINATES (ANGSTROEM)
---------------------------------
  C     -1.509690   -0.693960   -1.610140
  H     -1.327010   -1.692700   -2.017370
  H     -0.742170   -0.000650   -1.964400
  H     -2.491920   -0.334310   -1.929350
  C     -1.473570   -0.748120   -0.167200
  N     -1.447490   -0.793720    0.998938
  C      1.912641   -2.468050   -1.750510
  H      2.876947   -2.793500   -2.151200
  H      1.688016   -1.463720   -2.122170
  H      1.123460   -3.154780   -2.069590
  C      1.977850   -2.444240   -0.306900
  N      2.036566   -2.426130    0.858249
  C      4.214163    3.378139    1.593627
  H      3.242643    3.657109    2.012358
  H      4.969258    4.086643    1.941290
  H      4.482966    2.372549    1.931698
  C      4.130759    3.388436    0.150192
  N      4.050180    3.381449   -1.013420

 Total Charge           Charge          ....    0
 Multiplicity           Mult            ....    1
 Number of Electrons    NEL             ....   66
 Basis Dimension        Dim             ....  333

ORBITAL ENERGIES
----------------

  NO   OCC          E(Eh)            E(eV)
   0   2.0000     -15.572552      -423.7507
   1   2.0000     -15.572038      -423.7367
   2   2.0000     -15.571975      -423.7350
   3   2.0000     -11.288840      -307.1850
   4   2.0000     -11.288469      -307.1749
   5   2.0000     -11.281770      -306.9926
   6   2.0000     -11.280406      -306.9554
   7   2.0000     -11.277550      -306.8777
   8   2.0000     -11.277384      -306.8732
   9   2.0000      -1.214638       -33.0520
  10   2.0000      -1.212921       -33.0053
  11   2.0000      -1.211837       -32.9758
  12   2.0000      -1.048051       -28.5189
  13   2.0000      -1.045050       -28.4372
  14   2.0000      -1.040969       -28.3262
  15   2.0000      -0.702915       -19.1273
  16   2.0000      -0.699879       -19.0447
  17   2.0000      -0.698130       -18.9971
  18   2.0000      -0.642525       -17.4840
  19   2.0000      -0.638341       -17.3701
  20   2.0000      -0.632935       -17.2230
  21   2.0000      -0.628663       -17.1068
  22   2.0000      -0.628561       -17.1040
  23   2.0000      -0.627814       -17.0837
  24   2.0000      -0.556449       -15.1418
  25   2.0000      -0.554362       -15.0850
  26   2.0000      -0.552408       -15.0318
  27   2.0000      -0.462223       -12.5777
  28   2.0000      -0.457697       -12.4546
  29   2.0000      -0.457478       -12.4486
  30   2.0000      -0.457214       -12.4414
  31   2.0000      -0.454584       -12.3699
  32   2.0000      -0.448563       -12.2060
  33   0.0000       0.097028         2.6403
  34   0.0000       0.122656         3.3376
  35   0.0000       0.143783         3.9125
  36   0.0000       0.150607         4.0982
  37   0.0000       0.156623         4.2619

MULLIKEN ATOMIC CHARGES
-----------------------
   0 C :   -0.289130
   1 H :    0.162814
   2 H :    0.173645
   3 H :    0.181937
   4 C :   -0.151228
   5 N :   -0.078141
   6 C :   -0.288243
   7 H :    0.182721
   8 H :    0.168300
   9 H :    0.167543
  10 C :   -0.151095
  11 N :   -0.079130
  12 C :   -0.278548
  13 H :    0.174426
  14 H :    0.170563
  15 H :    0.178379
  16 C :   -0.144716
  17 N :   -0.100098
Sum of atomic charges:   -0.0000000

LOEWDIN ATOMIC CHARGES
----------------------
   0 C :   -0.287488
   1 H :    0.148485
   2 H :    0.151634
   3 H :    0.154065
   4 C :   -0.224063
   5 N :    0.057331
   6 C :   -0.287145
   7 H :    0.154197
   8 H :    0.150089
   9 H :    0.149699
  10 C :   -0.223169
  11 N :    0.056363
  12 C :   -0.282245
  13 H :    0.154261
  14 H :    0.150801
  15 H :    0.155421
  16 C :   -0.217759
  17 N :    0.039524

  Mayer bond orders larger than 0.100000
B(  0-C ,  1-H ) :   0.9195 B(  0-C ,  2-H ) :   0.9220 B(  0-C ,  3-H ) :   0.9111
B(  0-C ,  4-C ) :   0.8955 B(  4-C ,  5-N ) :   2.8295 B(  6-C ,  7-H ) :   0.9105
B(  6-C ,  8-H ) :   0.9182 B(  6-C ,  9-H ) :   0.9229 B(  6-C , 10-C ) :   0.8972
B( 10-C , 11-N ) :   2.8308 B( 12-C , 13-H ) :   0.9149 B( 12-C , 14-H ) :   0.9166
B( 12-C , 15-H ) :   0.9140 B( 12-C , 16-C ) :   0.9033 B( 16-C , 17-N ) :   2.8422

MP2 TOTAL ENERGY:     -397.449597635 Eh
FINAL SINGLE POINT ENERGY      -397.449597635314

DIPOLE MOMENT
-------------
                                X             Y             Z
Electronic contribution:      0.05580      -0.05671       3.25955
Nuclear contribution   :     -0.06130       0.09326      -4.61606
                        -----------------------------------------
Total Dipole Moment    :     -0.00550       0.03655      -1.35651
                        -----------------------------------------
Magnitude (a.u.)       :      1.35701
Magnitude (Debye)      :      3.44926

Rotational constants in cm-1:     0.037521     0.013120     0.011849
Rotational constants in MHz :  1124.843368   393.340441   355.227882

                             ****ORCA TERMINATED NORMALLY****
TOTAL RUN TIME: 0 days 0 hours 2 minutes 49 seconds 732 msec
