                         Program Version 4.2.0 -  RELEASE  -
|  1> # 12mecn.remya.etal.2.mol1,7,9
|  2> ! MP2 def2-TZVP EnGrad TightSCF
|  3>
|  4> %pal
|  5>     nprocs 6
|  6> end
|  7>
|  8> %maxcore 8000
|  9>
| 10> %scf
| 11>     ConvForced true
| 12> end
| 13>
| 14> *xyz 0 1
| 15> C  -4.697980000  -0.249690000   1.746215000
| 16> H  -4.927570000   0.755530000   2.111799000
| 17> H  -3.709180000  -0.561560000   2.093253000
| 18> H  -5.432280000  -0.961520000   2.128066000
| 19> C  -4.714100000  -0.247110000   0.301670000
| 20> N  -4.729750000  -0.234960000  -0.865260000
| 21> C   1.502241000   0.651296000   1.710523000
| 22> H   1.309219000   1.637164000   2.143202000
| 23> H   2.493408000   0.297996000   2.009069000
| 24> H   0.746597000  -0.059850000   2.055508000
| 25> C   1.447974000   0.738517000   0.269805000
| 26> N   1.405612000   0.808047000  -0.894380000
| 27> C   0.923766000   4.000693000  -1.575910000
| 28> H   0.011949000   4.478423000  -1.939550000
| 29> H   0.947903000   2.966558000  -1.929960000
| 30> H   1.805950000   4.519548000  -1.956520000
| 31> C   0.942834000   3.994846000  -0.131200000
| 32> N   0.960035000   3.982544000   1.035639000
| 33> *
| 34>
| 35>                          ****END OF INPUT****

CARTESIAN COORDINATES (ANGSTROEM)
---------------------------------
  C     -4.697980   -0.249690    1.746215
  H     -4.927570    0.755530    2.111799
  H     -3.709180   -0.561560    2.093253
  H     -5.432280   -0.961520    2.128066
  C     -4.714100   -0.247110    0.301670
  N     -4.729750   -0.234960   -0.865260
  C      1.502241    0.651296    1.710523
  H      1.309219    1.637164    2.143202
  H      2.493408    0.297996    2.009069
  H      0.746597   -0.059850    2.055508
  C      1.447974    0.738517    0.269805
  N      1.405612    0.808047   -0.894380
  C      0.923766    4.000693   -1.575910
  H      0.011949    4.478423   -1.939550
  H      0.947903    2.966558   -1.929960
  H      1.805950    4.519548   -1.956520
  C      0.942834    3.994846   -0.131200
  N      0.960035    3.982544    1.035639

 Total Charge           Charge          ....    0
 Multiplicity           Mult            ....    1
 Number of Electrons    NEL             ....   66
 Basis Dimension        Dim             ....  333

ORBITAL ENERGIES
----------------

  NO   OCC          E(Eh)            E(eV)
   0   2.0000     -15.573179      -423.7677
   1   2.0000     -15.571713      -423.7279
   2   2.0000     -15.569098      -423.6567
   3   2.0000     -11.285666      -307.0986
   4   2.0000     -11.283464      -307.0387
   5   2.0000     -11.281233      -306.9780
   6   2.0000     -11.279951      -306.9431
   7   2.0000     -11.275774      -306.8294
   8   2.0000     -11.267971      -306.6171
   9   2.0000      -1.217561       -33.1315
  10   2.0000      -1.214197       -33.0400
  11   2.0000      -1.212549       -32.9951
  12   2.0000      -1.044775       -28.4298
  13   2.0000      -1.038657       -28.2633
  14   2.0000      -1.032189       -28.0873
  15   2.0000      -0.700632       -19.0652
  16   2.0000      -0.695167       -18.9165
  17   2.0000      -0.689506       -18.7624
  18   2.0000      -0.634785       -17.2734
  19   2.0000      -0.630838       -17.1660
  20   2.0000      -0.630790       -17.1647
  21   2.0000      -0.625965       -17.0334
  22   2.0000      -0.621324       -16.9071
  23   2.0000      -0.613984       -16.7074
  24   2.0000      -0.558313       -15.1925
  25   2.0000      -0.555612       -15.1190
  26   2.0000      -0.555076       -15.1044
  27   2.0000      -0.460489       -12.5305
  28   2.0000      -0.459497       -12.5036
  29   2.0000      -0.457595       -12.4518
  30   2.0000      -0.457066       -12.4374
  31   2.0000      -0.455541       -12.3959
  32   2.0000      -0.453076       -12.3288
  33   0.0000       0.106485         2.8976
  34   0.0000       0.132089         3.5943
  35   0.0000       0.141612         3.8535
  36   0.0000       0.164899         4.4871
  37   0.0000       0.170628         4.6430

MULLIKEN ATOMIC CHARGES
-----------------------
   0 C :   -0.277387
   1 H :    0.173811
   2 H :    0.167484
   3 H :    0.172284
   4 C :   -0.145547
   5 N :   -0.090644
   6 C :   -0.285618
   7 H :    0.205180
   8 H :    0.167775
   9 H :    0.161391
  10 C :   -0.095727
  11 N :   -0.151463
  12 C :   -0.283710
  13 H :    0.166989
  14 H :    0.208306
  15 H :    0.164779
  16 C :   -0.107470
  17 N :   -0.150431
Sum of atomic charges:    0.0000000

LOEWDIN ATOMIC CHARGES
----------------------
   0 C :   -0.283880
   1 H :    0.153400
   2 H :    0.151603
   3 H :    0.151568
   4 C :   -0.219976
   5 N :    0.047284
   6 C :   -0.281865
   7 H :    0.156969
   8 H :    0.152833
   9 H :    0.150270
  10 C :   -0.207484
  11 N :    0.033283
  12 C :   -0.282162
  13 H :    0.150785
  14 H :    0.157930
  15 H :    0.151489
  16 C :   -0.208385
  17 N :    0.026337

  Mayer bond orders larger than 0.100000
B(  0-C ,  1-H ) :   0.9157 B(  0-C ,  2-H ) :   0.9176 B(  0-C ,  3-H ) :   0.9172
B(  0-C ,  4-C ) :   0.9018 B(  4-C ,  5-N ) :   2.8355 B(  6-C ,  7-H ) :   0.9028
B(  6-C ,  8-H ) :   0.9155 B(  6-C ,  9-H ) :   0.9175 B(  6-C , 10-C ) :   0.8999
B( 10-C , 11-N ) :   2.7615 B( 12-C , 13-H ) :   0.9151 B( 12-C , 14-H ) :   0.9003
B( 12-C , 15-H ) :   0.9147 B( 12-C , 16-C ) :   0.9029 B( 16-C , 17-N ) :   2.7837

MP2 TOTAL ENERGY:     -397.458951556 Eh
FINAL SINGLE POINT ENERGY      -397.458951556455

DIPOLE MOMENT
-------------
                                X             Y             Z
Electronic contribution:     -0.12651       0.21158      -3.13658
Nuclear contribution   :      0.18428      -0.33292       4.61234
                        -----------------------------------------
Total Dipole Moment    :      0.05777      -0.12135       1.47577
                        -----------------------------------------
Magnitude (a.u.)       :      1.48187
Magnitude (Debye)      :      3.76662

Rotational constants in cm-1:     0.044630     0.012882     0.011937
Rotational constants in MHz :  1337.963723   386.183422   357.876031

                             ****ORCA TERMINATED NORMALLY****
TOTAL RUN TIME: 0 days 0 hours 3 minutes 0 seconds 122 msec
