                         Program Version 4.2.0 -  RELEASE  -
|  1> # 12meoh.boyd.etal.mol3,9,10
|  2> ! MP2 def2-TZVP EnGrad TightSCF
|  3>
|  4> %pal
|  5>     nprocs 6
|  6> end
|  7>
|  8> %maxcore 8000
|  9>
| 10> %scf
| 11>     ConvForced true
| 12> end
| 13>
| 14> *xyz 0 1
| 15> O  -3.821405976  -2.118091637   0.596795346
| 16> H  -4.342989117  -1.344303030   0.251966383
| 17> C  -3.443883586  -1.809641231   1.934889393
| 18> H  -2.831494349  -2.637429600   2.305201764
| 19> H  -4.325601146  -1.719364371   2.585074667
| 20> H  -2.858527126  -0.882644791   1.996110694
| 21> O   1.390610024   3.194080770  -1.536658882
| 22> H   2.162932299   2.881562730  -0.993525056
| 23> C   1.202977189   4.580367182  -1.302880219
| 24> H   0.374773115   4.915764831  -1.934164643
| 25> H   2.098649340   5.157710875  -1.570472348
| 26> H   0.950320401   4.800436015  -0.254328827
| 27> O  -5.201143618   0.064582726  -0.172223772
| 28> H  -4.686891530   0.869258890   0.107806143
| 29> C  -6.513192168   0.171391798   0.359883449
| 30> H  -7.049381312  -0.749234190   0.111361174
| 31> H  -7.057741163   1.017801101  -0.081819420
| 32> H  -6.514770575   0.292264928   1.453058834
| 33> *
| 34>
| 35>                          ****END OF INPUT****

CARTESIAN COORDINATES (ANGSTROEM)
---------------------------------
  O     -3.821406   -2.118092    0.596795
  H     -4.342989   -1.344303    0.251966
  C     -3.443884   -1.809641    1.934889
  H     -2.831494   -2.637430    2.305202
  H     -4.325601   -1.719364    2.585075
  H     -2.858527   -0.882645    1.996111
  O      1.390610    3.194081   -1.536659
  H      2.162932    2.881563   -0.993525
  C      1.202977    4.580367   -1.302880
  H      0.374773    4.915765   -1.934165
  H      2.098649    5.157711   -1.570472
  H      0.950320    4.800436   -0.254329
  O     -5.201144    0.064583   -0.172224
  H     -4.686892    0.869259    0.107806
  C     -6.513192    0.171392    0.359883
  H     -7.049381   -0.749234    0.111361
  H     -7.057741    1.017801   -0.081819
  H     -6.514771    0.292265    1.453059

 Total Charge           Charge          ....    0
 Multiplicity           Mult            ....    1
 Number of Electrons    NEL             ....   54
 Basis Dimension        Dim             ....  258

ORBITAL ENERGIES
----------------

  NO   OCC          E(Eh)            E(eV)
   0   2.0000     -20.589939      -560.2807
   1   2.0000     -20.558695      -559.4305
   2   2.0000     -20.513899      -558.2116
   3   2.0000     -11.290229      -307.2228
   4   2.0000     -11.273283      -306.7616
   5   2.0000     -11.252244      -306.1891
   6   2.0000      -1.383980       -37.6600
   7   2.0000      -1.349417       -36.7195
   8   2.0000      -1.310763       -35.6677
   9   2.0000      -0.941966       -25.6322
  10   2.0000      -0.921147       -25.0657
  11   2.0000      -0.897615       -24.4253
  12   2.0000      -0.715207       -19.4618
  13   2.0000      -0.684173       -18.6173
  14   2.0000      -0.675726       -18.3874
  15   2.0000      -0.633082       -17.2270
  16   2.0000      -0.618658       -16.8345
  17   2.0000      -0.611246       -16.6328
  18   2.0000      -0.593754       -16.1569
  19   2.0000      -0.593497       -16.1499
  20   2.0000      -0.561665       -15.2837
  21   2.0000      -0.527146       -14.3444
  22   2.0000      -0.500733       -13.6256
  23   2.0000      -0.488988       -13.3060
  24   2.0000      -0.456735       -12.4284
  25   2.0000      -0.449970       -12.2443
  26   2.0000      -0.417835       -11.3699
  27   0.0000       0.114907         3.1268
  28   0.0000       0.133913         3.6440
  29   0.0000       0.159176         4.3314
  30   0.0000       0.173920         4.7326
  31   0.0000       0.176977         4.8158

MULLIKEN ATOMIC CHARGES
-----------------------
   0 O :   -0.525057
   1 H :    0.359120
   2 C :   -0.183120
   3 H :    0.126256
   4 H :    0.095341
   5 H :    0.092031
   6 O :   -0.495922
   7 H :    0.322746
   8 C :   -0.171510
   9 H :    0.128462
  10 H :    0.109737
  11 H :    0.106487
  12 O :   -0.512635
  13 H :    0.341663
  14 C :   -0.192507
  15 H :    0.148372
  16 H :    0.126753
  17 H :    0.123783
Sum of atomic charges:   -0.0000000

LOEWDIN ATOMIC CHARGES
----------------------
   0 O :   -0.121253
   1 H :    0.159184
   2 C :   -0.399088
   3 H :    0.107284
   4 H :    0.089323
   5 H :    0.088341
   6 O :   -0.105066
   7 H :    0.191101
   8 C :   -0.386276
   9 H :    0.110216
  10 H :    0.095497
  11 H :    0.094528
  12 O :   -0.069348
  13 H :    0.200324
  14 C :   -0.377053
  15 H :    0.117508
  16 H :    0.104139
  17 H :    0.100639

  Mayer bond orders larger than 0.100000
B(  0-O ,  1-H ) :   0.7924 B(  0-O ,  2-C ) :   0.9462 B(  2-C ,  3-H ) :   0.9432
B(  2-C ,  4-H ) :   0.9370 B(  2-C ,  5-H ) :   0.9389 B(  6-O ,  7-H ) :   0.8411
B(  6-O ,  8-C ) :   0.9290 B(  8-C ,  9-H ) :   0.9375 B(  8-C , 10-H ) :   0.9402
B(  8-C , 11-H ) :   0.9372 B( 12-O , 13-H ) :   0.8279 B( 12-O , 14-C ) :   0.8732
B( 14-C , 15-H ) :   0.9389 B( 14-C , 16-H ) :   0.9352 B( 14-C , 17-H ) :   0.9367

MP2 TOTAL ENERGY:     -346.528509230 Eh
FINAL SINGLE POINT ENERGY      -346.528509229820

DIPOLE MOMENT
-------------
                                X             Y             Z
Electronic contribution:      1.09076      -2.30960      -2.97727
Nuclear contribution   :     -1.32744       4.04542       3.93394
                        -----------------------------------------
Total Dipole Moment    :     -0.23667       1.73581       0.95666
                        -----------------------------------------
Magnitude (a.u.)       :      1.99606
Magnitude (Debye)      :      5.07359

Rotational constants in cm-1:     0.077855     0.011951     0.010721
Rotational constants in MHz :  2334.029487   358.269771   321.410356

                             ****ORCA TERMINATED NORMALLY****
TOTAL RUN TIME: 0 days 0 hours 0 minutes 56 seconds 559 msec
