                         Program Version 3.0.3 - RELEASE   -
|  1> ! BP86 Def2-SVP TightSCF Opt D3BJ COSMO
|  2>
|  3> %pal nprocs 12 end
|  4>
|  5> %scf
|  6>         maxiter 800
|  7> end
|  8>
|  9> %cosmo
| 10> 	SMD true
| 11>         solvent "WATER"
| 12> end
| 13>
| 14> * xyz  0  1
| 15> O  3.15463791	0.59793845	-3.39891905
| 16> H  3.60724615	0.05700830	-2.75179294
| 17> H  3.85764545	1.01132843	-3.90003877
| 18> O  -2.37871365	0.18351347	-0.34492327
| 19> H  -2.01736819	-0.44906986	0.27596291
| 20> H  -3.18616006	0.49028819	0.06757088
| 21> O  -0.45992731	-0.53996764	-2.23615654
| 22> H  -1.29525274	-0.31650353	-1.82563604
| 23> H  0.11142490	0.20170045	-2.03686544
| 24> O  1.48212186	-1.54822893	-3.97730513
| 25> H  0.65813416	-1.25085998	-3.59149711
| 26> H  2.04669968	-0.77539811	-3.96259954
| 27> O  2.58728771	-3.22545595	-2.18272544
| 28> H  2.20066090	-2.71471709	-2.89399008
| 29> H  2.81351629	-4.06408006	-2.58492201
| 30> O  -4.31124643	1.17272419	1.36986588
| 31> H  -5.19817631	1.53095552	1.33440402
| 32> H  -3.76818398	1.90491621	1.66177317
| 33> O  0.40374088	0.72023890	2.26476654
| 34> H  -0.04098355	0.98646023	3.06948900
| 35> H  0.08627244	1.33274454	1.60122870
| 36> O  -3.08935115	-0.45007597	3.27544894
| 37> H  -2.53096326	-1.00726148	2.73325053
| 38> H  -3.65446983	0.00405992	2.65044229
| 39> O  -1.42552783	1.45243494	4.20677119
| 40> H  -2.03891301	0.75242253	3.98322455
| 41> H  -1.48216331	1.52598343	5.15945944
| 42> O  1.32520829	1.36946595	-1.47026663
| 43> H  1.94560311	1.32236042	-2.19767518
| 44> H  1.73824522	0.86490110	-0.76951941
| 45> O  -2.54335434	3.02761320	2.20002596
| 46> H  -1.85736019	3.01536448	1.53257272
| 47> H  -2.13175815	2.64372592	2.97426816
| 48> O  -1.14384807	-1.39057354	1.49721207
| 49> H  -0.54810070	-0.72342630	1.83813944
| 50> H  -0.58904848	-1.95542797	0.95928202
| 51> O  -0.67845193	2.22446219	0.27421931
| 52> H  0.00720728	2.22167979	-0.39368453
| 53> H  -1.31221692	1.57471176	-0.02975136
| 54> O  4.14080986	-1.02483562	-1.48866489
| 55> H  3.72534940	-0.75502908	-0.66962344
| 56> H  3.75877781	-1.88120011	-1.68081906
| 57> O  2.28033998	-0.29305493	0.46656043
| 58> H  1.87478785	0.05131003	1.26228154
| 59> H  1.74448264	-1.05096549	0.23276494
| 60> O  0.65010945	-2.27337344	-0.44991018
| 61> H  1.28211425	-2.79936921	-0.93994102
| 62> H  0.20248228	-1.75298100	-1.11703347
| 63> **                         ****END OF INPUT****
 Total Charge           Charge          ....    0
 Multiplicity           Mult            ....    1
 Number of Electrons    NEL             ....  160
Dispersion correction           -0.054977853
FINAL SINGLE POINT ENERGY     -1222.247460862955
Dispersion correction            ...
Dispersion correction           -0.054286197
FINAL SINGLE POINT ENERGY     -1222.278230134729
Dispersion correction            ...
Dispersion correction           -0.054517058
FINAL SINGLE POINT ENERGY     -1222.301308797183
Dispersion correction            ...
FINAL SINGLE POINT ENERGY     -1222.290867967634
FINAL SINGLE POINT ENERGY     -1222.293617817589
FINAL SINGLE POINT ENERGY     -1222.295882892593
FINAL SINGLE POINT ENERGY     -1222.310890928351
FINAL SINGLE POINT ENERGY     -1222.298714853990
FINAL SINGLE POINT ENERGY     -1222.299358690105
FINAL SINGLE POINT ENERGY     -1222.299632442813
FINAL SINGLE POINT ENERGY     -1222.301361519940
FINAL SINGLE POINT ENERGY     -1222.301419344553
FINAL SINGLE POINT ENERGY     -1222.301458642335
FINAL SINGLE POINT ENERGY     -1222.301493618349
FINAL SINGLE POINT ENERGY     -1222.301527641212
FINAL SINGLE POINT ENERGY     -1222.301528264674
FINAL SINGLE POINT ENERGY     -1222.301542426572
Dispersion correction            ...
Dispersion correction           -0.058725418
FINAL SINGLE POINT ENERGY     -1222.301548658734
Dispersion correction            ...
Dispersion correction           -0.058745677
FINAL SINGLE POINT ENERGY     -1222.301545992819
Dispersion correction            ...
                    ***********************HURRAY********************

CARTESIAN COORDINATES (ANGSTROEM)
---------------------------------
  O      2.977341    0.489693   -3.205878
  H      3.528710   -0.055441   -2.529114
  H      3.629450    0.954601   -3.766431
  O     -2.273188    0.162113   -0.364300
  H     -1.888217   -0.478696    0.321953
  H     -3.107813    0.495344    0.091239
  O     -0.445418   -0.522865   -2.178003
  H     -1.313523   -0.280216   -1.749617
  H      0.164157    0.251138   -1.929342
  O      1.355796   -1.528856   -3.976995
  H      0.533506   -1.225025   -3.507289
  H      1.966421   -0.740173   -3.864601
  O      2.454356   -2.984926   -2.104644
  H      2.025701   -2.503557   -2.906112
  H      2.687614   -3.878778   -2.423986
  O     -4.032152    1.105904    1.353734
  H     -4.963187    1.382413    1.242553
  H     -3.517873    1.952186    1.629813
  O      0.436064    0.684206    2.183569
  H     -0.071243    0.955736    3.009811
  H      0.064816    1.318632    1.485165
  O     -3.041351   -0.562957    3.242450
  H     -2.418265   -1.083965    2.668705
  H     -3.555075   -0.016559    2.575793
  O     -1.431523    1.378627    3.922645
  H     -2.074529    0.588891    3.778455
  H     -1.400133    1.530848    4.887836
  O      1.262323    1.356098   -1.391725
  H      1.919291    1.282775   -2.151295
  H      1.698194    0.792697   -0.668204
  O     -2.485083    3.074032    2.103536
  H     -1.784023    3.001856    1.402701
  H     -2.080531    2.571646    2.872961
  O     -1.107105   -1.363190    1.484579
  H     -0.471806   -0.635935    1.799773
  H     -0.528391   -1.948480    0.920894
  O     -0.666249    2.181643    0.267507
  H      0.048303    2.177409   -0.428142
  H     -1.306953    1.455405   -0.039522
  O      4.135384   -0.992415   -1.396222
  H      3.656733   -0.690059   -0.579304
  H      3.653220   -1.840691   -1.629643
  O      2.247959   -0.281400    0.458334
  H      1.837374    0.063949    1.297571
  H      1.644271   -1.058916    0.205554
  O      0.610160   -2.189593   -0.389214
  H      1.267647   -2.727147   -0.930797
  H      0.162207   -1.619543   -1.100028

 Multiplicity           Mult            ....    1
 Number of Electrons    NEL             ....  160
 Basis Dimension        Dim             ....  384

ORBITAL ENERGIES
----------------

  NO   OCC          E(Eh)            E(eV)
   0   2.0000     -18.783723      -511.1311
   1   2.0000     -18.783564      -511.1267
   2   2.0000     -18.783253      -511.1183
   3   2.0000     -18.783089      -511.1138
   4   2.0000     -18.776797      -510.9426
   5   2.0000     -18.776515      -510.9349
   6   2.0000     -18.776468      -510.9337
   7   2.0000     -18.776446      -510.9331
   8   2.0000     -18.773777      -510.8604
   9   2.0000     -18.773617      -510.8561
  10   2.0000     -18.773547      -510.8542
  11   2.0000     -18.773517      -510.8534
  12   2.0000     -18.768476      -510.7162
  13   2.0000     -18.768345      -510.7126
  14   2.0000     -18.768220      -510.7092
  15   2.0000     -18.767897      -510.7004
  16   2.0000      -0.930252       -25.3134
  17   2.0000      -0.922225       -25.0950
  18   2.0000      -0.912214       -24.8226
  19   2.0000      -0.911071       -24.7915
  20   2.0000      -0.910562       -24.7777
  21   2.0000      -0.903629       -24.5890
  22   2.0000      -0.902970       -24.5711
  23   2.0000      -0.902587       -24.5606
  24   2.0000      -0.891095       -24.2479
  25   2.0000      -0.890573       -24.2337
  26   2.0000      -0.888423       -24.1752
  27   2.0000      -0.883412       -24.0389
  28   2.0000      -0.882852       -24.0236
  29   2.0000      -0.882239       -24.0069
  30   2.0000      -0.873146       -23.7595
  31   2.0000      -0.864334       -23.5197
  32   2.0000      -0.484624       -13.1873
  33   2.0000      -0.483934       -13.1685
  34   2.0000      -0.482890       -13.1401
  35   2.0000      -0.481403       -13.0997
  36   2.0000      -0.478388       -13.0176
  37   2.0000      -0.473014       -12.8714
  38   2.0000      -0.472508       -12.8576
  39   2.0000      -0.470268       -12.7966
  40   2.0000      -0.462488       -12.5849
  41   2.0000      -0.459734       -12.5100
  42   2.0000      -0.459544       -12.5048
  43   2.0000      -0.455415       -12.3925
  44   2.0000      -0.454340       -12.3632
  45   2.0000      -0.450778       -12.2663
  46   2.0000      -0.450125       -12.2485
  47   2.0000      -0.448703       -12.2098
  48   2.0000      -0.414770       -11.2865
  49   2.0000      -0.393229       -10.7003
  50   2.0000      -0.377740       -10.2788
  51   2.0000      -0.376355       -10.2411
  52   2.0000      -0.366030        -9.9602
  53   2.0000      -0.361112        -9.8264
  54   2.0000      -0.355280        -9.6677
  55   2.0000      -0.353940        -9.6312
  56   2.0000      -0.337478        -9.1833
  57   2.0000      -0.335696        -9.1347
  58   2.0000      -0.334155        -9.0928
  59   2.0000      -0.333801        -9.0832
  60   2.0000      -0.317263        -8.6332
  61   2.0000      -0.313362        -8.5270
  62   2.0000      -0.305390        -8.3101
  63   2.0000      -0.289385        -7.8746
  64   2.0000      -0.271468        -7.3870
  65   2.0000      -0.269536        -7.3344
  66   2.0000      -0.269134        -7.3235
  67   2.0000      -0.268825        -7.3151
  68   2.0000      -0.267638        -7.2828
  69   2.0000      -0.265366        -7.2210
  70   2.0000      -0.264859        -7.2072
  71   2.0000      -0.263956        -7.1826
  72   2.0000      -0.263324        -7.1654
  73   2.0000      -0.261906        -7.1268
  74   2.0000      -0.260308        -7.0834
  75   2.0000      -0.257670        -7.0116
  76   2.0000      -0.256944        -6.9918
  77   2.0000      -0.255933        -6.9643
  78   2.0000      -0.255802        -6.9607
  79   2.0000      -0.254683        -6.9303
  80   0.0000       0.012280         0.3342
  81   0.0000       0.034980         0.9519
  82   0.0000       0.061286         1.6677
  83   0.0000       0.061682         1.6785
  84   0.0000       0.069756         1.8981

MULLIKEN ATOMIC CHARGES
-----------------------
   0 O :   -0.331447
   1 H :    0.164966
   2 H :    0.228373
   3 O :   -0.345276
   4 H :    0.138567
   5 H :    0.180487
   6 O :   -0.337575
   7 H :    0.186265
   8 H :    0.135672
   9 O :   -0.355187
  10 H :    0.173317
  11 H :    0.159035
  12 O :   -0.333278
  13 H :    0.165024
  14 H :    0.229370
  15 O :   -0.331396
  16 H :    0.229836
  17 H :    0.164075
  18 O :   -0.343400
  19 H :    0.175790
  20 H :    0.137246
  21 O :   -0.353679
  22 H :    0.173228
  23 H :    0.161149
  24 O :   -0.328120
  25 H :    0.162050
  26 H :    0.229643
  27 O :   -0.344323
  28 H :    0.178680
  29 H :    0.138095
  30 O :   -0.355380
  31 H :    0.172066
  32 H :    0.159862
  33 O :   -0.337603
  34 H :    0.138006
  35 H :    0.187379
  36 O :   -0.337521
  37 H :    0.187367
  38 H :    0.136353
  39 O :   -0.355632
  40 H :    0.172914
  41 H :    0.163512
  42 O :   -0.335348
  43 H :    0.187557
  44 H :    0.138358
  45 O :   -0.344616
  46 H :    0.179238
  47 H :    0.136296
Sum of atomic charges:   -0.0000000

LOEWDIN ATOMIC CHARGES
----------------------
   0 O :   -0.076380
   1 H :    0.038647
   2 H :    0.116212
   3 O :   -0.104766
   4 H :    0.030019
   5 H :    0.044705
   6 O :   -0.102039
   7 H :    0.054478
   8 H :    0.029308
   9 O :   -0.128303
  10 H :    0.052051
  11 H :    0.040989
  12 O :   -0.076199
  13 H :    0.039339
  14 H :    0.116623
  15 O :   -0.074031
  16 H :    0.117165
  17 H :    0.039499
  18 O :   -0.107522
  19 H :    0.044794
  20 H :    0.029942
  21 O :   -0.126807
  22 H :    0.051778
  23 H :    0.041446
  24 O :   -0.073277
  25 H :    0.039116
  26 H :    0.116833
  27 O :   -0.106015
  28 H :    0.045435
  29 H :    0.029445
  30 O :   -0.128285
  31 H :    0.051217
  32 H :    0.040140
  33 O :   -0.100857
  34 H :    0.029668
  35 H :    0.056021
  36 O :   -0.102115
  37 H :    0.055700
  38 H :    0.029062
  39 O :   -0.125439
  40 H :    0.052179
  41 H :    0.042389
  42 O :   -0.099172
  43 H :    0.057375
  44 H :    0.029668
  45 O :   -0.105276
  46 H :    0.045658
  47 H :    0.029583

  Mayer bond orders larger than 0.1
B(  0-O ,  1-H ) :   0.8014 B(  0-O ,  2-H ) :   0.9546 B(  0-O , 11-H ) :   0.1998
B(  0-O , 28-H ) :   0.2038 B(  1-H , 39-O ) :   0.2747 B(  3-O ,  4-H ) :   0.8339
B(  3-O ,  5-H ) :   0.8566 B(  3-O ,  7-H ) :   0.1634 B(  3-O , 38-H ) :   0.2552
B(  4-H , 33-O ) :   0.2497 B(  5-H , 15-O ) :   0.2077 B(  6-O ,  7-H ) :   0.8861
B(  6-O ,  8-H ) :   0.8273 B(  6-O , 10-H ) :   0.1500 B(  6-O , 47-H ) :   0.2497
B(  8-H , 27-O ) :   0.2575 B(  9-O , 10-H ) :   0.9123 B(  9-O , 11-H ) :   0.8843
B(  9-O , 13-H ) :   0.2751 B( 12-O , 13-H ) :   0.8014 B( 12-O , 14-H ) :   0.9538
B( 12-O , 41-H ) :   0.1963 B( 12-O , 46-H ) :   0.2047 B( 15-O , 16-H ) :   0.9535
B( 15-O , 17-H ) :   0.8025 B( 15-O , 23-H ) :   0.1965 B( 17-H , 30-O ) :   0.2761
B( 18-O , 19-H ) :   0.8606 B( 18-O , 20-H ) :   0.8363 B( 18-O , 34-H ) :   0.2562
B( 18-O , 43-H ) :   0.1560 B( 19-H , 24-O ) :   0.2064 B( 20-H , 36-O ) :   0.2491
B( 21-O , 22-H ) :   0.9133 B( 21-O , 23-H ) :   0.8852 B( 21-O , 25-H ) :   0.2774
B( 22-H , 33-O ) :   0.1489 B( 24-O , 25-H ) :   0.8025 B( 24-O , 26-H ) :   0.9541
B( 24-O , 32-H ) :   0.2008 B( 27-O , 28-H ) :   0.8603 B( 27-O , 29-H ) :   0.8332
B( 27-O , 37-H ) :   0.1577 B( 29-H , 42-O ) :   0.2477 B( 30-O , 31-H ) :   0.9148
B( 30-O , 32-H ) :   0.8823 B( 31-H , 36-O ) :   0.1494 B( 33-O , 34-H ) :   0.8276
B( 33-O , 35-H ) :   0.8889 B( 35-H , 45-O ) :   0.1590 B( 36-O , 37-H ) :   0.8893
B( 36-O , 38-H ) :   0.8274 B( 39-O , 40-H ) :   0.9133 B( 39-O , 41-H ) :   0.8845
B( 40-H , 42-O ) :   0.1496 B( 42-O , 43-H ) :   0.8917 B( 42-O , 44-H ) :   0.8277
B( 44-H , 45-O ) :   0.2569 B( 45-O , 46-H ) :   0.8590 B( 45-O , 47-H ) :   0.8327

Dispersion correction           -0.058761256
FINAL SINGLE POINT ENERGY     -1222.301552175187

DIPOLE MOMENT
-------------
                                X             Y             Z
Electronic contribution:      0.00213      -0.02090       0.02438
Nuclear contribution   :      0.00951      -0.01655      -0.02614
                        -----------------------------------------
Total Dipole Moment    :      0.01164      -0.03746      -0.00176
                        -----------------------------------------
Magnitude (a.u.)       :      0.03927
Magnitude (Debye)      :      0.09980

                             ****ORCA TERMINATED NORMALLY****
TOTAL RUN TIME: 0 days 0 hours 36 minutes 49 seconds 884 msec
