                         Program Version 4.2.0 -  RELEASE  -
|  1> # 12h2o.su.etal.mol2,3,4,6,7,9,11
|  2> ! MP2 def2-TZVP EnGrad TightSCF
|  3>
|  4> %pal
|  5>     nprocs 6
|  6> end
|  7>
|  8> %maxcore 8000
|  9>
| 10> %scf
| 11>     ConvForced true
| 12> end
| 13>
| 14> *xyz 0 1
| 15> O   0.923410000  -1.794470000  -2.768350000
| 16> H   1.359750000  -2.338250000  -3.430940000
| 17> H   1.303000000  -0.879480000  -2.865760000
| 18> O  -1.752130000  -0.741530000  -2.896280000
| 19> H  -2.036450000  -0.920500000  -1.984040000
| 20> H  -0.921210000  -1.242140000  -2.984230000
| 21> O  -0.885520000   1.737840000   0.052730000
| 22> H  -1.032320000   2.090180000  -0.841890000
| 23> H  -1.284090000   0.839590000   0.017130000
| 24> O   1.737840000   0.885520000  -0.052730000
| 25> H   2.090180000   1.032320000   0.841890000
| 26> H   0.839590000   1.284090000  -0.017130000
| 27> O  -1.737840000  -0.885520000  -0.052730000
| 28> H  -2.090180000  -1.032320000   0.841890000
| 29> H  -0.839590000  -1.284090000  -0.017130000
| 30> O   0.741530000  -1.752130000   2.896280000
| 31> H   0.920500000  -2.036450000   1.984040000
| 32> H   1.242140000  -0.921210000   2.984230000
| 33> O  -0.741530000   1.752130000   2.896280000
| 34> H  -0.920500000   2.036450000   1.984040000
| 35> H  -1.242140000   0.921210000   2.984230000
| 36> *
| 37>
| 38>                          ****END OF INPUT****

CARTESIAN COORDINATES (ANGSTROEM)
---------------------------------
  O      0.923410   -1.794470   -2.768350
  H      1.359750   -2.338250   -3.430940
  H      1.303000   -0.879480   -2.865760
  O     -1.752130   -0.741530   -2.896280
  H     -2.036450   -0.920500   -1.984040
  H     -0.921210   -1.242140   -2.984230
  O     -0.885520    1.737840    0.052730
  H     -1.032320    2.090180   -0.841890
  H     -1.284090    0.839590    0.017130
  O      1.737840    0.885520   -0.052730
  H      2.090180    1.032320    0.841890
  H      0.839590    1.284090   -0.017130
  O     -1.737840   -0.885520   -0.052730
  H     -2.090180   -1.032320    0.841890
  H     -0.839590   -1.284090   -0.017130
  O      0.741530   -1.752130    2.896280
  H      0.920500   -2.036450    1.984040
  H      1.242140   -0.921210    2.984230
  O     -0.741530    1.752130    2.896280
  H     -0.920500    2.036450    1.984040
  H     -1.242140    0.921210    2.984230

 Total Charge           Charge          ....    0
 Multiplicity           Mult            ....    1
 Number of Electrons    NEL             ....   70
 Basis Dimension        Dim             ....  301

ORBITAL ENERGIES
----------------

  NO   OCC          E(Eh)            E(eV)
   0   2.0000     -20.627709      -561.3085
   1   2.0000     -20.592394      -560.3475
   2   2.0000     -20.588804      -560.2498
   3   2.0000     -20.579035      -559.9840
   4   2.0000     -20.550017      -559.1944
   5   2.0000     -20.546428      -559.0967
   6   2.0000     -20.525555      -558.5287
   7   2.0000      -1.411405       -38.4063
   8   2.0000      -1.376423       -37.4544
   9   2.0000      -1.370104       -37.2824
  10   2.0000      -1.357908       -36.9506
  11   2.0000      -1.331627       -36.2354
  12   2.0000      -1.326854       -36.1055
  13   2.0000      -1.310735       -35.6669
  14   2.0000      -0.767983       -20.8979
  15   2.0000      -0.745920       -20.2975
  16   2.0000      -0.737210       -20.0605
  17   2.0000      -0.720708       -19.6115
  18   2.0000      -0.704719       -19.1764
  19   2.0000      -0.699358       -19.0305
  20   2.0000      -0.692283       -18.8380
  21   2.0000      -0.648813       -17.6551
  22   2.0000      -0.624819       -17.0022
  23   2.0000      -0.607311       -16.5258
  24   2.0000      -0.595770       -16.2117
  25   2.0000      -0.582555       -15.8521
  26   2.0000      -0.572426       -15.5765
  27   2.0000      -0.558294       -15.1920
  28   2.0000      -0.550145       -14.9702
  29   2.0000      -0.527076       -14.3425
  30   2.0000      -0.525465       -14.2986
  31   2.0000      -0.523250       -14.2384
  32   2.0000      -0.496193       -13.5021
  33   2.0000      -0.494094       -13.4450
  34   2.0000      -0.475141       -12.9292
  35   0.0000       0.071366         1.9420
  36   0.0000       0.114021         3.1027
  37   0.0000       0.125868         3.4251
  38   0.0000       0.138041         3.7563
  39   0.0000       0.153855         4.1866

MULLIKEN ATOMIC CHARGES
-----------------------
   0 O :   -0.706219
   1 H :    0.354957
   2 H :    0.371283
   3 O :   -0.722737
   4 H :    0.360802
   5 H :    0.347989
   6 O :   -0.736755
   7 H :    0.369118
   8 H :    0.366683
   9 O :   -0.723604
  10 H :    0.330623
  11 H :    0.358599
  12 O :   -0.711754
  13 H :    0.368814
  14 H :    0.372944
  15 O :   -0.680006
  16 H :    0.332592
  17 H :    0.348426
  18 O :   -0.694459
  19 H :    0.373395
  20 H :    0.319309
Sum of atomic charges:    0.0000000

LOEWDIN ATOMIC CHARGES
----------------------
   0 O :   -0.314863
   1 H :    0.164685
   2 H :    0.191863
   3 O :   -0.351903
   4 H :    0.145940
   5 H :    0.143092
   6 O :   -0.294355
   7 H :    0.175637
   8 H :    0.145005
   9 O :   -0.362669
  10 H :    0.157933
  11 H :    0.140364
  12 O :   -0.271233
  13 H :    0.175793
  14 H :    0.182890
  15 O :   -0.328871
  16 H :    0.160537
  17 H :    0.168872
  18 O :   -0.336122
  19 H :    0.152012
  20 H :    0.155394

  Mayer bond orders larger than 0.100000
B(  0-O ,  1-H ) :   0.8403 B(  0-O ,  2-H ) :   0.8215 B(  3-O ,  4-H ) :   0.8354
B(  3-O ,  5-H ) :   0.8234 B(  6-O ,  7-H ) :   0.8274 B(  6-O ,  8-H ) :   0.7720
B(  9-O , 10-H ) :   0.8553 B(  9-O , 11-H ) :   0.7924 B( 12-O , 13-H ) :   0.8265
B( 12-O , 14-H ) :   0.8149 B( 15-O , 16-H ) :   0.8533 B( 15-O , 17-H ) :   0.8414
B( 18-O , 19-H ) :   0.8176 B( 18-O , 20-H ) :   0.8597

MP2 TOTAL ENERGY:     -534.237558435 Eh
FINAL SINGLE POINT ENERGY      -534.237558434942

DIPOLE MOMENT
-------------
                                X             Y             Z
Electronic contribution:     -0.21239      -0.07297       0.01091
Nuclear contribution   :      0.68017      -0.71107      -0.54442
                        -----------------------------------------
Total Dipole Moment    :      0.46778      -0.78404      -0.53352
                        -----------------------------------------
Magnitude (a.u.)       :      1.05744
Magnitude (Debye)      :      2.68780

Rotational constants in cm-1:     0.040017     0.021008     0.019032
Rotational constants in MHz :  1199.684508   629.795360   570.574281

                             ****ORCA TERMINATED NORMALLY****
TOTAL RUN TIME: 0 days 0 hours 1 minutes 42 seconds 271 msec
