                         Program Version 4.2.0 -  RELEASE  -
|  1> # 12mecn.remya.etal.2.mol6,8,9
|  2> ! MP2 def2-TZVP EnGrad TightSCF
|  3>
|  4> %pal
|  5>     nprocs 6
|  6> end
|  7>
|  8> %maxcore 8000
|  9>
| 10> %scf
| 11>     ConvForced true
| 12> end
| 13>
| 14> *xyz 0 1
| 15> C   5.300864000  -2.920090000   1.401103000
| 16> H   5.986071000  -2.139770000   1.737487000
| 17> H   5.636642000  -3.888750000   1.778233000
| 18> H   4.307359000  -2.697240000   1.799307000
| 19> C   5.234791000  -2.933140000  -0.043290000
| 20> N   5.170868000  -2.941760000  -1.207750000
| 21> C   1.912641000  -2.468050000  -1.750510000
| 22> H   2.876947000  -2.793500000  -2.151200000
| 23> H   1.688016000  -1.463720000  -2.122170000
| 24> H   1.123460000  -3.154780000  -2.069590000
| 25> C   1.977850000  -2.444240000  -0.306900000
| 26> N   2.036566000  -2.426130000   0.858249000
| 27> C   0.923766000   4.000693000  -1.575910000
| 28> H   0.011949000   4.478423000  -1.939550000
| 29> H   0.947903000   2.966558000  -1.929960000
| 30> H   1.805950000   4.519548000  -1.956520000
| 31> C   0.942834000   3.994846000  -0.131200000
| 32> N   0.960035000   3.982544000   1.035639000
| 33> *
| 34>
| 35>                          ****END OF INPUT****

CARTESIAN COORDINATES (ANGSTROEM)
---------------------------------
  C      5.300864   -2.920090    1.401103
  H      5.986071   -2.139770    1.737487
  H      5.636642   -3.888750    1.778233
  H      4.307359   -2.697240    1.799307
  C      5.234791   -2.933140   -0.043290
  N      5.170868   -2.941760   -1.207750
  C      1.912641   -2.468050   -1.750510
  H      2.876947   -2.793500   -2.151200
  H      1.688016   -1.463720   -2.122170
  H      1.123460   -3.154780   -2.069590
  C      1.977850   -2.444240   -0.306900
  N      2.036566   -2.426130    0.858249
  C      0.923766    4.000693   -1.575910
  H      0.011949    4.478423   -1.939550
  H      0.947903    2.966558   -1.929960
  H      1.805950    4.519548   -1.956520
  C      0.942834    3.994846   -0.131200
  N      0.960035    3.982544    1.035639

 Total Charge           Charge          ....    0
 Multiplicity           Mult            ....    1
 Number of Electrons    NEL             ....   66
 Basis Dimension        Dim             ....  333

ORBITAL ENERGIES
----------------

  NO   OCC          E(Eh)            E(eV)
   0   2.0000     -15.573284      -423.7706
   1   2.0000     -15.571644      -423.7260
   2   2.0000     -15.571560      -423.7237
   3   2.0000     -11.285777      -307.1016
   4   2.0000     -11.283735      -307.0460
   5   2.0000     -11.283142      -307.0299
   6   2.0000     -11.279988      -306.9441
   7   2.0000     -11.273954      -306.7799
   8   2.0000     -11.270632      -306.6895
   9   2.0000      -1.218746       -33.1638
  10   2.0000      -1.214478       -33.0476
  11   2.0000      -1.214278       -33.0422
  12   2.0000      -1.045106       -28.4388
  13   2.0000      -1.037340       -28.2275
  14   2.0000      -1.033786       -28.1308
  15   2.0000      -0.701188       -19.0803
  16   2.0000      -0.695958       -18.9380
  17   2.0000      -0.691487       -18.8163
  18   2.0000      -0.634978       -17.2786
  19   2.0000      -0.631641       -17.1878
  20   2.0000      -0.631238       -17.1769
  21   2.0000      -0.624175       -16.9847
  22   2.0000      -0.621923       -16.9234
  23   2.0000      -0.614104       -16.7106
  24   2.0000      -0.559703       -15.2303
  25   2.0000      -0.556223       -15.1356
  26   2.0000      -0.555649       -15.1200
  27   2.0000      -0.460978       -12.5438
  28   2.0000      -0.459143       -12.4939
  29   2.0000      -0.457839       -12.4584
  30   2.0000      -0.457432       -12.4474
  31   2.0000      -0.457037       -12.4366
  32   2.0000      -0.456399       -12.4192
  33   0.0000       0.105394         2.8679
  34   0.0000       0.130760         3.5582
  35   0.0000       0.141024         3.8375
  36   0.0000       0.163890         4.4597
  37   0.0000       0.168974         4.5980

MULLIKEN ATOMIC CHARGES
-----------------------
   0 C :   -0.286810
   1 H :    0.166895
   2 H :    0.166322
   3 H :    0.208062
   4 C :   -0.101172
   5 N :   -0.152973
   6 C :   -0.283784
   7 H :    0.206502
   8 H :    0.159592
   9 H :    0.167315
  10 C :   -0.101630
  11 N :   -0.148316
  12 C :   -0.277785
  13 H :    0.172545
  14 H :    0.167621
  15 H :    0.172827
  16 C :   -0.145548
  17 N :   -0.089662
Sum of atomic charges:   -0.0000000

LOEWDIN ATOMIC CHARGES
----------------------
   0 C :   -0.281667
   1 H :    0.151176
   2 H :    0.151046
   3 H :    0.157860
   4 C :   -0.206245
   5 N :    0.028292
   6 C :   -0.283128
   7 H :    0.156977
   8 H :    0.150725
   9 H :    0.151079
  10 C :   -0.208528
  11 N :    0.032415
  12 C :   -0.283859
  13 H :    0.151519
  14 H :    0.152110
  15 H :    0.152022
  16 C :   -0.219745
  17 N :    0.047953

  Mayer bond orders larger than 0.100000
B(  0-C ,  1-H ) :   0.9155 B(  0-C ,  2-H ) :   0.9146 B(  0-C ,  3-H ) :   0.9008
B(  0-C ,  4-C ) :   0.9025 B(  4-C ,  5-N ) :   2.7716 B(  6-C ,  7-H ) :   0.9010
B(  6-C ,  8-H ) :   0.9164 B(  6-C ,  9-H ) :   0.9165 B(  6-C , 10-C ) :   0.9012
B( 10-C , 11-N ) :   2.7663 B( 12-C , 13-H ) :   0.9164 B( 12-C , 14-H ) :   0.9181
B( 12-C , 15-H ) :   0.9165 B( 12-C , 16-C ) :   0.9019 B( 16-C , 17-N ) :   2.8351

MP2 TOTAL ENERGY:     -397.458856988 Eh
FINAL SINGLE POINT ENERGY      -397.458856987921

DIPOLE MOMENT
-------------
                                X             Y             Z
Electronic contribution:      0.05198       0.01164       3.14671
Nuclear contribution   :     -0.06782      -0.01553      -4.62636
                        -----------------------------------------
Total Dipole Moment    :     -0.01584      -0.00388      -1.47965
                        -----------------------------------------
Magnitude (a.u.)       :      1.47974
Magnitude (Debye)      :      3.76119

Rotational constants in cm-1:     0.051146     0.010443     0.009994
Rotational constants in MHz :  1533.305976   313.069061   299.600930

                             ****ORCA TERMINATED NORMALLY****
TOTAL RUN TIME: 0 days 0 hours 2 minutes 52 seconds 979 msec
