                         Program Version 4.2.0 -  RELEASE  -
|  1> # 12h2o.su.etal.mol1,2,6,8,11
|  2> ! MP2 def2-TZVP EnGrad TightSCF
|  3>
|  4> %pal
|  5>     nprocs 6
|  6> end
|  7>
|  8> %maxcore 8000
|  9>
| 10> %scf
| 11>     ConvForced true
| 12> end
| 13>
| 14> *xyz 0 1
| 15> O  -1.794470000  -0.923410000   2.768350000
| 16> H  -2.338250000  -1.359750000   3.430940000
| 17> H  -0.879480000  -1.303000000   2.865760000
| 18> O   0.923410000  -1.794470000  -2.768350000
| 19> H   1.359750000  -2.338250000  -3.430940000
| 20> H   1.303000000  -0.879480000  -2.865760000
| 21> O   1.737840000   0.885520000  -0.052730000
| 22> H   2.090180000   1.032320000   0.841890000
| 23> H   0.839590000   1.284090000  -0.017130000
| 24> O   1.752130000   0.741530000  -2.896280000
| 25> H   2.036450000   0.920500000  -1.984040000
| 26> H   0.921210000   1.242140000  -2.984230000
| 27> O  -0.741530000   1.752130000   2.896280000
| 28> H  -0.920500000   2.036450000   1.984040000
| 29> H  -1.242140000   0.921210000   2.984230000
| 30> *
| 31>
| 32>                          ****END OF INPUT****

CARTESIAN COORDINATES (ANGSTROEM)
---------------------------------
  O     -1.794470   -0.923410    2.768350
  H     -2.338250   -1.359750    3.430940
  H     -0.879480   -1.303000    2.865760
  O      0.923410   -1.794470   -2.768350
  H      1.359750   -2.338250   -3.430940
  H      1.303000   -0.879480   -2.865760
  O      1.737840    0.885520   -0.052730
  H      2.090180    1.032320    0.841890
  H      0.839590    1.284090   -0.017130
  O      1.752130    0.741530   -2.896280
  H      2.036450    0.920500   -1.984040
  H      0.921210    1.242140   -2.984230
  O     -0.741530    1.752130    2.896280
  H     -0.920500    2.036450    1.984040
  H     -1.242140    0.921210    2.984230

 Total Charge           Charge          ....    0
 Multiplicity           Mult            ....    1
 Number of Electrons    NEL             ....   50
 Basis Dimension        Dim             ....  215

ORBITAL ENERGIES
----------------

  NO   OCC          E(Eh)            E(eV)
   0   2.0000     -20.595749      -560.4388
   1   2.0000     -20.592372      -560.3469
   2   2.0000     -20.568160      -559.6881
   3   2.0000     -20.551170      -559.2258
   4   2.0000     -20.503921      -557.9401
   5   2.0000      -1.373517       -37.3753
   6   2.0000      -1.371880       -37.3308
   7   2.0000      -1.354837       -36.8670
   8   2.0000      -1.333029       -36.2736
   9   2.0000      -1.286166       -34.9984
  10   2.0000      -0.740862       -20.1599
  11   2.0000      -0.735651       -20.0181
  12   2.0000      -0.715678       -19.4746
  13   2.0000      -0.701482       -19.0883
  14   2.0000      -0.675182       -18.3726
  15   2.0000      -0.620046       -16.8723
  16   2.0000      -0.614416       -16.7191
  17   2.0000      -0.585257       -15.9257
  18   2.0000      -0.572491       -15.5783
  19   2.0000      -0.537993       -14.6395
  20   2.0000      -0.535587       -14.5741
  21   2.0000      -0.534437       -14.5428
  22   2.0000      -0.498169       -13.5559
  23   2.0000      -0.494290       -13.4503
  24   2.0000      -0.454419       -12.3654
  25   0.0000       0.085838         2.3358
  26   0.0000       0.116168         3.1611
  27   0.0000       0.148064         4.0290
  28   0.0000       0.159709         4.3459
  29   0.0000       0.185191         5.0393

MULLIKEN ATOMIC CHARGES
-----------------------
   0 O :   -0.695604
   1 H :    0.356006
   2 H :    0.362538
   3 O :   -0.734170
   4 H :    0.319836
   5 H :    0.367806
   6 O :   -0.690601
   7 H :    0.360242
   8 H :    0.337524
   9 O :   -0.690698
  10 H :    0.385406
  11 H :    0.340118
  12 O :   -0.699898
  13 H :    0.319102
  14 H :    0.362393
Sum of atomic charges:   -0.0000000

LOEWDIN ATOMIC CHARGES
----------------------
   0 O :   -0.310040
   1 H :    0.165291
   2 H :    0.189348
   3 O :   -0.374052
   4 H :    0.145801
   5 H :    0.142226
   6 O :   -0.314717
   7 H :    0.175105
   8 H :    0.170995
   9 O :   -0.276119
  10 H :    0.159550
  11 H :    0.167681
  12 O :   -0.344458
  13 H :    0.154140
  14 H :    0.149250

  Mayer bond orders larger than 0.100000
B(  0-O ,  1-H ) :   0.8397 B(  0-O ,  2-H ) :   0.8294 B(  3-O ,  4-H ) :   0.8635
B(  3-O ,  5-H ) :   0.7829 B(  6-O ,  7-H ) :   0.8361 B(  6-O ,  8-H ) :   0.8439
B(  9-O , 10-H ) :   0.8021 B(  9-O , 11-H ) :   0.8479 B( 12-O , 13-H ) :   0.8626
B( 12-O , 14-H ) :   0.8114

MP2 TOTAL ENERGY:     -381.588334599 Eh
FINAL SINGLE POINT ENERGY      -381.588334599480

DIPOLE MOMENT
-------------
                                X             Y             Z
Electronic contribution:      0.10186       0.05250       0.15920
Nuclear contribution   :     -0.48689       0.19446       0.77428
                        -----------------------------------------
Total Dipole Moment    :     -0.38503       0.24697       0.93348
                        -----------------------------------------
Magnitude (a.u.)       :      1.03953
Magnitude (Debye)      :      2.64228

Rotational constants in cm-1:     0.087247     0.022725     0.018787
Rotational constants in MHz :  2615.599340   681.285498   563.220610

                             ****ORCA TERMINATED NORMALLY****
TOTAL RUN TIME: 0 days 0 hours 0 minutes 33 seconds 488 msec
