                         Program Version 4.2.0 -  RELEASE  -
|  1> # 12meoh.boyd.etal.mol0,2,3
|  2> ! MP2 def2-TZVP EnGrad TightSCF
|  3>
|  4> %pal
|  5>     nprocs 6
|  6> end
|  7>
|  8> %maxcore 8000
|  9>
| 10> %scf
| 11>     ConvForced true
| 12> end
| 13>
| 14> *xyz 0 1
| 15> O  -1.776108874  -2.741384797  -1.019308298
| 16> H  -2.520094035  -2.452295987  -0.420778302
| 17> C  -2.174025166  -3.952700964  -1.647004581
| 18> H  -1.359803895  -4.272673416  -2.304149236
| 19> H  -3.075973971  -3.808692420  -2.256751112
| 20> H  -2.370225393  -4.752784761  -0.918966137
| 21> O  -3.839777402   2.233595098   0.660436763
| 22> H  -2.958345897   1.907036203   0.973588449
| 23> C  -3.600368059   3.168790682  -0.390480452
| 24> H  -4.551709193   3.344148967  -0.901254863
| 25> H  -2.868237594   2.789240199  -1.113617525
| 26> H  -3.243594915   4.128998607   0.009549480
| 27> O  -3.821405976  -2.118091637   0.596795346
| 28> H  -4.342989117  -1.344303030   0.251966383
| 29> C  -3.443883586  -1.809641231   1.934889393
| 30> H  -2.831494349  -2.637429600   2.305201764
| 31> H  -4.325601146  -1.719364371   2.585074667
| 32> H  -2.858527126  -0.882644791   1.996110694
| 33> *
| 34>
| 35>                          ****END OF INPUT****

CARTESIAN COORDINATES (ANGSTROEM)
---------------------------------
  O     -1.776109   -2.741385   -1.019308
  H     -2.520094   -2.452296   -0.420778
  C     -2.174025   -3.952701   -1.647005
  H     -1.359804   -4.272673   -2.304149
  H     -3.075974   -3.808692   -2.256751
  H     -2.370225   -4.752785   -0.918966
  O     -3.839777    2.233595    0.660437
  H     -2.958346    1.907036    0.973588
  C     -3.600368    3.168791   -0.390480
  H     -4.551709    3.344149   -0.901255
  H     -2.868238    2.789240   -1.113618
  H     -3.243595    4.128999    0.009549
  O     -3.821406   -2.118092    0.596795
  H     -4.342989   -1.344303    0.251966
  C     -3.443884   -1.809641    1.934889
  H     -2.831494   -2.637430    2.305202
  H     -4.325601   -1.719364    2.585075
  H     -2.858527   -0.882645    1.996111

 Total Charge           Charge          ....    0
 Multiplicity           Mult            ....    1
 Number of Electrons    NEL             ....   54
 Basis Dimension        Dim             ....  258

ORBITAL ENERGIES
----------------

  NO   OCC          E(Eh)            E(eV)
   0   2.0000     -20.587961      -560.2269
   1   2.0000     -20.567941      -559.6821
   2   2.0000     -20.512066      -558.1617
   3   2.0000     -11.288619      -307.1789
   4   2.0000     -11.278847      -306.9130
   5   2.0000     -11.246349      -306.0287
   6   2.0000      -1.381404       -37.5899
   7   2.0000      -1.357012       -36.9262
   8   2.0000      -1.309020       -35.6202
   9   2.0000      -0.939702       -25.5706
  10   2.0000      -0.927432       -25.2367
  11   2.0000      -0.892616       -24.2893
  12   2.0000      -0.713698       -19.4207
  13   2.0000      -0.691184       -18.8081
  14   2.0000      -0.671701       -18.2779
  15   2.0000      -0.632805       -17.2195
  16   2.0000      -0.624873       -17.0037
  17   2.0000      -0.606996       -16.5172
  18   2.0000      -0.599317       -16.3082
  19   2.0000      -0.588244       -16.0069
  20   2.0000      -0.559610       -15.2278
  21   2.0000      -0.526675       -14.3316
  22   2.0000      -0.510638       -13.8952
  23   2.0000      -0.486889       -13.2489
  24   2.0000      -0.458786       -12.4842
  25   2.0000      -0.453675       -12.3451
  26   2.0000      -0.414498       -11.2791
  27   0.0000       0.105323         2.8660
  28   0.0000       0.146283         3.9806
  29   0.0000       0.158163         4.3038
  30   0.0000       0.173724         4.7273
  31   0.0000       0.180925         4.9232

MULLIKEN ATOMIC CHARGES
-----------------------
   0 O :   -0.539387
   1 H :    0.340267
   2 C :   -0.154651
   3 H :    0.118251
   4 H :    0.095382
   5 H :    0.096314
   6 O :   -0.507092
   7 H :    0.324583
   8 C :   -0.178963
   9 H :    0.130335
  10 H :    0.121002
  11 H :    0.114254
  12 O :   -0.518255
  13 H :    0.347819
  14 C :   -0.174364
  15 H :    0.144611
  16 H :    0.129116
  17 H :    0.110780
Sum of atomic charges:    0.0000000

LOEWDIN ATOMIC CHARGES
----------------------
   0 O :   -0.128912
   1 H :    0.157344
   2 C :   -0.395920
   3 H :    0.104597
   4 H :    0.091116
   5 H :    0.091721
   6 O :   -0.115205
   7 H :    0.187590
   8 C :   -0.376001
   9 H :    0.110203
  10 H :    0.098794
  11 H :    0.097570
  12 O :   -0.073369
  13 H :    0.201790
  14 C :   -0.371282
  15 H :    0.116097
  16 H :    0.105807
  17 H :    0.098060

  Mayer bond orders larger than 0.100000
B(  0-O ,  1-H ) :   0.7878 B(  0-O ,  2-C ) :   0.9406 B(  1-H , 12-O ) :   0.1032
B(  2-C ,  3-H ) :   0.9408 B(  2-C ,  4-H ) :   0.9437 B(  2-C ,  5-H ) :   0.9363
B(  6-O ,  7-H ) :   0.8412 B(  6-O ,  8-C ) :   0.9153 B(  8-C ,  9-H ) :   0.9377
B(  8-C , 10-H ) :   0.9406 B(  8-C , 11-H ) :   0.9382 B( 12-O , 13-H ) :   0.8227
B( 12-O , 14-C ) :   0.8713 B( 14-C , 15-H ) :   0.9391 B( 14-C , 16-H ) :   0.9355
B( 14-C , 17-H ) :   0.9395

MP2 TOTAL ENERGY:     -346.532027996 Eh
FINAL SINGLE POINT ENERGY      -346.532027996344

DIPOLE MOMENT
-------------
                                X             Y             Z
Electronic contribution:     -0.43400       0.08047       0.63981
Nuclear contribution   :      0.05345       0.61233      -0.13034
                        -----------------------------------------
Total Dipole Moment    :     -0.38055       0.69280       0.50947
                        -----------------------------------------
Magnitude (a.u.)       :      0.94040
Magnitude (Debye)      :      2.39031

Rotational constants in cm-1:     0.101436     0.023282     0.019802
Rotational constants in MHz :  3040.973860   697.985300   593.651577

                             ****ORCA TERMINATED NORMALLY****
TOTAL RUN TIME: 0 days 0 hours 1 minutes 10 seconds 465 msec
