                         Program Version 4.2.0 -  RELEASE  -
|  1> # 12mecn.remya.etal.2.mol4,9
|  2> ! MP2 def2-TZVP EnGrad TightSCF
|  3>
|  4> %pal
|  5>     nprocs 6
|  6> end
|  7>
|  8> %maxcore 8000
|  9>
| 10> %scf
| 11>     ConvForced true
| 12> end
| 13>
| 14> *xyz 0 1
| 15> C  -1.509690000  -0.693960000  -1.610140000
| 16> H  -1.327010000  -1.692700000  -2.017370000
| 17> H  -0.742170000  -0.000650000  -1.964400000
| 18> H  -2.491920000  -0.334310000  -1.929350000
| 19> C  -1.473570000  -0.748120000  -0.167200000
| 20> N  -1.447490000  -0.793720000   0.998938000
| 21> C   0.923766000   4.000693000  -1.575910000
| 22> H   0.011949000   4.478423000  -1.939550000
| 23> H   0.947903000   2.966558000  -1.929960000
| 24> H   1.805950000   4.519548000  -1.956520000
| 25> C   0.942834000   3.994846000  -0.131200000
| 26> N   0.960035000   3.982544000   1.035639000
| 27> *
| 28>
| 29>                          ****END OF INPUT****

CARTESIAN COORDINATES (ANGSTROEM)
---------------------------------
  C     -1.509690   -0.693960   -1.610140
  H     -1.327010   -1.692700   -2.017370
  H     -0.742170   -0.000650   -1.964400
  H     -2.491920   -0.334310   -1.929350
  C     -1.473570   -0.748120   -0.167200
  N     -1.447490   -0.793720    0.998938
  C      0.923766    4.000693   -1.575910
  H      0.011949    4.478423   -1.939550
  H      0.947903    2.966558   -1.929960
  H      1.805950    4.519548   -1.956520
  C      0.942834    3.994846   -0.131200
  N      0.960035    3.982544    1.035639

 Total Charge           Charge          ....    0
 Multiplicity           Mult            ....    1
 Number of Electrons    NEL             ....   44
 Basis Dimension        Dim             ....  222

ORBITAL ENERGIES
----------------

  NO   OCC          E(Eh)            E(eV)
   0   2.0000     -15.574063      -423.7918
   1   2.0000     -15.573718      -423.7824
   2   2.0000     -11.288860      -307.1855
   3   2.0000     -11.288610      -307.1787
   4   2.0000     -11.280109      -306.9474
   5   2.0000     -11.279770      -306.9381
   6   2.0000      -1.214661       -33.0526
   7   2.0000      -1.214219       -33.0406
   8   2.0000      -1.047373       -28.5005
   9   2.0000      -1.047101       -28.4931
  10   2.0000      -0.703266       -19.1369
  11   2.0000      -0.701731       -19.0951
  12   2.0000      -0.637494       -17.3471
  13   2.0000      -0.636924       -17.3316
  14   2.0000      -0.635483       -17.2924
  15   2.0000      -0.633533       -17.2393
  16   2.0000      -0.555722       -15.1220
  17   2.0000      -0.555281       -15.1100
  18   2.0000      -0.458334       -12.4719
  19   2.0000      -0.458046       -12.4641
  20   2.0000      -0.457421       -12.4471
  21   2.0000      -0.456837       -12.4312
  22   0.0000       0.093059         2.5323
  23   0.0000       0.130680         3.5560
  24   0.0000       0.154517         4.2046
  25   0.0000       0.166919         4.5421
  26   0.0000       0.170946         4.6517

MULLIKEN ATOMIC CHARGES
-----------------------
   0 C :   -0.276136
   1 H :    0.174184
   2 H :    0.159665
   3 H :    0.172917
   4 C :   -0.145236
   5 N :   -0.085385
   6 C :   -0.279833
   7 H :    0.172926
   8 H :    0.160959
   9 H :    0.174867
  10 C :   -0.144424
  11 N :   -0.084503
Sum of atomic charges:   -0.0000000

LOEWDIN ATOMIC CHARGES
----------------------
   0 C :   -0.284764
   1 H :    0.152977
   2 H :    0.148538
   3 H :    0.152828
   4 C :   -0.221584
   5 N :    0.052010
   6 C :   -0.284894
   7 H :    0.151222
   8 H :    0.149463
   9 H :    0.152302
  10 C :   -0.220672
  11 N :    0.052573

  Mayer bond orders larger than 0.100000
B(  0-C ,  1-H ) :   0.9166 B(  0-C ,  2-H ) :   0.9196 B(  0-C ,  3-H ) :   0.9173
B(  0-C ,  4-C ) :   0.9002 B(  4-C ,  5-N ) :   2.8303 B(  6-C ,  7-H ) :   0.9169
B(  6-C ,  8-H ) :   0.9199 B(  6-C ,  9-H ) :   0.9169 B(  6-C , 10-C ) :   0.9009
B( 10-C , 11-N ) :   2.8299

MP2 TOTAL ENERGY:     -264.964573873 Eh
FINAL SINGLE POINT ENERGY      -264.964573872784

DIPOLE MOMENT
-------------
                                X             Y             Z
Electronic contribution:      0.11236      -0.11025       6.29698
Nuclear contribution   :     -0.17234       0.17679      -9.27033
                        -----------------------------------------
Total Dipole Moment    :     -0.05999       0.06654      -2.97335
                        -----------------------------------------
Magnitude (a.u.)       :      2.97470
Magnitude (Debye)      :      7.56108

Rotational constants in cm-1:     0.154324     0.028728     0.024447
Rotational constants in MHz :  4626.524162   861.231551   732.896503

                             ****ORCA TERMINATED NORMALLY****
TOTAL RUN TIME: 0 days 0 hours 1 minutes 4 seconds 810 msec
