                         Program Version 4.2.0 -  RELEASE  -
|  1> # 12meoh.boyd.etal.mol0,1,9
|  2> ! MP2 def2-TZVP EnGrad TightSCF
|  3>
|  4> %pal
|  5>     nprocs 6
|  6> end
|  7>
|  8> %maxcore 8000
|  9>
| 10> %scf
| 11>     ConvForced true
| 12> end
| 13>
| 14> *xyz 0 1
| 15> O  -1.776108874  -2.741384797  -1.019308298
| 16> H  -2.520094035  -2.452295987  -0.420778302
| 17> C  -2.174025166  -3.952700964  -1.647004581
| 18> H  -1.359803895  -4.272673416  -2.304149236
| 19> H  -3.075973971  -3.808692420  -2.256751112
| 20> H  -2.370225393  -4.752784761  -0.918966137
| 21> O   0.666045193  -2.600503172   0.138317521
| 22> H  -0.227115049  -2.712051982  -0.281868004
| 23> C   0.490021232  -1.851247678   1.341189459
| 24> H   1.466500502  -1.466176022   1.645844415
| 25> H   0.097564527  -2.488364683   2.146902740
| 26> H  -0.187588112  -1.000787499   1.200739571
| 27> O   1.390610024   3.194080770  -1.536658882
| 28> H   2.162932299   2.881562730  -0.993525056
| 29> C   1.202977189   4.580367182  -1.302880219
| 30> H   0.374773115   4.915764831  -1.934164643
| 31> H   2.098649340   5.157710875  -1.570472348
| 32> H   0.950320401   4.800436015  -0.254328827
| 33> *
| 34>
| 35>                          ****END OF INPUT****

CARTESIAN COORDINATES (ANGSTROEM)
---------------------------------
  O     -1.776109   -2.741385   -1.019308
  H     -2.520094   -2.452296   -0.420778
  C     -2.174025   -3.952701   -1.647005
  H     -1.359804   -4.272673   -2.304149
  H     -3.075974   -3.808692   -2.256751
  H     -2.370225   -4.752785   -0.918966
  O      0.666045   -2.600503    0.138318
  H     -0.227115   -2.712052   -0.281868
  C      0.490021   -1.851248    1.341189
  H      1.466501   -1.466176    1.645844
  H      0.097565   -2.488365    2.146903
  H     -0.187588   -1.000787    1.200740
  O      1.390610    3.194081   -1.536659
  H      2.162932    2.881563   -0.993525
  C      1.202977    4.580367   -1.302880
  H      0.374773    4.915765   -1.934165
  H      2.098649    5.157711   -1.570472
  H      0.950320    4.800436   -0.254329

 Total Charge           Charge          ....    0
 Multiplicity           Mult            ....    1
 Number of Electrons    NEL             ....   54
 Basis Dimension        Dim             ....  258

ORBITAL ENERGIES
----------------

  NO   OCC          E(Eh)            E(eV)
   0   2.0000     -20.588306      -560.2363
   1   2.0000     -20.553298      -559.2837
   2   2.0000     -20.511957      -558.1587
   3   2.0000     -11.287962      -307.1611
   4   2.0000     -11.268498      -306.6314
   5   2.0000     -11.249902      -306.1254
   6   2.0000      -1.380926       -37.5769
   7   2.0000      -1.344050       -36.5735
   8   2.0000      -1.307556       -35.5804
   9   2.0000      -0.939318       -25.5601
  10   2.0000      -0.916234       -24.9320
  11   2.0000      -0.896251       -24.3882
  12   2.0000      -0.713319       -19.4104
  13   2.0000      -0.678984       -18.4761
  14   2.0000      -0.670115       -18.2348
  15   2.0000      -0.633612       -17.2414
  16   2.0000      -0.613672       -16.6989
  17   2.0000      -0.608088       -16.5469
  18   2.0000      -0.590061       -16.0564
  19   2.0000      -0.588599       -16.0166
  20   2.0000      -0.559977       -15.2378
  21   2.0000      -0.525845       -14.3090
  22   2.0000      -0.495651       -13.4874
  23   2.0000      -0.484574       -13.1859
  24   2.0000      -0.457329       -12.4446
  25   2.0000      -0.444771       -12.1028
  26   2.0000      -0.415621       -11.3096
  27   0.0000       0.116682         3.1751
  28   0.0000       0.137676         3.7463
  29   0.0000       0.158826         4.3219
  30   0.0000       0.175939         4.7875
  31   0.0000       0.185800         5.0559

MULLIKEN ATOMIC CHARGES
-----------------------
   0 O :   -0.516186
   1 H :    0.339722
   2 C :   -0.185042
   3 H :    0.148939
   4 H :    0.123769
   5 H :    0.123196
   6 O :   -0.527795
   7 H :    0.356199
   8 C :   -0.179019
   9 H :    0.119574
  10 H :    0.095341
  11 H :    0.101266
  12 O :   -0.494859
  13 H :    0.323601
  14 C :   -0.171238
  15 H :    0.127733
  16 H :    0.108190
  17 H :    0.106609
Sum of atomic charges:   -0.0000000

LOEWDIN ATOMIC CHARGES
----------------------
   0 O :   -0.076109
   1 H :    0.200672
   2 C :   -0.374290
   3 H :    0.117734
   4 H :    0.103441
   5 H :    0.100961
   6 O :   -0.125767
   7 H :    0.160679
   8 C :   -0.393414
   9 H :    0.104756
  10 H :    0.089866
  11 H :    0.091446
  12 O :   -0.104364
  13 H :    0.191606
  14 C :   -0.386668
  15 H :    0.109981
  16 H :    0.094911
  17 H :    0.094558

  Mayer bond orders larger than 0.100000
B(  0-O ,  1-H ) :   0.8283 B(  0-O ,  2-C ) :   0.8749 B(  2-C ,  3-H ) :   0.9387
B(  2-C ,  4-H ) :   0.9341 B(  2-C ,  5-H ) :   0.9373 B(  6-O ,  7-H ) :   0.7941
B(  6-O ,  8-C ) :   0.9470 B(  8-C ,  9-H ) :   0.9430 B(  8-C , 10-H ) :   0.9360
B(  8-C , 11-H ) :   0.9406 B( 12-O , 13-H ) :   0.8406 B( 12-O , 14-C ) :   0.9306
B( 14-C , 15-H ) :   0.9377 B( 14-C , 16-H ) :   0.9400 B( 14-C , 17-H ) :   0.9373

MP2 TOTAL ENERGY:     -346.527870262 Eh
FINAL SINGLE POINT ENERGY      -346.527870262308

DIPOLE MOMENT
-------------
                                X             Y             Z
Electronic contribution:      0.83694      -1.31561      -1.43529
Nuclear contribution   :     -1.96723       1.47575       1.91412
                        -----------------------------------------
Total Dipole Moment    :     -1.13029       0.16015       0.47882
                        -----------------------------------------
Magnitude (a.u.)       :      1.23793
Magnitude (Debye)      :      3.14657

Rotational constants in cm-1:     0.090207     0.014588     0.013012
Rotational constants in MHz :  2704.348528   437.338411   390.092654

                             ****ORCA TERMINATED NORMALLY****
TOTAL RUN TIME: 0 days 0 hours 0 minutes 57 seconds 59 msec
