                         Program Version 4.2.0 -  RELEASE  -
|  1> # 12h2o.su.etal.mol1,4,10
|  2> ! MP2 def2-TZVP EnGrad TightSCF
|  3>
|  4> %pal
|  5>     nprocs 6
|  6> end
|  7>
|  8> %maxcore 8000
|  9>
| 10> %scf
| 11>     ConvForced true
| 12> end
| 13>
| 14> *xyz 0 1
| 15> O  -1.794470000  -0.923410000   2.768350000
| 16> H  -2.338250000  -1.359750000   3.430940000
| 17> H  -0.879480000  -1.303000000   2.865760000
| 18> O  -0.885520000   1.737840000   0.052730000
| 19> H  -1.032320000   2.090180000  -0.841890000
| 20> H  -1.284090000   0.839590000   0.017130000
| 21> O  -0.923410000   1.794470000  -2.768350000
| 22> H  -1.359750000   2.338250000  -3.430940000
| 23> H  -1.303000000   0.879480000  -2.865760000
| 24> *
| 25>
| 26>                          ****END OF INPUT****

CARTESIAN COORDINATES (ANGSTROEM)
---------------------------------
  O     -1.794470   -0.923410    2.768350
  H     -2.338250   -1.359750    3.430940
  H     -0.879480   -1.303000    2.865760
  O     -0.885520    1.737840    0.052730
  H     -1.032320    2.090180   -0.841890
  H     -1.284090    0.839590    0.017130
  O     -0.923410    1.794470   -2.768350
  H     -1.359750    2.338250   -3.430940
  H     -1.303000    0.879480   -2.865760

 Total Charge           Charge          ....    0
 Multiplicity           Mult            ....    1
 Number of Electrons    NEL             ....   30
 Basis Dimension        Dim             ....  129

ORBITAL ENERGIES
----------------

  NO   OCC          E(Eh)            E(eV)
   0   2.0000     -20.586486      -560.1868
   1   2.0000     -20.560444      -559.4781
   2   2.0000     -20.519105      -558.3532
   3   2.0000      -1.364271       -37.1237
   4   2.0000      -1.335696       -36.3461
   5   2.0000      -1.298204       -35.3259
   6   2.0000      -0.731229       -19.8978
   7   2.0000      -0.704073       -19.1588
   8   2.0000      -0.668491       -18.1906
   9   2.0000      -0.599742       -16.3198
  10   2.0000      -0.571570       -15.5532
  11   2.0000      -0.550047       -14.9675
  12   2.0000      -0.516406       -14.0521
  13   2.0000      -0.503493       -13.7007
  14   2.0000      -0.464727       -12.6459
  15   0.0000       0.107928         2.9369
  16   0.0000       0.126404         3.4396
  17   0.0000       0.174020         4.7353
  18   0.0000       0.196477         5.3464
  19   0.0000       0.214083         5.8255

MULLIKEN ATOMIC CHARGES
-----------------------
   0 O :   -0.679855
   1 H :    0.337337
   2 H :    0.344405
   3 O :   -0.692995
   4 H :    0.360038
   5 H :    0.321669
   6 O :   -0.688554
   7 H :    0.349180
   8 H :    0.348775
Sum of atomic charges:   -0.0000000

LOEWDIN ATOMIC CHARGES
----------------------
   0 O :   -0.337337
   1 H :    0.157426
   2 H :    0.181691
   3 O :   -0.346844
   4 H :    0.146565
   5 H :    0.162697
   6 O :   -0.309171
   7 H :    0.161898
   8 H :    0.183076

  Mayer bond orders larger than 0.100000
B(  0-O ,  1-H ) :   0.8535 B(  0-O ,  2-H ) :   0.8444 B(  3-O ,  4-H ) :   0.8255
B(  3-O ,  5-H ) :   0.8576 B(  6-O ,  7-H ) :   0.8433 B(  6-O ,  8-H ) :   0.8380

MP2 TOTAL ENERGY:     -228.942213288 Eh
FINAL SINGLE POINT ENERGY      -228.942213287557

DIPOLE MOMENT
-------------
                                X             Y             Z
Electronic contribution:      0.14582       0.26749      -0.02088
Nuclear contribution   :     -0.82411      -1.44252      -0.77428
                        -----------------------------------------
Total Dipole Moment    :     -0.67830      -1.17503      -0.79516
                        -----------------------------------------
Magnitude (a.u.)       :      1.57260
Magnitude (Debye)      :      3.99723

Rotational constants in cm-1:     0.800129     0.045913     0.043754
Rotational constants in MHz : 23987.251006  1376.422132  1311.698678

                             ****ORCA TERMINATED NORMALLY****
TOTAL RUN TIME: 0 days 0 hours 0 minutes 17 seconds 331 msec
