                         Program Version 4.2.0 -  RELEASE  -
|  1> # 12h2o.su.etal.mol0,2,5,6,10
|  2> ! MP2 def2-TZVP EnGrad TightSCF
|  3>
|  4> %pal
|  5>     nprocs 6
|  6> end
|  7>
|  8> %maxcore 8000
|  9>
| 10> %scf
| 11>     ConvForced true
| 12> end
| 13>
| 14> *xyz 0 1
| 15> O   1.794470000   0.923410000   2.768350000
| 16> H   2.338250000   1.359750000   3.430940000
| 17> H   0.879480000   1.303000000   2.865760000
| 18> O   0.923410000  -1.794470000  -2.768350000
| 19> H   1.359750000  -2.338250000  -3.430940000
| 20> H   1.303000000  -0.879480000  -2.865760000
| 21> O   0.885520000  -1.737840000   0.052730000
| 22> H   1.284090000  -0.839590000   0.017130000
| 23> H   1.032320000  -2.090180000  -0.841890000
| 24> O   1.737840000   0.885520000  -0.052730000
| 25> H   2.090180000   1.032320000   0.841890000
| 26> H   0.839590000   1.284090000  -0.017130000
| 27> O  -0.923410000   1.794470000  -2.768350000
| 28> H  -1.359750000   2.338250000  -3.430940000
| 29> H  -1.303000000   0.879480000  -2.865760000
| 30> *
| 31>
| 32>                          ****END OF INPUT****

CARTESIAN COORDINATES (ANGSTROEM)
---------------------------------
  O      1.794470    0.923410    2.768350
  H      2.338250    1.359750    3.430940
  H      0.879480    1.303000    2.865760
  O      0.923410   -1.794470   -2.768350
  H      1.359750   -2.338250   -3.430940
  H      1.303000   -0.879480   -2.865760
  O      0.885520   -1.737840    0.052730
  H      1.284090   -0.839590    0.017130
  H      1.032320   -2.090180   -0.841890
  O      1.737840    0.885520   -0.052730
  H      2.090180    1.032320    0.841890
  H      0.839590    1.284090   -0.017130
  O     -0.923410    1.794470   -2.768350
  H     -1.359750    2.338250   -3.430940
  H     -1.303000    0.879480   -2.865760

 Total Charge           Charge          ....    0
 Multiplicity           Mult            ....    1
 Number of Electrons    NEL             ....   50
 Basis Dimension        Dim             ....  215

ORBITAL ENERGIES
----------------

  NO   OCC          E(Eh)            E(eV)
   0   2.0000     -20.588289      -560.2358
   1   2.0000     -20.570699      -559.7572
   2   2.0000     -20.566493      -559.6427
   3   2.0000     -20.550721      -559.2136
   4   2.0000     -20.478282      -557.2424
   5   2.0000      -1.366439       -37.1827
   6   2.0000      -1.348601       -36.6973
   7   2.0000      -1.341786       -36.5118
   8   2.0000      -1.333862       -36.2962
   9   2.0000      -1.262890       -34.3650
  10   2.0000      -0.732997       -19.9459
  11   2.0000      -0.715678       -19.4746
  12   2.0000      -0.709606       -19.3094
  13   2.0000      -0.698010       -18.9938
  14   2.0000      -0.647343       -17.6151
  15   2.0000      -0.607769       -16.5382
  16   2.0000      -0.588168       -16.0049
  17   2.0000      -0.578455       -15.7405
  18   2.0000      -0.570981       -15.5372
  19   2.0000      -0.534414       -14.5421
  20   2.0000      -0.524925       -14.2839
  21   2.0000      -0.509915       -13.8755
  22   2.0000      -0.501187       -13.6380
  23   2.0000      -0.475581       -12.9412
  24   2.0000      -0.429578       -11.6894
  25   0.0000       0.103737         2.8228
  26   0.0000       0.116253         3.1634
  27   0.0000       0.142598         3.8803
  28   0.0000       0.171493         4.6666
  29   0.0000       0.195975         5.3327

MULLIKEN ATOMIC CHARGES
-----------------------
   0 O :   -0.686785
   1 H :    0.350651
   2 H :    0.352729
   3 O :   -0.698236
   4 H :    0.342951
   5 H :    0.362087
   6 O :   -0.738813
   7 H :    0.343120
   8 H :    0.351662
   9 O :   -0.700158
  10 H :    0.375023
  11 H :    0.343926
  12 O :   -0.691480
  13 H :    0.339719
  14 H :    0.353605
Sum of atomic charges:    0.0000000

LOEWDIN ATOMIC CHARGES
----------------------
   0 O :   -0.306149
   1 H :    0.162890
   2 H :    0.185250
   3 O :   -0.313105
   4 H :    0.159037
   5 H :    0.186649
   6 O :   -0.374889
   7 H :    0.135449
   8 H :    0.140729
   9 O :   -0.301401
  10 H :    0.152017
  11 H :    0.171729
  12 O :   -0.341194
  13 H :    0.158658
  14 H :    0.184329

  Mayer bond orders larger than 0.100000
B(  0-O ,  1-H ) :   0.8426 B(  0-O ,  2-H ) :   0.8357 B(  3-O ,  4-H ) :   0.8463
B(  3-O ,  5-H ) :   0.8270 B(  6-O ,  7-H ) :   0.8084 B(  6-O ,  8-H ) :   0.8351
B(  9-O , 10-H ) :   0.8063 B(  9-O , 11-H ) :   0.8407 B( 12-O , 13-H ) :   0.8520
B( 12-O , 14-H ) :   0.8363

MP2 TOTAL ENERGY:     -381.585117243 Eh
FINAL SINGLE POINT ENERGY      -381.585117242793

DIPOLE MOMENT
-------------
                                X             Y             Z
Electronic contribution:      0.13160      -0.02441       0.16205
Nuclear contribution   :     -0.30943       1.58749      -0.63259
                        -----------------------------------------
Total Dipole Moment    :     -0.17783       1.56308      -0.47054
                        -----------------------------------------
Magnitude (a.u.)       :      1.64203
Magnitude (Debye)      :      4.17370

Rotational constants in cm-1:     0.071137     0.034857     0.025254
Rotational constants in MHz :  2132.648025  1044.994507   757.100677

                             ****ORCA TERMINATED NORMALLY****
TOTAL RUN TIME: 0 days 0 hours 0 minutes 27 seconds 745 msec
