                         Program Version 4.2.0 -  RELEASE  -
|  1> # 12h2o.su.etal.mol2,3,4,8,9,11
|  2> ! MP2 def2-TZVP EnGrad TightSCF
|  3>
|  4> %pal
|  5>     nprocs 6
|  6> end
|  7>
|  8> %maxcore 8000
|  9>
| 10> %scf
| 11>     ConvForced true
| 12> end
| 13>
| 14> *xyz 0 1
| 15> O   0.923410000  -1.794470000  -2.768350000
| 16> H   1.359750000  -2.338250000  -3.430940000
| 17> H   1.303000000  -0.879480000  -2.865760000
| 18> O  -1.752130000  -0.741530000  -2.896280000
| 19> H  -2.036450000  -0.920500000  -1.984040000
| 20> H  -0.921210000  -1.242140000  -2.984230000
| 21> O  -0.885520000   1.737840000   0.052730000
| 22> H  -1.032320000   2.090180000  -0.841890000
| 23> H  -1.284090000   0.839590000   0.017130000
| 24> O   1.752130000   0.741530000  -2.896280000
| 25> H   2.036450000   0.920500000  -1.984040000
| 26> H   0.921210000   1.242140000  -2.984230000
| 27> O   0.741530000  -1.752130000   2.896280000
| 28> H   0.920500000  -2.036450000   1.984040000
| 29> H   1.242140000  -0.921210000   2.984230000
| 30> O  -0.741530000   1.752130000   2.896280000
| 31> H  -0.920500000   2.036450000   1.984040000
| 32> H  -1.242140000   0.921210000   2.984230000
| 33> *
| 34>
| 35>                          ****END OF INPUT****

CARTESIAN COORDINATES (ANGSTROEM)
---------------------------------
  O      0.923410   -1.794470   -2.768350
  H      1.359750   -2.338250   -3.430940
  H      1.303000   -0.879480   -2.865760
  O     -1.752130   -0.741530   -2.896280
  H     -2.036450   -0.920500   -1.984040
  H     -0.921210   -1.242140   -2.984230
  O     -0.885520    1.737840    0.052730
  H     -1.032320    2.090180   -0.841890
  H     -1.284090    0.839590    0.017130
  O      1.752130    0.741530   -2.896280
  H      2.036450    0.920500   -1.984040
  H      0.921210    1.242140   -2.984230
  O      0.741530   -1.752130    2.896280
  H      0.920500   -2.036450    1.984040
  H      1.242140   -0.921210    2.984230
  O     -0.741530    1.752130    2.896280
  H     -0.920500    2.036450    1.984040
  H     -1.242140    0.921210    2.984230

 Total Charge           Charge          ....    0
 Multiplicity           Mult            ....    1
 Number of Electrons    NEL             ....   60
 Basis Dimension        Dim             ....  258

ORBITAL ENERGIES
----------------

  NO   OCC          E(Eh)            E(eV)
   0   2.0000     -20.614864      -560.9590
   1   2.0000     -20.605222      -560.6966
   2   2.0000     -20.562905      -559.5451
   3   2.0000     -20.560791      -559.4876
   4   2.0000     -20.553619      -559.2924
   5   2.0000     -20.538877      -558.8912
   6   2.0000      -1.400580       -38.1117
   7   2.0000      -1.383337       -37.6425
   8   2.0000      -1.346828       -36.6490
   9   2.0000      -1.342102       -36.5204
  10   2.0000      -1.333472       -36.2856
  11   2.0000      -1.320648       -35.9367
  12   2.0000      -0.757201       -20.6045
  13   2.0000      -0.745889       -20.2967
  14   2.0000      -0.730609       -19.8809
  15   2.0000      -0.704673       -19.1751
  16   2.0000      -0.703183       -19.1346
  17   2.0000      -0.690942       -18.8015
  18   2.0000      -0.639964       -17.4143
  19   2.0000      -0.622748       -16.9458
  20   2.0000      -0.598302       -16.2806
  21   2.0000      -0.579899       -15.7798
  22   2.0000      -0.572210       -15.5706
  23   2.0000      -0.560967       -15.2647
  24   2.0000      -0.544242       -14.8096
  25   2.0000      -0.542758       -14.7692
  26   2.0000      -0.510377       -13.8881
  27   2.0000      -0.507576       -13.8118
  28   2.0000      -0.500233       -13.6120
  29   2.0000      -0.484761       -13.1910
  30   0.0000       0.067535         1.8377
  31   0.0000       0.112209         3.0534
  32   0.0000       0.129430         3.5220
  33   0.0000       0.138871         3.7789
  34   0.0000       0.163014         4.4358

MULLIKEN ATOMIC CHARGES
-----------------------
   0 O :   -0.741613
   1 H :    0.345257
   2 H :    0.378171
   3 O :   -0.708524
   4 H :    0.318955
   5 H :    0.366544
   6 O :   -0.692471
   7 H :    0.350467
   8 H :    0.342182
   9 O :   -0.680650
  10 H :    0.364388
  11 H :    0.360510
  12 O :   -0.683014
  13 H :    0.335165
  14 H :    0.346909
  15 O :   -0.698082
  16 H :    0.368284
  17 H :    0.327522
Sum of atomic charges:    0.0000000

LOEWDIN ATOMIC CHARGES
----------------------
   0 O :   -0.340585
   1 H :    0.157634
   2 H :    0.144681
   3 O :   -0.347241
   4 H :    0.153534
   5 H :    0.149069
   6 O :   -0.315860
   7 H :    0.168711
   8 H :    0.172728
   9 O :   -0.266890
  10 H :    0.176920
  11 H :    0.174988
  12 O :   -0.333251
  13 H :    0.164074
  14 H :    0.168696
  15 O :   -0.338645
  16 H :    0.152077
  17 H :    0.159361

  Mayer bond orders larger than 0.100000
B(  0-O ,  1-H ) :   0.8462 B(  0-O ,  2-H ) :   0.7656 B(  3-O ,  4-H ) :   0.8622
B(  3-O ,  5-H ) :   0.7998 B(  6-O ,  7-H ) :   0.8404 B(  6-O ,  8-H ) :   0.8395
B(  9-O , 10-H ) :   0.8326 B(  9-O , 11-H ) :   0.8317 B( 12-O , 13-H ) :   0.8538
B( 12-O , 14-H ) :   0.8432 B( 15-O , 16-H ) :   0.8239 B( 15-O , 17-H ) :   0.8555

MP2 TOTAL ENERGY:     -457.908722588 Eh
FINAL SINGLE POINT ENERGY      -457.908722588426

DIPOLE MOMENT
-------------
                                X             Y             Z
Electronic contribution:      0.28240       0.26906       0.02447
Nuclear contribution   :      0.22520      -0.14541      -1.40687
                        -----------------------------------------
Total Dipole Moment    :      0.50760       0.12365      -1.38240
                        -----------------------------------------
Magnitude (a.u.)       :      1.47783
Magnitude (Debye)      :      3.75634

Rotational constants in cm-1:     0.044067     0.019537     0.017172
Rotational constants in MHz :  1321.092859   585.690883   514.797996

                             ****ORCA TERMINATED NORMALLY****
TOTAL RUN TIME: 0 days 0 hours 0 minutes 49 seconds 916 msec
