                         Program Version 4.2.0 -  RELEASE  -
|  1> # 12meoh.boyd.etal.mol3,5,6
|  2> ! MP2 def2-TZVP EnGrad TightSCF
|  3>
|  4> %pal
|  5>     nprocs 6
|  6> end
|  7>
|  8> %maxcore 8000
|  9>
| 10> %scf
| 11>     ConvForced true
| 12> end
| 13>
| 14> *xyz 0 1
| 15> O  -3.821405976  -2.118091637   0.596795346
| 16> H  -4.342989117  -1.344303030   0.251966383
| 17> C  -3.443883586  -1.809641231   1.934889393
| 18> H  -2.831494349  -2.637429600   2.305201764
| 19> H  -4.325601146  -1.719364371   2.585074667
| 20> H  -2.858527126  -0.882644791   1.996110694
| 21> O  -0.662721750   1.449094618  -1.383082065
| 22> H   0.064188300   2.119867608  -1.465650660
| 23> C  -0.353319239   0.341218776  -2.229326771
| 24> H  -1.072358530  -0.454743281  -2.019906495
| 25> H   0.657636746  -0.044472139  -2.042736771
| 26> H  -0.434616607   0.624733901  -3.287793021
| 27> O   2.622209273  -1.703002590  -1.445859723
| 28> H   1.828551432  -1.986513781  -0.909754968
| 29> C   2.781117675  -2.615822239  -2.525472890
| 30> H   3.691063626  -2.339003544  -3.065143454
| 31> H   1.934727323  -2.559520367  -3.223226661
| 32> H   2.879948338  -3.653846211  -2.177750170
| 33> *
| 34>
| 35>                          ****END OF INPUT****

CARTESIAN COORDINATES (ANGSTROEM)
---------------------------------
  O     -3.821406   -2.118092    0.596795
  H     -4.342989   -1.344303    0.251966
  C     -3.443884   -1.809641    1.934889
  H     -2.831494   -2.637430    2.305202
  H     -4.325601   -1.719364    2.585075
  H     -2.858527   -0.882645    1.996111
  O     -0.662722    1.449095   -1.383082
  H      0.064188    2.119868   -1.465651
  C     -0.353319    0.341219   -2.229327
  H     -1.072359   -0.454743   -2.019906
  H      0.657637   -0.044472   -2.042737
  H     -0.434617    0.624734   -3.287793
  O      2.622209   -1.703003   -1.445860
  H      1.828551   -1.986514   -0.909755
  C      2.781118   -2.615822   -2.525473
  H      3.691064   -2.339004   -3.065143
  H      1.934727   -2.559520   -3.223227
  H      2.879948   -3.653846   -2.177750

 Total Charge           Charge          ....    0
 Multiplicity           Mult            ....    1
 Number of Electrons    NEL             ....   54
 Basis Dimension        Dim             ....  258

ORBITAL ENERGIES
----------------

  NO   OCC          E(Eh)            E(eV)
   0   2.0000     -20.562871      -559.5442
   1   2.0000     -20.556135      -559.3609
   2   2.0000     -20.552575      -559.2640
   3   2.0000     -11.275102      -306.8111
   4   2.0000     -11.269386      -306.6556
   5   2.0000     -11.265118      -306.5394
   6   2.0000      -1.351002       -36.7626
   7   2.0000      -1.345079       -36.6015
   8   2.0000      -1.340770       -36.4842
   9   2.0000      -0.923242       -25.1227
  10   2.0000      -0.917083       -24.9551
  11   2.0000      -0.914886       -24.8953
  12   2.0000      -0.685580       -18.6556
  13   2.0000      -0.679314       -18.4851
  14   2.0000      -0.675936       -18.3932
  15   2.0000      -0.623098       -16.9554
  16   2.0000      -0.615324       -16.7438
  17   2.0000      -0.610160       -16.6033
  18   2.0000      -0.595310       -16.1992
  19   2.0000      -0.588490       -16.0136
  20   2.0000      -0.586072       -15.9478
  21   2.0000      -0.504150       -13.7186
  22   2.0000      -0.499012       -13.5788
  23   2.0000      -0.495676       -13.4880
  24   2.0000      -0.455476       -12.3941
  25   2.0000      -0.447544       -12.1783
  26   2.0000      -0.442003       -12.0275
  27   0.0000       0.122301         3.3280
  28   0.0000       0.136423         3.7123
  29   0.0000       0.147571         4.0156
  30   0.0000       0.170063         4.6276
  31   0.0000       0.176237         4.7957

MULLIKEN ATOMIC CHARGES
-----------------------
   0 O :   -0.499583
   1 H :    0.324385
   2 C :   -0.177872
   3 H :    0.125153
   4 H :    0.109440
   5 H :    0.119792
   6 O :   -0.506934
   7 H :    0.323620
   8 C :   -0.193696
   9 H :    0.129468
  10 H :    0.123682
  11 H :    0.107614
  12 O :   -0.496789
  13 H :    0.329921
  14 C :   -0.175709
  15 H :    0.130115
  16 H :    0.110835
  17 H :    0.116558
Sum of atomic charges:   -0.0000000

LOEWDIN ATOMIC CHARGES
----------------------
   0 O :   -0.111725
   1 H :    0.192018
   2 C :   -0.382043
   3 H :    0.109068
   4 H :    0.095512
   5 H :    0.097867
   6 O :   -0.115280
   7 H :    0.189261
   8 C :   -0.383863
   9 H :    0.108758
  10 H :    0.097758
  11 H :    0.095180
  12 O :   -0.106164
  13 H :    0.193517
  14 C :   -0.383059
  15 H :    0.110616
  16 H :    0.094876
  17 H :    0.097704

  Mayer bond orders larger than 0.100000
B(  0-O ,  1-H ) :   0.8410 B(  0-O ,  2-C ) :   0.9235 B(  2-C ,  3-H ) :   0.9378
B(  2-C ,  4-H ) :   0.9391 B(  2-C ,  5-H ) :   0.9381 B(  6-O ,  7-H ) :   0.8419
B(  6-O ,  8-C ) :   0.9136 B(  8-C ,  9-H ) :   0.9335 B(  8-C , 10-H ) :   0.9350
B(  8-C , 11-H ) :   0.9363 B( 12-O , 13-H ) :   0.8357 B( 12-O , 14-C ) :   0.9182
B( 14-C , 15-H ) :   0.9382 B( 14-C , 16-H ) :   0.9374 B( 14-C , 17-H ) :   0.9394

MP2 TOTAL ENERGY:     -346.523084537 Eh
FINAL SINGLE POINT ENERGY      -346.523084537124

DIPOLE MOMENT
-------------
                                X             Y             Z
Electronic contribution:     -0.90353       1.97625       0.75435
Nuclear contribution   :      0.96789      -1.99920      -0.91172
                        -----------------------------------------
Total Dipole Moment    :      0.06436      -0.02295      -0.15737
                        -----------------------------------------
Magnitude (a.u.)       :      0.17157
Magnitude (Debye)      :      0.43608

Rotational constants in cm-1:     0.060371     0.019355     0.015758
Rotational constants in MHz :  1809.883090   580.244707   472.415349

                             ****ORCA TERMINATED NORMALLY****
TOTAL RUN TIME: 0 days 0 hours 1 minutes 16 seconds 262 msec
