                         Program Version 4.2.0 -  RELEASE  -
|  1> # 12h2o.su.etal.mol0,1,2,3,7,9,10
|  2> ! MP2 def2-TZVP EnGrad TightSCF
|  3>
|  4> %pal
|  5>     nprocs 6
|  6> end
|  7>
|  8> %maxcore 8000
|  9>
| 10> %scf
| 11>     ConvForced true
| 12> end
| 13>
| 14> *xyz 0 1
| 15> O   1.794470000   0.923410000   2.768350000
| 16> H   2.338250000   1.359750000   3.430940000
| 17> H   0.879480000   1.303000000   2.865760000
| 18> O  -1.794470000  -0.923410000   2.768350000
| 19> H  -2.338250000  -1.359750000   3.430940000
| 20> H  -0.879480000  -1.303000000   2.865760000
| 21> O   0.923410000  -1.794470000  -2.768350000
| 22> H   1.359750000  -2.338250000  -3.430940000
| 23> H   1.303000000  -0.879480000  -2.865760000
| 24> O  -1.752130000  -0.741530000  -2.896280000
| 25> H  -2.036450000  -0.920500000  -1.984040000
| 26> H  -0.921210000  -1.242140000  -2.984230000
| 27> O  -1.737840000  -0.885520000  -0.052730000
| 28> H  -2.090180000  -1.032320000   0.841890000
| 29> H  -0.839590000  -1.284090000  -0.017130000
| 30> O   0.741530000  -1.752130000   2.896280000
| 31> H   0.920500000  -2.036450000   1.984040000
| 32> H   1.242140000  -0.921210000   2.984230000
| 33> O  -0.923410000   1.794470000  -2.768350000
| 34> H  -1.359750000   2.338250000  -3.430940000
| 35> H  -1.303000000   0.879480000  -2.865760000
| 36> *
| 37>
| 38>                          ****END OF INPUT****

CARTESIAN COORDINATES (ANGSTROEM)
---------------------------------
  O      1.794470    0.923410    2.768350
  H      2.338250    1.359750    3.430940
  H      0.879480    1.303000    2.865760
  O     -1.794470   -0.923410    2.768350
  H     -2.338250   -1.359750    3.430940
  H     -0.879480   -1.303000    2.865760
  O      0.923410   -1.794470   -2.768350
  H      1.359750   -2.338250   -3.430940
  H      1.303000   -0.879480   -2.865760
  O     -1.752130   -0.741530   -2.896280
  H     -2.036450   -0.920500   -1.984040
  H     -0.921210   -1.242140   -2.984230
  O     -1.737840   -0.885520   -0.052730
  H     -2.090180   -1.032320    0.841890
  H     -0.839590   -1.284090   -0.017130
  O      0.741530   -1.752130    2.896280
  H      0.920500   -2.036450    1.984040
  H      1.242140   -0.921210    2.984230
  O     -0.923410    1.794470   -2.768350
  H     -1.359750    2.338250   -3.430940
  H     -1.303000    0.879480   -2.865760

 Total Charge           Charge          ....    0
 Multiplicity           Mult            ....    1
 Number of Electrons    NEL             ....   70
 Basis Dimension        Dim             ....  301

ORBITAL ENERGIES
----------------

  NO   OCC          E(Eh)            E(eV)
   0   2.0000     -20.598867      -560.5237
   1   2.0000     -20.590602      -560.2988
   2   2.0000     -20.584426      -560.1307
   3   2.0000     -20.547398      -559.1231
   4   2.0000     -20.544535      -559.0452
   5   2.0000     -20.527721      -558.5877
   6   2.0000     -20.494665      -557.6882
   7   2.0000      -1.380429       -37.5634
   8   2.0000      -1.369751       -37.2728
   9   2.0000      -1.368434       -37.2370
  10   2.0000      -1.334744       -36.3202
  11   2.0000      -1.325290       -36.0630
  12   2.0000      -1.316442       -35.8222
  13   2.0000      -1.276005       -34.7219
  14   2.0000      -0.746646       -20.3173
  15   2.0000      -0.735312       -20.0089
  16   2.0000      -0.731075       -19.8936
  17   2.0000      -0.715478       -19.4691
  18   2.0000      -0.697589       -18.9824
  19   2.0000      -0.682569       -18.5736
  20   2.0000      -0.662078       -18.0160
  21   2.0000      -0.629520       -17.1301
  22   2.0000      -0.609944       -16.5974
  23   2.0000      -0.604873       -16.4594
  24   2.0000      -0.584679       -15.9099
  25   2.0000      -0.571100       -15.5404
  26   2.0000      -0.552549       -15.0356
  27   2.0000      -0.540171       -14.6988
  28   2.0000      -0.533029       -14.5045
  29   2.0000      -0.520737       -14.1700
  30   2.0000      -0.514810       -14.0087
  31   2.0000      -0.495924       -13.4948
  32   2.0000      -0.490524       -13.3478
  33   2.0000      -0.466847       -12.7036
  34   2.0000      -0.445495       -12.1225
  35   0.0000       0.093669         2.5489
  36   0.0000       0.113350         3.0844
  37   0.0000       0.133318         3.6278
  38   0.0000       0.158019         4.2999
  39   0.0000       0.177434         4.8282

MULLIKEN ATOMIC CHARGES
-----------------------
   0 O :   -0.703161
   1 H :    0.356958
   2 H :    0.372998
   3 O :   -0.739088
   4 H :    0.337670
   5 H :    0.367314
   6 O :   -0.706315
   7 H :    0.354357
   8 H :    0.371803
   9 O :   -0.720228
  10 H :    0.385055
  11 H :    0.355167
  12 O :   -0.706000
  13 H :    0.377302
  14 H :    0.319639
  15 O :   -0.697960
  16 H :    0.349259
  17 H :    0.379411
  18 O :   -0.741286
  19 H :    0.316875
  20 H :    0.370232
Sum of atomic charges:   -0.0000000

LOEWDIN ATOMIC CHARGES
----------------------
   0 O :   -0.310355
   1 H :    0.166071
   2 H :    0.193504
   3 O :   -0.342028
   4 H :    0.154117
   5 H :    0.142025
   6 O :   -0.313736
   7 H :    0.164403
   8 H :    0.192499
   9 O :   -0.291191
  10 H :    0.156796
  11 H :    0.145519
  12 O :   -0.324481
  13 H :    0.154073
  14 H :    0.160878
  15 O :   -0.279411
  16 H :    0.167962
  17 H :    0.155711
  18 O :   -0.378495
  19 H :    0.144222
  20 H :    0.141917

  Mayer bond orders larger than 0.100000
B(  0-O ,  1-H ) :   0.8390 B(  0-O ,  2-H ) :   0.8212 B(  3-O ,  4-H ) :   0.8502
B(  3-O ,  5-H ) :   0.7601 B(  6-O ,  7-H ) :   0.8407 B(  6-O ,  8-H ) :   0.8213
B(  9-O , 10-H ) :   0.8006 B(  9-O , 11-H ) :   0.8161 B(  9-O , 20-H ) :   0.1041
B( 12-O , 13-H ) :   0.7989 B( 12-O , 14-H ) :   0.8539 B( 15-O , 16-H ) :   0.8426
B( 15-O , 17-H ) :   0.7908 B( 18-O , 19-H ) :   0.8648 B( 18-O , 20-H ) :   0.7681

MP2 TOTAL ENERGY:     -534.246231827 Eh
FINAL SINGLE POINT ENERGY      -534.246231826712

DIPOLE MOMENT
-------------
                                X             Y             Z
Electronic contribution:      0.20989      -0.13533       0.34291
Nuclear contribution   :      1.47502      -0.56463       0.77428
                        -----------------------------------------
Total Dipole Moment    :      1.68490      -0.69996       1.11719
                        -----------------------------------------
Magnitude (a.u.)       :      2.13938
Magnitude (Debye)      :      5.43788

Rotational constants in cm-1:     0.039864     0.015517     0.014975
Rotational constants in MHz :  1195.079544   465.177000   448.940211

                             ****ORCA TERMINATED NORMALLY****
TOTAL RUN TIME: 0 days 0 hours 1 minutes 26 seconds 656 msec
