                         Program Version 4.2.0 -  RELEASE  -
|  1> # 12mecn.remya.etal.2.mol0,3,7
|  2> ! MP2 def2-TZVP EnGrad TightSCF
|  3>
|  4> %pal
|  5>     nprocs 6
|  6> end
|  7>
|  8> %maxcore 8000
|  9>
| 10> %scf
| 11>     ConvForced true
| 12> end
| 13>
| 14> *xyz 0 1
| 15> C  -0.869520000  -3.929380000   1.700199000
| 16> H  -0.057420000  -3.268850000   2.015352000
| 17> H  -0.697530000  -4.930670000   2.101524000
| 18> H  -1.821490000  -3.546590000   2.077146000
| 19> C  -0.916080000  -3.969960000   0.256749000
| 20> N  -0.955390000  -3.995980000  -0.909290000
| 21> C  -5.181310000   2.853865000  -1.626100000
| 22> H  -5.488260000   3.811434000  -2.053310000
| 23> H  -5.857590000   2.068112000  -1.968630000
| 24> H  -4.170750000   2.611402000  -1.966640000
| 25> C  -5.187260000   2.919160000  -0.181450000
| 26> N  -5.181700000   2.970641000   0.983640000
| 27> C   1.502241000   0.651296000   1.710523000
| 28> H   1.309219000   1.637164000   2.143202000
| 29> H   2.493408000   0.297996000   2.009069000
| 30> H   0.746597000  -0.059850000   2.055508000
| 31> C   1.447974000   0.738517000   0.269805000
| 32> N   1.405612000   0.808047000  -0.894380000
| 33> *
| 34>
| 35>                          ****END OF INPUT****

CARTESIAN COORDINATES (ANGSTROEM)
---------------------------------
  C     -0.869520   -3.929380    1.700199
  H     -0.057420   -3.268850    2.015352
  H     -0.697530   -4.930670    2.101524
  H     -1.821490   -3.546590    2.077146
  C     -0.916080   -3.969960    0.256749
  N     -0.955390   -3.995980   -0.909290
  C     -5.181310    2.853865   -1.626100
  H     -5.488260    3.811434   -2.053310
  H     -5.857590    2.068112   -1.968630
  H     -4.170750    2.611402   -1.966640
  C     -5.187260    2.919160   -0.181450
  N     -5.181700    2.970641    0.983640
  C      1.502241    0.651296    1.710523
  H      1.309219    1.637164    2.143202
  H      2.493408    0.297996    2.009069
  H      0.746597   -0.059850    2.055508
  C      1.447974    0.738517    0.269805
  N      1.405612    0.808047   -0.894380

 Total Charge           Charge          ....    0
 Multiplicity           Mult            ....    1
 Number of Electrons    NEL             ....   66
 Basis Dimension        Dim             ....  333

ORBITAL ENERGIES
----------------

  NO   OCC          E(Eh)            E(eV)
   0   2.0000     -15.574290      -423.7980
   1   2.0000     -15.573963      -423.7891
   2   2.0000     -15.572293      -423.7436
   3   2.0000     -11.288353      -307.1717
   4   2.0000     -11.288058      -307.1637
   5   2.0000     -11.281930      -306.9969
   6   2.0000     -11.280590      -306.9605
   7   2.0000     -11.280437      -306.9563
   8   2.0000     -11.279862      -306.9406
   9   2.0000      -1.215087       -33.0642
  10   2.0000      -1.214945       -33.0603
  11   2.0000      -1.214282       -33.0423
  12   2.0000      -1.047070       -28.4922
  13   2.0000      -1.046650       -28.4808
  14   2.0000      -1.041354       -28.3367
  15   2.0000      -0.702743       -19.1226
  16   2.0000      -0.701115       -19.0783
  17   2.0000      -0.698930       -19.0189
  18   2.0000      -0.637083       -17.3359
  19   2.0000      -0.635413       -17.2905
  20   2.0000      -0.635113       -17.2823
  21   2.0000      -0.633941       -17.2504
  22   2.0000      -0.629833       -17.1386
  23   2.0000      -0.627329       -17.0705
  24   2.0000      -0.556278       -15.1371
  25   2.0000      -0.556093       -15.1321
  26   2.0000      -0.555887       -15.1264
  27   2.0000      -0.458858       -12.4861
  28   2.0000      -0.458284       -12.4705
  29   2.0000      -0.458099       -12.4655
  30   2.0000      -0.457574       -12.4512
  31   2.0000      -0.457445       -12.4477
  32   2.0000      -0.456979       -12.4350
  33   0.0000       0.093939         2.5562
  34   0.0000       0.122462         3.3324
  35   0.0000       0.133276         3.6266
  36   0.0000       0.161769         4.4020
  37   0.0000       0.168735         4.5915

MULLIKEN ATOMIC CHARGES
-----------------------
   0 C :   -0.280779
   1 H :    0.161087
   2 H :    0.175233
   3 H :    0.175201
   4 C :   -0.143968
   5 N :   -0.086806
   6 C :   -0.280930
   7 H :    0.171572
   8 H :    0.172275
   9 H :    0.178839
  10 C :   -0.145309
  11 N :   -0.096454
  12 C :   -0.277868
  13 H :    0.177054
  14 H :    0.172614
  15 H :    0.161740
  16 C :   -0.144666
  17 N :   -0.088833
Sum of atomic charges:    0.0000000

LOEWDIN ATOMIC CHARGES
----------------------
   0 C :   -0.284593
   1 H :    0.148868
   2 H :    0.152086
   3 H :    0.153394
   4 C :   -0.220502
   5 N :    0.050739
   6 C :   -0.282804
   7 H :    0.151488
   8 H :    0.151983
   9 H :    0.155311
  10 C :   -0.217950
  11 N :    0.041968
  12 C :   -0.284046
  13 H :    0.153914
  14 H :    0.152782
  15 H :    0.149277
  16 C :   -0.221092
  17 N :    0.049176

  Mayer bond orders larger than 0.100000
B(  0-C ,  1-H ) :   0.9193 B(  0-C ,  2-H ) :   0.9168 B(  0-C ,  3-H ) :   0.9167
B(  0-C ,  4-C ) :   0.9004 B(  4-C ,  5-N ) :   2.8320 B(  6-C ,  7-H ) :   0.9160
B(  6-C ,  8-H ) :   0.9162 B(  6-C ,  9-H ) :   0.9148 B(  6-C , 10-C ) :   0.9026
B( 10-C , 11-N ) :   2.8410 B( 12-C , 13-H ) :   0.9157 B( 12-C , 14-H ) :   0.9173
B( 12-C , 15-H ) :   0.9190 B( 12-C , 16-C ) :   0.8999 B( 16-C , 17-N ) :   2.8334

MP2 TOTAL ENERGY:     -397.449378361 Eh
FINAL SINGLE POINT ENERGY      -397.449378361256

DIPOLE MOMENT
-------------
                                X             Y             Z
Electronic contribution:     -0.24096       0.25741      -3.16236
Nuclear contribution   :      0.35165      -0.38346       4.60000
                        -----------------------------------------
Total Dipole Moment    :      0.11069      -0.12605       1.43764
                        -----------------------------------------
Magnitude (a.u.)       :      1.44739
Magnitude (Debye)      :      3.67898

Rotational constants in cm-1:     0.024675     0.010542     0.008553
Rotational constants in MHz :   739.742238   316.049249   256.423636

                             ****ORCA TERMINATED NORMALLY****
TOTAL RUN TIME: 0 days 0 hours 2 minutes 1 seconds 733 msec
