                         Program Version 4.2.0 -  RELEASE  -
|  1> # 12meoh.boyd.etal.mol2,6,9
|  2> ! MP2 def2-TZVP EnGrad TightSCF
|  3>
|  4> %pal
|  5>     nprocs 6
|  6> end
|  7>
|  8> %maxcore 8000
|  9>
| 10> %scf
| 11>     ConvForced true
| 12> end
| 13>
| 14> *xyz 0 1
| 15> O  -3.839777402   2.233595098   0.660436763
| 16> H  -2.958345897   1.907036203   0.973588449
| 17> C  -3.600368059   3.168790682  -0.390480452
| 18> H  -4.551709193   3.344148967  -0.901254863
| 19> H  -2.868237594   2.789240199  -1.113617525
| 20> H  -3.243594915   4.128998607   0.009549480
| 21> O   2.622209273  -1.703002590  -1.445859723
| 22> H   1.828551432  -1.986513781  -0.909754968
| 23> C   2.781117675  -2.615822239  -2.525472890
| 24> H   3.691063626  -2.339003544  -3.065143454
| 25> H   1.934727323  -2.559520367  -3.223226661
| 26> H   2.879948338  -3.653846211  -2.177750170
| 27> O   1.390610024   3.194080770  -1.536658882
| 28> H   2.162932299   2.881562730  -0.993525056
| 29> C   1.202977189   4.580367182  -1.302880219
| 30> H   0.374773115   4.915764831  -1.934164643
| 31> H   2.098649340   5.157710875  -1.570472348
| 32> H   0.950320401   4.800436015  -0.254328827
| 33> *
| 34>
| 35>                          ****END OF INPUT****

CARTESIAN COORDINATES (ANGSTROEM)
---------------------------------
  O     -3.839777    2.233595    0.660437
  H     -2.958346    1.907036    0.973588
  C     -3.600368    3.168791   -0.390480
  H     -4.551709    3.344149   -0.901255
  H     -2.868238    2.789240   -1.113618
  H     -3.243595    4.128999    0.009549
  O      2.622209   -1.703003   -1.445860
  H      1.828551   -1.986514   -0.909755
  C      2.781118   -2.615822   -2.525473
  H      3.691064   -2.339004   -3.065143
  H      1.934727   -2.559520   -3.223227
  H      2.879948   -3.653846   -2.177750
  O      1.390610    3.194081   -1.536659
  H      2.162932    2.881563   -0.993525
  C      1.202977    4.580367   -1.302880
  H      0.374773    4.915765   -1.934165
  H      2.098649    5.157711   -1.570472
  H      0.950320    4.800436   -0.254329

 Total Charge           Charge          ....    0
 Multiplicity           Mult            ....    1
 Number of Electrons    NEL             ....   54
 Basis Dimension        Dim             ....  258

ORBITAL ENERGIES
----------------

  NO   OCC          E(Eh)            E(eV)
   0   2.0000     -20.558093      -559.4141
   1   2.0000     -20.557944      -559.4101
   2   2.0000     -20.553387      -559.2861
   3   2.0000     -11.273005      -306.7541
   4   2.0000     -11.271422      -306.7110
   5   2.0000     -11.267667      -306.6088
   6   2.0000      -1.348719       -36.7005
   7   2.0000      -1.346142       -36.6304
   8   2.0000      -1.342812       -36.5398
   9   2.0000      -0.920781       -25.0557
  10   2.0000      -0.919214       -25.0131
  11   2.0000      -0.915685       -24.9171
  12   2.0000      -0.683590       -18.6014
  13   2.0000      -0.681036       -18.5319
  14   2.0000      -0.677782       -18.4434
  15   2.0000      -0.618349       -16.8261
  16   2.0000      -0.616837       -16.7850
  17   2.0000      -0.612848       -16.6764
  18   2.0000      -0.593262       -16.1435
  19   2.0000      -0.591317       -16.0905
  20   2.0000      -0.586300       -15.9540
  21   2.0000      -0.500353       -13.6153
  22   2.0000      -0.499955       -13.6045
  23   2.0000      -0.497724       -13.5438
  24   2.0000      -0.449452       -12.2302
  25   2.0000      -0.449013       -12.2183
  26   2.0000      -0.445529       -12.1235
  27   0.0000       0.121766         3.3134
  28   0.0000       0.134273         3.6537
  29   0.0000       0.147524         4.0143
  30   0.0000       0.163703         4.4546
  31   0.0000       0.176873         4.8129

MULLIKEN ATOMIC CHARGES
-----------------------
   0 O :   -0.498777
   1 H :    0.321655
   2 C :   -0.177511
   3 H :    0.127088
   4 H :    0.121394
   5 H :    0.105830
   6 O :   -0.499956
   7 H :    0.322093
   8 C :   -0.171433
   9 H :    0.128798
  10 H :    0.111657
  11 H :    0.109049
  12 O :   -0.498489
  13 H :    0.326448
  14 C :   -0.173782
  15 H :    0.127566
  16 H :    0.111996
  17 H :    0.106372
Sum of atomic charges:    0.0000000

LOEWDIN ATOMIC CHARGES
----------------------
   0 O :   -0.112013
   1 H :    0.188229
   2 C :   -0.378737
   3 H :    0.109011
   4 H :    0.098608
   5 H :    0.094817
   6 O :   -0.112189
   7 H :    0.192712
   8 C :   -0.381935
   9 H :    0.110239
  10 H :    0.096030
  11 H :    0.095279
  12 O :   -0.105454
  13 H :    0.192849
  14 C :   -0.387506
  15 H :    0.109618
  16 H :    0.096089
  17 H :    0.094354

  Mayer bond orders larger than 0.100000
B(  0-O ,  1-H ) :   0.8439 B(  0-O ,  2-C ) :   0.9255 B(  2-C ,  3-H ) :   0.9375
B(  2-C ,  4-H ) :   0.9408 B(  2-C ,  5-H ) :   0.9379 B(  6-O ,  7-H ) :   0.8411
B(  6-O ,  8-C ) :   0.9247 B(  8-C ,  9-H ) :   0.9375 B(  8-C , 10-H ) :   0.9392
B(  8-C , 11-H ) :   0.9389 B( 12-O , 13-H ) :   0.8388 B( 12-O , 14-C ) :   0.9275
B( 14-C , 15-H ) :   0.9377 B( 14-C , 16-H ) :   0.9403 B( 14-C , 17-H ) :   0.9372

MP2 TOTAL ENERGY:     -346.520705501 Eh
FINAL SINGLE POINT ENERGY      -346.520705500908

DIPOLE MOMENT
-------------
                                X             Y             Z
Electronic contribution:     -0.36342      -1.71315       2.18327
Nuclear contribution   :      1.01957       1.68867      -2.13414
                        -----------------------------------------
Total Dipole Moment    :      0.65615      -0.02448       0.04913
                        -----------------------------------------
Magnitude (a.u.)       :      0.65844
Magnitude (Debye)      :      1.67363

Rotational constants in cm-1:     0.043408     0.014586     0.011231
Rotational constants in MHz :  1301.342005   437.279662   336.701775

                             ****ORCA TERMINATED NORMALLY****
TOTAL RUN TIME: 0 days 0 hours 0 minutes 45 seconds 978 msec
