                         Program Version 4.2.0 -  RELEASE  -
|  1> # 12mecn.remya.etal.2.mol2,7,11
|  2> ! MP2 def2-TZVP EnGrad TightSCF
|  3>
|  4> %pal
|  5>     nprocs 6
|  6> end
|  7>
|  8> %maxcore 8000
|  9>
| 10> %scf
| 11>     ConvForced true
| 12> end
| 13>
| 14> *xyz 0 1
| 15> C  -4.219070000  -3.477410000  -1.501740000
| 16> H  -3.251530000  -3.803540000  -1.893830000
| 17> H  -4.452920000  -2.481700000  -1.890840000
| 18> H  -4.992170000  -4.178130000  -1.824640000
| 19> C  -4.154550000  -3.418790000  -0.058340000
| 20> N  -4.091140000  -3.354840000   1.104432000
| 21> C   1.502241000   0.651296000   1.710523000
| 22> H   1.309219000   1.637164000   2.143202000
| 23> H   2.493408000   0.297996000   2.009069000
| 24> H   0.746597000  -0.059850000   2.055508000
| 25> C   1.447974000   0.738517000   0.269805000
| 26> N   1.405612000   0.808047000  -0.894380000
| 27> C   4.214163000   3.378139000   1.593627000
| 28> H   3.242643000   3.657109000   2.012358000
| 29> H   4.969258000   4.086643000   1.941290000
| 30> H   4.482966000   2.372549000   1.931698000
| 31> C   4.130759000   3.388436000   0.150192000
| 32> N   4.050180000   3.381449000  -1.013420000
| 33> *
| 34>
| 35>                          ****END OF INPUT****

CARTESIAN COORDINATES (ANGSTROEM)
---------------------------------
  C     -4.219070   -3.477410   -1.501740
  H     -3.251530   -3.803540   -1.893830
  H     -4.452920   -2.481700   -1.890840
  H     -4.992170   -4.178130   -1.824640
  C     -4.154550   -3.418790   -0.058340
  N     -4.091140   -3.354840    1.104432
  C      1.502241    0.651296    1.710523
  H      1.309219    1.637164    2.143202
  H      2.493408    0.297996    2.009069
  H      0.746597   -0.059850    2.055508
  C      1.447974    0.738517    0.269805
  N      1.405612    0.808047   -0.894380
  C      4.214163    3.378139    1.593627
  H      3.242643    3.657109    2.012358
  H      4.969258    4.086643    1.941290
  H      4.482966    2.372549    1.931698
  C      4.130759    3.388436    0.150192
  N      4.050180    3.381449   -1.013420

 Total Charge           Charge          ....    0
 Multiplicity           Mult            ....    1
 Number of Electrons    NEL             ....   66
 Basis Dimension        Dim             ....  333

ORBITAL ENERGIES
----------------

  NO   OCC          E(Eh)            E(eV)
   0   2.0000     -15.573181      -423.7678
   1   2.0000     -15.571184      -423.7135
   2   2.0000     -15.571162      -423.7129
   3   2.0000     -11.289368      -307.1993
   4   2.0000     -11.288192      -307.1673
   5   2.0000     -11.283701      -307.0451
   6   2.0000     -11.280647      -306.9620
   7   2.0000     -11.276309      -306.8440
   8   2.0000     -11.276125      -306.8390
   9   2.0000      -1.215130       -33.0654
  10   2.0000      -1.212255       -32.9871
  11   2.0000      -1.210914       -32.9506
  12   2.0000      -1.047759       -28.5110
  13   2.0000      -1.044858       -28.4320
  14   2.0000      -1.042640       -28.3717
  15   2.0000      -0.703325       -19.1384
  16   2.0000      -0.699649       -19.0384
  17   2.0000      -0.699605       -19.0372
  18   2.0000      -0.641585       -17.4584
  19   2.0000      -0.639189       -17.3932
  20   2.0000      -0.632984       -17.2244
  21   2.0000      -0.630489       -17.1565
  22   2.0000      -0.629852       -17.1391
  23   2.0000      -0.628167       -17.0933
  24   2.0000      -0.556612       -15.1462
  25   2.0000      -0.553650       -15.0656
  26   2.0000      -0.550917       -14.9912
  27   2.0000      -0.462678       -12.5901
  28   2.0000      -0.458230       -12.4691
  29   2.0000      -0.458012       -12.4631
  30   2.0000      -0.456702       -12.4275
  31   2.0000      -0.453510       -12.3406
  32   2.0000      -0.446449       -12.1485
  33   0.0000       0.096844         2.6353
  34   0.0000       0.120785         3.2867
  35   0.0000       0.144109         3.9214
  36   0.0000       0.148601         4.0436
  37   0.0000       0.156757         4.2656

MULLIKEN ATOMIC CHARGES
-----------------------
   0 C :   -0.278952
   1 H :    0.174284
   2 H :    0.174207
   3 H :    0.171509
   4 C :   -0.145430
   5 N :   -0.095611
   6 C :   -0.282509
   7 H :    0.162164
   8 H :    0.164901
   9 H :    0.187889
  10 C :   -0.156555
  11 N :   -0.075882
  12 C :   -0.283259
  13 H :    0.164207
  14 H :    0.182461
  15 H :    0.163855
  16 C :   -0.155182
  17 N :   -0.072100
Sum of atomic charges:    0.0000000

LOEWDIN ATOMIC CHARGES
----------------------
   0 C :   -0.282940
   1 H :    0.153703
   2 H :    0.154040
   3 H :    0.151008
   4 C :   -0.218552
   5 N :    0.042744
   6 C :   -0.287321
   7 H :    0.148704
   8 H :    0.149949
   9 H :    0.155541
  10 C :   -0.225325
  11 N :    0.058511
  12 C :   -0.288109
  13 H :    0.149470
  14 H :    0.151947
  15 H :    0.149589
  16 C :   -0.224079
  17 N :    0.061118

  Mayer bond orders larger than 0.100000
B(  0-C ,  1-H ) :   0.9155 B(  0-C ,  2-H ) :   0.9156 B(  0-C ,  3-H ) :   0.9166
B(  0-C ,  4-C ) :   0.9026 B(  4-C ,  5-N ) :   2.8402 B(  6-C ,  7-H ) :   0.9212
B(  6-C ,  8-H ) :   0.9226 B(  6-C ,  9-H ) :   0.9095 B(  6-C , 10-C ) :   0.8957
B( 10-C , 11-N ) :   2.8289 B( 12-C , 13-H ) :   0.9223 B( 12-C , 14-H ) :   0.9109
B( 12-C , 15-H ) :   0.9207 B( 12-C , 16-C ) :   0.9000 B( 16-C , 17-N ) :   2.8273

MP2 TOTAL ENERGY:     -397.448319194 Eh
FINAL SINGLE POINT ENERGY      -397.448319193586

DIPOLE MOMENT
-------------
                                X             Y             Z
Electronic contribution:     -0.17324       0.34236      -3.27324
Nuclear contribution   :      0.23549      -0.51029       4.61707
                        -----------------------------------------
Total Dipole Moment    :      0.06225      -0.16793       1.34383
                        -----------------------------------------
Magnitude (a.u.)       :      1.35571
Magnitude (Debye)      :      3.44595

Rotational constants in cm-1:     0.100228     0.006871     0.006470
Rotational constants in MHz :  3004.772424   205.999141   193.969738

                             ****ORCA TERMINATED NORMALLY****
TOTAL RUN TIME: 0 days 0 hours 2 minutes 29 seconds 207 msec
