                         Program Version 4.2.0 -  RELEASE  -
|  1> # 12h2o.su.etal.mol0,1,4,6,8,10
|  2> ! MP2 def2-TZVP EnGrad TightSCF
|  3>
|  4> %pal
|  5>     nprocs 6
|  6> end
|  7>
|  8> %maxcore 8000
|  9>
| 10> %scf
| 11>     ConvForced true
| 12> end
| 13>
| 14> *xyz 0 1
| 15> O   1.794470000   0.923410000   2.768350000
| 16> H   2.338250000   1.359750000   3.430940000
| 17> H   0.879480000   1.303000000   2.865760000
| 18> O  -1.794470000  -0.923410000   2.768350000
| 19> H  -2.338250000  -1.359750000   3.430940000
| 20> H  -0.879480000  -1.303000000   2.865760000
| 21> O  -0.885520000   1.737840000   0.052730000
| 22> H  -1.032320000   2.090180000  -0.841890000
| 23> H  -1.284090000   0.839590000   0.017130000
| 24> O   1.737840000   0.885520000  -0.052730000
| 25> H   2.090180000   1.032320000   0.841890000
| 26> H   0.839590000   1.284090000  -0.017130000
| 27> O   1.752130000   0.741530000  -2.896280000
| 28> H   2.036450000   0.920500000  -1.984040000
| 29> H   0.921210000   1.242140000  -2.984230000
| 30> O  -0.923410000   1.794470000  -2.768350000
| 31> H  -1.359750000   2.338250000  -3.430940000
| 32> H  -1.303000000   0.879480000  -2.865760000
| 33> *
| 34>
| 35>                          ****END OF INPUT****

CARTESIAN COORDINATES (ANGSTROEM)
---------------------------------
  O      1.794470    0.923410    2.768350
  H      2.338250    1.359750    3.430940
  H      0.879480    1.303000    2.865760
  O     -1.794470   -0.923410    2.768350
  H     -2.338250   -1.359750    3.430940
  H     -0.879480   -1.303000    2.865760
  O     -0.885520    1.737840    0.052730
  H     -1.032320    2.090180   -0.841890
  H     -1.284090    0.839590    0.017130
  O      1.737840    0.885520   -0.052730
  H      2.090180    1.032320    0.841890
  H      0.839590    1.284090   -0.017130
  O      1.752130    0.741530   -2.896280
  H      2.036450    0.920500   -1.984040
  H      0.921210    1.242140   -2.984230
  O     -0.923410    1.794470   -2.768350
  H     -1.359750    2.338250   -3.430940
  H     -1.303000    0.879480   -2.865760

 Total Charge           Charge          ....    0
 Multiplicity           Mult            ....    1
 Number of Electrons    NEL             ....   60
 Basis Dimension        Dim             ....  258

ORBITAL ENERGIES
----------------

  NO   OCC          E(Eh)            E(eV)
   0   2.0000     -20.611373      -560.8640
   1   2.0000     -20.579978      -560.0097
   2   2.0000     -20.570883      -559.7622
   3   2.0000     -20.565736      -559.6221
   4   2.0000     -20.505497      -557.9830
   5   2.0000     -20.490647      -557.5789
   6   2.0000      -1.391786       -37.8724
   7   2.0000      -1.357929       -36.9511
   8   2.0000      -1.349285       -36.7159
   9   2.0000      -1.346161       -36.6309
  10   2.0000      -1.293310       -35.1928
  11   2.0000      -1.274877       -34.6912
  12   2.0000      -0.757158       -20.6033
  13   2.0000      -0.724823       -19.7234
  14   2.0000      -0.714721       -19.4486
  15   2.0000      -0.713065       -19.4035
  16   2.0000      -0.674428       -18.3521
  17   2.0000      -0.657442       -17.8899
  18   2.0000      -0.629813       -17.1381
  19   2.0000      -0.599111       -16.3026
  20   2.0000      -0.586478       -15.9589
  21   2.0000      -0.583031       -15.8651
  22   2.0000      -0.565710       -15.3937
  23   2.0000      -0.541366       -14.7313
  24   2.0000      -0.519673       -14.1410
  25   2.0000      -0.514224       -13.9927
  26   2.0000      -0.507542       -13.8109
  27   2.0000      -0.493050       -13.4166
  28   2.0000      -0.457388       -12.4462
  29   2.0000      -0.440326       -11.9819
  30   0.0000       0.094684         2.5765
  31   0.0000       0.109291         2.9740
  32   0.0000       0.136896         3.7251
  33   0.0000       0.161761         4.4017
  34   0.0000       0.188461         5.1283

MULLIKEN ATOMIC CHARGES
-----------------------
   0 O :   -0.699618
   1 H :    0.346728
   2 H :    0.363629
   3 O :   -0.693022
   4 H :    0.341486
   5 H :    0.353617
   6 O :   -0.697250
   7 H :    0.375290
   8 H :    0.350669
   9 O :   -0.741791
  10 H :    0.361169
  11 H :    0.340005
  12 O :   -0.727908
  13 H :    0.372907
  14 H :    0.332109
  15 O :   -0.710962
  16 H :    0.364361
  17 H :    0.368582
Sum of atomic charges:   -0.0000000

LOEWDIN ATOMIC CHARGES
----------------------
   0 O :   -0.312677
   1 H :    0.161020
   2 H :    0.187392
   3 O :   -0.341829
   4 H :    0.159483
   5 H :    0.184316
   6 O :   -0.298679
   7 H :    0.151301
   8 H :    0.174720
   9 O :   -0.349990
  10 H :    0.146090
  11 H :    0.137038
  12 O :   -0.358400
  13 H :    0.151693
  14 H :    0.135724
  15 O :   -0.286248
  16 H :    0.167777
  17 H :    0.191269

  Mayer bond orders larger than 0.100000
B(  0-O ,  1-H ) :   0.8446 B(  0-O ,  2-H ) :   0.8264 B(  3-O ,  4-H ) :   0.8511
B(  3-O ,  5-H ) :   0.8364 B(  6-O ,  7-H ) :   0.8088 B(  6-O ,  8-H ) :   0.8368
B(  9-O , 10-H ) :   0.8225 B(  9-O , 11-H ) :   0.7908 B( 12-O , 13-H ) :   0.8126
B( 12-O , 14-H ) :   0.8464 B( 15-O , 16-H ) :   0.8319 B( 15-O , 17-H ) :   0.8219

MP2 TOTAL ENERGY:     -457.913222333 Eh
FINAL SINGLE POINT ENERGY      -457.913222333175

DIPOLE MOMENT
-------------
                                X             Y             Z
Electronic contribution:     -0.03342       0.06096      -0.00672
Nuclear contribution   :     -2.04245       0.25623       1.31870
                        -----------------------------------------
Total Dipole Moment    :     -2.07588       0.31719       1.31198
                        -----------------------------------------
Magnitude (a.u.)       :      2.47612
Magnitude (Debye)      :      6.29380

Rotational constants in cm-1:     0.055745     0.025094     0.019598
Rotational constants in MHz :  1671.200002   752.285040   587.527411

                             ****ORCA TERMINATED NORMALLY****
TOTAL RUN TIME: 0 days 0 hours 1 minutes 4 seconds 790 msec
