                         Program Version 4.2.0 -  RELEASE  -
|  1> # 12h2o.su.etal.mol3,5,6,8,9,11
|  2> ! MP2 def2-TZVP EnGrad TightSCF
|  3>
|  4> %pal
|  5>     nprocs 6
|  6> end
|  7>
|  8> %maxcore 8000
|  9>
| 10> %scf
| 11>     ConvForced true
| 12> end
| 13>
| 14> *xyz 0 1
| 15> O  -1.752130000  -0.741530000  -2.896280000
| 16> H  -2.036450000  -0.920500000  -1.984040000
| 17> H  -0.921210000  -1.242140000  -2.984230000
| 18> O   0.885520000  -1.737840000   0.052730000
| 19> H   1.284090000  -0.839590000   0.017130000
| 20> H   1.032320000  -2.090180000  -0.841890000
| 21> O   1.737840000   0.885520000  -0.052730000
| 22> H   2.090180000   1.032320000   0.841890000
| 23> H   0.839590000   1.284090000  -0.017130000
| 24> O   1.752130000   0.741530000  -2.896280000
| 25> H   2.036450000   0.920500000  -1.984040000
| 26> H   0.921210000   1.242140000  -2.984230000
| 27> O   0.741530000  -1.752130000   2.896280000
| 28> H   0.920500000  -2.036450000   1.984040000
| 29> H   1.242140000  -0.921210000   2.984230000
| 30> O  -0.741530000   1.752130000   2.896280000
| 31> H  -0.920500000   2.036450000   1.984040000
| 32> H  -1.242140000   0.921210000   2.984230000
| 33> *
| 34>
| 35>                          ****END OF INPUT****

CARTESIAN COORDINATES (ANGSTROEM)
---------------------------------
  O     -1.752130   -0.741530   -2.896280
  H     -2.036450   -0.920500   -1.984040
  H     -0.921210   -1.242140   -2.984230
  O      0.885520   -1.737840    0.052730
  H      1.284090   -0.839590    0.017130
  H      1.032320   -2.090180   -0.841890
  O      1.737840    0.885520   -0.052730
  H      2.090180    1.032320    0.841890
  H      0.839590    1.284090   -0.017130
  O      1.752130    0.741530   -2.896280
  H      2.036450    0.920500   -1.984040
  H      0.921210    1.242140   -2.984230
  O      0.741530   -1.752130    2.896280
  H      0.920500   -2.036450    1.984040
  H      1.242140   -0.921210    2.984230
  O     -0.741530    1.752130    2.896280
  H     -0.920500    2.036450    1.984040
  H     -1.242140    0.921210    2.984230

 Total Charge           Charge          ....    0
 Multiplicity           Mult            ....    1
 Number of Electrons    NEL             ....   60
 Basis Dimension        Dim             ....  258

ORBITAL ENERGIES
----------------

  NO   OCC          E(Eh)            E(eV)
   0   2.0000     -20.640165      -561.6475
   1   2.0000     -20.586186      -560.1786
   2   2.0000     -20.572584      -559.8085
   3   2.0000     -20.571506      -559.7791
   4   2.0000     -20.558678      -559.4301
   5   2.0000     -20.542861      -558.9997
   6   2.0000      -1.423008       -38.7220
   7   2.0000      -1.365067       -37.1454
   8   2.0000      -1.356307       -36.9070
   9   2.0000      -1.350570       -36.7509
  10   2.0000      -1.340485       -36.4765
  11   2.0000      -1.324100       -36.0306
  12   2.0000      -0.781183       -21.2571
  13   2.0000      -0.732363       -19.9286
  14   2.0000      -0.727685       -19.8013
  15   2.0000      -0.714282       -19.4366
  16   2.0000      -0.712389       -19.3851
  17   2.0000      -0.693560       -18.8727
  18   2.0000      -0.657918       -17.9029
  19   2.0000      -0.614403       -16.7188
  20   2.0000      -0.602454       -16.3936
  21   2.0000      -0.588335       -16.0094
  22   2.0000      -0.578692       -15.7470
  23   2.0000      -0.568724       -15.4758
  24   2.0000      -0.554892       -15.0994
  25   2.0000      -0.530082       -14.4243
  26   2.0000      -0.520966       -14.1762
  27   2.0000      -0.516090       -14.0435
  28   2.0000      -0.503923       -13.7125
  29   2.0000      -0.488691       -13.2980
  30   0.0000       0.057748         1.5714
  31   0.0000       0.107206         2.9172
  32   0.0000       0.118745         3.2312
  33   0.0000       0.140246         3.8163
  34   0.0000       0.168205         4.5771

MULLIKEN ATOMIC CHARGES
-----------------------
   0 O :   -0.679961
   1 H :    0.337744
   2 H :    0.340653
   3 O :   -0.724900
   4 H :    0.352594
   5 H :    0.344501
   6 O :   -0.703746
   7 H :    0.375123
   8 H :    0.356340
   9 O :   -0.695399
  10 H :    0.366979
  11 H :    0.332280
  12 O :   -0.693454
  13 H :    0.375282
  14 H :    0.312999
  15 O :   -0.676324
  16 H :    0.322070
  17 H :    0.357221
Sum of atomic charges:   -0.0000000

LOEWDIN ATOMIC CHARGES
----------------------
   0 O :   -0.331098
   1 H :    0.164526
   2 H :    0.165092
   3 O :   -0.337794
   4 H :    0.141418
   5 H :    0.164483
   6 O :   -0.272048
   7 H :    0.178831
   8 H :    0.178331
   9 O :   -0.334757
  10 H :    0.149865
  11 H :    0.161834
  12 O :   -0.337754
  13 H :    0.154199
  14 H :    0.152333
  15 O :   -0.328065
  16 H :    0.156804
  17 H :    0.173800

  Mayer bond orders larger than 0.100000
B(  0-O ,  1-H ) :   0.8516 B(  0-O ,  2-H ) :   0.8470 B(  3-O ,  4-H ) :   0.7918
B(  3-O ,  5-H ) :   0.8445 B(  6-O ,  7-H ) :   0.8231 B(  6-O ,  8-H ) :   0.8280
B(  9-O , 10-H ) :   0.8275 B(  9-O , 11-H ) :   0.8522 B( 12-O , 13-H ) :   0.8147
B( 12-O , 14-H ) :   0.8636 B( 15-O , 16-H ) :   0.8601 B( 15-O , 17-H ) :   0.8363

MP2 TOTAL ENERGY:     -457.903476781 Eh
FINAL SINGLE POINT ENERGY      -457.903476781120

DIPOLE MOMENT
-------------
                                X             Y             Z
Electronic contribution:      0.07185       0.02472       0.00166
Nuclear contribution   :     -0.00045       0.90834      -0.00000
                        -----------------------------------------
Total Dipole Moment    :      0.07140       0.93305       0.00166
                        -----------------------------------------
Magnitude (a.u.)       :      0.93578
Magnitude (Debye)      :      2.37857

Rotational constants in cm-1:     0.044796     0.021978     0.021351
Rotational constants in MHz :  1342.948788   658.892255   640.080615

                             ****ORCA TERMINATED NORMALLY****
TOTAL RUN TIME: 0 days 0 hours 1 minutes 7 seconds 331 msec
