                         Program Version 4.2.0 -  RELEASE  -
|  1> # 12h2o.su.etal.mol1,2,3,4,6,7,9
|  2> ! MP2 def2-TZVP EnGrad TightSCF
|  3>
|  4> %pal
|  5>     nprocs 6
|  6> end
|  7>
|  8> %maxcore 8000
|  9>
| 10> %scf
| 11>     ConvForced true
| 12> end
| 13>
| 14> *xyz 0 1
| 15> O  -1.794470000  -0.923410000   2.768350000
| 16> H  -2.338250000  -1.359750000   3.430940000
| 17> H  -0.879480000  -1.303000000   2.865760000
| 18> O   0.923410000  -1.794470000  -2.768350000
| 19> H   1.359750000  -2.338250000  -3.430940000
| 20> H   1.303000000  -0.879480000  -2.865760000
| 21> O  -1.752130000  -0.741530000  -2.896280000
| 22> H  -2.036450000  -0.920500000  -1.984040000
| 23> H  -0.921210000  -1.242140000  -2.984230000
| 24> O  -0.885520000   1.737840000   0.052730000
| 25> H  -1.032320000   2.090180000  -0.841890000
| 26> H  -1.284090000   0.839590000   0.017130000
| 27> O   1.737840000   0.885520000  -0.052730000
| 28> H   2.090180000   1.032320000   0.841890000
| 29> H   0.839590000   1.284090000  -0.017130000
| 30> O  -1.737840000  -0.885520000  -0.052730000
| 31> H  -2.090180000  -1.032320000   0.841890000
| 32> H  -0.839590000  -1.284090000  -0.017130000
| 33> O   0.741530000  -1.752130000   2.896280000
| 34> H   0.920500000  -2.036450000   1.984040000
| 35> H   1.242140000  -0.921210000   2.984230000
| 36> *
| 37>
| 38>                          ****END OF INPUT****

CARTESIAN COORDINATES (ANGSTROEM)
---------------------------------
  O     -1.794470   -0.923410    2.768350
  H     -2.338250   -1.359750    3.430940
  H     -0.879480   -1.303000    2.865760
  O      0.923410   -1.794470   -2.768350
  H      1.359750   -2.338250   -3.430940
  H      1.303000   -0.879480   -2.865760
  O     -1.752130   -0.741530   -2.896280
  H     -2.036450   -0.920500   -1.984040
  H     -0.921210   -1.242140   -2.984230
  O     -0.885520    1.737840    0.052730
  H     -1.032320    2.090180   -0.841890
  H     -1.284090    0.839590    0.017130
  O      1.737840    0.885520   -0.052730
  H      2.090180    1.032320    0.841890
  H      0.839590    1.284090   -0.017130
  O     -1.737840   -0.885520   -0.052730
  H     -2.090180   -1.032320    0.841890
  H     -0.839590   -1.284090   -0.017130
  O      0.741530   -1.752130    2.896280
  H      0.920500   -2.036450    1.984040
  H      1.242140   -0.921210    2.984230

 Total Charge           Charge          ....    0
 Multiplicity           Mult            ....    1
 Number of Electrons    NEL             ....   70
 Basis Dimension        Dim             ....  301

ORBITAL ENERGIES
----------------

  NO   OCC          E(Eh)            E(eV)
   0   2.0000     -20.617748      -561.0374
   1   2.0000     -20.584615      -560.1358
   2   2.0000     -20.580907      -560.0349
   3   2.0000     -20.559722      -559.4585
   4   2.0000     -20.550186      -559.1990
   5   2.0000     -20.540696      -558.9408
   6   2.0000     -20.508541      -558.0658
   7   2.0000      -1.403304       -38.1858
   8   2.0000      -1.369664       -37.2704
   9   2.0000      -1.362273       -37.0693
  10   2.0000      -1.342369       -36.5277
  11   2.0000      -1.337253       -36.3885
  12   2.0000      -1.318388       -35.8752
  13   2.0000      -1.293861       -35.2077
  14   2.0000      -0.760323       -20.6894
  15   2.0000      -0.731628       -19.9086
  16   2.0000      -0.729299       -19.8452
  17   2.0000      -0.727280       -19.7903
  18   2.0000      -0.704096       -19.1594
  19   2.0000      -0.693416       -18.8688
  20   2.0000      -0.672167       -18.2906
  21   2.0000      -0.643247       -17.5036
  22   2.0000      -0.617795       -16.8110
  23   2.0000      -0.599660       -16.3176
  24   2.0000      -0.593346       -16.1458
  25   2.0000      -0.582551       -15.8520
  26   2.0000      -0.563618       -15.3368
  27   2.0000      -0.545987       -14.8571
  28   2.0000      -0.540574       -14.7098
  29   2.0000      -0.520710       -14.1692
  30   2.0000      -0.513377       -13.9697
  31   2.0000      -0.507722       -13.8158
  32   2.0000      -0.494610       -13.4590
  33   2.0000      -0.487590       -13.2680
  34   2.0000      -0.458451       -12.4751
  35   0.0000       0.078046         2.1238
  36   0.0000       0.118615         3.2277
  37   0.0000       0.136468         3.7135
  38   0.0000       0.150928         4.1070
  39   0.0000       0.159486         4.3398

MULLIKEN ATOMIC CHARGES
-----------------------
   0 O :   -0.735270
   1 H :    0.343060
   2 H :    0.370528
   3 O :   -0.703780
   4 H :    0.351356
   5 H :    0.370879
   6 O :   -0.727887
   7 H :    0.364892
   8 H :    0.343952
   9 O :   -0.718189
  10 H :    0.351509
  11 H :    0.379847
  12 O :   -0.721748
  13 H :    0.316504
  14 H :    0.358964
  15 O :   -0.726139
  16 H :    0.390558
  17 H :    0.343970
  18 O :   -0.676587
  19 H :    0.360046
  20 H :    0.363535
Sum of atomic charges:   -0.0000000

LOEWDIN ATOMIC CHARGES
----------------------
   0 O :   -0.337513
   1 H :    0.157220
   2 H :    0.143552
   3 O :   -0.314452
   4 H :    0.162897
   5 H :    0.191707
   6 O :   -0.355788
   7 H :    0.146672
   8 H :    0.141298
   9 O :   -0.309651
  10 H :    0.167772
  11 H :    0.146899
  12 O :   -0.365609
  13 H :    0.151734
  14 H :    0.142032
  15 O :   -0.281501
  16 H :    0.157331
  17 H :    0.169212
  18 O :   -0.265484
  19 H :    0.173490
  20 H :    0.178181

  Mayer bond orders larger than 0.100000
B(  0-O ,  1-H ) :   0.8475 B(  0-O ,  2-H ) :   0.7686 B(  3-O ,  4-H ) :   0.8423
B(  3-O ,  5-H ) :   0.8217 B(  6-O ,  7-H ) :   0.8278 B(  6-O ,  8-H ) :   0.8280
B(  9-O , 10-H ) :   0.8398 B(  9-O , 11-H ) :   0.7755 B(  9-O , 14-H ) :   0.1112
B( 12-O , 13-H ) :   0.8638 B( 12-O , 14-H ) :   0.7749 B( 15-O , 16-H ) :   0.7813
B( 15-O , 17-H ) :   0.8343 B( 18-O , 19-H ) :   0.8344 B( 18-O , 20-H ) :   0.8316

MP2 TOTAL ENERGY:     -534.247163606 Eh
FINAL SINGLE POINT ENERGY      -534.247163605568

DIPOLE MOMENT
-------------
                                X             Y             Z
Electronic contribution:     -0.17655      -0.12867       0.23532
Nuclear contribution   :      1.55481      -0.93525       0.77428
                        -----------------------------------------
Total Dipole Moment    :      1.37825      -1.06392       1.00960
                        -----------------------------------------
Magnitude (a.u.)       :      2.01266
Magnitude (Debye)      :      5.11578

Rotational constants in cm-1:     0.038670     0.021767     0.020390
Rotational constants in MHz :  1159.283303   652.565402   611.280883

                             ****ORCA TERMINATED NORMALLY****
TOTAL RUN TIME: 0 days 0 hours 2 minutes 11 seconds 636 msec
