                         Program Version 4.2.0 -  RELEASE  -
|  1> ! MP2 def2-TZVP EnGrad TightSCF FrozenCore
|  2>
|  3> %pal
|  4>     nprocs 12
|  5> end
|  6>
|  7> %maxcore 8000
|  8>
|  9> %scf
| 10>     ConvForced true
| 11> end
| 12>
| 13> *xyz 0 1
| 14> O    -1.4224558105     1.2708793301     0.0032966151
| 15> H    -0.445443474      1.454037343     -0.0064745981
| 16> C    -1.9964619626     1.864996565     -1.1539748417
| 17> H    -3.0567744616     1.5971547678    -1.1733977139
| 18> H    -1.5293096909     1.5087121058    -2.0834315349
| 19> H    -1.9169866538     2.9603707775    -1.1221822916
| 20> O    -1.2544540782    -1.4248778924     0.1166909995
| 21> H    -1.4310321735    -0.4481958466     0.0601931505
| 22> C    -1.8800747807    -1.9223931739     1.2923620396
| 23> H    -1.6539307809    -2.9902356668     1.3625474891
| 24> H    -2.9712126459    -1.8026807553     1.2456637437
| 25> H    -1.5140644195    -1.4274960237     2.2035908851
| 26> O     1.4386885146    -1.2571420151    -0.0298989145
| 27> H     0.4656776085    -1.4308724145     0.0754269115
| 28> C     1.8868322424    -1.9498594806    -1.1877116188
| 29> H     2.9474125972    -1.7192376316    -1.3230665876
| 30> H     1.3444701816    -1.6450779572    -2.0943229556
| 31> H     1.7819343845    -3.0370099427    -1.0684592017
| 32> O     1.2736067077     1.4413907986    -0.0811612102
| 33> H     1.443440359      0.4624142647    -0.1048953071
| 34> C     1.9603582083     1.9814634581     1.0405098777
| 35> H     1.7465609325     3.053534892      1.0760999006
| 36> H     3.0467362683     1.8484035714     0.9455953833
| 37> H     1.6355170554     1.5289325353     1.9885800678
| 38> *
| 39>
| 40>                          ****END OF INPUT****

CARTESIAN COORDINATES (ANGSTROEM)
---------------------------------
  O     -1.422456    1.270879    0.003297
  H     -0.445443    1.454037   -0.006475
  C     -1.996462    1.864997   -1.153975
  H     -3.056774    1.597155   -1.173398
  H     -1.529310    1.508712   -2.083432
  H     -1.916987    2.960371   -1.122182
  O     -1.254454   -1.424878    0.116691
  H     -1.431032   -0.448196    0.060193
  C     -1.880075   -1.922393    1.292362
  H     -1.653931   -2.990236    1.362547
  H     -2.971213   -1.802681    1.245664
  H     -1.514064   -1.427496    2.203591
  O      1.438689   -1.257142   -0.029899
  H      0.465678   -1.430872    0.075427
  C      1.886832   -1.949859   -1.187712
  H      2.947413   -1.719238   -1.323067
  H      1.344470   -1.645078   -2.094323
  H      1.781934   -3.037010   -1.068459
  O      1.273607    1.441391   -0.081161
  H      1.443440    0.462414   -0.104895
  C      1.960358    1.981463    1.040510
  H      1.746561    3.053535    1.076100
  H      3.046736    1.848404    0.945595
  H      1.635517    1.528933    1.988580

 Total Charge           Charge          ....    0
 Multiplicity           Mult            ....    1
 Number of Electrons    NEL             ....   72
 Basis Dimension        Dim             ....  344

ORBITAL ENERGIES
----------------

  NO   OCC          E(Eh)            E(eV)
   0   2.0000     -20.549674      -559.1851
   1   2.0000     -20.549554      -559.1818
   2   2.0000     -20.549337      -559.1759
   3   2.0000     -20.549259      -559.1738
   4   2.0000     -11.269216      -306.6510
   5   2.0000     -11.269003      -306.6452
   6   2.0000     -11.268691      -306.6367
   7   2.0000     -11.268652      -306.6356
   8   2.0000      -1.366716       -37.1902
   9   2.0000      -1.349982       -36.7349
  10   2.0000      -1.349910       -36.7329
  11   2.0000      -1.333614       -36.2895
  12   2.0000      -0.926048       -25.1990
  13   2.0000      -0.919326       -25.0161
  14   2.0000      -0.919163       -25.0117
  15   2.0000      -0.912475       -24.8297
  16   2.0000      -0.711780       -19.3685
  17   2.0000      -0.691723       -18.8227
  18   2.0000      -0.691333       -18.8121
  19   2.0000      -0.684519       -18.6267
  20   2.0000      -0.616101       -16.7650
  21   2.0000      -0.614442       -16.7198
  22   2.0000      -0.614264       -16.7150
  23   2.0000      -0.612967       -16.6797
  24   2.0000      -0.591354       -16.0915
  25   2.0000      -0.590138       -16.0585
  26   2.0000      -0.590028       -16.0555
  27   2.0000      -0.586033       -15.9468
  28   2.0000      -0.521630       -14.1943
  29   2.0000      -0.503282       -13.6950
  30   2.0000      -0.503210       -13.6930
  31   2.0000      -0.484396       -13.1811
  32   2.0000      -0.446223       -12.1424
  33   2.0000      -0.444943       -12.1075
  34   2.0000      -0.444765       -12.1027
  35   2.0000      -0.442335       -12.0365
  36   0.0000       0.132424         3.6034
  37   0.0000       0.151636         4.1262
  38   0.0000       0.163154         4.4397
  39   0.0000       0.163766         4.4563
  40   0.0000       0.194882         5.3030

MULLIKEN ATOMIC CHARGES
-----------------------
   0 O :   -0.560495
   1 H :    0.363588
   2 C :   -0.168516
   3 H :    0.126341
   4 H :    0.119300
   5 H :    0.120289
   6 O :   -0.560523
   7 H :    0.362981
   8 C :   -0.168169
   9 H :    0.126380
  10 H :    0.120310
  11 H :    0.118737
  12 O :   -0.560115
  13 H :    0.362152
  14 C :   -0.167532
  15 H :    0.126509
  16 H :    0.118950
  17 H :    0.120000
  18 O :   -0.560488
  19 H :    0.362568
  20 C :   -0.167926
  21 H :    0.126493
  22 H :    0.120555
  23 H :    0.118611
Sum of atomic charges:   -0.0000000

LOEWDIN ATOMIC CHARGES
----------------------
   0 O :   -0.090728
   1 H :    0.164866
   2 C :   -0.385331
   3 H :    0.108331
   4 H :    0.100093
   5 H :    0.102812
   6 O :   -0.090346
   7 H :    0.164876
   8 C :   -0.385299
   9 H :    0.108375
  10 H :    0.102914
  11 H :    0.099809
  12 O :   -0.090583
  13 H :    0.164534
  14 C :   -0.385350
  15 H :    0.108349
  16 H :    0.099942
  17 H :    0.102867
  18 O :   -0.090603
  19 H :    0.164587
  20 C :   -0.385327
  21 H :    0.108358
  22 H :    0.103030
  23 H :    0.099823

  Mayer bond orders larger than 0.100000
B(  0-O ,  1-H ) :   0.7434 B(  0-O ,  2-C ) :   0.8881 B(  0-O ,  7-H ) :   0.1237
B(  1-H , 18-O ) :   0.1234 B(  2-C ,  3-H ) :   0.9416 B(  2-C ,  4-H ) :   0.9386
B(  2-C ,  5-H ) :   0.9392 B(  6-O ,  7-H ) :   0.7428 B(  6-O ,  8-C ) :   0.8887
B(  6-O , 13-H ) :   0.1244 B(  8-C ,  9-H ) :   0.9415 B(  8-C , 10-H ) :   0.9393
B(  8-C , 11-H ) :   0.9388 B( 12-O , 13-H ) :   0.7445 B( 12-O , 14-C ) :   0.8878
B( 12-O , 19-H ) :   0.1242 B( 14-C , 15-H ) :   0.9416 B( 14-C , 16-H ) :   0.9384
B( 14-C , 17-H ) :   0.9395 B( 18-O , 19-H ) :   0.7442 B( 18-O , 20-C ) :   0.8881
B( 20-C , 21-H ) :   0.9416 B( 20-C , 22-H ) :   0.9395 B( 20-C , 23-H ) :   0.9385

MP2 TOTAL ENERGY:     -462.082990105 Eh
FINAL SINGLE POINT ENERGY      -462.082990104933

DIPOLE MOMENT
-------------
                                X             Y             Z
Electronic contribution:      0.08364       0.07219       0.01952
Nuclear contribution   :     -0.11231      -0.09154      -0.01940
                        -----------------------------------------
Total Dipole Moment    :     -0.02867      -0.01935       0.00011
                        -----------------------------------------
Magnitude (a.u.)       :      0.03459
Magnitude (Debye)      :      0.08792

Rotational constants in cm-1:     0.037326     0.037010     0.023475
Rotational constants in MHz :  1119.018798  1109.519694   703.774136

                             ****ORCA TERMINATED NORMALLY****
TOTAL RUN TIME: 0 days 0 hours 4 minutes 28 seconds 751 msec
