                         Program Version 4.2.0 -  RELEASE  -
|  1> # 12h2o.su.etal.mol1,2,5,6
|  2> ! MP2 def2-TZVP EnGrad TightSCF
|  3>
|  4> %pal
|  5>     nprocs 6
|  6> end
|  7>
|  8> %maxcore 8000
|  9>
| 10> %scf
| 11>     ConvForced true
| 12> end
| 13>
| 14> *xyz 0 1
| 15> O  -1.794470000  -0.923410000   2.768350000
| 16> H  -2.338250000  -1.359750000   3.430940000
| 17> H  -0.879480000  -1.303000000   2.865760000
| 18> O   0.923410000  -1.794470000  -2.768350000
| 19> H   1.359750000  -2.338250000  -3.430940000
| 20> H   1.303000000  -0.879480000  -2.865760000
| 21> O   0.885520000  -1.737840000   0.052730000
| 22> H   1.284090000  -0.839590000   0.017130000
| 23> H   1.032320000  -2.090180000  -0.841890000
| 24> O   1.737840000   0.885520000  -0.052730000
| 25> H   2.090180000   1.032320000   0.841890000
| 26> H   0.839590000   1.284090000  -0.017130000
| 27> *
| 28>
| 29>                          ****END OF INPUT****

CARTESIAN COORDINATES (ANGSTROEM)
---------------------------------
  O     -1.794470   -0.923410    2.768350
  H     -2.338250   -1.359750    3.430940
  H     -0.879480   -1.303000    2.865760
  O      0.923410   -1.794470   -2.768350
  H      1.359750   -2.338250   -3.430940
  H      1.303000   -0.879480   -2.865760
  O      0.885520   -1.737840    0.052730
  H      1.284090   -0.839590    0.017130
  H      1.032320   -2.090180   -0.841890
  O      1.737840    0.885520   -0.052730
  H      2.090180    1.032320    0.841890
  H      0.839590    1.284090   -0.017130

 Total Charge           Charge          ....    0
 Multiplicity           Mult            ....    1
 Number of Electrons    NEL             ....   40
 Basis Dimension        Dim             ....  172

ORBITAL ENERGIES
----------------

  NO   OCC          E(Eh)            E(eV)
   0   2.0000     -20.591978      -560.3362
   1   2.0000     -20.576607      -559.9179
   2   2.0000     -20.547237      -559.1188
   3   2.0000     -20.496123      -557.7279
   4   2.0000      -1.372556       -37.3492
   5   2.0000      -1.354401       -36.8551
   6   2.0000      -1.322645       -35.9910
   7   2.0000      -1.280711       -34.8499
   8   2.0000      -0.730952       -19.8902
   9   2.0000      -0.721230       -19.6257
  10   2.0000      -0.690855       -18.7991
  11   2.0000      -0.666568       -18.1382
  12   2.0000      -0.613100       -16.6833
  13   2.0000      -0.591337       -16.0911
  14   2.0000      -0.559138       -15.2149
  15   2.0000      -0.550430       -14.9780
  16   2.0000      -0.519686       -14.1414
  17   2.0000      -0.498354       -13.5609
  18   2.0000      -0.490335       -13.3427
  19   2.0000      -0.446867       -12.1599
  20   0.0000       0.104803         2.8518
  21   0.0000       0.130895         3.5618
  22   0.0000       0.147192         4.0053
  23   0.0000       0.184639         5.0243
  24   0.0000       0.202384         5.5071

MULLIKEN ATOMIC CHARGES
-----------------------
   0 O :   -0.687035
   1 H :    0.333316
   2 H :    0.351291
   3 O :   -0.689927
   4 H :    0.344957
   5 H :    0.353993
   6 O :   -0.732551
   7 H :    0.332777
   8 H :    0.359174
   9 O :   -0.687348
  10 H :    0.357694
  11 H :    0.363659
Sum of atomic charges:    0.0000000

LOEWDIN ATOMIC CHARGES
----------------------
   0 O :   -0.341170
   1 H :    0.155388
   2 H :    0.183363
   3 O :   -0.309811
   4 H :    0.159987
   5 H :    0.184614
   6 O :   -0.371567
   7 H :    0.133138
   8 H :    0.144353
   9 O :   -0.294490
  10 H :    0.173497
  11 H :    0.182698

  Mayer bond orders larger than 0.100000
B(  0-O ,  1-H ) :   0.8562 B(  0-O ,  2-H ) :   0.8383 B(  3-O ,  4-H ) :   0.8456
B(  3-O ,  5-H ) :   0.8347 B(  6-O ,  7-H ) :   0.8180 B(  6-O ,  8-H ) :   0.8289
B(  9-O , 10-H ) :   0.8383 B(  9-O , 11-H ) :   0.8314

MP2 TOTAL ENERGY:     -305.263852096 Eh
FINAL SINGLE POINT ENERGY      -305.263852095795

DIPOLE MOMENT
-------------
                                X             Y             Z
Electronic contribution:     -0.10678       0.10535      -0.18141
Nuclear contribution   :      0.98768       0.53817       0.00000
                        -----------------------------------------
Total Dipole Moment    :      0.88089       0.64353      -0.18141
                        -----------------------------------------
Magnitude (a.u.)       :      1.10590
Magnitude (Debye)      :      2.81097

Rotational constants in cm-1:     0.126126     0.043547     0.034689
Rotational constants in MHz :  3781.148707  1305.507710  1039.949304

                             ****ORCA TERMINATED NORMALLY****
TOTAL RUN TIME: 0 days 0 hours 0 minutes 15 seconds 863 msec
