                         Program Version 4.2.0 -  RELEASE  -
|  1> # 12h2o.su.etal.mol0,2,4,6,10,11
|  2> ! MP2 def2-TZVP EnGrad TightSCF
|  3>
|  4> %pal
|  5>     nprocs 6
|  6> end
|  7>
|  8> %maxcore 8000
|  9>
| 10> %scf
| 11>     ConvForced true
| 12> end
| 13>
| 14> *xyz 0 1
| 15> O   1.794470000   0.923410000   2.768350000
| 16> H   2.338250000   1.359750000   3.430940000
| 17> H   0.879480000   1.303000000   2.865760000
| 18> O   0.923410000  -1.794470000  -2.768350000
| 19> H   1.359750000  -2.338250000  -3.430940000
| 20> H   1.303000000  -0.879480000  -2.865760000
| 21> O  -0.885520000   1.737840000   0.052730000
| 22> H  -1.032320000   2.090180000  -0.841890000
| 23> H  -1.284090000   0.839590000   0.017130000
| 24> O   1.737840000   0.885520000  -0.052730000
| 25> H   2.090180000   1.032320000   0.841890000
| 26> H   0.839590000   1.284090000  -0.017130000
| 27> O  -0.923410000   1.794470000  -2.768350000
| 28> H  -1.359750000   2.338250000  -3.430940000
| 29> H  -1.303000000   0.879480000  -2.865760000
| 30> O  -0.741530000   1.752130000   2.896280000
| 31> H  -0.920500000   2.036450000   1.984040000
| 32> H  -1.242140000   0.921210000   2.984230000
| 33> *
| 34>
| 35>                          ****END OF INPUT****

CARTESIAN COORDINATES (ANGSTROEM)
---------------------------------
  O      1.794470    0.923410    2.768350
  H      2.338250    1.359750    3.430940
  H      0.879480    1.303000    2.865760
  O      0.923410   -1.794470   -2.768350
  H      1.359750   -2.338250   -3.430940
  H      1.303000   -0.879480   -2.865760
  O     -0.885520    1.737840    0.052730
  H     -1.032320    2.090180   -0.841890
  H     -1.284090    0.839590    0.017130
  O      1.737840    0.885520   -0.052730
  H      2.090180    1.032320    0.841890
  H      0.839590    1.284090   -0.017130
  O     -0.923410    1.794470   -2.768350
  H     -1.359750    2.338250   -3.430940
  H     -1.303000    0.879480   -2.865760
  O     -0.741530    1.752130    2.896280
  H     -0.920500    2.036450    1.984040
  H     -1.242140    0.921210    2.984230

 Total Charge           Charge          ....    0
 Multiplicity           Mult            ....    1
 Number of Electrons    NEL             ....   60
 Basis Dimension        Dim             ....  258

ORBITAL ENERGIES
----------------

  NO   OCC          E(Eh)            E(eV)
   0   2.0000     -20.602963      -560.6351
   1   2.0000     -20.588991      -560.2549
   2   2.0000     -20.574318      -559.8557
   3   2.0000     -20.551840      -559.2440
   4   2.0000     -20.523102      -558.4620
   5   2.0000     -20.483010      -557.3710
   6   2.0000      -1.384083       -37.6628
   7   2.0000      -1.373119       -37.3645
   8   2.0000      -1.360911       -37.0323
   9   2.0000      -1.327200       -36.1149
  10   2.0000      -1.307756       -35.5858
  11   2.0000      -1.267292       -34.4848
  12   2.0000      -0.749358       -20.3911
  13   2.0000      -0.739505       -20.1230
  14   2.0000      -0.721211       -19.6252
  15   2.0000      -0.695193       -18.9172
  16   2.0000      -0.692801       -18.8521
  17   2.0000      -0.655375       -17.8337
  18   2.0000      -0.634076       -17.2541
  19   2.0000      -0.613109       -16.6836
  20   2.0000      -0.587857       -15.9964
  21   2.0000      -0.564701       -15.3663
  22   2.0000      -0.564043       -15.3484
  23   2.0000      -0.545506       -14.8440
  24   2.0000      -0.536611       -14.6019
  25   2.0000      -0.505402       -13.7527
  26   2.0000      -0.499333       -13.5875
  27   2.0000      -0.494969       -13.4688
  28   2.0000      -0.467618       -12.7245
  29   2.0000      -0.433889       -11.8067
  30   0.0000       0.089719         2.4414
  31   0.0000       0.124161         3.3786
  32   0.0000       0.143408         3.9023
  33   0.0000       0.164556         4.4778
  34   0.0000       0.178664         4.8617

MULLIKEN ATOMIC CHARGES
-----------------------
   0 O :   -0.731393
   1 H :    0.328633
   2 H :    0.367343
   3 O :   -0.694235
   4 H :    0.334619
   5 H :    0.358533
   6 O :   -0.722590
   7 H :    0.389888
   8 H :    0.347497
   9 O :   -0.738172
  10 H :    0.361038
  11 H :    0.338892
  12 O :   -0.696758
  13 H :    0.355425
  14 H :    0.361067
  15 O :   -0.692727
  16 H :    0.386919
  17 H :    0.346021
Sum of atomic charges:   -0.0000000

LOEWDIN ATOMIC CHARGES
----------------------
   0 O :   -0.340467
   1 H :    0.149647
   2 H :    0.143251
   3 O :   -0.343190
   4 H :    0.156297
   5 H :    0.185279
   6 O :   -0.285686
   7 H :    0.158684
   8 H :    0.174279
   9 O :   -0.373324
  10 H :    0.144718
  11 H :    0.132657
  12 O :   -0.307831
  13 H :    0.165425
  14 H :    0.187781
  15 O :   -0.275600
  16 H :    0.157820
  17 H :    0.170261

  Mayer bond orders larger than 0.100000
B(  0-O ,  1-H ) :   0.8548 B(  0-O ,  2-H ) :   0.7682 B(  3-O ,  4-H ) :   0.8551
B(  3-O ,  5-H ) :   0.8318 B(  6-O ,  7-H ) :   0.7900 B(  6-O ,  8-H ) :   0.8369
B(  9-O , 10-H ) :   0.8194 B(  9-O , 11-H ) :   0.8232 B( 12-O , 13-H ) :   0.8399
B( 12-O , 14-H ) :   0.8278 B( 15-O , 16-H ) :   0.8004 B( 15-O , 17-H ) :   0.8443

MP2 TOTAL ENERGY:     -457.914884906 Eh
FINAL SINGLE POINT ENERGY      -457.914884905597

DIPOLE MOMENT
-------------
                                X             Y             Z
Electronic contribution:     -0.17225       0.14841      -0.01707
Nuclear contribution   :     -1.78297       0.22373      -1.31870
                        -----------------------------------------
Total Dipole Moment    :     -1.95522       0.37214      -1.33577
                        -----------------------------------------
Magnitude (a.u.)       :      2.39701
Magnitude (Debye)      :      6.09273

Rotational constants in cm-1:     0.058021     0.025172     0.019587
Rotational constants in MHz :  1739.435032   754.651816   587.195827

                             ****ORCA TERMINATED NORMALLY****
TOTAL RUN TIME: 0 days 0 hours 1 minutes 0 seconds 341 msec
