                         Program Version 4.2.0 -  RELEASE  -
|  1> # 12meoh.boyd.etal.mol7,8,9
|  2> ! MP2 def2-TZVP EnGrad TightSCF
|  3>
|  4> %pal
|  5>     nprocs 6
|  6> end
|  7>
|  8> %maxcore 8000
|  9>
| 10> %scf
| 11>     ConvForced true
| 12> end
| 13>
| 14> *xyz 0 1
| 15> O   4.310535586  -1.588322800   0.656128299
| 16> H   3.804372199  -1.630404735  -0.196849819
| 17> C   4.312298137  -2.894980854   1.222112691
| 18> H   4.713177833  -2.819907076   2.237066773
| 19> H   4.957796734  -3.574699304   0.648211180
| 20> H   3.302735989  -3.324433205   1.269756773
| 21> O   3.570084754   2.361662577  -0.202416728
| 22> H   3.393280933   1.755669977   0.560634073
| 23> C   4.368082883   1.644741793  -1.143112807
| 24> H   4.552851717   2.311801738  -1.989632421
| 25> H   3.862427494   0.740851663  -1.508095690
| 26> H   5.333949674   1.357289092  -0.706288100
| 27> O   1.390610024   3.194080770  -1.536658882
| 28> H   2.162932299   2.881562730  -0.993525056
| 29> C   1.202977189   4.580367182  -1.302880219
| 30> H   0.374773115   4.915764831  -1.934164643
| 31> H   2.098649340   5.157710875  -1.570472348
| 32> H   0.950320401   4.800436015  -0.254328827
| 33> *
| 34>
| 35>                          ****END OF INPUT****

CARTESIAN COORDINATES (ANGSTROEM)
---------------------------------
  O      4.310536   -1.588323    0.656128
  H      3.804372   -1.630405   -0.196850
  C      4.312298   -2.894981    1.222113
  H      4.713178   -2.819907    2.237067
  H      4.957797   -3.574699    0.648211
  H      3.302736   -3.324433    1.269757
  O      3.570085    2.361663   -0.202417
  H      3.393281    1.755670    0.560634
  C      4.368083    1.644742   -1.143113
  H      4.552852    2.311802   -1.989632
  H      3.862427    0.740852   -1.508096
  H      5.333950    1.357289   -0.706288
  O      1.390610    3.194081   -1.536659
  H      2.162932    2.881563   -0.993525
  C      1.202977    4.580367   -1.302880
  H      0.374773    4.915765   -1.934165
  H      2.098649    5.157711   -1.570472
  H      0.950320    4.800436   -0.254329

 Total Charge           Charge          ....    0
 Multiplicity           Mult            ....    1
 Number of Electrons    NEL             ....   54
 Basis Dimension        Dim             ....  258

ORBITAL ENERGIES
----------------

  NO   OCC          E(Eh)            E(eV)
   0   2.0000     -20.582619      -560.0815
   1   2.0000     -20.571882      -559.7894
   2   2.0000     -20.511476      -558.1456
   3   2.0000     -11.283143      -307.0299
   4   2.0000     -11.282118      -307.0020
   5   2.0000     -11.245796      -306.0137
   6   2.0000      -1.376335       -37.4520
   7   2.0000      -1.361258       -37.0417
   8   2.0000      -1.309575       -35.6353
   9   2.0000      -0.934957       -25.4415
  10   2.0000      -0.930570       -25.3221
  11   2.0000      -0.892581       -24.2884
  12   2.0000      -0.710820       -19.3424
  13   2.0000      -0.694959       -18.9108
  14   2.0000      -0.668262       -18.1843
  15   2.0000      -0.628604       -17.1052
  16   2.0000      -0.626246       -17.0410
  17   2.0000      -0.604983       -16.4624
  18   2.0000      -0.602825       -16.4037
  19   2.0000      -0.587435       -15.9849
  20   2.0000      -0.559933       -15.2366
  21   2.0000      -0.522760       -14.2250
  22   2.0000      -0.513513       -13.9734
  23   2.0000      -0.483068       -13.1450
  24   2.0000      -0.462173       -12.5764
  25   2.0000      -0.451521       -12.2865
  26   2.0000      -0.413720       -11.2579
  27   0.0000       0.109900         2.9905
  28   0.0000       0.143822         3.9136
  29   0.0000       0.162568         4.4237
  30   0.0000       0.173575         4.7232
  31   0.0000       0.188578         5.1315

MULLIKEN ATOMIC CHARGES
-----------------------
   0 O :   -0.502894
   1 H :    0.325000
   2 C :   -0.180027
   3 H :    0.132303
   4 H :    0.114327
   5 H :    0.116425
   6 O :   -0.521026
   7 H :    0.346629
   8 C :   -0.179772
   9 H :    0.146352
  10 H :    0.106174
  11 H :    0.135802
  12 O :   -0.537098
  13 H :    0.343897
  14 C :   -0.156044
  15 H :    0.117521
  16 H :    0.096219
  17 H :    0.096212
Sum of atomic charges:    0.0000000

LOEWDIN ATOMIC CHARGES
----------------------
   0 O :   -0.113296
   1 H :    0.189153
   2 C :   -0.377481
   3 H :    0.111127
   4 H :    0.097479
   5 H :    0.097928
   6 O :   -0.077672
   7 H :    0.198342
   8 C :   -0.371198
   9 H :    0.115627
  10 H :    0.097102
  11 H :    0.106922
  12 O :   -0.122972
  13 H :    0.157802
  14 C :   -0.396651
  15 H :    0.104682
  16 H :    0.091664
  17 H :    0.091443

  Mayer bond orders larger than 0.100000
B(  0-O ,  1-H ) :   0.8390 B(  0-O ,  2-C ) :   0.9153 B(  2-C ,  3-H ) :   0.9384
B(  2-C ,  4-H ) :   0.9382 B(  2-C ,  5-H ) :   0.9399 B(  6-O ,  7-H ) :   0.8248
B(  6-O ,  8-C ) :   0.8693 B(  8-C ,  9-H ) :   0.9373 B(  8-C , 10-H ) :   0.9431
B(  8-C , 11-H ) :   0.9333 B( 12-O , 13-H ) :   0.7862 B( 12-O , 14-C ) :   0.9453
B( 14-C , 15-H ) :   0.9408 B( 14-C , 16-H ) :   0.9366 B( 14-C , 17-H ) :   0.9425

MP2 TOTAL ENERGY:     -346.533174371 Eh
FINAL SINGLE POINT ENERGY      -346.533174370836

DIPOLE MOMENT
-------------
                                X             Y             Z
Electronic contribution:     -0.45321       0.64357       0.26640
Nuclear contribution   :      1.12101      -1.80324       0.11223
                        -----------------------------------------
Total Dipole Moment    :      0.66780      -1.15967       0.37863
                        -----------------------------------------
Magnitude (a.u.)       :      1.39074
Magnitude (Debye)      :      3.53499

Rotational constants in cm-1:     0.201080     0.018911     0.018047
Rotational constants in MHz :  6028.238905   566.929065   541.045441

                             ****ORCA TERMINATED NORMALLY****
TOTAL RUN TIME: 0 days 0 hours 1 minutes 7 seconds 668 msec
