                         Program Version 4.2.0 -  RELEASE  -
|  1> # 12h2o.su.etal.mol1,3,4,8,9,10
|  2> ! MP2 def2-TZVP EnGrad TightSCF
|  3>
|  4> %pal
|  5>     nprocs 6
|  6> end
|  7>
|  8> %maxcore 8000
|  9>
| 10> %scf
| 11>     ConvForced true
| 12> end
| 13>
| 14> *xyz 0 1
| 15> O  -1.794470000  -0.923410000   2.768350000
| 16> H  -2.338250000  -1.359750000   3.430940000
| 17> H  -0.879480000  -1.303000000   2.865760000
| 18> O  -1.752130000  -0.741530000  -2.896280000
| 19> H  -2.036450000  -0.920500000  -1.984040000
| 20> H  -0.921210000  -1.242140000  -2.984230000
| 21> O  -0.885520000   1.737840000   0.052730000
| 22> H  -1.032320000   2.090180000  -0.841890000
| 23> H  -1.284090000   0.839590000   0.017130000
| 24> O   1.752130000   0.741530000  -2.896280000
| 25> H   2.036450000   0.920500000  -1.984040000
| 26> H   0.921210000   1.242140000  -2.984230000
| 27> O   0.741530000  -1.752130000   2.896280000
| 28> H   0.920500000  -2.036450000   1.984040000
| 29> H   1.242140000  -0.921210000   2.984230000
| 30> O  -0.923410000   1.794470000  -2.768350000
| 31> H  -1.359750000   2.338250000  -3.430940000
| 32> H  -1.303000000   0.879480000  -2.865760000
| 33> *
| 34>
| 35>                          ****END OF INPUT****

CARTESIAN COORDINATES (ANGSTROEM)
---------------------------------
  O     -1.794470   -0.923410    2.768350
  H     -2.338250   -1.359750    3.430940
  H     -0.879480   -1.303000    2.865760
  O     -1.752130   -0.741530   -2.896280
  H     -2.036450   -0.920500   -1.984040
  H     -0.921210   -1.242140   -2.984230
  O     -0.885520    1.737840    0.052730
  H     -1.032320    2.090180   -0.841890
  H     -1.284090    0.839590    0.017130
  O      1.752130    0.741530   -2.896280
  H      2.036450    0.920500   -1.984040
  H      0.921210    1.242140   -2.984230
  O      0.741530   -1.752130    2.896280
  H      0.920500   -2.036450    1.984040
  H      1.242140   -0.921210    2.984230
  O     -0.923410    1.794470   -2.768350
  H     -1.359750    2.338250   -3.430940
  H     -1.303000    0.879480   -2.865760

 Total Charge           Charge          ....    0
 Multiplicity           Mult            ....    1
 Number of Electrons    NEL             ....   60
 Basis Dimension        Dim             ....  258

ORBITAL ENERGIES
----------------

  NO   OCC          E(Eh)            E(eV)
   0   2.0000     -20.615511      -560.9766
   1   2.0000     -20.602085      -560.6112
   2   2.0000     -20.571602      -559.7818
   3   2.0000     -20.536744      -558.8332
   4   2.0000     -20.534160      -558.7629
   5   2.0000     -20.524129      -558.4899
   6   2.0000      -1.401678       -38.1416
   7   2.0000      -1.387361       -37.7520
   8   2.0000      -1.358080       -36.9552
   9   2.0000      -1.318894       -35.8889
  10   2.0000      -1.312796       -35.7230
  11   2.0000      -1.306364       -35.5480
  12   2.0000      -0.757609       -20.6156
  13   2.0000      -0.744878       -20.2692
  14   2.0000      -0.740373       -20.1466
  15   2.0000      -0.697128       -18.9698
  16   2.0000      -0.688983       -18.7482
  17   2.0000      -0.682509       -18.5720
  18   2.0000      -0.642090       -17.4721
  19   2.0000      -0.622411       -16.9367
  20   2.0000      -0.602618       -16.3981
  21   2.0000      -0.568226       -15.4622
  22   2.0000      -0.563461       -15.3325
  23   2.0000      -0.557662       -15.1748
  24   2.0000      -0.540886       -14.7182
  25   2.0000      -0.520062       -14.1516
  26   2.0000      -0.513186       -13.9645
  27   2.0000      -0.484830       -13.1929
  28   2.0000      -0.479379       -13.0446
  29   2.0000      -0.474425       -12.9097
  30   0.0000       0.082542         2.2461
  31   0.0000       0.110920         3.0183
  32   0.0000       0.144811         3.9405
  33   0.0000       0.159190         4.3318
  34   0.0000       0.173487         4.7208

MULLIKEN ATOMIC CHARGES
-----------------------
   0 O :   -0.730368
   1 H :    0.326179
   2 H :    0.363553
   3 O :   -0.682812
   4 H :    0.359444
   5 H :    0.372555
   6 O :   -0.691213
   7 H :    0.363609
   8 H :    0.313203
   9 O :   -0.716005
  10 H :    0.332756
  11 H :    0.362192
  12 O :   -0.677440
  13 H :    0.354909
  14 H :    0.366345
  15 O :   -0.747940
  16 H :    0.351276
  17 H :    0.379756
Sum of atomic charges:    0.0000000

LOEWDIN ATOMIC CHARGES
----------------------
   0 O :   -0.371513
   1 H :    0.149489
   2 H :    0.141420
   3 O :   -0.266009
   4 H :    0.173749
   5 H :    0.181376
   6 O :   -0.345180
   7 H :    0.146551
   8 H :    0.157799
   9 O :   -0.351313
  10 H :    0.161008
  11 H :    0.146307
  12 O :   -0.270397
  13 H :    0.173468
  14 H :    0.180045
  15 O :   -0.311850
  16 H :    0.159662
  17 H :    0.145388

  Mayer bond orders larger than 0.100000
B(  0-O ,  1-H ) :   0.8597 B(  0-O ,  2-H ) :   0.7880 B(  3-O ,  4-H ) :   0.8352
B(  3-O ,  5-H ) :   0.8240 B(  6-O ,  7-H ) :   0.8183 B(  6-O ,  8-H ) :   0.8603
B(  9-O , 10-H ) :   0.8546 B(  9-O , 11-H ) :   0.8125 B( 12-O , 13-H ) :   0.8392
B( 12-O , 14-H ) :   0.8317 B( 15-O , 16-H ) :   0.8398 B( 15-O , 17-H ) :   0.7529

MP2 TOTAL ENERGY:     -457.913227440 Eh
FINAL SINGLE POINT ENERGY      -457.913227440392

DIPOLE MOMENT
-------------
                                X             Y             Z
Electronic contribution:      0.08563      -0.11800      -0.12845
Nuclear contribution   :     -0.25846      -0.98755      -0.08817
                        -----------------------------------------
Total Dipole Moment    :     -0.17283      -1.10555      -0.21662
                        -----------------------------------------
Magnitude (a.u.)       :      1.13976
Magnitude (Debye)      :      2.89703

Rotational constants in cm-1:     0.055564     0.018589     0.017333
Rotational constants in MHz :  1665.765227   557.270458   519.630740

                             ****ORCA TERMINATED NORMALLY****
TOTAL RUN TIME: 0 days 0 hours 0 minutes 54 seconds 305 msec
