                         Program Version 3.0.3 - RELEASE   -
|  1> ! wB97X-D3 Def2-TZVP def2-TZVP/J RIJCOSX TightSCF Grid4
|  2>
|  3> %pal nprocs 12 end
|  4>
|  5> %scf
|  6>         maxiter 400
|  7> end
|  8>
|  9> * xyz  0  1
| 10> O  2.457257	2.397426	-0.267372
| 11> H  3.017986	3.181022	-0.204139
| 12> H  1.562206	2.705308	-0.626310
| 13> O  -0.004265	-1.132195	3.009743
| 14> H  0.534598	-0.395356	2.650859
| 15> H  -0.929761	-0.808062	2.932240
| 16> O  0.230509	0.997770	-3.181232
| 17> H  1.152565	0.728158	-2.858862
| 18> H  0.290968	1.089486	-4.141043
| 19> O  -2.536983	-0.402347	2.216348
| 20> H  -2.638598	-1.125322	1.514406
| 21> H  -3.366518	-0.387810	2.711862
| 22> O  2.517790	0.346076	-2.122132
| 23> H  2.305056	-0.423938	-1.551825
| 24> H  2.695571	1.072781	-1.486019
| 25> O  1.239904	-1.326839	-0.401033
| 26> H  0.362901	-1.124132	-0.832840
| 27> H  1.037457	-2.138383	0.114826
| 28> O  1.099843	0.707888	1.319297
| 29> H  1.738187	1.388078	1.007364
| 30> H  1.244971	-0.063087	0.704513
| 31> O  -1.111539	-0.594207	-1.400346
| 32> H  -0.844185	-0.140031	-2.230426
| 33> H  -1.278590	0.148954	-0.758864
| 34> O  -2.552884	-2.238477	0.342879
| 35> H  -2.269362	-1.784753	-0.478255
| 36> H  -1.735335	-2.714575	0.614464
| 37> O  -0.068813	-3.019093	1.236365
| 38> H  -0.014969	-2.334922	1.984010
| 39> H  0.130715	-3.871690	1.646390
| 40> O  -1.353287	1.301129	0.454200
| 41> H  -0.454320	1.142824	0.853547
| 42> H  -1.975497	0.921760	1.112839
| 43> O  0.092668	2.932261	-1.218857
| 44> H  -0.614553	2.585778	-0.636924
| 45> H  0.038316	2.378516	-2.029672
| 46> **                         ****END OF INPUT****

CARTESIAN COORDINATES (ANGSTROEM)
---------------------------------
  O      2.457257    2.397426   -0.267372
  H      3.017986    3.181022   -0.204139
  H      1.562206    2.705308   -0.626310
  O     -0.004265   -1.132195    3.009743
  H      0.534598   -0.395356    2.650859
  H     -0.929761   -0.808062    2.932240
  O      0.230509    0.997770   -3.181232
  H      1.152565    0.728158   -2.858862
  H      0.290968    1.089486   -4.141043
  O     -2.536983   -0.402347    2.216348
  H     -2.638598   -1.125322    1.514406
  H     -3.366518   -0.387810    2.711862
  O      2.517790    0.346076   -2.122132
  H      2.305056   -0.423938   -1.551825
  H      2.695571    1.072781   -1.486019
  O      1.239904   -1.326839   -0.401033
  H      0.362901   -1.124132   -0.832840
  H      1.037457   -2.138383    0.114826
  O      1.099843    0.707888    1.319297
  H      1.738187    1.388078    1.007364
  H      1.244971   -0.063087    0.704513
  O     -1.111539   -0.594207   -1.400346
  H     -0.844185   -0.140031   -2.230426
  H     -1.278590    0.148954   -0.758864
  O     -2.552884   -2.238477    0.342879
  H     -2.269362   -1.784753   -0.478255
  H     -1.735335   -2.714575    0.614464
  O     -0.068813   -3.019093    1.236365
  H     -0.014969   -2.334922    1.984010
  H      0.130715   -3.871690    1.646390
  O     -1.353287    1.301129    0.454200
  H     -0.454320    1.142824    0.853547
  H     -1.975497    0.921760    1.112839
  O      0.092668    2.932261   -1.218857
  H     -0.614553    2.585778   -0.636924
  H      0.038316    2.378516   -2.029672

 Total Charge           Charge          ....    0
 Multiplicity           Mult            ....    1
 Number of Electrons    NEL             ....  120
 Basis Dimension        Dim             ....  516

ORBITAL ENERGIES
----------------

  NO   OCC          E(Eh)            E(eV)
   0   2.0000     -19.250414      -523.8304
   1   2.0000     -19.248013      -523.7651
   2   2.0000     -19.246913      -523.7351
   3   2.0000     -19.246265      -523.7175
   4   2.0000     -19.233438      -523.3685
   5   2.0000     -19.233209      -523.3622
   6   2.0000     -19.232898      -523.3537
   7   2.0000     -19.232160      -523.3337
   8   2.0000     -19.230159      -523.2792
   9   2.0000     -19.229414      -523.2589
  10   2.0000     -19.229113      -523.2508
  11   2.0000     -19.227070      -523.1952
  12   2.0000      -1.156653       -31.4741
  13   2.0000      -1.148364       -31.2486
  14   2.0000      -1.141543       -31.0630
  15   2.0000      -1.140233       -31.0273
  16   2.0000      -1.135786       -30.9063
  17   2.0000      -1.127093       -30.6697
  18   2.0000      -1.126768       -30.6609
  19   2.0000      -1.116980       -30.3946
  20   2.0000      -1.114808       -30.3355
  21   2.0000      -1.114027       -30.3142
  22   2.0000      -1.109934       -30.2028
  23   2.0000      -1.098349       -29.8876
  24   2.0000      -0.663119       -18.0444
  25   2.0000      -0.658062       -17.9068
  26   2.0000      -0.655999       -17.8506
  27   2.0000      -0.653010       -17.7693
  28   2.0000      -0.647550       -17.6207
  29   2.0000      -0.642305       -17.4780
  30   2.0000      -0.639436       -17.3999
  31   2.0000      -0.638168       -17.3654
  32   2.0000      -0.624671       -16.9982
  33   2.0000      -0.618837       -16.8394
  34   2.0000      -0.617346       -16.7989
  35   2.0000      -0.616532       -16.7767
  36   2.0000      -0.581428       -15.8215
  37   2.0000      -0.550416       -14.9776
  38   2.0000      -0.538019       -14.6402
  39   2.0000      -0.536597       -14.6015
  40   2.0000      -0.512687       -13.9509
  41   2.0000      -0.510613       -13.8945
  42   2.0000      -0.509281       -13.8582
  43   2.0000      -0.506586       -13.7849
  44   2.0000      -0.484251       -13.1772
  45   2.0000      -0.480988       -13.0884
  46   2.0000      -0.476869       -12.9763
  47   2.0000      -0.451221       -12.2783
  48   2.0000      -0.436097       -11.8668
  49   2.0000      -0.435064       -11.8387
  50   2.0000      -0.432888       -11.7795
  51   2.0000      -0.432561       -11.7706
  52   2.0000      -0.423554       -11.5255
  53   2.0000      -0.421835       -11.4787
  54   2.0000      -0.421601       -11.4723
  55   2.0000      -0.418767       -11.3952
  56   2.0000      -0.417247       -11.3539
  57   2.0000      -0.414988       -11.2924
  58   2.0000      -0.414046       -11.2668
  59   2.0000      -0.412399       -11.2220
  60   0.0000       0.083720         2.2781
  61   0.0000       0.105418         2.8686
  62   0.0000       0.120264         3.2725
  63   0.0000       0.120637         3.2827
  64   0.0000       0.158464         4.3120

MULLIKEN ATOMIC CHARGES
-----------------------
   0 O :   -0.752055
   1 H :    0.351465
   2 H :    0.378206
   3 O :   -0.694941
   4 H :    0.382400
   5 H :    0.363216
   6 O :   -0.755178
   7 H :    0.373099
   8 H :    0.352054
   9 O :   -0.751742
  10 H :    0.368501
  11 H :    0.353052
  12 O :   -0.700114
  13 H :    0.383688
  14 H :    0.362067
  15 O :   -0.747800
  16 H :    0.357986
  17 H :    0.373674
  18 O :   -0.754575
  19 H :    0.380661
  20 H :    0.352135
  21 O :   -0.745994
  22 H :    0.377251
  23 H :    0.354153
  24 O :   -0.689863
  25 H :    0.376267
  26 H :    0.361118
  27 O :   -0.752297
  28 H :    0.367465
  29 H :    0.350945
  30 O :   -0.746352
  31 H :    0.360445
  32 H :    0.372011
  33 O :   -0.706859
  34 H :    0.383638
  35 H :    0.362268
Sum of atomic charges:   -0.0000000

LOEWDIN ATOMIC CHARGES
----------------------
   0 O :   -0.301593
   1 H :    0.160227
   2 H :    0.140745
   3 O :   -0.270000
   4 H :    0.148860
   5 H :    0.142505
   6 O :   -0.307096
   7 H :    0.139621
   8 H :    0.159966
   9 O :   -0.302026
  10 H :    0.142382
  11 H :    0.160924
  12 O :   -0.273241
  13 H :    0.148663
  14 H :    0.141318
  15 O :   -0.292281
  16 H :    0.133154
  17 H :    0.144953
  18 O :   -0.292471
  19 H :    0.144854
  20 H :    0.131979
  21 O :   -0.292981
  22 H :    0.146509
  23 H :    0.130612
  24 O :   -0.276960
  25 H :    0.152979
  26 H :    0.142332
  27 O :   -0.302637
  28 H :    0.136630
  29 H :    0.159625
  30 O :   -0.294145
  31 H :    0.132936
  32 H :    0.143919
  33 O :   -0.273737
  34 H :    0.150950
  35 H :    0.142525

  Mayer bond orders larger than 0.1
B(  0-O ,  1-H ) :   0.8817 B(  0-O ,  2-H ) :   0.7420 B(  2-H , 33-O ) :   0.1586
B(  3-O ,  4-H ) :   0.8237 B(  3-O ,  5-H ) :   0.8289 B(  3-O , 28-H ) :   0.1812
B(  6-O ,  7-H ) :   0.7368 B(  6-O ,  8-H ) :   0.8819 B(  7-H , 12-O ) :   0.1725
B(  9-O , 10-H ) :   0.7397 B(  9-O , 11-H ) :   0.8810 B( 10-H , 24-O ) :   0.1739
B( 12-O , 13-H ) :   0.8247 B( 12-O , 14-H ) :   0.8281 B( 15-O , 16-H ) :   0.7708
B( 15-O , 17-H ) :   0.8171 B( 15-O , 20-H ) :   0.1437 B( 16-H , 21-O ) :   0.1482
B( 18-O , 19-H ) :   0.8097 B( 18-O , 20-H ) :   0.7740 B( 18-O , 31-H ) :   0.1345
B( 21-O , 22-H ) :   0.8202 B( 21-O , 23-H ) :   0.7749 B( 23-H , 30-O ) :   0.1421
B( 24-O , 25-H ) :   0.8378 B( 24-O , 26-H ) :   0.8289 B( 27-O , 28-H ) :   0.7325
B( 27-O , 29-H ) :   0.8826 B( 30-O , 31-H ) :   0.7776 B( 30-O , 32-H ) :   0.8184
B( 33-O , 34-H ) :   0.8276 B( 33-O , 35-H ) :   0.8235

Dispersion correction           -0.022197757
FINAL SINGLE POINT ENERGY      -917.483074886263

DIPOLE MOMENT
-------------
                                X             Y             Z
Electronic contribution:      0.00352      -0.00499       0.02367
Nuclear contribution   :     -0.02546       0.07643       0.03032
                        -----------------------------------------
Total Dipole Moment    :     -0.02194       0.07143       0.05399
                        -----------------------------------------
Magnitude (a.u.)       :      0.09219
Magnitude (Debye)      :      0.23433

                             ****ORCA TERMINATED NORMALLY****
TOTAL RUN TIME: 0 days 0 hours 1 minutes 27 seconds 380 msec
