                         Program Version 3.0.3 - RELEASE   -
|  1> ! wB97X-D3 MA-Def2-TZVP def2-TZVP/J RIJCOSX TightSCF Grid4
|  2>
|  3> %pal nprocs 1 end
|  4>
|  5> %scf
|  6>         maxiter 400
|  7> end
|  8>
|  9> * xyz  0  1
| 10> O  2.279363	2.297839	-0.284430
| 11> H  2.871367	3.061369	-0.157426
| 12> H  1.388663	2.680307	-0.675004
| 13> O  -0.107418	-1.122614	3.087626
| 14> H  0.482500	-0.421884	2.698435
| 15> H  -1.026222	-0.780723	2.895615
| 16> O  0.200515	1.013535	-3.087602
| 17> H  1.155765	0.715447	-2.784522
| 18> H  0.231979	1.095745	-4.058130
| 19> O  -2.496585	-0.336838	2.046678
| 20> H  -2.532603	-1.120239	1.352221
| 21> H  -3.363033	-0.330253	2.492270
| 22> O  2.473108	0.308701	-2.137483
| 23> H  2.224405	-0.472378	-1.572680
| 24> H  2.600587	1.042525	-1.471117
| 25> O  1.174662	-1.374768	-0.460546
| 26> H  0.282165	-1.114766	-0.871780
| 27> H  0.942771	-2.162910	0.109820
| 28> O  1.165336	0.530008	1.364990
| 29> H  1.742669	1.250870	0.979955
| 30> H  1.245195	-0.225200	0.686579
| 31> O  -1.149560	-0.514798	-1.379943
| 32> H  -0.835277	-0.045163	-2.205528
| 33> H  -1.232770	0.236074	-0.697147
| 34> O  -2.398732	-2.217364	0.314790
| 35> H  -2.095857	-1.737076	-0.502766
| 36> H  -1.574065	-2.686790	0.626566
| 37> O  0.017407	-2.974402	1.321296
| 38> H  -0.004878	-2.271951	2.097191
| 39> H  0.263075	-3.823146	1.732016
| 40> O  -1.186279	1.357325	0.478366
| 41> H  -0.290540	1.100572	0.883978
| 42> H  -1.846443	0.955872	1.113834
| 43> O  0.026744	3.036563	-1.264665
| 44> H  -0.613865	2.629320	-0.620330
| 45> H  -0.014143	2.421192	-2.051125
| 46> **                         ****END OF INPUT****

CARTESIAN COORDINATES (ANGSTROEM)
---------------------------------
  O      2.279363    2.297839   -0.284430
  H      2.871367    3.061369   -0.157426
  H      1.388663    2.680307   -0.675004
  O     -0.107418   -1.122614    3.087626
  H      0.482500   -0.421884    2.698435
  H     -1.026222   -0.780723    2.895615
  O      0.200515    1.013535   -3.087602
  H      1.155765    0.715447   -2.784522
  H      0.231979    1.095745   -4.058130
  O     -2.496585   -0.336838    2.046678
  H     -2.532603   -1.120239    1.352221
  H     -3.363033   -0.330253    2.492270
  O      2.473108    0.308701   -2.137483
  H      2.224405   -0.472378   -1.572680
  H      2.600587    1.042525   -1.471117
  O      1.174662   -1.374768   -0.460546
  H      0.282165   -1.114766   -0.871780
  H      0.942771   -2.162910    0.109820
  O      1.165336    0.530008    1.364990
  H      1.742669    1.250870    0.979955
  H      1.245195   -0.225200    0.686579
  O     -1.149560   -0.514798   -1.379943
  H     -0.835277   -0.045163   -2.205528
  H     -1.232770    0.236074   -0.697147
  O     -2.398732   -2.217364    0.314790
  H     -2.095857   -1.737076   -0.502766
  H     -1.574065   -2.686790    0.626566
  O      0.017407   -2.974402    1.321296
  H     -0.004878   -2.271951    2.097191
  H      0.263075   -3.823146    1.732016
  O     -1.186279    1.357325    0.478366
  H     -0.290540    1.100572    0.883978
  H     -1.846443    0.955872    1.113834
  O      0.026744    3.036563   -1.264665
  H     -0.613865    2.629320   -0.620330
  H     -0.014143    2.421192   -2.051125

 Total Charge           Charge          ....    0
 Multiplicity           Mult            ....    1
 Number of Electrons    NEL             ....  120
 Basis Dimension        Dim             ....  564

ORBITAL ENERGIES
----------------

  NO   OCC          E(Eh)            E(eV)
   0   2.0000     -19.252786      -523.8949
   1   2.0000     -19.252462      -523.8861
   2   2.0000     -19.252210      -523.8793
   3   2.0000     -19.252138      -523.8773
   4   2.0000     -19.237237      -523.4718
   5   2.0000     -19.237193      -523.4706
   6   2.0000     -19.236905      -523.4628
   7   2.0000     -19.236459      -523.4507
   8   2.0000     -19.236385      -523.4487
   9   2.0000     -19.236285      -523.4459
  10   2.0000     -19.236201      -523.4436
  11   2.0000     -19.236029      -523.4390
  12   2.0000      -1.159155       -31.5422
  13   2.0000      -1.149802       -31.2877
  14   2.0000      -1.140329       -31.0299
  15   2.0000      -1.140145       -31.0249
  16   2.0000      -1.134809       -30.8797
  17   2.0000      -1.126876       -30.6639
  18   2.0000      -1.126397       -30.6508
  19   2.0000      -1.115279       -30.3483
  20   2.0000      -1.112482       -30.2722
  21   2.0000      -1.111979       -30.2585
  22   2.0000      -1.107861       -30.1464
  23   2.0000      -1.092606       -29.7313
  24   2.0000      -0.658440       -17.9171
  25   2.0000      -0.656369       -17.8607
  26   2.0000      -0.655108       -17.8264
  27   2.0000      -0.654801       -17.8180
  28   2.0000      -0.649099       -17.6629
  29   2.0000      -0.641391       -17.4531
  30   2.0000      -0.639174       -17.3928
  31   2.0000      -0.638580       -17.3767
  32   2.0000      -0.624507       -16.9937
  33   2.0000      -0.620661       -16.8890
  34   2.0000      -0.618584       -16.8325
  35   2.0000      -0.618251       -16.8235
  36   2.0000      -0.592364       -16.1191
  37   2.0000      -0.557617       -15.1735
  38   2.0000      -0.545852       -14.8534
  39   2.0000      -0.544677       -14.8214
  40   2.0000      -0.517667       -14.0864
  41   2.0000      -0.515733       -14.0338
  42   2.0000      -0.515512       -14.0278
  43   2.0000      -0.508470       -13.8362
  44   2.0000      -0.484399       -13.1812
  45   2.0000      -0.483857       -13.1664
  46   2.0000      -0.481562       -13.1040
  47   2.0000      -0.453015       -12.3272
  48   2.0000      -0.436361       -11.8740
  49   2.0000      -0.436153       -11.8683
  50   2.0000      -0.433983       -11.8093
  51   2.0000      -0.433366       -11.7925
  52   2.0000      -0.423567       -11.5258
  53   2.0000      -0.423202       -11.5159
  54   2.0000      -0.420530       -11.4432
  55   2.0000      -0.419576       -11.4173
  56   2.0000      -0.418447       -11.3865
  57   2.0000      -0.418219       -11.3803
  58   2.0000      -0.417343       -11.3565
  59   2.0000      -0.415557       -11.3079
  60   0.0000       0.052845         1.4380
  61   0.0000       0.067132         1.8268
  62   0.0000       0.076974         2.0946
  63   0.0000       0.077043         2.0964
  64   0.0000       0.108953         2.9648

MULLIKEN ATOMIC CHARGES
-----------------------
   0 O :   -0.861230
   1 H :    0.362140
   2 H :    0.420661
   3 O :   -0.751733
   4 H :    0.433543
   5 H :    0.417382
   6 O :   -0.863503
   7 H :    0.423320
   8 H :    0.362108
   9 O :   -0.861683
  10 H :    0.419338
  11 H :    0.362156
  12 O :   -0.752904
  13 H :    0.432609
  14 H :    0.417787
  15 O :   -0.860611
  16 H :    0.415073
  17 H :    0.424751
  18 O :   -0.858183
  19 H :    0.425449
  20 H :    0.414171
  21 O :   -0.859860
  22 H :    0.426593
  23 H :    0.413920
  24 O :   -0.750746
  25 H :    0.433051
  26 H :    0.418143
  27 O :   -0.861603
  28 H :    0.420040
  29 H :    0.361963
  30 O :   -0.859814
  31 H :    0.413196
  32 H :    0.425612
  33 O :   -0.751668
  34 H :    0.433260
  35 H :    0.417271
Sum of atomic charges:   -0.0000000

LOEWDIN ATOMIC CHARGES
----------------------
   0 O :   -0.415762
   1 H :    0.195574
   2 H :    0.195617
   3 O :   -0.357488
   4 H :    0.205845
   5 H :    0.199506
   6 O :   -0.416414
   7 H :    0.195290
   8 H :    0.195408
   9 O :   -0.416826
  10 H :    0.194591
  11 H :    0.195280
  12 O :   -0.358274
  13 H :    0.205712
  14 H :    0.200097
  15 O :   -0.415219
  16 H :    0.193400
  17 H :    0.201470
  18 O :   -0.418787
  19 H :    0.201426
  20 H :    0.193180
  21 O :   -0.418433
  22 H :    0.201241
  23 H :    0.193096
  24 O :   -0.355705
  25 H :    0.206299
  26 H :    0.200315
  27 O :   -0.417622
  28 H :    0.195346
  29 H :    0.195241
  30 O :   -0.415041
  31 H :    0.193618
  32 H :    0.201380
  33 O :   -0.359406
  34 H :    0.205808
  35 H :    0.200236

  Mayer bond orders larger than 0.1
B(  0-O ,  1-H ) :   0.8695 B(  0-O ,  2-H ) :   0.7120 B(  2-H , 33-O ) :   0.1609
B(  3-O ,  4-H ) :   0.8262 B(  3-O ,  5-H ) :   0.8350 B(  3-O , 28-H ) :   0.1645
B(  6-O ,  7-H ) :   0.7114 B(  6-O ,  8-H ) :   0.8695 B(  7-H , 12-O ) :   0.1589
B(  9-O , 10-H ) :   0.7082 B(  9-O , 11-H ) :   0.8695 B( 10-H , 24-O ) :   0.1676
B( 12-O , 13-H ) :   0.8261 B( 12-O , 14-H ) :   0.8351 B( 15-O , 16-H ) :   0.7806
B( 15-O , 17-H ) :   0.8045 B( 15-O , 20-H ) :   0.1054 B( 16-H , 21-O ) :   0.1013
B( 18-O , 19-H ) :   0.8039 B( 18-O , 20-H ) :   0.7773 B( 18-O , 31-H ) :   0.1022
B( 21-O , 22-H ) :   0.8034 B( 21-O , 23-H ) :   0.7776 B( 23-H , 30-O ) :   0.1053
B( 24-O , 25-H ) :   0.8265 B( 24-O , 26-H ) :   0.8350 B( 27-O , 28-H ) :   0.7100
B( 27-O , 29-H ) :   0.8697 B( 30-O , 31-H ) :   0.7814 B( 30-O , 32-H ) :   0.8031
B( 33-O , 34-H ) :   0.8260 B( 33-O , 35-H ) :   0.8349

Dispersion correction           -0.022881938
FINAL SINGLE POINT ENERGY      -917.473208730786

DIPOLE MOMENT
-------------
                                X             Y             Z
Electronic contribution:     -0.00353      -0.00042      -0.00235
Nuclear contribution   :      0.00360      -0.00796       0.00231
                        -----------------------------------------
Total Dipole Moment    :      0.00007      -0.00837      -0.00005
                        -----------------------------------------
Magnitude (a.u.)       :      0.00838
Magnitude (Debye)      :      0.02129

                             ****ORCA TERMINATED NORMALLY****
TOTAL RUN TIME: 0 days 0 hours 15 minutes 9 seconds 47 msec
