                         Program Version 4.2.0 -  RELEASE  -
|  1> # 12mecn.remya.etal.2.mol3,4,7
|  2> ! MP2 def2-TZVP EnGrad TightSCF
|  3>
|  4> %pal
|  5>     nprocs 6
|  6> end
|  7>
|  8> %maxcore 8000
|  9>
| 10> %scf
| 11>     ConvForced true
| 12> end
| 13>
| 14> *xyz 0 1
| 15> C  -5.181310000   2.853865000  -1.626100000
| 16> H  -5.488260000   3.811434000  -2.053310000
| 17> H  -5.857590000   2.068112000  -1.968630000
| 18> H  -4.170750000   2.611402000  -1.966640000
| 19> C  -5.187260000   2.919160000  -0.181450000
| 20> N  -5.181700000   2.970641000   0.983640000
| 21> C  -1.509690000  -0.693960000  -1.610140000
| 22> H  -1.327010000  -1.692700000  -2.017370000
| 23> H  -0.742170000  -0.000650000  -1.964400000
| 24> H  -2.491920000  -0.334310000  -1.929350000
| 25> C  -1.473570000  -0.748120000  -0.167200000
| 26> N  -1.447490000  -0.793720000   0.998938000
| 27> C   1.502241000   0.651296000   1.710523000
| 28> H   1.309219000   1.637164000   2.143202000
| 29> H   2.493408000   0.297996000   2.009069000
| 30> H   0.746597000  -0.059850000   2.055508000
| 31> C   1.447974000   0.738517000   0.269805000
| 32> N   1.405612000   0.808047000  -0.894380000
| 33> *
| 34>
| 35>                          ****END OF INPUT****

CARTESIAN COORDINATES (ANGSTROEM)
---------------------------------
  C     -5.181310    2.853865   -1.626100
  H     -5.488260    3.811434   -2.053310
  H     -5.857590    2.068112   -1.968630
  H     -4.170750    2.611402   -1.966640
  C     -5.187260    2.919160   -0.181450
  N     -5.181700    2.970641    0.983640
  C     -1.509690   -0.693960   -1.610140
  H     -1.327010   -1.692700   -2.017370
  H     -0.742170   -0.000650   -1.964400
  H     -2.491920   -0.334310   -1.929350
  C     -1.473570   -0.748120   -0.167200
  N     -1.447490   -0.793720    0.998938
  C      1.502241    0.651296    1.710523
  H      1.309219    1.637164    2.143202
  H      2.493408    0.297996    2.009069
  H      0.746597   -0.059850    2.055508
  C      1.447974    0.738517    0.269805
  N      1.405612    0.808047   -0.894380

 Total Charge           Charge          ....    0
 Multiplicity           Mult            ....    1
 Number of Electrons    NEL             ....   66
 Basis Dimension        Dim             ....  333

ORBITAL ENERGIES
----------------

  NO   OCC          E(Eh)            E(eV)
   0   2.0000     -15.573546      -423.7777
   1   2.0000     -15.571487      -423.7217
   2   2.0000     -15.570890      -423.7054
   3   2.0000     -11.287112      -307.1379
   4   2.0000     -11.283136      -307.0298
   5   2.0000     -11.282531      -307.0133
   6   2.0000     -11.279993      -306.9442
   7   2.0000     -11.275801      -306.8302
   8   2.0000     -11.271246      -306.7062
   9   2.0000      -1.217754       -33.1368
  10   2.0000      -1.214805       -33.0565
  11   2.0000      -1.213553       -33.0224
  12   2.0000      -1.045473       -28.4488
  13   2.0000      -1.038775       -28.2665
  14   2.0000      -1.034409       -28.1477
  15   2.0000      -0.702721       -19.1220
  16   2.0000      -0.695359       -18.9217
  17   2.0000      -0.690089       -18.7783
  18   2.0000      -0.634702       -17.2711
  19   2.0000      -0.632496       -17.2111
  20   2.0000      -0.631374       -17.1806
  21   2.0000      -0.627219       -17.0675
  22   2.0000      -0.622728       -16.9453
  23   2.0000      -0.615676       -16.7534
  24   2.0000      -0.558899       -15.2084
  25   2.0000      -0.555878       -15.1262
  26   2.0000      -0.555772       -15.1233
  27   2.0000      -0.460351       -12.5268
  28   2.0000      -0.459857       -12.5133
  29   2.0000      -0.458169       -12.4674
  30   2.0000      -0.457783       -12.4569
  31   2.0000      -0.456492       -12.4218
  32   2.0000      -0.454367       -12.3640
  33   0.0000       0.098123         2.6701
  34   0.0000       0.133593         3.6353
  35   0.0000       0.147140         4.0039
  36   0.0000       0.168268         4.5788
  37   0.0000       0.169309         4.6071

MULLIKEN ATOMIC CHARGES
-----------------------
   0 C :   -0.286585
   1 H :    0.175736
   2 H :    0.172429
   3 H :    0.168149
   4 C :   -0.143189
   5 N :   -0.086575
   6 C :   -0.285305
   7 H :    0.169866
   8 H :    0.204741
   9 H :    0.156093
  10 C :   -0.102309
  11 N :   -0.143838
  12 C :   -0.280767
  13 H :    0.169211
  14 H :    0.166380
  15 H :    0.203902
  16 C :   -0.104395
  17 N :   -0.153546
Sum of atomic charges:    0.0000000

LOEWDIN ATOMIC CHARGES
----------------------
   0 C :   -0.285185
   1 H :    0.152019
   2 H :    0.151125
   3 H :    0.150959
   4 C :   -0.219469
   5 N :    0.050493
   6 C :   -0.283567
   7 H :    0.153423
   8 H :    0.156658
   9 H :    0.147408
  10 C :   -0.210035
  11 N :    0.035509
  12 C :   -0.280899
  13 H :    0.154129
  14 H :    0.151356
  15 H :    0.157672
  16 C :   -0.208440
  17 N :    0.026845

  Mayer bond orders larger than 0.100000
B(  0-C ,  1-H ) :   0.9155 B(  0-C ,  2-H ) :   0.9177 B(  0-C ,  3-H ) :   0.9185
B(  0-C ,  4-C ) :   0.9011 B(  4-C ,  5-N ) :   2.8327 B(  6-C ,  7-H ) :   0.9143
B(  6-C ,  8-H ) :   0.9028 B(  6-C ,  9-H ) :   0.9198 B(  6-C , 10-C ) :   0.8996
B( 10-C , 11-N ) :   2.7678 B( 12-C , 13-H ) :   0.9133 B( 12-C , 14-H ) :   0.9165
B( 12-C , 15-H ) :   0.9022 B( 12-C , 16-C ) :   0.9013 B( 16-C , 17-N ) :   2.7755

MP2 TOTAL ENERGY:     -397.458586739 Eh
FINAL SINGLE POINT ENERGY      -397.458586738861

DIPOLE MOMENT
-------------
                                X             Y             Z
Electronic contribution:     -0.05614       0.22843       3.21832
Nuclear contribution   :      0.08604      -0.32994      -4.66308
                        -----------------------------------------
Total Dipole Moment    :      0.02990      -0.10151      -1.44477
                        -----------------------------------------
Magnitude (a.u.)       :      1.44864
Magnitude (Debye)      :      3.68214

Rotational constants in cm-1:     0.054633     0.014228     0.013519
Rotational constants in MHz :  1637.851962   426.530201   405.296051

                             ****ORCA TERMINATED NORMALLY****
TOTAL RUN TIME: 0 days 0 hours 3 minutes 18 seconds 761 msec
