                         Program Version 4.2.0 -  RELEASE  -
|  1> # 12h2o.su.etal.mol2,5,6,7,8
|  2> ! MP2 def2-TZVP EnGrad TightSCF
|  3>
|  4> %pal
|  5>     nprocs 6
|  6> end
|  7>
|  8> %maxcore 8000
|  9>
| 10> %scf
| 11>     ConvForced true
| 12> end
| 13>
| 14> *xyz 0 1
| 15> O   0.923410000  -1.794470000  -2.768350000
| 16> H   1.359750000  -2.338250000  -3.430940000
| 17> H   1.303000000  -0.879480000  -2.865760000
| 18> O   0.885520000  -1.737840000   0.052730000
| 19> H   1.284090000  -0.839590000   0.017130000
| 20> H   1.032320000  -2.090180000  -0.841890000
| 21> O   1.737840000   0.885520000  -0.052730000
| 22> H   2.090180000   1.032320000   0.841890000
| 23> H   0.839590000   1.284090000  -0.017130000
| 24> O  -1.737840000  -0.885520000  -0.052730000
| 25> H  -2.090180000  -1.032320000   0.841890000
| 26> H  -0.839590000  -1.284090000  -0.017130000
| 27> O   1.752130000   0.741530000  -2.896280000
| 28> H   2.036450000   0.920500000  -1.984040000
| 29> H   0.921210000   1.242140000  -2.984230000
| 30> *
| 31>
| 32>                          ****END OF INPUT****

CARTESIAN COORDINATES (ANGSTROEM)
---------------------------------
  O      0.923410   -1.794470   -2.768350
  H      1.359750   -2.338250   -3.430940
  H      1.303000   -0.879480   -2.865760
  O      0.885520   -1.737840    0.052730
  H      1.284090   -0.839590    0.017130
  H      1.032320   -2.090180   -0.841890
  O      1.737840    0.885520   -0.052730
  H      2.090180    1.032320    0.841890
  H      0.839590    1.284090   -0.017130
  O     -1.737840   -0.885520   -0.052730
  H     -2.090180   -1.032320    0.841890
  H     -0.839590   -1.284090   -0.017130
  O      1.752130    0.741530   -2.896280
  H      2.036450    0.920500   -1.984040
  H      0.921210    1.242140   -2.984230

 Total Charge           Charge          ....    0
 Multiplicity           Mult            ....    1
 Number of Electrons    NEL             ....   50
 Basis Dimension        Dim             ....  215

ORBITAL ENERGIES
----------------

  NO   OCC          E(Eh)            E(eV)
   0   2.0000     -20.627714      -561.3086
   1   2.0000     -20.586374      -560.1837
   2   2.0000     -20.536970      -558.8394
   3   2.0000     -20.530271      -558.6571
   4   2.0000     -20.515311      -558.2500
   5   2.0000      -1.411095       -38.3978
   6   2.0000      -1.374512       -37.4024
   7   2.0000      -1.326586       -36.0982
   8   2.0000      -1.315486       -35.7962
   9   2.0000      -1.294554       -35.2266
  10   2.0000      -0.770084       -20.9551
  11   2.0000      -0.736588       -20.0436
  12   2.0000      -0.706376       -19.2215
  13   2.0000      -0.698584       -19.0094
  14   2.0000      -0.668930       -18.2025
  15   2.0000      -0.654199       -17.8017
  16   2.0000      -0.607836       -16.5400
  17   2.0000      -0.596608       -16.2345
  18   2.0000      -0.561138       -15.2693
  19   2.0000      -0.553561       -15.0632
  20   2.0000      -0.532604       -14.4929
  21   2.0000      -0.517614       -14.0850
  22   2.0000      -0.485303       -13.2058
  23   2.0000      -0.475433       -12.9372
  24   2.0000      -0.463392       -12.6095
  25   0.0000       0.088228         2.4008
  26   0.0000       0.138511         3.7691
  27   0.0000       0.162823         4.4307
  28   0.0000       0.168067         4.5733
  29   0.0000       0.194718         5.2985

MULLIKEN ATOMIC CHARGES
-----------------------
   0 O :   -0.731989
   1 H :    0.334292
   2 H :    0.369195
   3 O :   -0.727253
   4 H :    0.343989
   5 H :    0.379847
   6 O :   -0.718424
   7 H :    0.375227
   8 H :    0.372602
   9 O :   -0.727559
  10 H :    0.319804
  11 H :    0.363977
  12 O :   -0.691413
  13 H :    0.383984
  14 H :    0.353720
Sum of atomic charges:   -0.0000000

LOEWDIN ATOMIC CHARGES
----------------------
   0 O :   -0.338244
   1 H :    0.152849
   2 H :    0.143814
   3 O :   -0.318284
   4 H :    0.135060
   5 H :    0.151135
   6 O :   -0.278624
   7 H :    0.181245
   8 H :    0.185067
   9 O :   -0.368820
  10 H :    0.154034
  11 H :    0.141907
  12 O :   -0.272804
  13 H :    0.157634
  14 H :    0.174032

  Mayer bond orders larger than 0.100000
B(  0-O ,  1-H ) :   0.8519 B(  0-O ,  2-H ) :   0.7662 B(  3-O ,  4-H ) :   0.8125
B(  3-O ,  5-H ) :   0.7970 B(  6-O ,  7-H ) :   0.8255 B(  6-O ,  8-H ) :   0.8177
B(  9-O , 10-H ) :   0.8621 B(  9-O , 11-H ) :   0.7800 B( 12-O , 13-H ) :   0.8079
B( 12-O , 14-H ) :   0.8396

MP2 TOTAL ENERGY:     -381.605869110 Eh
FINAL SINGLE POINT ENERGY      -381.605869110398

DIPOLE MOMENT
-------------
                                X             Y             Z
Electronic contribution:      0.31935       0.18975      -0.22420
Nuclear contribution   :      0.67812       1.32903       0.82779
                        -----------------------------------------
Total Dipole Moment    :      0.99747       1.51878       0.60359
                        -----------------------------------------
Magnitude (a.u.)       :      1.91467
Magnitude (Debye)      :      4.86671

Rotational constants in cm-1:     0.080867     0.055080     0.043718
Rotational constants in MHz :  2424.346368  1651.249842  1310.633530

                             ****ORCA TERMINATED NORMALLY****
TOTAL RUN TIME: 0 days 0 hours 0 minutes 42 seconds 731 msec
