                         Program Version 4.2.0 -  RELEASE  -
|  1> # 12h2o.su.etal.mol0,1,4,6,10,11
|  2> ! MP2 def2-TZVP EnGrad TightSCF
|  3>
|  4> %pal
|  5>     nprocs 6
|  6> end
|  7>
|  8> %maxcore 8000
|  9>
| 10> %scf
| 11>     ConvForced true
| 12> end
| 13>
| 14> *xyz 0 1
| 15> O   1.794470000   0.923410000   2.768350000
| 16> H   2.338250000   1.359750000   3.430940000
| 17> H   0.879480000   1.303000000   2.865760000
| 18> O  -1.794470000  -0.923410000   2.768350000
| 19> H  -2.338250000  -1.359750000   3.430940000
| 20> H  -0.879480000  -1.303000000   2.865760000
| 21> O  -0.885520000   1.737840000   0.052730000
| 22> H  -1.032320000   2.090180000  -0.841890000
| 23> H  -1.284090000   0.839590000   0.017130000
| 24> O   1.737840000   0.885520000  -0.052730000
| 25> H   2.090180000   1.032320000   0.841890000
| 26> H   0.839590000   1.284090000  -0.017130000
| 27> O  -0.923410000   1.794470000  -2.768350000
| 28> H  -1.359750000   2.338250000  -3.430940000
| 29> H  -1.303000000   0.879480000  -2.865760000
| 30> O  -0.741530000   1.752130000   2.896280000
| 31> H  -0.920500000   2.036450000   1.984040000
| 32> H  -1.242140000   0.921210000   2.984230000
| 33> *
| 34>
| 35>                          ****END OF INPUT****

CARTESIAN COORDINATES (ANGSTROEM)
---------------------------------
  O      1.794470    0.923410    2.768350
  H      2.338250    1.359750    3.430940
  H      0.879480    1.303000    2.865760
  O     -1.794470   -0.923410    2.768350
  H     -2.338250   -1.359750    3.430940
  H     -0.879480   -1.303000    2.865760
  O     -0.885520    1.737840    0.052730
  H     -1.032320    2.090180   -0.841890
  H     -1.284090    0.839590    0.017130
  O      1.737840    0.885520   -0.052730
  H      2.090180    1.032320    0.841890
  H      0.839590    1.284090   -0.017130
  O     -0.923410    1.794470   -2.768350
  H     -1.359750    2.338250   -3.430940
  H     -1.303000    0.879480   -2.865760
  O     -0.741530    1.752130    2.896280
  H     -0.920500    2.036450    1.984040
  H     -1.242140    0.921210    2.984230

 Total Charge           Charge          ....    0
 Multiplicity           Mult            ....    1
 Number of Electrons    NEL             ....   60
 Basis Dimension        Dim             ....  258

ORBITAL ENERGIES
----------------

  NO   OCC          E(Eh)            E(eV)
   0   2.0000     -20.597429      -560.4845
   1   2.0000     -20.596487      -560.4589
   2   2.0000     -20.578223      -559.9619
   3   2.0000     -20.545962      -559.0841
   4   2.0000     -20.521724      -558.4245
   5   2.0000     -20.477705      -557.2267
   6   2.0000      -1.377108       -37.4730
   7   2.0000      -1.374466       -37.4011
   8   2.0000      -1.362527       -37.0763
   9   2.0000      -1.338037       -36.4098
  10   2.0000      -1.305113       -35.5139
  11   2.0000      -1.262157       -34.3450
  12   2.0000      -0.742935       -20.2163
  13   2.0000      -0.741449       -20.1759
  14   2.0000      -0.728340       -19.8191
  15   2.0000      -0.703100       -19.1323
  16   2.0000      -0.688791       -18.7430
  17   2.0000      -0.649016       -17.6606
  18   2.0000      -0.627695       -17.0804
  19   2.0000      -0.615313       -16.7435
  20   2.0000      -0.598842       -16.2953
  21   2.0000      -0.573731       -15.6120
  22   2.0000      -0.558079       -15.1861
  23   2.0000      -0.539156       -14.6712
  24   2.0000      -0.536715       -14.6048
  25   2.0000      -0.524239       -14.2653
  26   2.0000      -0.493418       -13.4266
  27   2.0000      -0.487112       -13.2550
  28   2.0000      -0.465540       -12.6680
  29   2.0000      -0.428954       -11.6724
  30   0.0000       0.095487         2.5983
  31   0.0000       0.110350         3.0028
  32   0.0000       0.158232         4.3057
  33   0.0000       0.166296         4.5251
  34   0.0000       0.188622         5.1327

MULLIKEN ATOMIC CHARGES
-----------------------
   0 O :   -0.739633
   1 H :    0.328557
   2 H :    0.366851
   3 O :   -0.707890
   4 H :    0.356363
   5 H :    0.373788
   6 O :   -0.722251
   7 H :    0.386574
   8 H :    0.349378
   9 O :   -0.740712
  10 H :    0.359031
  11 H :    0.340681
  12 O :   -0.687270
  13 H :    0.353924
  14 H :    0.354029
  15 O :   -0.717223
  16 H :    0.383763
  17 H :    0.362040
Sum of atomic charges:   -0.0000000

LOEWDIN ATOMIC CHARGES
----------------------
   0 O :   -0.345458
   1 H :    0.149269
   2 H :    0.142201
   3 O :   -0.313555
   4 H :    0.165519
   5 H :    0.193450
   6 O :   -0.284825
   7 H :    0.157246
   8 H :    0.174007
   9 O :   -0.375301
  10 H :    0.143292
  11 H :    0.133220
  12 O :   -0.305272
  13 H :    0.164672
  14 H :    0.185991
  15 O :   -0.287601
  16 H :    0.155201
  17 H :    0.147945

  Mayer bond orders larger than 0.100000
B(  0-O ,  1-H ) :   0.8547 B(  0-O ,  2-H ) :   0.7554 B(  2-H , 15-O ) :   0.1071
B(  3-O ,  4-H ) :   0.8395 B(  3-O ,  5-H ) :   0.8202 B(  6-O ,  7-H ) :   0.7928
B(  6-O ,  8-H ) :   0.8347 B(  9-O , 10-H ) :   0.8217 B(  9-O , 11-H ) :   0.8219
B( 12-O , 13-H ) :   0.8409 B( 12-O , 14-H ) :   0.8351 B( 15-O , 16-H ) :   0.8061
B( 15-O , 17-H ) :   0.8093

MP2 TOTAL ENERGY:     -457.924159580 Eh
FINAL SINGLE POINT ENERGY      -457.924159580325

DIPOLE MOMENT
-------------
                                X             Y             Z
Electronic contribution:     -0.23976       0.11478      -0.21407
Nuclear contribution   :     -2.15314      -0.76440      -0.05351
                        -----------------------------------------
Total Dipole Moment    :     -2.39291      -0.64962      -0.26758
                        -----------------------------------------
Magnitude (a.u.)       :      2.49391
Magnitude (Debye)      :      6.33902

Rotational constants in cm-1:     0.059426     0.029162     0.023248
Rotational constants in MHz :  1781.535086   874.266042   696.960293

                             ****ORCA TERMINATED NORMALLY****
TOTAL RUN TIME: 0 days 0 hours 1 minutes 8 seconds 233 msec
