                         Program Version 4.2.0 -  RELEASE  -
|  1> # 12mecn.remya.etal.2.mol1,4
|  2> ! MP2 def2-TZVP EnGrad TightSCF
|  3>
|  4> %pal
|  5>     nprocs 6
|  6> end
|  7>
|  8> %maxcore 8000
|  9>
| 10> %scf
| 11>     ConvForced true
| 12> end
| 13>
| 14> *xyz 0 1
| 15> C  -4.697980000  -0.249690000   1.746215000
| 16> H  -4.927570000   0.755530000   2.111799000
| 17> H  -3.709180000  -0.561560000   2.093253000
| 18> H  -5.432280000  -0.961520000   2.128066000
| 19> C  -4.714100000  -0.247110000   0.301670000
| 20> N  -4.729750000  -0.234960000  -0.865260000
| 21> C  -1.509690000  -0.693960000  -1.610140000
| 22> H  -1.327010000  -1.692700000  -2.017370000
| 23> H  -0.742170000  -0.000650000  -1.964400000
| 24> H  -2.491920000  -0.334310000  -1.929350000
| 25> C  -1.473570000  -0.748120000  -0.167200000
| 26> N  -1.447490000  -0.793720000   0.998938000
| 27> *
| 28>
| 29>                          ****END OF INPUT****

CARTESIAN COORDINATES (ANGSTROEM)
---------------------------------
  C     -4.697980   -0.249690    1.746215
  H     -4.927570    0.755530    2.111799
  H     -3.709180   -0.561560    2.093253
  H     -5.432280   -0.961520    2.128066
  C     -4.714100   -0.247110    0.301670
  N     -4.729750   -0.234960   -0.865260
  C     -1.509690   -0.693960   -1.610140
  H     -1.327010   -1.692700   -2.017370
  H     -0.742170   -0.000650   -1.964400
  H     -2.491920   -0.334310   -1.929350
  C     -1.473570   -0.748120   -0.167200
  N     -1.447490   -0.793720    0.998938

 Total Charge           Charge          ....    0
 Multiplicity           Mult            ....    1
 Number of Electrons    NEL             ....   44
 Basis Dimension        Dim             ....  222

ORBITAL ENERGIES
----------------

  NO   OCC          E(Eh)            E(eV)
   0   2.0000     -15.571938      -423.7340
   1   2.0000     -15.571134      -423.7121
   2   2.0000     -11.283848      -307.0491
   3   2.0000     -11.282905      -307.0235
   4   2.0000     -11.272389      -306.7373
   5   2.0000     -11.271601      -306.7158
   6   2.0000      -1.218229       -33.1497
   7   2.0000      -1.214042       -33.0358
   8   2.0000      -1.037140       -28.2220
   9   2.0000      -1.034273       -28.1440
  10   2.0000      -0.695056       -18.9134
  11   2.0000      -0.690200       -18.7813
  12   2.0000      -0.630606       -17.1597
  13   2.0000      -0.625217       -17.0130
  14   2.0000      -0.622917       -16.9504
  15   2.0000      -0.613789       -16.7021
  16   2.0000      -0.559478       -15.2242
  17   2.0000      -0.556144       -15.1334
  18   2.0000      -0.460445       -12.5294
  19   2.0000      -0.458753       -12.4833
  20   2.0000      -0.457123       -12.4389
  21   2.0000      -0.456000       -12.4084
  22   0.0000       0.127864         3.4794
  23   0.0000       0.142389         3.8746
  24   0.0000       0.168685         4.5901
  25   0.0000       0.172915         4.7053
  26   0.0000       0.178532         4.8581

MULLIKEN ATOMIC CHARGES
-----------------------
   0 C :   -0.285136
   1 H :    0.166750
   2 H :    0.205540
   3 H :    0.166884
   4 C :   -0.101467
   5 N :   -0.152075
   6 C :   -0.283045
   7 H :    0.166700
   8 H :    0.166257
   9 H :    0.205125
  10 C :   -0.104874
  11 N :   -0.150659
Sum of atomic charges:   -0.0000000

LOEWDIN ATOMIC CHARGES
----------------------
   0 C :   -0.281690
   1 H :    0.152971
   2 H :    0.157338
   3 H :    0.150692
   4 C :   -0.207551
   5 N :    0.029443
   6 C :   -0.282133
   7 H :    0.152992
   8 H :    0.151173
   9 H :    0.157184
  10 C :   -0.209121
  11 N :    0.028702

  Mayer bond orders larger than 0.100000
B(  0-C ,  1-H ) :   0.9140 B(  0-C ,  2-H ) :   0.9021 B(  0-C ,  3-H ) :   0.9166
B(  0-C ,  4-C ) :   0.9010 B(  4-C ,  5-N ) :   2.7700 B(  6-C ,  7-H ) :   0.9142
B(  6-C ,  8-H ) :   0.9166 B(  6-C ,  9-H ) :   0.9014 B(  6-C , 10-C ) :   0.9004
B( 10-C , 11-N ) :   2.7741

MP2 TOTAL ENERGY:     -264.976036238 Eh
FINAL SINGLE POINT ENERGY      -264.976036237763

DIPOLE MOMENT
-------------
                                X             Y             Z
Electronic contribution:      0.02823      -0.10805      -0.01145
Nuclear contribution   :     -0.05180       0.15496       0.01559
                        -----------------------------------------
Total Dipole Moment    :     -0.02357       0.04691       0.00413
                        -----------------------------------------
Magnitude (a.u.)       :      0.05266
Magnitude (Debye)      :      0.13384

Rotational constants in cm-1:     0.166207     0.068333     0.049350
Rotational constants in MHz :  4982.773876  2048.579733  1479.475788

                             ****ORCA TERMINATED NORMALLY****
TOTAL RUN TIME: 0 days 0 hours 1 minutes 13 seconds 135 msec
