                         Program Version 4.2.0 -  RELEASE  -
|  1> # 12h2o.su.etal.mol0,2,5,10
|  2> ! MP2 def2-TZVP EnGrad TightSCF
|  3>
|  4> %pal
|  5>     nprocs 6
|  6> end
|  7>
|  8> %maxcore 8000
|  9>
| 10> %scf
| 11>     ConvForced true
| 12> end
| 13>
| 14> *xyz 0 1
| 15> O   1.794470000   0.923410000   2.768350000
| 16> H   2.338250000   1.359750000   3.430940000
| 17> H   0.879480000   1.303000000   2.865760000
| 18> O   0.923410000  -1.794470000  -2.768350000
| 19> H   1.359750000  -2.338250000  -3.430940000
| 20> H   1.303000000  -0.879480000  -2.865760000
| 21> O   0.885520000  -1.737840000   0.052730000
| 22> H   1.284090000  -0.839590000   0.017130000
| 23> H   1.032320000  -2.090180000  -0.841890000
| 24> O  -0.923410000   1.794470000  -2.768350000
| 25> H  -1.359750000   2.338250000  -3.430940000
| 26> H  -1.303000000   0.879480000  -2.865760000
| 27> *
| 28>
| 29>                          ****END OF INPUT****

CARTESIAN COORDINATES (ANGSTROEM)
---------------------------------
  O      1.794470    0.923410    2.768350
  H      2.338250    1.359750    3.430940
  H      0.879480    1.303000    2.865760
  O      0.923410   -1.794470   -2.768350
  H      1.359750   -2.338250   -3.430940
  H      1.303000   -0.879480   -2.865760
  O      0.885520   -1.737840    0.052730
  H      1.284090   -0.839590    0.017130
  H      1.032320   -2.090180   -0.841890
  O     -0.923410    1.794470   -2.768350
  H     -1.359750    2.338250   -3.430940
  H     -1.303000    0.879480   -2.865760

 Total Charge           Charge          ....    0
 Multiplicity           Mult            ....    1
 Number of Electrons    NEL             ....   40
 Basis Dimension        Dim             ....  172

ORBITAL ENERGIES
----------------

  NO   OCC          E(Eh)            E(eV)
   0   2.0000     -20.586371      -560.1836
   1   2.0000     -20.565919      -559.6271
   2   2.0000     -20.555741      -559.3502
   3   2.0000     -20.516214      -558.2746
   4   2.0000      -1.364191       -37.1215
   5   2.0000      -1.341243       -36.4971
   6   2.0000      -1.330999       -36.2183
   7   2.0000      -1.295373       -35.2489
   8   2.0000      -0.731056       -19.8930
   9   2.0000      -0.709355       -19.3025
  10   2.0000      -0.699360       -19.0306
  11   2.0000      -0.665959       -18.1217
  12   2.0000      -0.599521       -16.3138
  13   2.0000      -0.577554       -15.7160
  14   2.0000      -0.566868       -15.4253
  15   2.0000      -0.548805       -14.9338
  16   2.0000      -0.515345       -14.0233
  17   2.0000      -0.509160       -13.8549
  18   2.0000      -0.498764       -13.5721
  19   2.0000      -0.461951       -12.5703
  20   0.0000       0.102450         2.7878
  21   0.0000       0.130401         3.5484
  22   0.0000       0.137146         3.7319
  23   0.0000       0.181639         4.9427
  24   0.0000       0.201541         5.4842

MULLIKEN ATOMIC CHARGES
-----------------------
   0 O :   -0.679360
   1 H :    0.336119
   2 H :    0.345092
   3 O :   -0.696454
   4 H :    0.348903
   5 H :    0.355909
   6 O :   -0.696068
   7 H :    0.326877
   8 H :    0.358519
   9 O :   -0.689415
  10 H :    0.339187
  11 H :    0.350690
Sum of atomic charges:   -0.0000000

LOEWDIN ATOMIC CHARGES
----------------------
   0 O :   -0.337157
   1 H :    0.156878
   2 H :    0.182048
   3 O :   -0.311700
   4 H :    0.161877
   5 H :    0.184952
   6 O :   -0.347908
   7 H :    0.164897
   8 H :    0.145918
   9 O :   -0.341083
  10 H :    0.158251
  11 H :    0.183026

  Mayer bond orders larger than 0.100000
B(  0-O ,  1-H ) :   0.8542 B(  0-O ,  2-H ) :   0.8440 B(  3-O ,  4-H ) :   0.8432
B(  3-O ,  5-H ) :   0.8309 B(  6-O ,  7-H ) :   0.8547 B(  6-O ,  8-H ) :   0.8269
B(  9-O , 10-H ) :   0.8526 B(  9-O , 11-H ) :   0.8385

MP2 TOTAL ENERGY:     -305.257361092 Eh
FINAL SINGLE POINT ENERGY      -305.257361091974

DIPOLE MOMENT
-------------
                                X             Y             Z
Electronic contribution:     -0.04369      -0.19787       0.08074
Nuclear contribution   :      0.14496       1.13354      -1.40687
                        -----------------------------------------
Total Dipole Moment    :      0.10127       0.93567      -1.32613
                        -----------------------------------------
Magnitude (a.u.)       :      1.62615
Magnitude (Debye)      :      4.13335

Rotational constants in cm-1:     0.078705     0.037526     0.026298
Rotational constants in MHz :  2359.522717  1124.989924   788.399246

                             ****ORCA TERMINATED NORMALLY****
TOTAL RUN TIME: 0 days 0 hours 0 minutes 18 seconds 899 msec
