                         Program Version 4.2.0 -  RELEASE  -
|  1> # 12h2o.su.etal.mol3,4,5,6,7,9
|  2> ! MP2 def2-TZVP EnGrad TightSCF
|  3>
|  4> %pal
|  5>     nprocs 6
|  6> end
|  7>
|  8> %maxcore 8000
|  9>
| 10> %scf
| 11>     ConvForced true
| 12> end
| 13>
| 14> *xyz 0 1
| 15> O  -1.752130000  -0.741530000  -2.896280000
| 16> H  -2.036450000  -0.920500000  -1.984040000
| 17> H  -0.921210000  -1.242140000  -2.984230000
| 18> O  -0.885520000   1.737840000   0.052730000
| 19> H  -1.032320000   2.090180000  -0.841890000
| 20> H  -1.284090000   0.839590000   0.017130000
| 21> O   0.885520000  -1.737840000   0.052730000
| 22> H   1.284090000  -0.839590000   0.017130000
| 23> H   1.032320000  -2.090180000  -0.841890000
| 24> O   1.737840000   0.885520000  -0.052730000
| 25> H   2.090180000   1.032320000   0.841890000
| 26> H   0.839590000   1.284090000  -0.017130000
| 27> O  -1.737840000  -0.885520000  -0.052730000
| 28> H  -2.090180000  -1.032320000   0.841890000
| 29> H  -0.839590000  -1.284090000  -0.017130000
| 30> O   0.741530000  -1.752130000   2.896280000
| 31> H   0.920500000  -2.036450000   1.984040000
| 32> H   1.242140000  -0.921210000   2.984230000
| 33> *
| 34>
| 35>                          ****END OF INPUT****

CARTESIAN COORDINATES (ANGSTROEM)
---------------------------------
  O     -1.752130   -0.741530   -2.896280
  H     -2.036450   -0.920500   -1.984040
  H     -0.921210   -1.242140   -2.984230
  O     -0.885520    1.737840    0.052730
  H     -1.032320    2.090180   -0.841890
  H     -1.284090    0.839590    0.017130
  O      0.885520   -1.737840    0.052730
  H      1.284090   -0.839590    0.017130
  H      1.032320   -2.090180   -0.841890
  O      1.737840    0.885520   -0.052730
  H      2.090180    1.032320    0.841890
  H      0.839590    1.284090   -0.017130
  O     -1.737840   -0.885520   -0.052730
  H     -2.090180   -1.032320    0.841890
  H     -0.839590   -1.284090   -0.017130
  O      0.741530   -1.752130    2.896280
  H      0.920500   -2.036450    1.984040
  H      1.242140   -0.921210    2.984230

 Total Charge           Charge          ....    0
 Multiplicity           Mult            ....    1
 Number of Electrons    NEL             ....   60
 Basis Dimension        Dim             ....  258

ORBITAL ENERGIES
----------------

  NO   OCC          E(Eh)            E(eV)
   0   2.0000     -20.600811      -560.5766
   1   2.0000     -20.591378      -560.3199
   2   2.0000     -20.581476      -560.0504
   3   2.0000     -20.571637      -559.7827
   4   2.0000     -20.553278      -559.2831
   5   2.0000     -20.550600      -559.2103
   6   2.0000      -1.396285       -37.9949
   7   2.0000      -1.377512       -37.4840
   8   2.0000      -1.368584       -37.2411
   9   2.0000      -1.349734       -36.7281
  10   2.0000      -1.334914       -36.3249
  11   2.0000      -1.332160       -36.2499
  12   2.0000      -0.754805       -20.5393
  13   2.0000      -0.747186       -20.3320
  14   2.0000      -0.732489       -19.9320
  15   2.0000      -0.725140       -19.7321
  16   2.0000      -0.706279       -19.2188
  17   2.0000      -0.702004       -19.1025
  18   2.0000      -0.648225       -17.6391
  19   2.0000      -0.623830       -16.9753
  20   2.0000      -0.615837       -16.7578
  21   2.0000      -0.593071       -16.1383
  22   2.0000      -0.571972       -15.5641
  23   2.0000      -0.565959       -15.4005
  24   2.0000      -0.543676       -14.7942
  25   2.0000      -0.533337       -14.5128
  26   2.0000      -0.527417       -14.3517
  27   2.0000      -0.516104       -14.0439
  28   2.0000      -0.499408       -13.5896
  29   2.0000      -0.496695       -13.5158
  30   0.0000       0.082675         2.2497
  31   0.0000       0.115108         3.1322
  32   0.0000       0.141598         3.8531
  33   0.0000       0.156116         4.2481
  34   0.0000       0.193523         5.2660

MULLIKEN ATOMIC CHARGES
-----------------------
   0 O :   -0.689323
   1 H :    0.373429
   2 H :    0.314569
   3 O :   -0.719725
   4 H :    0.358531
   5 H :    0.372103
   6 O :   -0.737577
   7 H :    0.369237
   8 H :    0.357118
   9 O :   -0.712896
  10 H :    0.345102
  11 H :    0.374317
  12 O :   -0.742344
  13 H :    0.370138
  14 H :    0.367403
  15 O :   -0.690451
  16 H :    0.372262
  17 H :    0.318107
Sum of atomic charges:   -0.0000000

LOEWDIN ATOMIC CHARGES
----------------------
   0 O :   -0.336010
   1 H :    0.151796
   2 H :    0.155519
   3 O :   -0.308591
   4 H :    0.170900
   5 H :    0.144689
   6 O :   -0.294750
   7 H :    0.145871
   8 H :    0.169239
   9 O :   -0.307306
  10 H :    0.164296
  11 H :    0.146684
  12 O :   -0.294840
  13 H :    0.175775
  14 H :    0.144362
  15 O :   -0.336061
  16 H :    0.151299
  17 H :    0.157128

  Mayer bond orders larger than 0.100000
B(  0-O ,  1-H ) :   0.8186 B(  0-O ,  2-H ) :   0.8647 B(  3-O ,  4-H ) :   0.8360
B(  3-O ,  5-H ) :   0.7740 B(  3-O , 11-H ) :   0.1152 B(  6-O ,  7-H ) :   0.7447
B(  6-O ,  8-H ) :   0.8354 B(  7-H ,  9-O ) :   0.1219 B(  9-O , 10-H ) :   0.8443
B(  9-O , 11-H ) :   0.7569 B( 12-O , 13-H ) :   0.8271 B( 12-O , 14-H ) :   0.7611
B( 15-O , 16-H ) :   0.8209 B( 15-O , 17-H ) :   0.8625

MP2 TOTAL ENERGY:     -457.936479635 Eh
FINAL SINGLE POINT ENERGY      -457.936479635179

DIPOLE MOMENT
-------------
                                X             Y             Z
Electronic contribution:     -0.22914       0.06650       0.00763
Nuclear contribution   :      1.02062      -0.11069       0.00000
                        -----------------------------------------
Total Dipole Moment    :      0.79148      -0.04418       0.00763
                        -----------------------------------------
Magnitude (a.u.)       :      0.79275
Magnitude (Debye)      :      2.01501

Rotational constants in cm-1:     0.058788     0.033707     0.029264
Rotational constants in MHz :  1762.433333  1010.501232   877.304460

                             ****ORCA TERMINATED NORMALLY****
TOTAL RUN TIME: 0 days 0 hours 1 minutes 16 seconds 918 msec
