                         Program Version 4.2.0 -  RELEASE  -
|  1> # 12h2o.su.etal.mol0,2,4,11
|  2> ! MP2 def2-TZVP EnGrad TightSCF
|  3>
|  4> %pal
|  5>     nprocs 6
|  6> end
|  7>
|  8> %maxcore 8000
|  9>
| 10> %scf
| 11>     ConvForced true
| 12> end
| 13>
| 14> *xyz 0 1
| 15> O   1.794470000   0.923410000   2.768350000
| 16> H   2.338250000   1.359750000   3.430940000
| 17> H   0.879480000   1.303000000   2.865760000
| 18> O   0.923410000  -1.794470000  -2.768350000
| 19> H   1.359750000  -2.338250000  -3.430940000
| 20> H   1.303000000  -0.879480000  -2.865760000
| 21> O  -0.885520000   1.737840000   0.052730000
| 22> H  -1.032320000   2.090180000  -0.841890000
| 23> H  -1.284090000   0.839590000   0.017130000
| 24> O  -0.741530000   1.752130000   2.896280000
| 25> H  -0.920500000   2.036450000   1.984040000
| 26> H  -1.242140000   0.921210000   2.984230000
| 27> *
| 28>
| 29>                          ****END OF INPUT****

CARTESIAN COORDINATES (ANGSTROEM)
---------------------------------
  O      1.794470    0.923410    2.768350
  H      2.338250    1.359750    3.430940
  H      0.879480    1.303000    2.865760
  O      0.923410   -1.794470   -2.768350
  H      1.359750   -2.338250   -3.430940
  H      1.303000   -0.879480   -2.865760
  O     -0.885520    1.737840    0.052730
  H     -1.032320    2.090180   -0.841890
  H     -1.284090    0.839590    0.017130
  O     -0.741530    1.752130    2.896280
  H     -0.920500    2.036450    1.984040
  H     -1.242140    0.921210    2.984230

 Total Charge           Charge          ....    0
 Multiplicity           Mult            ....    1
 Number of Electrons    NEL             ....   40
 Basis Dimension        Dim             ....  172

ORBITAL ENERGIES
----------------

  NO   OCC          E(Eh)            E(eV)
   0   2.0000     -20.592798      -560.3585
   1   2.0000     -20.566387      -559.6398
   2   2.0000     -20.565784      -559.6234
   3   2.0000     -20.501422      -557.8720
   4   2.0000      -1.372176       -37.3388
   5   2.0000      -1.353283       -36.8247
   6   2.0000      -1.341127       -36.4939
   7   2.0000      -1.283679       -34.9307
   8   2.0000      -0.735718       -20.0199
   9   2.0000      -0.714242       -19.4355
  10   2.0000      -0.709617       -19.3097
  11   2.0000      -0.672809       -18.3081
  12   2.0000      -0.619560       -16.8591
  13   2.0000      -0.583927       -15.8895
  14   2.0000      -0.577356       -15.7107
  15   2.0000      -0.536930       -14.6106
  16   2.0000      -0.534717       -14.5504
  17   2.0000      -0.508977       -13.8500
  18   2.0000      -0.492149       -13.3921
  19   2.0000      -0.451880       -12.2963
  20   0.0000       0.096591         2.6284
  21   0.0000       0.127488         3.4691
  22   0.0000       0.152100         4.1388
  23   0.0000       0.182581         4.9683
  24   0.0000       0.197185         5.3657

MULLIKEN ATOMIC CHARGES
-----------------------
   0 O :   -0.732599
   1 H :    0.318911
   2 H :    0.367404
   3 O :   -0.684318
   4 H :    0.340858
   5 H :    0.343311
   6 O :   -0.691305
   7 H :    0.352680
   8 H :    0.350996
   9 O :   -0.691281
  10 H :    0.383966
  11 H :    0.341377
Sum of atomic charges:   -0.0000000

LOEWDIN ATOMIC CHARGES
----------------------
   0 O :   -0.373368
   1 H :    0.145416
   2 H :    0.142186
   3 O :   -0.339944
   4 H :    0.158799
   5 H :    0.181007
   6 O :   -0.316311
   7 H :    0.172901
   8 H :    0.178199
   9 O :   -0.276352
  10 H :    0.159192
  11 H :    0.168276

  Mayer bond orders larger than 0.100000
B(  0-O ,  1-H ) :   0.8640 B(  0-O ,  2-H ) :   0.7835 B(  3-O ,  4-H ) :   0.8522
B(  3-O ,  5-H ) :   0.8452 B(  6-O ,  7-H ) :   0.8415 B(  6-O ,  8-H ) :   0.8389
B(  9-O , 10-H ) :   0.8031 B(  9-O , 11-H ) :   0.8471

MP2 TOTAL ENERGY:     -305.265389189 Eh
FINAL SINGLE POINT ENERGY      -305.265389188756

DIPOLE MOMENT
-------------
                                X             Y             Z
Electronic contribution:     -0.19298       0.08379       0.01393
Nuclear contribution   :     -0.64943       0.07877      -1.46039
                        -----------------------------------------
Total Dipole Moment    :     -0.84241       0.16255      -1.44645
                        -----------------------------------------
Magnitude (a.u.)       :      1.68176
Magnitude (Debye)      :      4.27468

Rotational constants in cm-1:     0.122717     0.032347     0.026696
Rotational constants in MHz :  3678.957768   969.742802   800.324277

                             ****ORCA TERMINATED NORMALLY****
TOTAL RUN TIME: 0 days 0 hours 0 minutes 14 seconds 784 msec
