                         Program Version 4.2.0 -  RELEASE  -
|  1> # 12meoh.boyd.etal.mol2,6,8
|  2> ! MP2 def2-TZVP EnGrad TightSCF
|  3>
|  4> %pal
|  5>     nprocs 6
|  6> end
|  7>
|  8> %maxcore 8000
|  9>
| 10> %scf
| 11>     ConvForced true
| 12> end
| 13>
| 14> *xyz 0 1
| 15> O  -3.839777402   2.233595098   0.660436763
| 16> H  -2.958345897   1.907036203   0.973588449
| 17> C  -3.600368059   3.168790682  -0.390480452
| 18> H  -4.551709193   3.344148967  -0.901254863
| 19> H  -2.868237594   2.789240199  -1.113617525
| 20> H  -3.243594915   4.128998607   0.009549480
| 21> O   2.622209273  -1.703002590  -1.445859723
| 22> H   1.828551432  -1.986513781  -0.909754968
| 23> C   2.781117675  -2.615822239  -2.525472890
| 24> H   3.691063626  -2.339003544  -3.065143454
| 25> H   1.934727323  -2.559520367  -3.223226661
| 26> H   2.879948338  -3.653846211  -2.177750170
| 27> O   3.570084754   2.361662577  -0.202416728
| 28> H   3.393280933   1.755669977   0.560634073
| 29> C   4.368082883   1.644741793  -1.143112807
| 30> H   4.552851717   2.311801738  -1.989632421
| 31> H   3.862427494   0.740851663  -1.508095690
| 32> H   5.333949674   1.357289092  -0.706288100
| 33> *
| 34>
| 35>                          ****END OF INPUT****

CARTESIAN COORDINATES (ANGSTROEM)
---------------------------------
  O     -3.839777    2.233595    0.660437
  H     -2.958346    1.907036    0.973588
  C     -3.600368    3.168791   -0.390480
  H     -4.551709    3.344149   -0.901255
  H     -2.868238    2.789240   -1.113618
  H     -3.243595    4.128999    0.009549
  O      2.622209   -1.703003   -1.445860
  H      1.828551   -1.986514   -0.909755
  C      2.781118   -2.615822   -2.525473
  H      3.691064   -2.339004   -3.065143
  H      1.934727   -2.559520   -3.223227
  H      2.879948   -3.653846   -2.177750
  O      3.570085    2.361663   -0.202417
  H      3.393281    1.755670    0.560634
  C      4.368083    1.644742   -1.143113
  H      4.552852    2.311802   -1.989632
  H      3.862427    0.740852   -1.508096
  H      5.333950    1.357289   -0.706288

 Total Charge           Charge          ....    0
 Multiplicity           Mult            ....    1
 Number of Electrons    NEL             ....   54
 Basis Dimension        Dim             ....  258

ORBITAL ENERGIES
----------------

  NO   OCC          E(Eh)            E(eV)
   0   2.0000     -20.568188      -559.6889
   1   2.0000     -20.555475      -559.3429
   2   2.0000     -20.547811      -559.1344
   3   2.0000     -11.279561      -306.9325
   4   2.0000     -11.269768      -306.6660
   5   2.0000     -11.258335      -306.3549
   6   2.0000      -1.356258       -36.9057
   7   2.0000      -1.344917       -36.5970
   8   2.0000      -1.337080       -36.3838
   9   2.0000      -0.927776       -25.2461
  10   2.0000      -0.917722       -24.9725
  11   2.0000      -0.907960       -24.7068
  12   2.0000      -0.690908       -18.8006
  13   2.0000      -0.679957       -18.5026
  14   2.0000      -0.671217       -18.2647
  15   2.0000      -0.625712       -17.0265
  16   2.0000      -0.614856       -16.7311
  17   2.0000      -0.607100       -16.5200
  18   2.0000      -0.598859       -16.2958
  19   2.0000      -0.588296       -16.0084
  20   2.0000      -0.579496       -15.7689
  21   2.0000      -0.509984       -13.8774
  22   2.0000      -0.499901       -13.6030
  23   2.0000      -0.490118       -13.3368
  24   2.0000      -0.458588       -12.4788
  25   2.0000      -0.447543       -12.1783
  26   2.0000      -0.438623       -11.9355
  27   0.0000       0.121159         3.2969
  28   0.0000       0.136625         3.7177
  29   0.0000       0.149021         4.0551
  30   0.0000       0.168945         4.5972
  31   0.0000       0.178353         4.8532

MULLIKEN ATOMIC CHARGES
-----------------------
   0 O :   -0.497793
   1 H :    0.320719
   2 C :   -0.175186
   3 H :    0.127976
   4 H :    0.112680
   5 H :    0.111603
   6 O :   -0.496724
   7 H :    0.321487
   8 C :   -0.172720
   9 H :    0.130650
  10 H :    0.113078
  11 H :    0.112894
  12 O :   -0.505245
  13 H :    0.318677
  14 C :   -0.180831
  15 H :    0.120908
  16 H :    0.134340
  17 H :    0.103487
Sum of atomic charges:    0.0000000

LOEWDIN ATOMIC CHARGES
----------------------
   0 O :   -0.111772
   1 H :    0.187792
   2 C :   -0.378262
   3 H :    0.109404
   4 H :    0.096388
   5 H :    0.096449
   6 O :   -0.109908
   7 H :    0.193297
   8 C :   -0.381015
   9 H :    0.110667
  10 H :    0.096713
  11 H :    0.097185
  12 O :   -0.114004
  13 H :    0.186471
  14 C :   -0.381385
  15 H :    0.107315
  16 H :    0.100432
  17 H :    0.094232

  Mayer bond orders larger than 0.100000
B(  0-O ,  1-H ) :   0.8443 B(  0-O ,  2-C ) :   0.9248 B(  2-C ,  3-H ) :   0.9379
B(  2-C ,  4-H ) :   0.9412 B(  2-C ,  5-H ) :   0.9379 B(  6-O ,  7-H ) :   0.8390
B(  6-O ,  8-C ) :   0.9172 B(  8-C ,  9-H ) :   0.9385 B(  8-C , 10-H ) :   0.9384
B(  8-C , 11-H ) :   0.9360 B( 12-O , 13-H ) :   0.8455 B( 12-O , 14-C ) :   0.9147
B( 14-C , 15-H ) :   0.9365 B( 14-C , 16-H ) :   0.9335 B( 14-C , 17-H ) :   0.9415

MP2 TOTAL ENERGY:     -346.522192695 Eh
FINAL SINGLE POINT ENERGY      -346.522192695035

DIPOLE MOMENT
-------------
                                X             Y             Z
Electronic contribution:     -1.54601       0.97290       3.63426
Nuclear contribution   :      1.95374      -2.11158      -3.94088
                        -----------------------------------------
Total Dipole Moment    :      0.40774      -1.13869      -0.30662
                        -----------------------------------------
Magnitude (a.u.)       :      1.24774
Magnitude (Debye)      :      3.17151

Rotational constants in cm-1:     0.045646     0.012789     0.010334
Rotational constants in MHz :  1368.417821   383.390698   309.804623

                             ****ORCA TERMINATED NORMALLY****
TOTAL RUN TIME: 0 days 0 hours 0 minutes 47 seconds 495 msec
