                         Program Version 4.2.0 -  RELEASE  -
|  1> # 12mecn.remya.etal.2.mol8,9
|  2> ! MP2 def2-TZVP EnGrad TightSCF
|  3>
|  4> %pal
|  5>     nprocs 6
|  6> end
|  7>
|  8> %maxcore 8000
|  9>
| 10> %scf
| 11>     ConvForced true
| 12> end
| 13>
| 14> *xyz 0 1
| 15> C   1.912641000  -2.468050000  -1.750510000
| 16> H   2.876947000  -2.793500000  -2.151200000
| 17> H   1.688016000  -1.463720000  -2.122170000
| 18> H   1.123460000  -3.154780000  -2.069590000
| 19> C   1.977850000  -2.444240000  -0.306900000
| 20> N   2.036566000  -2.426130000   0.858249000
| 21> C   0.923766000   4.000693000  -1.575910000
| 22> H   0.011949000   4.478423000  -1.939550000
| 23> H   0.947903000   2.966558000  -1.929960000
| 24> H   1.805950000   4.519548000  -1.956520000
| 25> C   0.942834000   3.994846000  -0.131200000
| 26> N   0.960035000   3.982544000   1.035639000
| 27> *
| 28>
| 29>                          ****END OF INPUT****

CARTESIAN COORDINATES (ANGSTROEM)
---------------------------------
  C      1.912641   -2.468050   -1.750510
  H      2.876947   -2.793500   -2.151200
  H      1.688016   -1.463720   -2.122170
  H      1.123460   -3.154780   -2.069590
  C      1.977850   -2.444240   -0.306900
  N      2.036566   -2.426130    0.858249
  C      0.923766    4.000693   -1.575910
  H      0.011949    4.478423   -1.939550
  H      0.947903    2.966558   -1.929960
  H      1.805950    4.519548   -1.956520
  C      0.942834    3.994846   -0.131200
  N      0.960035    3.982544    1.035639

 Total Charge           Charge          ....    0
 Multiplicity           Mult            ....    1
 Number of Electrons    NEL             ....   44
 Basis Dimension        Dim             ....  222

ORBITAL ENERGIES
----------------

  NO   OCC          E(Eh)            E(eV)
   0   2.0000     -15.573776      -423.7840
   1   2.0000     -15.573418      -423.7742
   2   2.0000     -11.287776      -307.1560
   3   2.0000     -11.286769      -307.1286
   4   2.0000     -11.280196      -306.9497
   5   2.0000     -11.279858      -306.9405
   6   2.0000      -1.214830       -33.0572
   7   2.0000      -1.214254       -33.0415
   8   2.0000      -1.045871       -28.4596
   9   2.0000      -1.045850       -28.4590
  10   2.0000      -0.701878       -19.0991
  11   2.0000      -0.701470       -19.0880
  12   2.0000      -0.635839       -17.3021
  13   2.0000      -0.635058       -17.2808
  14   2.0000      -0.633559       -17.2400
  15   2.0000      -0.632179       -17.2025
  16   2.0000      -0.555845       -15.1253
  17   2.0000      -0.555477       -15.1153
  18   2.0000      -0.458079       -12.4650
  19   2.0000      -0.457870       -12.4593
  20   2.0000      -0.457829       -12.4581
  21   2.0000      -0.457058       -12.4372
  22   0.0000       0.099956         2.7199
  23   0.0000       0.125292         3.4094
  24   0.0000       0.157089         4.2746
  25   0.0000       0.169820         4.6210
  26   0.0000       0.170463         4.6385

MULLIKEN ATOMIC CHARGES
-----------------------
   0 C :   -0.277776
   1 H :    0.172847
   2 H :    0.165381
   3 H :    0.172884
   4 C :   -0.146498
   5 N :   -0.086839
   6 C :   -0.278101
   7 H :    0.172796
   8 H :    0.165496
   9 H :    0.172620
  10 C :   -0.145557
  11 N :   -0.087252
Sum of atomic charges:   -0.0000000

LOEWDIN ATOMIC CHARGES
----------------------
   0 C :   -0.284707
   1 H :    0.152685
   2 H :    0.150585
   3 H :    0.152494
   4 C :   -0.220883
   5 N :    0.049825
   6 C :   -0.284371
   7 H :    0.151484
   8 H :    0.151351
   9 H :    0.151783
  10 C :   -0.220090
  11 N :    0.049845

  Mayer bond orders larger than 0.100000
B(  0-C ,  1-H ) :   0.9167 B(  0-C ,  2-H ) :   0.9183 B(  0-C ,  3-H ) :   0.9166
B(  0-C ,  4-C ) :   0.9013 B(  4-C ,  5-N ) :   2.8338 B(  6-C ,  7-H ) :   0.9165
B(  6-C ,  8-H ) :   0.9187 B(  6-C ,  9-H ) :   0.9168 B(  6-C , 10-C ) :   0.9020
B( 10-C , 11-N ) :   2.8336

MP2 TOTAL ENERGY:     -264.965145390 Eh
FINAL SINGLE POINT ENERGY      -264.965145390172

DIPOLE MOMENT
-------------
                                X             Y             Z
Electronic contribution:      0.18005       0.05729       6.27113
Nuclear contribution   :     -0.27057      -0.07701      -9.27990
                        -----------------------------------------
Total Dipole Moment    :     -0.09053      -0.01972      -3.00877
                        -----------------------------------------
Magnitude (a.u.)       :      3.01019
Magnitude (Debye)      :      7.65130

Rotational constants in cm-1:     0.154339     0.019156     0.017155
Rotational constants in MHz :  4626.965936   574.289046   514.284796

                             ****ORCA TERMINATED NORMALLY****
TOTAL RUN TIME: 0 days 0 hours 0 minutes 51 seconds 685 msec
