                         Program Version 4.2.0 -  RELEASE  -
|  1> # 12meoh.boyd.etal.mol2,4
|  2> ! MP2 def2-TZVP EnGrad TightSCF
|  3>
|  4> %pal
|  5>     nprocs 6
|  6> end
|  7>
|  8> %maxcore 8000
|  9>
| 10> %scf
| 11>     ConvForced true
| 12> end
| 13>
| 14> *xyz 0 1
| 15> O  -3.839777402   2.233595098   0.660436763
| 16> H  -2.958345897   1.907036203   0.973588449
| 17> C  -3.600368059   3.168790682  -0.390480452
| 18> H  -4.551709193   3.344148967  -0.901254863
| 19> H  -2.868237594   2.789240199  -1.113617525
| 20> H  -3.243594915   4.128998607   0.009549480
| 21> O  -1.358578914   1.232360421   1.189721000
| 22> H  -1.058250183   1.216459361   0.238591307
| 23> C  -0.389763452   1.957872567   1.943072362
| 24> H  -0.747220771   2.012806578   2.975200343
| 25> H  -0.260410585   2.982763209   1.565366540
| 26> H   0.585220638   1.453754179   1.934070793
| 27> *
| 28>
| 29>                          ****END OF INPUT****

CARTESIAN COORDINATES (ANGSTROEM)
---------------------------------
  O     -3.839777    2.233595    0.660437
  H     -2.958346    1.907036    0.973588
  C     -3.600368    3.168791   -0.390480
  H     -4.551709    3.344149   -0.901255
  H     -2.868238    2.789240   -1.113618
  H     -3.243595    4.128999    0.009549
  O     -1.358579    1.232360    1.189721
  H     -1.058250    1.216459    0.238591
  C     -0.389763    1.957873    1.943072
  H     -0.747221    2.012807    2.975200
  H     -0.260411    2.982763    1.565367
  H      0.585221    1.453754    1.934071

 Total Charge           Charge          ....    0
 Multiplicity           Mult            ....    1
 Number of Electrons    NEL             ....   36
 Basis Dimension        Dim             ....  172

ORBITAL ENERGIES
----------------

  NO   OCC          E(Eh)            E(eV)
   0   2.0000     -20.590617      -560.2992
   1   2.0000     -20.520031      -558.3784
   2   2.0000     -11.291945      -307.2694
   3   2.0000     -11.257780      -306.3398
   4   2.0000      -1.381697       -37.5979
   5   2.0000      -1.316365       -35.8201
   6   2.0000      -0.943230       -25.6666
   7   2.0000      -0.903320       -24.5806
   8   2.0000      -0.710950       -19.3459
   9   2.0000      -0.679491       -18.4899
  10   2.0000      -0.634318       -17.2607
  11   2.0000      -0.613138       -16.6843
  12   2.0000      -0.598141       -16.2763
  13   2.0000      -0.567247       -15.4356
  14   2.0000      -0.528265       -14.3748
  15   2.0000      -0.492246       -13.3947
  16   2.0000      -0.462148       -12.5757
  17   2.0000      -0.423382       -11.5208
  18   0.0000       0.112463         3.0603
  19   0.0000       0.157566         4.2876
  20   0.0000       0.175239         4.7685
  21   0.0000       0.207686         5.6514
  22   0.0000       0.218524         5.9463

MULLIKEN ATOMIC CHARGES
-----------------------
   0 O :   -0.519579
   1 H :    0.353857
   2 C :   -0.179569
   3 H :    0.127678
   4 H :    0.080870
   5 H :    0.102012
   6 O :   -0.513064
   7 H :    0.339072
   8 C :   -0.187982
   9 H :    0.145962
  10 H :    0.124285
  11 H :    0.126460
Sum of atomic charges:   -0.0000000

LOEWDIN ATOMIC CHARGES
----------------------
   0 O :   -0.119637
   1 H :    0.159142
   2 C :   -0.394550
   3 H :    0.107611
   4 H :    0.085404
   5 H :    0.091832
   6 O :   -0.077120
   7 H :    0.199247
   8 C :   -0.372973
   9 H :    0.116325
  10 H :    0.100902
  11 H :    0.103818

  Mayer bond orders larger than 0.100000
B(  0-O ,  1-H ) :   0.7962 B(  0-O ,  2-C ) :   0.9455 B(  2-C ,  3-H ) :   0.9430
B(  2-C ,  4-H ) :   0.9372 B(  2-C ,  5-H ) :   0.9384 B(  6-O ,  7-H ) :   0.8297
B(  6-O ,  8-C ) :   0.8747 B(  8-C ,  9-H ) :   0.9392 B(  8-C , 10-H ) :   0.9361
B(  8-C , 11-H ) :   0.9353

MP2 TOTAL ENERGY:     -231.021254925 Eh
FINAL SINGLE POINT ENERGY      -231.021254924964

DIPOLE MOMENT
-------------
                                X             Y             Z
Electronic contribution:     -1.45203      -2.23136       0.66584
Nuclear contribution   :      2.95824       2.54914      -0.98886
                        -----------------------------------------
Total Dipole Moment    :      1.50621       0.31778      -0.32302
                        -----------------------------------------
Magnitude (a.u.)       :      1.57289
Magnitude (Debye)      :      3.99798

Rotational constants in cm-1:     0.531891     0.083075     0.079310
Rotational constants in MHz : 15945.705256  2490.531461  2377.645328

                             ****ORCA TERMINATED NORMALLY****
TOTAL RUN TIME: 0 days 0 hours 0 minutes 46 seconds 399 msec
