                         Program Version 4.2.0 -  RELEASE  -
|  1> # 12h2o.su.etal.mol2,3,4,6,8,10
|  2> ! MP2 def2-TZVP EnGrad TightSCF
|  3>
|  4> %pal
|  5>     nprocs 6
|  6> end
|  7>
|  8> %maxcore 8000
|  9>
| 10> %scf
| 11>     ConvForced true
| 12> end
| 13>
| 14> *xyz 0 1
| 15> O   0.923410000  -1.794470000  -2.768350000
| 16> H   1.359750000  -2.338250000  -3.430940000
| 17> H   1.303000000  -0.879480000  -2.865760000
| 18> O  -1.752130000  -0.741530000  -2.896280000
| 19> H  -2.036450000  -0.920500000  -1.984040000
| 20> H  -0.921210000  -1.242140000  -2.984230000
| 21> O  -0.885520000   1.737840000   0.052730000
| 22> H  -1.032320000   2.090180000  -0.841890000
| 23> H  -1.284090000   0.839590000   0.017130000
| 24> O   1.737840000   0.885520000  -0.052730000
| 25> H   2.090180000   1.032320000   0.841890000
| 26> H   0.839590000   1.284090000  -0.017130000
| 27> O   1.752130000   0.741530000  -2.896280000
| 28> H   2.036450000   0.920500000  -1.984040000
| 29> H   0.921210000   1.242140000  -2.984230000
| 30> O  -0.923410000   1.794470000  -2.768350000
| 31> H  -1.359750000   2.338250000  -3.430940000
| 32> H  -1.303000000   0.879480000  -2.865760000
| 33> *
| 34>
| 35>                          ****END OF INPUT****

CARTESIAN COORDINATES (ANGSTROEM)
---------------------------------
  O      0.923410   -1.794470   -2.768350
  H      1.359750   -2.338250   -3.430940
  H      1.303000   -0.879480   -2.865760
  O     -1.752130   -0.741530   -2.896280
  H     -2.036450   -0.920500   -1.984040
  H     -0.921210   -1.242140   -2.984230
  O     -0.885520    1.737840    0.052730
  H     -1.032320    2.090180   -0.841890
  H     -1.284090    0.839590    0.017130
  O      1.737840    0.885520   -0.052730
  H      2.090180    1.032320    0.841890
  H      0.839590    1.284090   -0.017130
  O      1.752130    0.741530   -2.896280
  H      2.036450    0.920500   -1.984040
  H      0.921210    1.242140   -2.984230
  O     -0.923410    1.794470   -2.768350
  H     -1.359750    2.338250   -3.430940
  H     -1.303000    0.879480   -2.865760

 Total Charge           Charge          ....    0
 Multiplicity           Mult            ....    1
 Number of Electrons    NEL             ....   60
 Basis Dimension        Dim             ....  258

ORBITAL ENERGIES
----------------

  NO   OCC          E(Eh)            E(eV)
   0   2.0000     -20.583314      -560.1004
   1   2.0000     -20.576873      -559.9252
   2   2.0000     -20.576799      -559.9232
   3   2.0000     -20.546205      -559.0907
   4   2.0000     -20.542077      -558.9783
   5   2.0000     -20.539663      -558.9127
   6   2.0000      -1.379468       -37.5372
   7   2.0000      -1.364224       -37.1224
   8   2.0000      -1.354651       -36.8619
   9   2.0000      -1.340223       -36.4693
  10   2.0000      -1.327186       -36.1146
  11   2.0000      -1.316400       -35.8211
  12   2.0000      -0.742854       -20.2141
  13   2.0000      -0.733811       -19.9680
  14   2.0000      -0.723180       -19.6787
  15   2.0000      -0.706389       -19.2218
  16   2.0000      -0.702426       -19.1140
  17   2.0000      -0.696025       -18.9398
  18   2.0000      -0.638193       -17.3661
  19   2.0000      -0.608019       -16.5450
  20   2.0000      -0.596153       -16.2221
  21   2.0000      -0.590745       -16.0750
  22   2.0000      -0.572802       -15.5867
  23   2.0000      -0.546748       -14.8778
  24   2.0000      -0.525644       -14.3035
  25   2.0000      -0.522145       -14.2083
  26   2.0000      -0.514885       -14.0107
  27   2.0000      -0.496360       -13.5066
  28   2.0000      -0.490704       -13.3527
  29   2.0000      -0.486207       -13.2304
  30   0.0000       0.095207         2.5907
  31   0.0000       0.142669         3.8822
  32   0.0000       0.154577         4.2063
  33   0.0000       0.157833         4.2949
  34   0.0000       0.206475         5.6185

MULLIKEN ATOMIC CHARGES
-----------------------
   0 O :   -0.745908
   1 H :    0.338437
   2 H :    0.385395
   3 O :   -0.703861
   4 H :    0.343876
   5 H :    0.384928
   6 O :   -0.690666
   7 H :    0.382370
   8 H :    0.333806
   9 O :   -0.729740
  10 H :    0.339057
  11 H :    0.359565
  12 O :   -0.725607
  13 H :    0.388509
  14 H :    0.362642
  15 O :   -0.758757
  16 H :    0.354979
  17 H :    0.380975
Sum of atomic charges:    0.0000000

LOEWDIN ATOMIC CHARGES
----------------------
   0 O :   -0.341909
   1 H :    0.154455
   2 H :    0.146146
   3 O :   -0.280104
   4 H :    0.165359
   5 H :    0.157223
   6 O :   -0.295719
   7 H :    0.153400
   8 H :    0.167730
   9 O :   -0.343071
  10 H :    0.164384
  11 H :    0.144190
  12 O :   -0.288816
  13 H :    0.158976
  14 H :    0.146856
  15 O :   -0.315650
  16 H :    0.161137
  17 H :    0.145413

  Mayer bond orders larger than 0.100000
B(  0-O ,  1-H ) :   0.8496 B(  0-O ,  2-H ) :   0.7388 B(  2-H , 12-O ) :   0.1165
B(  3-O ,  4-H ) :   0.8455 B(  3-O ,  5-H ) :   0.7690 B(  3-O , 17-H ) :   0.1144
B(  6-O ,  7-H ) :   0.7957 B(  6-O ,  8-H ) :   0.8480 B(  9-O , 10-H ) :   0.8494
B(  9-O , 11-H ) :   0.7759 B( 12-O , 13-H ) :   0.7968 B( 12-O , 14-H ) :   0.8075
B( 15-O , 16-H ) :   0.8382 B( 15-O , 17-H ) :   0.7333

MP2 TOTAL ENERGY:     -457.949660322 Eh
FINAL SINGLE POINT ENERGY      -457.949660321742

DIPOLE MOMENT
-------------
                                X             Y             Z
Electronic contribution:     -0.00577       0.08673      -0.05560
Nuclear contribution   :     -0.90834      -0.00045       0.10702
                        -----------------------------------------
Total Dipole Moment    :     -0.91411       0.08628       0.05143
                        -----------------------------------------
Magnitude (a.u.)       :      0.91961
Magnitude (Debye)      :      2.33746

Rotational constants in cm-1:     0.054177     0.045139     0.033743
Rotational constants in MHz :  1624.190912  1353.236479  1011.589946

                             ****ORCA TERMINATED NORMALLY****
TOTAL RUN TIME: 0 days 0 hours 1 minutes 20 seconds 403 msec
