                         Program Version 4.2.0 -  RELEASE  -
|  1> # 12h2o.su.etal.mol4,6,10,11
|  2> ! MP2 def2-TZVP EnGrad TightSCF
|  3>
|  4> %pal
|  5>     nprocs 6
|  6> end
|  7>
|  8> %maxcore 8000
|  9>
| 10> %scf
| 11>     ConvForced true
| 12> end
| 13>
| 14> *xyz 0 1
| 15> O  -0.885520000   1.737840000   0.052730000
| 16> H  -1.032320000   2.090180000  -0.841890000
| 17> H  -1.284090000   0.839590000   0.017130000
| 18> O   1.737840000   0.885520000  -0.052730000
| 19> H   2.090180000   1.032320000   0.841890000
| 20> H   0.839590000   1.284090000  -0.017130000
| 21> O  -0.923410000   1.794470000  -2.768350000
| 22> H  -1.359750000   2.338250000  -3.430940000
| 23> H  -1.303000000   0.879480000  -2.865760000
| 24> O  -0.741530000   1.752130000   2.896280000
| 25> H  -0.920500000   2.036450000   1.984040000
| 26> H  -1.242140000   0.921210000   2.984230000
| 27> *
| 28>
| 29>                          ****END OF INPUT****

CARTESIAN COORDINATES (ANGSTROEM)
---------------------------------
  O     -0.885520    1.737840    0.052730
  H     -1.032320    2.090180   -0.841890
  H     -1.284090    0.839590    0.017130
  O      1.737840    0.885520   -0.052730
  H      2.090180    1.032320    0.841890
  H      0.839590    1.284090   -0.017130
  O     -0.923410    1.794470   -2.768350
  H     -1.359750    2.338250   -3.430940
  H     -1.303000    0.879480   -2.865760
  O     -0.741530    1.752130    2.896280
  H     -0.920500    2.036450    1.984040
  H     -1.242140    0.921210    2.984230

 Total Charge           Charge          ....    0
 Multiplicity           Mult            ....    1
 Number of Electrons    NEL             ....   40
 Basis Dimension        Dim             ....  172

ORBITAL ENERGIES
----------------

  NO   OCC          E(Eh)            E(eV)
   0   2.0000     -20.605718      -560.7101
   1   2.0000     -20.590705      -560.3016
   2   2.0000     -20.538388      -558.8779
   3   2.0000     -20.515965      -558.2678
   4   2.0000      -1.386235       -37.7214
   5   2.0000      -1.373589       -37.3772
   6   2.0000      -1.320257       -35.9260
   7   2.0000      -1.297233       -35.2995
   8   2.0000      -0.751487       -20.4490
   9   2.0000      -0.739008       -20.1094
  10   2.0000      -0.690588       -18.7919
  11   2.0000      -0.674439       -18.3524
  12   2.0000      -0.632337       -17.2068
  13   2.0000      -0.606500       -16.5037
  14   2.0000      -0.564618       -15.3640
  15   2.0000      -0.553682       -15.0664
  16   2.0000      -0.541251       -14.7282
  17   2.0000      -0.514426       -13.9982
  18   2.0000      -0.484683       -13.1889
  19   2.0000      -0.464322       -12.6348
  20   0.0000       0.087062         2.3691
  21   0.0000       0.127728         3.4757
  22   0.0000       0.162858         4.4316
  23   0.0000       0.188009         5.1160
  24   0.0000       0.195747         5.3265

MULLIKEN ATOMIC CHARGES
-----------------------
   0 O :   -0.717333
   1 H :    0.389502
   2 H :    0.340990
   3 O :   -0.719595
   4 H :    0.330983
   5 H :    0.358176
   6 O :   -0.690102
   7 H :    0.356883
   8 H :    0.354069
   9 O :   -0.692493
  10 H :    0.369505
  11 H :    0.319415
Sum of atomic charges:    0.0000000

LOEWDIN ATOMIC CHARGES
----------------------
   0 O :   -0.282758
   1 H :    0.157959
   2 H :    0.171624
   3 O :   -0.362881
   4 H :    0.159156
   5 H :    0.140577
   6 O :   -0.306234
   7 H :    0.166069
   8 H :    0.185960
   9 O :   -0.337926
  10 H :    0.150338
  11 H :    0.158119

  Mayer bond orders larger than 0.100000
B(  0-O ,  1-H ) :   0.7902 B(  0-O ,  2-H ) :   0.8406 B(  3-O ,  4-H ) :   0.8558
B(  3-O ,  5-H ) :   0.8075 B(  6-O ,  7-H ) :   0.8393 B(  6-O ,  8-H ) :   0.8350
B(  9-O , 10-H ) :   0.8210 B(  9-O , 11-H ) :   0.8627

MP2 TOTAL ENERGY:     -305.271126434 Eh
FINAL SINGLE POINT ENERGY      -305.271126434023

DIPOLE MOMENT
-------------
                                X             Y             Z
Electronic contribution:      0.13693       0.26970      -0.20059
Nuclear contribution   :     -2.15314      -0.76440      -1.31870
                        -----------------------------------------
Total Dipole Moment    :     -2.01621      -0.49470      -1.51929
                        -----------------------------------------
Magnitude (a.u.)       :      2.57256
Magnitude (Debye)      :      6.53893

Rotational constants in cm-1:     0.161324     0.057116     0.042856
Rotational constants in MHz :  4836.369970  1712.287075  1284.795177

                             ****ORCA TERMINATED NORMALLY****
TOTAL RUN TIME: 0 days 0 hours 0 minutes 20 seconds 785 msec
