                         Program Version 4.2.0 -  RELEASE  -
|  1> # 12meoh.boyd.etal.mol0,7,10
|  2> ! MP2 def2-TZVP EnGrad TightSCF
|  3>
|  4> %pal
|  5>     nprocs 6
|  6> end
|  7>
|  8> %maxcore 8000
|  9>
| 10> %scf
| 11>     ConvForced true
| 12> end
| 13>
| 14> *xyz 0 1
| 15> O  -1.776108874  -2.741384797  -1.019308298
| 16> H  -2.520094035  -2.452295987  -0.420778302
| 17> C  -2.174025166  -3.952700964  -1.647004581
| 18> H  -1.359803895  -4.272673416  -2.304149236
| 19> H  -3.075973971  -3.808692420  -2.256751112
| 20> H  -2.370225393  -4.752784761  -0.918966137
| 21> O   4.310535586  -1.588322800   0.656128299
| 22> H   3.804372199  -1.630404735  -0.196849819
| 23> C   4.312298137  -2.894980854   1.222112691
| 24> H   4.713177833  -2.819907076   2.237066773
| 25> H   4.957796734  -3.574699304   0.648211180
| 26> H   3.302735989  -3.324433205   1.269756773
| 27> O  -5.201143618   0.064582726  -0.172223772
| 28> H  -4.686891530   0.869258890   0.107806143
| 29> C  -6.513192168   0.171391798   0.359883449
| 30> H  -7.049381312  -0.749234190   0.111361174
| 31> H  -7.057741163   1.017801101  -0.081819420
| 32> H  -6.514770575   0.292264928   1.453058834
| 33> *
| 34>
| 35>                          ****END OF INPUT****

CARTESIAN COORDINATES (ANGSTROEM)
---------------------------------
  O     -1.776109   -2.741385   -1.019308
  H     -2.520094   -2.452296   -0.420778
  C     -2.174025   -3.952701   -1.647005
  H     -1.359804   -4.272673   -2.304149
  H     -3.075974   -3.808692   -2.256751
  H     -2.370225   -4.752785   -0.918966
  O      4.310536   -1.588323    0.656128
  H      3.804372   -1.630405   -0.196850
  C      4.312298   -2.894981    1.222113
  H      4.713178   -2.819907    2.237067
  H      4.957797   -3.574699    0.648211
  H      3.302736   -3.324433    1.269757
  O     -5.201144    0.064583   -0.172224
  H     -4.686892    0.869259    0.107806
  C     -6.513192    0.171392    0.359883
  H     -7.049381   -0.749234    0.111361
  H     -7.057741    1.017801   -0.081819
  H     -6.514771    0.292265    1.453059

 Total Charge           Charge          ....    0
 Multiplicity           Mult            ....    1
 Number of Electrons    NEL             ....   54
 Basis Dimension        Dim             ....  258

ORBITAL ENERGIES
----------------

  NO   OCC          E(Eh)            E(eV)
   0   2.0000     -20.564192      -559.5801
   1   2.0000     -20.551820      -559.2434
   2   2.0000     -20.551621      -559.2380
   3   2.0000     -11.276704      -306.8547
   4   2.0000     -11.267001      -306.5907
   5   2.0000     -11.266487      -306.5767
   6   2.0000      -1.354099       -36.8469
   7   2.0000      -1.341354       -36.5001
   8   2.0000      -1.341147       -36.4945
   9   2.0000      -0.924729       -25.1631
  10   2.0000      -0.914327       -24.8801
  11   2.0000      -0.914295       -24.8792
  12   2.0000      -0.688410       -18.7326
  13   2.0000      -0.676269       -18.4022
  14   2.0000      -0.675978       -18.3943
  15   2.0000      -0.622504       -16.9392
  16   2.0000      -0.612157       -16.6576
  17   2.0000      -0.611605       -16.6426
  18   2.0000      -0.597634       -16.2624
  19   2.0000      -0.586200       -15.9513
  20   2.0000      -0.585491       -15.9320
  21   2.0000      -0.505988       -13.7686
  22   2.0000      -0.495577       -13.4853
  23   2.0000      -0.495338       -13.4788
  24   2.0000      -0.454699       -12.3730
  25   2.0000      -0.443577       -12.0703
  26   2.0000      -0.443416       -12.0660
  27   0.0000       0.123060         3.3486
  28   0.0000       0.141284         3.8445
  29   0.0000       0.148877         4.0512
  30   0.0000       0.169579         4.6145
  31   0.0000       0.181235         4.9317

MULLIKEN ATOMIC CHARGES
-----------------------
   0 O :   -0.502561
   1 H :    0.328617
   2 C :   -0.171742
   3 H :    0.124110
   4 H :    0.112950
   5 H :    0.106433
   6 O :   -0.497921
   7 H :    0.323845
   8 C :   -0.174710
   9 H :    0.126892
  10 H :    0.107394
  11 H :    0.114484
  12 O :   -0.501070
  13 H :    0.325675
  14 C :   -0.173346
  15 H :    0.128375
  16 H :    0.111661
  17 H :    0.110914
Sum of atomic charges:   -0.0000000

LOEWDIN ATOMIC CHARGES
----------------------
   0 O :   -0.110774
   1 H :    0.195023
   2 C :   -0.384942
   3 H :    0.108517
   4 H :    0.096360
   5 H :    0.094298
   6 O :   -0.109705
   7 H :    0.190602
   8 C :   -0.381676
   9 H :    0.109208
  10 H :    0.094765
  11 H :    0.096797
  12 O :   -0.109425
  13 H :    0.192713
  14 C :   -0.384244
  15 H :    0.110163
  16 H :    0.096400
  17 H :    0.095920

  Mayer bond orders larger than 0.100000
B(  0-O ,  1-H ) :   0.8363 B(  0-O ,  2-C ) :   0.9302 B(  2-C ,  3-H ) :   0.9379
B(  2-C ,  4-H ) :   0.9398 B(  2-C ,  5-H ) :   0.9385 B(  6-O ,  7-H ) :   0.8418
B(  6-O ,  8-C ) :   0.9277 B(  8-C ,  9-H ) :   0.9378 B(  8-C , 10-H ) :   0.9382
B(  8-C , 11-H ) :   0.9401 B( 12-O , 13-H ) :   0.8394 B( 12-O , 14-C ) :   0.9226
B( 14-C , 15-H ) :   0.9380 B( 14-C , 16-H ) :   0.9384 B( 14-C , 17-H ) :   0.9383

MP2 TOTAL ENERGY:     -346.521901341 Eh
FINAL SINGLE POINT ENERGY      -346.521901341181

DIPOLE MOMENT
-------------
                                X             Y             Z
Electronic contribution:      2.27144       2.98770      -0.58933
Nuclear contribution   :     -3.48086      -3.27117       0.80251
                        -----------------------------------------
Total Dipole Moment    :     -1.20942      -0.28347       0.21318
                        -----------------------------------------
Magnitude (a.u.)       :      1.26035
Magnitude (Debye)      :      3.20356

Rotational constants in cm-1:     0.068380     0.009352     0.008398
Rotational constants in MHz :  2049.978543   280.364998   251.771166

                             ****ORCA TERMINATED NORMALLY****
TOTAL RUN TIME: 0 days 0 hours 1 minutes 13 seconds 68 msec
