                         Program Version 4.2.0 -  RELEASE  -
|  1> # 12mecn.remya.etal.2.mol0,1,11
|  2> ! MP2 def2-TZVP EnGrad TightSCF
|  3>
|  4> %pal
|  5>     nprocs 6
|  6> end
|  7>
|  8> %maxcore 8000
|  9>
| 10> %scf
| 11>     ConvForced true
| 12> end
| 13>
| 14> *xyz 0 1
| 15> C  -0.869520000  -3.929380000   1.700199000
| 16> H  -0.057420000  -3.268850000   2.015352000
| 17> H  -0.697530000  -4.930670000   2.101524000
| 18> H  -1.821490000  -3.546590000   2.077146000
| 19> C  -0.916080000  -3.969960000   0.256749000
| 20> N  -0.955390000  -3.995980000  -0.909290000
| 21> C  -4.697980000  -0.249690000   1.746215000
| 22> H  -4.927570000   0.755530000   2.111799000
| 23> H  -3.709180000  -0.561560000   2.093253000
| 24> H  -5.432280000  -0.961520000   2.128066000
| 25> C  -4.714100000  -0.247110000   0.301670000
| 26> N  -4.729750000  -0.234960000  -0.865260000
| 27> C   4.214163000   3.378139000   1.593627000
| 28> H   3.242643000   3.657109000   2.012358000
| 29> H   4.969258000   4.086643000   1.941290000
| 30> H   4.482966000   2.372549000   1.931698000
| 31> C   4.130759000   3.388436000   0.150192000
| 32> N   4.050180000   3.381449000  -1.013420000
| 33> *
| 34>
| 35>                          ****END OF INPUT****

CARTESIAN COORDINATES (ANGSTROEM)
---------------------------------
  C     -0.869520   -3.929380    1.700199
  H     -0.057420   -3.268850    2.015352
  H     -0.697530   -4.930670    2.101524
  H     -1.821490   -3.546590    2.077146
  C     -0.916080   -3.969960    0.256749
  N     -0.955390   -3.995980   -0.909290
  C     -4.697980   -0.249690    1.746215
  H     -4.927570    0.755530    2.111799
  H     -3.709180   -0.561560    2.093253
  H     -5.432280   -0.961520    2.128066
  C     -4.714100   -0.247110    0.301670
  N     -4.729750   -0.234960   -0.865260
  C      4.214163    3.378139    1.593627
  H      3.242643    3.657109    2.012358
  H      4.969258    4.086643    1.941290
  H      4.482966    2.372549    1.931698
  C      4.130759    3.388436    0.150192
  N      4.050180    3.381449   -1.013420

 Total Charge           Charge          ....    0
 Multiplicity           Mult            ....    1
 Number of Electrons    NEL             ....   66
 Basis Dimension        Dim             ....  333

ORBITAL ENERGIES
----------------

  NO   OCC          E(Eh)            E(eV)
   0   2.0000     -15.573718      -423.7824
   1   2.0000     -15.573694      -423.7817
   2   2.0000     -15.573632      -423.7801
   3   2.0000     -11.289140      -307.1931
   4   2.0000     -11.288912      -307.1869
   5   2.0000     -11.287020      -307.1354
   6   2.0000     -11.280302      -306.9526
   7   2.0000     -11.279564      -306.9326
   8   2.0000     -11.279511      -306.9311
   9   2.0000      -1.215007       -33.0620
  10   2.0000      -1.214255       -33.0416
  11   2.0000      -1.214112       -33.0377
  12   2.0000      -1.047450       -28.5026
  13   2.0000      -1.047211       -28.4960
  14   2.0000      -1.045126       -28.4393
  15   2.0000      -0.703082       -19.1318
  16   2.0000      -0.702822       -19.1248
  17   2.0000      -0.701948       -19.1010
  18   2.0000      -0.638181       -17.3658
  19   2.0000      -0.636426       -17.3180
  20   2.0000      -0.635498       -17.2928
  21   2.0000      -0.633660       -17.2428
  22   2.0000      -0.633642       -17.2423
  23   2.0000      -0.632653       -17.2154
  24   2.0000      -0.556032       -15.1304
  25   2.0000      -0.555185       -15.1073
  26   2.0000      -0.555048       -15.1036
  27   2.0000      -0.458165       -12.4673
  28   2.0000      -0.458074       -12.4648
  29   2.0000      -0.458055       -12.4643
  30   2.0000      -0.457510       -12.4495
  31   2.0000      -0.457317       -12.4442
  32   2.0000      -0.456747       -12.4287
  33   0.0000       0.091811         2.4983
  34   0.0000       0.116936         3.1820
  35   0.0000       0.130840         3.5603
  36   0.0000       0.161245         4.3877
  37   0.0000       0.168063         4.5732

MULLIKEN ATOMIC CHARGES
-----------------------
   0 C :   -0.280547
   1 H :    0.171246
   2 H :    0.174676
   3 H :    0.161924
   4 C :   -0.144527
   5 N :   -0.082751
   6 C :   -0.281892
   7 H :    0.174740
   8 H :    0.161738
   9 H :    0.172878
  10 C :   -0.144232
  11 N :   -0.083253
  12 C :   -0.281303
  13 H :    0.170711
  14 H :    0.172639
  15 H :    0.170925
  16 C :   -0.145578
  17 N :   -0.087394
Sum of atomic charges:    0.0000000

LOEWDIN ATOMIC CHARGES
----------------------
   0 C :   -0.285500
   1 H :    0.151913
   2 H :    0.151855
   3 H :    0.149118
   4 C :   -0.221232
   5 N :    0.053856
   6 C :   -0.285654
   7 H :    0.153175
   8 H :    0.148981
   9 H :    0.151162
  10 C :   -0.221235
  11 N :    0.053562
  12 C :   -0.284921
  13 H :    0.152234
  14 H :    0.151058
  15 H :    0.152396
  16 C :   -0.219941
  17 N :    0.049175

  Mayer bond orders larger than 0.100000
B(  0-C ,  1-H ) :   0.9177 B(  0-C ,  2-H ) :   0.9168 B(  0-C ,  3-H ) :   0.9195
B(  0-C ,  4-C ) :   0.9009 B(  4-C ,  5-N ) :   2.8291 B(  6-C ,  7-H ) :   0.9161
B(  6-C ,  8-H ) :   0.9197 B(  6-C ,  9-H ) :   0.9179 B(  6-C , 10-C ) :   0.9006
B( 10-C , 11-N ) :   2.8293 B( 12-C , 13-H ) :   0.9170 B( 12-C , 14-H ) :   0.9166
B( 12-C , 15-H ) :   0.9170 B( 12-C , 16-C ) :   0.9024 B( 16-C , 17-N ) :   2.8345

MP2 TOTAL ENERGY:     -397.446977718 Eh
FINAL SINGLE POINT ENERGY      -397.446977717820

DIPOLE MOMENT
-------------
                                X             Y             Z
Electronic contribution:     -0.32198      -0.04980      -9.45759
Nuclear contribution   :      0.48502       0.07403      13.92339
                        -----------------------------------------
Total Dipole Moment    :      0.16304       0.02424       4.46580
                        -----------------------------------------
Magnitude (a.u.)       :      4.46884
Magnitude (Debye)      :     11.35888

Rotational constants in cm-1:     0.023047     0.007261     0.006163
Rotational constants in MHz :   690.920185   217.674521   184.765767

                             ****ORCA TERMINATED NORMALLY****
TOTAL RUN TIME: 0 days 0 hours 1 minutes 55 seconds 455 msec
