                         Program Version 4.2.0 -  RELEASE  -
|  1> # 12mecn.remya.etal.2.mol1,4,9
|  2> ! MP2 def2-TZVP EnGrad TightSCF
|  3>
|  4> %pal
|  5>     nprocs 6
|  6> end
|  7>
|  8> %maxcore 8000
|  9>
| 10> %scf
| 11>     ConvForced true
| 12> end
| 13>
| 14> *xyz 0 1
| 15> C  -4.697980000  -0.249690000   1.746215000
| 16> H  -4.927570000   0.755530000   2.111799000
| 17> H  -3.709180000  -0.561560000   2.093253000
| 18> H  -5.432280000  -0.961520000   2.128066000
| 19> C  -4.714100000  -0.247110000   0.301670000
| 20> N  -4.729750000  -0.234960000  -0.865260000
| 21> C  -1.509690000  -0.693960000  -1.610140000
| 22> H  -1.327010000  -1.692700000  -2.017370000
| 23> H  -0.742170000  -0.000650000  -1.964400000
| 24> H  -2.491920000  -0.334310000  -1.929350000
| 25> C  -1.473570000  -0.748120000  -0.167200000
| 26> N  -1.447490000  -0.793720000   0.998938000
| 27> C   0.923766000   4.000693000  -1.575910000
| 28> H   0.011949000   4.478423000  -1.939550000
| 29> H   0.947903000   2.966558000  -1.929960000
| 30> H   1.805950000   4.519548000  -1.956520000
| 31> C   0.942834000   3.994846000  -0.131200000
| 32> N   0.960035000   3.982544000   1.035639000
| 33> *
| 34>
| 35>                          ****END OF INPUT****

CARTESIAN COORDINATES (ANGSTROEM)
---------------------------------
  C     -4.697980   -0.249690    1.746215
  H     -4.927570    0.755530    2.111799
  H     -3.709180   -0.561560    2.093253
  H     -5.432280   -0.961520    2.128066
  C     -4.714100   -0.247110    0.301670
  N     -4.729750   -0.234960   -0.865260
  C     -1.509690   -0.693960   -1.610140
  H     -1.327010   -1.692700   -2.017370
  H     -0.742170   -0.000650   -1.964400
  H     -2.491920   -0.334310   -1.929350
  C     -1.473570   -0.748120   -0.167200
  N     -1.447490   -0.793720    0.998938
  C      0.923766    4.000693   -1.575910
  H      0.011949    4.478423   -1.939550
  H      0.947903    2.966558   -1.929960
  H      1.805950    4.519548   -1.956520
  C      0.942834    3.994846   -0.131200
  N      0.960035    3.982544    1.035639

 Total Charge           Charge          ....    0
 Multiplicity           Mult            ....    1
 Number of Electrons    NEL             ....   66
 Basis Dimension        Dim             ....  333

ORBITAL ENERGIES
----------------

  NO   OCC          E(Eh)            E(eV)
   0   2.0000     -15.573624      -423.7798
   1   2.0000     -15.571802      -423.7303
   2   2.0000     -15.571422      -423.7199
   3   2.0000     -11.286942      -307.1333
   4   2.0000     -11.284036      -307.0542
   5   2.0000     -11.282380      -307.0092
   6   2.0000     -11.280070      -306.9463
   7   2.0000     -11.274817      -306.8034
   8   2.0000     -11.271171      -306.7042
   9   2.0000      -1.218181       -33.1484
  10   2.0000      -1.214453       -33.0469
  11   2.0000      -1.213904       -33.0320
  12   2.0000      -1.046034       -28.4640
  13   2.0000      -1.038272       -28.2528
  14   2.0000      -1.034569       -28.1520
  15   2.0000      -0.702030       -19.1032
  16   2.0000      -0.695541       -18.9266
  17   2.0000      -0.691006       -18.8032
  18   2.0000      -0.635927       -17.3045
  19   2.0000      -0.632782       -17.2189
  20   2.0000      -0.631415       -17.1817
  21   2.0000      -0.626603       -17.0507
  22   2.0000      -0.623346       -16.9621
  23   2.0000      -0.614283       -16.7155
  24   2.0000      -0.559497       -15.2247
  25   2.0000      -0.555874       -15.1261
  26   2.0000      -0.555717       -15.1218
  27   2.0000      -0.460472       -12.5301
  28   2.0000      -0.458863       -12.4863
  29   2.0000      -0.458054       -12.4643
  30   2.0000      -0.457507       -12.4494
  31   2.0000      -0.456757       -12.4290
  32   2.0000      -0.455809       -12.4032
  33   0.0000       0.098913         2.6915
  34   0.0000       0.133101         3.6219
  35   0.0000       0.144144         3.9224
  36   0.0000       0.160945         4.3795
  37   0.0000       0.168307         4.5799

MULLIKEN ATOMIC CHARGES
-----------------------
   0 C :   -0.283839
   1 H :    0.168125
   2 H :    0.206711
   3 H :    0.166450
   4 C :   -0.101247
   5 N :   -0.155092
   6 C :   -0.280759
   7 H :    0.168666
   8 H :    0.153503
   9 H :    0.205590
  10 C :   -0.103185
  11 N :   -0.144907
  12 C :   -0.278791
  13 H :    0.174106
  14 H :    0.162956
  15 H :    0.174207
  16 C :   -0.144285
  17 N :   -0.088209
Sum of atomic charges:   -0.0000000

LOEWDIN ATOMIC CHARGES
----------------------
   0 C :   -0.280821
   1 H :    0.153657
   2 H :    0.157951
   3 H :    0.150669
   4 C :   -0.207010
   5 N :    0.027182
   6 C :   -0.283282
   7 H :    0.153221
   8 H :    0.146957
   9 H :    0.156973
  10 C :   -0.210168
  11 N :    0.034703
  12 C :   -0.284094
  13 H :    0.151857
  14 H :    0.150306
  15 H :    0.152205
  16 C :   -0.220077
  17 N :    0.049771

  Mayer bond orders larger than 0.100000
B(  0-C ,  1-H ) :   0.9133 B(  0-C ,  2-H ) :   0.9015 B(  0-C ,  3-H ) :   0.9165
B(  0-C ,  4-C ) :   0.9012 B(  4-C ,  5-N ) :   2.7706 B(  6-C ,  7-H ) :   0.9148
B(  6-C ,  8-H ) :   0.9195 B(  6-C ,  9-H ) :   0.9018 B(  6-C , 10-C ) :   0.8997
B( 10-C , 11-N ) :   2.7662 B( 12-C , 13-H ) :   0.9163 B( 12-C , 14-H ) :   0.9191
B( 12-C , 15-H ) :   0.9169 B( 12-C , 16-C ) :   0.9011 B( 16-C , 17-N ) :   2.8319

MP2 TOTAL ENERGY:     -397.458458516 Eh
FINAL SINGLE POINT ENERGY      -397.458458516009

DIPOLE MOMENT
-------------
                                X             Y             Z
Electronic contribution:      0.05747      -0.09217       3.18680
Nuclear contribution   :     -0.10701       0.14452      -4.62914
                        -----------------------------------------
Total Dipole Moment    :     -0.04954       0.05235      -1.44233
                        -----------------------------------------
Magnitude (a.u.)       :      1.44413
Magnitude (Debye)      :      3.67070

Rotational constants in cm-1:     0.053778     0.013899     0.013208
Rotational constants in MHz :  1612.213437   416.690342   395.968307

                             ****ORCA TERMINATED NORMALLY****
TOTAL RUN TIME: 0 days 0 hours 3 minutes 8 seconds 374 msec
