                         Program Version 4.2.0 -  RELEASE  -
|  1> # 12h2o.su.etal.mol0,1,4,5,8,9,10,11
|  2> ! MP2 def2-TZVP EnGrad TightSCF
|  3>
|  4> %pal
|  5>     nprocs 6
|  6> end
|  7>
|  8> %maxcore 8000
|  9>
| 10> %scf
| 11>     ConvForced true
| 12> end
| 13>
| 14> *xyz 0 1
| 15> O   1.794470000   0.923410000   2.768350000
| 16> H   2.338250000   1.359750000   3.430940000
| 17> H   0.879480000   1.303000000   2.865760000
| 18> O  -1.794470000  -0.923410000   2.768350000
| 19> H  -2.338250000  -1.359750000   3.430940000
| 20> H  -0.879480000  -1.303000000   2.865760000
| 21> O  -0.885520000   1.737840000   0.052730000
| 22> H  -1.032320000   2.090180000  -0.841890000
| 23> H  -1.284090000   0.839590000   0.017130000
| 24> O   0.885520000  -1.737840000   0.052730000
| 25> H   1.284090000  -0.839590000   0.017130000
| 26> H   1.032320000  -2.090180000  -0.841890000
| 27> O   1.752130000   0.741530000  -2.896280000
| 28> H   2.036450000   0.920500000  -1.984040000
| 29> H   0.921210000   1.242140000  -2.984230000
| 30> O   0.741530000  -1.752130000   2.896280000
| 31> H   0.920500000  -2.036450000   1.984040000
| 32> H   1.242140000  -0.921210000   2.984230000
| 33> O  -0.923410000   1.794470000  -2.768350000
| 34> H  -1.359750000   2.338250000  -3.430940000
| 35> H  -1.303000000   0.879480000  -2.865760000
| 36> O  -0.741530000   1.752130000   2.896280000
| 37> H  -0.920500000   2.036450000   1.984040000
| 38> H  -1.242140000   0.921210000   2.984230000
| 39> *
| 40>
| 41>                          ****END OF INPUT****

CARTESIAN COORDINATES (ANGSTROEM)
---------------------------------
  O      1.794470    0.923410    2.768350
  H      2.338250    1.359750    3.430940
  H      0.879480    1.303000    2.865760
  O     -1.794470   -0.923410    2.768350
  H     -2.338250   -1.359750    3.430940
  H     -0.879480   -1.303000    2.865760
  O     -0.885520    1.737840    0.052730
  H     -1.032320    2.090180   -0.841890
  H     -1.284090    0.839590    0.017130
  O      0.885520   -1.737840    0.052730
  H      1.284090   -0.839590    0.017130
  H      1.032320   -2.090180   -0.841890
  O      1.752130    0.741530   -2.896280
  H      2.036450    0.920500   -1.984040
  H      0.921210    1.242140   -2.984230
  O      0.741530   -1.752130    2.896280
  H      0.920500   -2.036450    1.984040
  H      1.242140   -0.921210    2.984230
  O     -0.923410    1.794470   -2.768350
  H     -1.359750    2.338250   -3.430940
  H     -1.303000    0.879480   -2.865760
  O     -0.741530    1.752130    2.896280
  H     -0.920500    2.036450    1.984040
  H     -1.242140    0.921210    2.984230

 Total Charge           Charge          ....    0
 Multiplicity           Mult            ....    1
 Number of Electrons    NEL             ....   80
 Basis Dimension        Dim             ....  344

ORBITAL ENERGIES
----------------

  NO   OCC          E(Eh)            E(eV)
   0   2.0000     -20.629582      -561.3595
   1   2.0000     -20.583054      -560.0934
   2   2.0000     -20.568696      -559.7027
   3   2.0000     -20.553677      -559.2940
   4   2.0000     -20.534982      -558.7853
   5   2.0000     -20.533114      -558.7344
   6   2.0000     -20.532512      -558.7181
   7   2.0000     -20.532386      -558.7146
   8   2.0000      -1.409735       -38.3608
   9   2.0000      -1.361764       -37.0555
  10   2.0000      -1.350799       -36.7571
  11   2.0000      -1.336239       -36.3609
  12   2.0000      -1.335874       -36.3510
  13   2.0000      -1.325851       -36.0782
  14   2.0000      -1.315395       -35.7937
  15   2.0000      -1.305186       -35.5159
  16   2.0000      -0.775420       -21.1002
  17   2.0000      -0.724594       -19.7172
  18   2.0000      -0.720730       -19.6121
  19   2.0000      -0.706804       -19.2331
  20   2.0000      -0.700772       -19.0690
  21   2.0000      -0.699369       -19.0308
  22   2.0000      -0.689924       -18.7738
  23   2.0000      -0.685190       -18.6450
  24   2.0000      -0.647103       -17.6086
  25   2.0000      -0.613229       -16.6868
  26   2.0000      -0.606250       -16.4969
  27   2.0000      -0.590411       -16.0659
  28   2.0000      -0.576771       -15.6947
  29   2.0000      -0.567535       -15.4434
  30   2.0000      -0.559687       -15.2298
  31   2.0000      -0.551901       -15.0180
  32   2.0000      -0.533674       -14.5220
  33   2.0000      -0.525822       -14.3084
  34   2.0000      -0.514428       -13.9983
  35   2.0000      -0.500581       -13.6215
  36   2.0000      -0.483542       -13.1578
  37   2.0000      -0.482278       -13.1234
  38   2.0000      -0.479515       -13.0483
  39   2.0000      -0.478228       -13.0133
  40   0.0000       0.076467         2.0808
  41   0.0000       0.115421         3.1408
  42   0.0000       0.149741         4.0747
  43   0.0000       0.151429         4.1206
  44   0.0000       0.168602         4.5879

MULLIKEN ATOMIC CHARGES
-----------------------
   0 O :   -0.749676
   1 H :    0.336743
   2 H :    0.384269
   3 O :   -0.748268
   4 H :    0.335979
   5 H :    0.383770
   6 O :   -0.718073
   7 H :    0.371217
   8 H :    0.346490
   9 O :   -0.704518
  10 H :    0.354736
  11 H :    0.352500
  12 O :   -0.701883
  13 H :    0.333170
  14 H :    0.357848
  15 O :   -0.725939
  16 H :    0.381048
  17 H :    0.366285
  18 O :   -0.715350
  19 H :    0.369892
  20 H :    0.369935
  21 O :   -0.727535
  22 H :    0.381972
  23 H :    0.365388
Sum of atomic charges:   -0.0000000

LOEWDIN ATOMIC CHARGES
----------------------
   0 O :   -0.345708
   1 H :    0.153459
   2 H :    0.145802
   3 O :   -0.345215
   4 H :    0.153121
   5 H :    0.145781
   6 O :   -0.324717
   7 H :    0.151046
   8 H :    0.171712
   9 O :   -0.318225
  10 H :    0.175185
  11 H :    0.170938
  12 O :   -0.342947
  13 H :    0.159889
  14 H :    0.146602
  15 O :   -0.289998
  16 H :    0.155845
  17 H :    0.149176
  18 O :   -0.286794
  19 H :    0.170617
  20 H :    0.191829
  21 O :   -0.291381
  22 H :    0.155238
  23 H :    0.148745

  Mayer bond orders larger than 0.100000
B(  0-O ,  1-H ) :   0.8508 B(  0-O ,  2-H ) :   0.7387 B(  2-H , 21-O ) :   0.1191
B(  3-O ,  4-H ) :   0.8512 B(  3-O ,  5-H ) :   0.7396 B(  5-H , 15-O ) :   0.1183
B(  6-O ,  7-H ) :   0.8136 B(  6-O ,  8-H ) :   0.8360 B(  9-O , 10-H ) :   0.8291
B(  9-O , 11-H ) :   0.8398 B( 12-O , 13-H ) :   0.8538 B( 12-O , 14-H ) :   0.8236
B( 15-O , 16-H ) :   0.8099 B( 15-O , 17-H ) :   0.7919 B( 18-O , 19-H ) :   0.8287
B( 18-O , 20-H ) :   0.8213 B( 21-O , 22-H ) :   0.8069 B( 21-O , 23-H ) :   0.7928

MP2 TOTAL ENERGY:     -610.583830294 Eh
FINAL SINGLE POINT ENERGY      -610.583830294218

DIPOLE MOMENT
-------------
                                X             Y             Z
Electronic contribution:      0.01866       0.07760      -0.28722
Nuclear contribution   :     -1.13412       0.25668      -1.60207
                        -----------------------------------------
Total Dipole Moment    :     -1.11546       0.33427      -1.88929
                        -----------------------------------------
Magnitude (a.u.)       :      2.21932
Magnitude (Debye)      :      5.64107

Rotational constants in cm-1:     0.034235     0.016363     0.014524
Rotational constants in MHz :  1026.341992   490.536061   435.419243

                             ****ORCA TERMINATED NORMALLY****
TOTAL RUN TIME: 0 days 0 hours 2 minutes 55 seconds 962 msec
