                         Program Version 4.2.0 -  RELEASE  -
|  1> # 12h2o.su.etal.mol1,9,10,11
|  2> ! MP2 def2-TZVP EnGrad TightSCF
|  3>
|  4> %pal
|  5>     nprocs 6
|  6> end
|  7>
|  8> %maxcore 8000
|  9>
| 10> %scf
| 11>     ConvForced true
| 12> end
| 13>
| 14> *xyz 0 1
| 15> O  -1.794470000  -0.923410000   2.768350000
| 16> H  -2.338250000  -1.359750000   3.430940000
| 17> H  -0.879480000  -1.303000000   2.865760000
| 18> O   0.741530000  -1.752130000   2.896280000
| 19> H   0.920500000  -2.036450000   1.984040000
| 20> H   1.242140000  -0.921210000   2.984230000
| 21> O  -0.923410000   1.794470000  -2.768350000
| 22> H  -1.359750000   2.338250000  -3.430940000
| 23> H  -1.303000000   0.879480000  -2.865760000
| 24> O  -0.741530000   1.752130000   2.896280000
| 25> H  -0.920500000   2.036450000   1.984040000
| 26> H  -1.242140000   0.921210000   2.984230000
| 27> *
| 28>
| 29>                          ****END OF INPUT****

CARTESIAN COORDINATES (ANGSTROEM)
---------------------------------
  O     -1.794470   -0.923410    2.768350
  H     -2.338250   -1.359750    3.430940
  H     -0.879480   -1.303000    2.865760
  O      0.741530   -1.752130    2.896280
  H      0.920500   -2.036450    1.984040
  H      1.242140   -0.921210    2.984230
  O     -0.923410    1.794470   -2.768350
  H     -1.359750    2.338250   -3.430940
  H     -1.303000    0.879480   -2.865760
  O     -0.741530    1.752130    2.896280
  H     -0.920500    2.036450    1.984040
  H     -1.242140    0.921210    2.984230

 Total Charge           Charge          ....    0
 Multiplicity           Mult            ....    1
 Number of Electrons    NEL             ....   40
 Basis Dimension        Dim             ....  172

ORBITAL ENERGIES
----------------

  NO   OCC          E(Eh)            E(eV)
   0   2.0000     -20.600695      -560.5734
   1   2.0000     -20.565777      -559.6232
   2   2.0000     -20.544607      -559.0472
   3   2.0000     -20.524118      -558.4897
   4   2.0000      -1.386418       -37.7263
   5   2.0000      -1.341096       -36.4931
   6   2.0000      -1.329360       -36.1737
   7   2.0000      -1.305776       -35.5320
   8   2.0000      -0.743099       -20.2207
   9   2.0000      -0.714416       -19.4402
  10   2.0000      -0.709545       -19.3077
  11   2.0000      -0.675094       -18.3702
  12   2.0000      -0.625091       -17.0096
  13   2.0000      -0.580049       -15.7839
  14   2.0000      -0.577134       -15.7046
  15   2.0000      -0.547962       -14.9108
  16   2.0000      -0.527077       -14.3425
  17   2.0000      -0.508954       -13.8493
  18   2.0000      -0.492556       -13.4031
  19   2.0000      -0.472062       -12.8455
  20   0.0000       0.109147         2.9701
  21   0.0000       0.122556         3.3349
  22   0.0000       0.160630         4.3710
  23   0.0000       0.177824         4.8388
  24   0.0000       0.191657         5.2152

MULLIKEN ATOMIC CHARGES
-----------------------
   0 O :   -0.735836
   1 H :    0.339136
   2 H :    0.376690
   3 O :   -0.685437
   4 H :    0.359588
   5 H :    0.370747
   6 O :   -0.682924
   7 H :    0.340378
   8 H :    0.342698
   9 O :   -0.718115
  10 H :    0.332977
  11 H :    0.360100
Sum of atomic charges:    0.0000000

LOEWDIN ATOMIC CHARGES
----------------------
   0 O :   -0.339192
   1 H :    0.154708
   2 H :    0.144691
   3 O :   -0.270189
   4 H :    0.175550
   5 H :    0.180377
   6 O :   -0.339305
   7 H :    0.158534
   8 H :    0.180854
   9 O :   -0.353703
  10 H :    0.161406
  11 H :    0.146269

  Mayer bond orders larger than 0.100000
B(  0-O ,  1-H ) :   0.8496 B(  0-O ,  2-H ) :   0.7676 B(  3-O ,  4-H ) :   0.8365
B(  3-O ,  5-H ) :   0.8254 B(  6-O ,  7-H ) :   0.8524 B(  6-O ,  8-H ) :   0.8458
B(  9-O , 10-H ) :   0.8557 B(  9-O , 11-H ) :   0.8076

MP2 TOTAL ENERGY:     -305.271888535 Eh
FINAL SINGLE POINT ENERGY      -305.271888535009

DIPOLE MOMENT
-------------
                                X             Y             Z
Electronic contribution:      0.29448      -0.11162       0.21224
Nuclear contribution   :     -0.37017      -0.98813      -1.37221
                        -----------------------------------------
Total Dipole Moment    :     -0.07569      -1.09974      -1.15997
                        -----------------------------------------
Magnitude (a.u.)       :      1.60022
Magnitude (Debye)      :      4.06744

Rotational constants in cm-1:     0.103876     0.029775     0.026910
Rotational constants in MHz :  3114.125404   892.645975   806.737440

                             ****ORCA TERMINATED NORMALLY****
TOTAL RUN TIME: 0 days 0 hours 0 minutes 14 seconds 986 msec
