                         Program Version 4.2.0 -  RELEASE  -
|  1> # 12h2o.su.etal.mol1,3,6,7,8,10
|  2> ! MP2 def2-TZVP EnGrad TightSCF
|  3>
|  4> %pal
|  5>     nprocs 6
|  6> end
|  7>
|  8> %maxcore 8000
|  9>
| 10> %scf
| 11>     ConvForced true
| 12> end
| 13>
| 14> *xyz 0 1
| 15> O  -1.794470000  -0.923410000   2.768350000
| 16> H  -2.338250000  -1.359750000   3.430940000
| 17> H  -0.879480000  -1.303000000   2.865760000
| 18> O  -1.752130000  -0.741530000  -2.896280000
| 19> H  -2.036450000  -0.920500000  -1.984040000
| 20> H  -0.921210000  -1.242140000  -2.984230000
| 21> O   1.737840000   0.885520000  -0.052730000
| 22> H   2.090180000   1.032320000   0.841890000
| 23> H   0.839590000   1.284090000  -0.017130000
| 24> O  -1.737840000  -0.885520000  -0.052730000
| 25> H  -2.090180000  -1.032320000   0.841890000
| 26> H  -0.839590000  -1.284090000  -0.017130000
| 27> O   1.752130000   0.741530000  -2.896280000
| 28> H   2.036450000   0.920500000  -1.984040000
| 29> H   0.921210000   1.242140000  -2.984230000
| 30> O  -0.923410000   1.794470000  -2.768350000
| 31> H  -1.359750000   2.338250000  -3.430940000
| 32> H  -1.303000000   0.879480000  -2.865760000
| 33> *
| 34>
| 35>                          ****END OF INPUT****

CARTESIAN COORDINATES (ANGSTROEM)
---------------------------------
  O     -1.794470   -0.923410    2.768350
  H     -2.338250   -1.359750    3.430940
  H     -0.879480   -1.303000    2.865760
  O     -1.752130   -0.741530   -2.896280
  H     -2.036450   -0.920500   -1.984040
  H     -0.921210   -1.242140   -2.984230
  O      1.737840    0.885520   -0.052730
  H      2.090180    1.032320    0.841890
  H      0.839590    1.284090   -0.017130
  O     -1.737840   -0.885520   -0.052730
  H     -2.090180   -1.032320    0.841890
  H     -0.839590   -1.284090   -0.017130
  O      1.752130    0.741530   -2.896280
  H      2.036450    0.920500   -1.984040
  H      0.921210    1.242140   -2.984230
  O     -0.923410    1.794470   -2.768350
  H     -1.359750    2.338250   -3.430940
  H     -1.303000    0.879480   -2.865760

 Total Charge           Charge          ....    0
 Multiplicity           Mult            ....    1
 Number of Electrons    NEL             ....   60
 Basis Dimension        Dim             ....  258

ORBITAL ENERGIES
----------------

  NO   OCC          E(Eh)            E(eV)
   0   2.0000     -20.608834      -560.7949
   1   2.0000     -20.578155      -559.9601
   2   2.0000     -20.570327      -559.7471
   3   2.0000     -20.560281      -559.4737
   4   2.0000     -20.525853      -558.5368
   5   2.0000     -20.492129      -557.6192
   6   2.0000      -1.386875       -37.7388
   7   2.0000      -1.356535       -36.9132
   8   2.0000      -1.355376       -36.8816
   9   2.0000      -1.345084       -36.6016
  10   2.0000      -1.309427       -35.6313
  11   2.0000      -1.276964       -34.7480
  12   2.0000      -0.753771       -20.5112
  13   2.0000      -0.723610       -19.6904
  14   2.0000      -0.717942       -19.5362
  15   2.0000      -0.705571       -19.1996
  16   2.0000      -0.693206       -18.8631
  17   2.0000      -0.655098       -17.8261
  18   2.0000      -0.628034       -17.0897
  19   2.0000      -0.606256       -16.4971
  20   2.0000      -0.596048       -16.2193
  21   2.0000      -0.581260       -15.8169
  22   2.0000      -0.554730       -15.0950
  23   2.0000      -0.544653       -14.8208
  24   2.0000      -0.527613       -14.3571
  25   2.0000      -0.516937       -14.0666
  26   2.0000      -0.511328       -13.9139
  27   2.0000      -0.495842       -13.4926
  28   2.0000      -0.472614       -12.8605
  29   2.0000      -0.442373       -12.0376
  30   0.0000       0.081373         2.2143
  31   0.0000       0.122043         3.3210
  32   0.0000       0.144648         3.9361
  33   0.0000       0.161546         4.3959
  34   0.0000       0.177690         4.8352

MULLIKEN ATOMIC CHARGES
-----------------------
   0 O :   -0.694086
   1 H :    0.357054
   2 H :    0.352269
   3 O :   -0.703970
   4 H :    0.386875
   5 H :    0.351770
   6 O :   -0.700611
   7 H :    0.339721
   8 H :    0.362959
   9 O :   -0.713370
  10 H :    0.378799
  11 H :    0.333657
  12 O :   -0.736667
  13 H :    0.360301
  14 H :    0.348129
  15 O :   -0.740876
  16 H :    0.333756
  17 H :    0.384291
Sum of atomic charges:   -0.0000000

LOEWDIN ATOMIC CHARGES
----------------------
   0 O :   -0.309657
   1 H :    0.165870
   2 H :    0.184733
   3 O :   -0.278211
   4 H :    0.158737
   5 H :    0.171165
   6 O :   -0.320235
   7 H :    0.165744
   8 H :    0.179824
   9 O :   -0.324694
  10 H :    0.155237
  11 H :    0.167046
  12 O :   -0.360390
  13 H :    0.147342
  14 H :    0.141376
  15 O :   -0.342294
  16 H :    0.152230
  17 H :    0.146177

  Mayer bond orders larger than 0.100000
B(  0-O ,  1-H ) :   0.8391 B(  0-O ,  2-H ) :   0.8359 B(  3-O ,  4-H ) :   0.7982
B(  3-O ,  5-H ) :   0.8370 B(  6-O ,  7-H ) :   0.8472 B(  6-O ,  8-H ) :   0.8264
B(  9-O , 10-H ) :   0.8048 B(  9-O , 11-H ) :   0.8448 B( 12-O , 13-H ) :   0.8319
B( 12-O , 14-H ) :   0.8156 B( 15-O , 16-H ) :   0.8525 B( 15-O , 17-H ) :   0.7562

MP2 TOTAL ENERGY:     -457.921227016 Eh
FINAL SINGLE POINT ENERGY      -457.921227015573

DIPOLE MOMENT
-------------
                                X             Y             Z
Electronic contribution:     -0.29940      -0.07743       0.08357
Nuclear contribution   :     -0.37017      -0.98813       2.92077
                        -----------------------------------------
Total Dipole Moment    :     -0.66956      -1.06556       3.00434
                        -----------------------------------------
Magnitude (a.u.)       :      3.25727
Magnitude (Debye)      :      8.27932

Rotational constants in cm-1:     0.054929     0.027033     0.020451
Rotational constants in MHz :  1646.727286   810.428025   613.106199

                             ****ORCA TERMINATED NORMALLY****
TOTAL RUN TIME: 0 days 0 hours 1 minutes 36 seconds 311 msec
