                         Program Version 3.0.3 - RELEASE   -
|  1> ! B3LYP Def2-TZVP def2-TZVP/J RIJCOSX TightSCF Grid4 D3BJ COSMO
|  2>
|  3> %pal nprocs 12 end
|  4>
|  5> %scf
|  6>         maxiter 400
|  7> end
|  8>
|  9> %cosmo
| 10>         SMD true
| 11>         solvent "WATER"
| 12> end
| 13>
| 14> * xyz  0  1
| 15> O  1.215488	0.211080	0.927561
| 16> H  0.407983	0.176872	0.367895
| 17> H  1.906941	0.413446	0.279585
| 18> O  -0.992985	0.007122	-0.711643
| 19> H  -0.933447	-0.934080	-0.939707
| 20> H  -1.766187	0.044807	-0.125906
| 21> **                         ****END OF INPUT****

CARTESIAN COORDINATES (ANGSTROEM)
---------------------------------
  O      1.215488    0.211080    0.927561
  H      0.407983    0.176872    0.367895
  H      1.906941    0.413446    0.279585
  O     -0.992985    0.007122   -0.711643
  H     -0.933447   -0.934080   -0.939707
  H     -1.766187    0.044807   -0.125906

 Total Charge           Charge          ....    0
 Multiplicity           Mult            ....    1
 Number of Electrons    NEL             ....   20
 Basis Dimension        Dim             ....   86

ORBITAL ENERGIES
----------------

  NO   OCC          E(Eh)            E(eV)
   0   2.0000     -19.138398      -520.7823
   1   2.0000     -19.109116      -519.9855
   2   2.0000      -1.021724       -27.8025
   3   2.0000      -0.991120       -26.9698
   4   2.0000      -0.530625       -14.4390
   5   2.0000      -0.510436       -13.8897
   6   2.0000      -0.416724       -11.3396
   7   2.0000      -0.386016       -10.5040
   8   2.0000      -0.327818        -8.9204
   9   2.0000      -0.308896        -8.4055
  10   0.0000       0.028310         0.7704
  11   0.0000       0.076618         2.0849
  12   0.0000       0.116858         3.1799
  13   0.0000       0.196762         5.3542
  14   0.0000       0.324878         8.8404

MULLIKEN ATOMIC CHARGES
-----------------------
   0 O :   -0.779080
   1 H :    0.360315
   2 H :    0.367573
   3 O :   -0.723811
   4 H :    0.386526
   5 H :    0.388478
Sum of atomic charges:   -0.0000000

LOEWDIN ATOMIC CHARGES
----------------------
   0 O :   -0.395292
   1 H :    0.139203
   2 H :    0.174724
   3 O :   -0.297481
   4 H :    0.188644
   5 H :    0.190203

  Mayer bond orders larger than 0.1
B(  0-O ,  1-H ) :   0.8151 B(  0-O ,  2-H ) :   0.8747 B(  1-H ,  3-O ) :   0.1168
B(  3-O ,  4-H ) :   0.8567 B(  3-O ,  5-H ) :   0.8561

Dispersion correction           -0.002326015
FINAL SINGLE POINT ENERGY      -152.884753112488

DIPOLE MOMENT
-------------
                                X             Y             Z
Electronic contribution:     -0.21579      -0.02719      -0.14381
Nuclear contribution   :     -0.69062      -0.61208      -0.70748
                        -----------------------------------------
Total Dipole Moment    :     -0.90642      -0.63928      -0.85129
                        -----------------------------------------
Magnitude (a.u.)       :      1.39820
Magnitude (Debye)      :      3.55394

                             ****ORCA TERMINATED NORMALLY****
TOTAL RUN TIME: 0 days 0 hours 0 minutes 50 seconds 340 msec
