                         Program Version 3.0.3 - RELEASE   -
|  1> ! wB97X-D3 Def2-TZVP def2-TZVP/J RIJCOSX TightSCF Grid4 COSMO
|  2>
|  3> %pal nprocs 12 end
|  4>
|  5> %scf
|  6>         maxiter 400
|  7> end
|  8>
|  9> %cosmo
| 10>         SMD true
| 11>         solvent "WATER"
| 12> end
| 13>
| 14> * xyz  0  1
| 15> O  1.230560	0.139087	0.923607
| 16> H  0.433419	0.088081	0.328633
| 17> H  1.889345	0.559995	0.338189
| 18> O  -0.973621	-0.016455	-0.746857
| 19> H  -1.022725	-0.979004	-0.916424
| 20> H  -1.719183	0.127544	-0.129362
| 21> **                         ****END OF INPUT****

CARTESIAN COORDINATES (ANGSTROEM)
---------------------------------
  O      1.230560    0.139087    0.923607
  H      0.433419    0.088081    0.328633
  H      1.889345    0.559995    0.338189
  O     -0.973621   -0.016455   -0.746857
  H     -1.022725   -0.979004   -0.916424
  H     -1.719183    0.127544   -0.129362

 Total Charge           Charge          ....    0
 Multiplicity           Mult            ....    1
 Number of Electrons    NEL             ....   20
 Basis Dimension        Dim             ....   86

ORBITAL ENERGIES
----------------

  NO   OCC          E(Eh)            E(eV)
   0   2.0000     -19.247025      -523.7382
   1   2.0000     -19.218352      -522.9580
   2   2.0000      -1.134121       -30.8610
   3   2.0000      -1.102801       -30.0087
   4   2.0000      -0.627375       -17.0717
   5   2.0000      -0.608733       -16.5645
   6   2.0000      -0.519175       -14.1275
   7   2.0000      -0.487802       -13.2738
   8   2.0000      -0.426088       -11.5944
   9   2.0000      -0.409800       -11.1512
  10   0.0000       0.117364         3.1936
  11   0.0000       0.165824         4.5123
  12   0.0000       0.204731         5.5710
  13   0.0000       0.287548         7.8246
  14   0.0000       0.420208        11.4344

MULLIKEN ATOMIC CHARGES
-----------------------
   0 O :   -0.797508
   1 H :    0.362275
   2 H :    0.384109
   3 O :   -0.755108
   4 H :    0.402807
   5 H :    0.403424
Sum of atomic charges:   -0.0000000

LOEWDIN ATOMIC CHARGES
----------------------
   0 O :   -0.408947
   1 H :    0.147213
   2 H :    0.180738
   3 O :   -0.310797
   4 H :    0.195628
   5 H :    0.196164

  Mayer bond orders larger than 0.1
B(  0-O ,  1-H ) :   0.8141 B(  0-O ,  2-H ) :   0.8638 B(  1-H ,  3-O ) :   0.1111
B(  3-O ,  4-H ) :   0.8457 B(  3-O ,  5-H ) :   0.8456

Dispersion correction           -0.000540405
FINAL SINGLE POINT ENERGY      -152.908471621105

DIPOLE MOMENT
-------------
                                X             Y             Z
Electronic contribution:     -0.21393      -0.02434      -0.14815
Nuclear contribution   :     -0.77661      -0.37344      -0.60967
                        -----------------------------------------
Total Dipole Moment    :     -0.99054      -0.39778      -0.75782
                        -----------------------------------------
Magnitude (a.u.)       :      1.30908
Magnitude (Debye)      :      3.32741

                             ****ORCA TERMINATED NORMALLY****
TOTAL RUN TIME: 0 days 0 hours 0 minutes 50 seconds 587 msec
