                         Program Version 3.0.3 - RELEASE   -
|  1> ! wB97X-D3 MA-Def2-TZVP def2-TZVP/J RIJCOSX TightSCF Grid4
|  2>
|  3> %pal nprocs 1 end
|  4>
|  5> %scf
|  6>         maxiter 400
|  7> end
|  8>
|  9> * xyz  0  1
| 10> O  1.262170	0.248030	0.965932
| 11> H  0.501233	0.123737	0.369476
| 12> H  1.965632	0.510107	0.357762
| 13> O  -1.008031	-0.071195	-0.738221
| 14> H  -1.146448	-0.981140	-1.035673
| 15> H  -1.736762	0.089708	-0.121490
| 16> **                         ****END OF INPUT****

CARTESIAN COORDINATES (ANGSTROEM)
---------------------------------
  O      1.262170    0.248030    0.965932
  H      0.501233    0.123737    0.369476
  H      1.965632    0.510107    0.357762
  O     -1.008031   -0.071195   -0.738221
  H     -1.146448   -0.981140   -1.035673
  H     -1.736762    0.089708   -0.121490

 Total Charge           Charge          ....    0
 Multiplicity           Mult            ....    1
 Number of Electrons    NEL             ....   20
 Basis Dimension        Dim             ....   94

ORBITAL ENERGIES
----------------

  NO   OCC          E(Eh)            E(eV)
   0   2.0000     -19.269755      -524.3567
   1   2.0000     -19.206332      -522.6309
   2   2.0000      -1.160699       -31.5842
   3   2.0000      -1.097282       -29.8586
   4   2.0000      -0.662623       -18.0309
   5   2.0000      -0.605484       -16.4760
   6   2.0000      -0.529597       -14.4111
   7   2.0000      -0.473175       -12.8758
   8   2.0000      -0.441467       -12.0129
   9   2.0000      -0.389635       -10.6025
  10   0.0000       0.059490         1.6188
  11   0.0000       0.111963         3.0467
  12   0.0000       0.126358         3.4384
  13   0.0000       0.143019         3.8918
  14   0.0000       0.167841         4.5672

MULLIKEN ATOMIC CHARGES
-----------------------
   0 O :   -0.683474
   1 H :    0.354066
   2 H :    0.320694
   3 O :   -0.698329
   4 H :    0.353047
   5 H :    0.353996
Sum of atomic charges:   -0.0000000

LOEWDIN ATOMIC CHARGES
----------------------
   0 O :   -0.396908
   1 H :    0.176930
   2 H :    0.180263
   3 O :   -0.348025
   4 H :    0.192632
   5 H :    0.195108

  Mayer bond orders larger than 0.1
B(  0-O ,  1-H ) :   0.8720 B(  0-O ,  2-H ) :   0.9045 B(  3-O ,  4-H ) :   0.8891
B(  3-O ,  5-H ) :   0.8884

Dispersion correction           -0.000535708
FINAL SINGLE POINT ENERGY      -152.889126233707

DIPOLE MOMENT
-------------
                                X             Y             Z
Electronic contribution:     -0.06954       0.05532      -0.00912
Nuclear contribution   :     -0.76962      -0.50879      -0.73693
                        -----------------------------------------
Total Dipole Moment    :     -0.83916      -0.45347      -0.74605
                        -----------------------------------------
Magnitude (a.u.)       :      1.21096
Magnitude (Debye)      :      3.07801

                             ****ORCA TERMINATED NORMALLY****
TOTAL RUN TIME: 0 days 0 hours 0 minutes 20 seconds 446 msec
