                         Program Version 3.0.3 - RELEASE   -
|  1> ! B3LYP Def2-TZVP def2-TZVP/J RIJCOSX TightSCF Grid4 D3BJ
|  2>
|  3> %pal nprocs 12 end
|  4>
|  5> %scf
|  6>         maxiter 400
|  7> end
|  8>
|  9> * xyz  0  1
| 10> O  1.262170	0.248030	0.965932
| 11> H  0.501233	0.123737	0.369476
| 12> H  1.965632	0.510107	0.357762
| 13> O  -1.008031	-0.071195	-0.738221
| 14> H  -1.146448	-0.981140	-1.035673
| 15> H  -1.736762	0.089708	-0.121490
| 16> **                         ****END OF INPUT****

CARTESIAN COORDINATES (ANGSTROEM)
---------------------------------
  O      1.262170    0.248030    0.965932
  H      0.501233    0.123737    0.369476
  H      1.965632    0.510107    0.357762
  O     -1.008031   -0.071195   -0.738221
  H     -1.146448   -0.981140   -1.035673
  H     -1.736762    0.089708   -0.121490

 Total Charge           Charge          ....    0
 Multiplicity           Mult            ....    1
 Number of Electrons    NEL             ....   20
 Basis Dimension        Dim             ....   86

ORBITAL ENERGIES
----------------

  NO   OCC          E(Eh)            E(eV)
   0   2.0000     -19.159062      -521.3446
   1   2.0000     -19.090662      -519.4833
   2   2.0000      -1.043273       -28.3889
   3   2.0000      -0.976370       -26.5684
   4   2.0000      -0.559386       -15.2217
   5   2.0000      -0.498084       -13.5536
   6   2.0000      -0.425640       -11.5822
   7   2.0000      -0.366840        -9.9822
   8   2.0000      -0.338548        -9.2124
   9   2.0000      -0.283158        -7.7051
  10   0.0000      -0.003958        -0.1077
  11   0.0000       0.061779         1.6811
  12   0.0000       0.074961         2.0398
  13   0.0000       0.190435         5.1820
  14   0.0000       0.316202         8.6043

MULLIKEN ATOMIC CHARGES
-----------------------
   0 O :   -0.663523
   1 H :    0.327553
   2 H :    0.303941
   3 O :   -0.637124
   4 H :    0.332247
   5 H :    0.336907
Sum of atomic charges:    0.0000000

LOEWDIN ATOMIC CHARGES
----------------------
   0 O :   -0.341048
   1 H :    0.135913
   2 H :    0.150324
   3 O :   -0.277374
   4 H :    0.164843
   5 H :    0.167343

  Mayer bond orders larger than 0.1
B(  0-O ,  1-H ) :   0.8683 B(  0-O ,  2-H ) :   0.9181 B(  3-O ,  4-H ) :   0.8959
B(  3-O ,  5-H ) :   0.8938

Dispersion correction           -0.002220609
FINAL SINGLE POINT ENERGY      -152.862411958671

DIPOLE MOMENT
-------------
                                X             Y             Z
Electronic contribution:     -0.08256       0.05129      -0.00137
Nuclear contribution   :     -0.76962      -0.50879      -0.73693
                        -----------------------------------------
Total Dipole Moment    :     -0.85218      -0.45750      -0.73830
                        -----------------------------------------
Magnitude (a.u.)       :      1.21680
Magnitude (Debye)      :      3.09286

                             ****ORCA TERMINATED NORMALLY****
TOTAL RUN TIME: 0 days 0 hours 0 minutes 48 seconds 430 msec
