                         Program Version 4.2.0 -  RELEASE  -
|  1> # 12meoh.boyd.etal.mol0,3,9
|  2> ! MP2 def2-TZVP EnGrad TightSCF
|  3>
|  4> %pal
|  5>     nprocs 6
|  6> end
|  7>
|  8> %maxcore 8000
|  9>
| 10> %scf
| 11>     ConvForced true
| 12> end
| 13>
| 14> *xyz 0 1
| 15> O  -1.776108874  -2.741384797  -1.019308298
| 16> H  -2.520094035  -2.452295987  -0.420778302
| 17> C  -2.174025166  -3.952700964  -1.647004581
| 18> H  -1.359803895  -4.272673416  -2.304149236
| 19> H  -3.075973971  -3.808692420  -2.256751112
| 20> H  -2.370225393  -4.752784761  -0.918966137
| 21> O  -3.821405976  -2.118091637   0.596795346
| 22> H  -4.342989117  -1.344303030   0.251966383
| 23> C  -3.443883586  -1.809641231   1.934889393
| 24> H  -2.831494349  -2.637429600   2.305201764
| 25> H  -4.325601146  -1.719364371   2.585074667
| 26> H  -2.858527126  -0.882644791   1.996110694
| 27> O   1.390610024   3.194080770  -1.536658882
| 28> H   2.162932299   2.881562730  -0.993525056
| 29> C   1.202977189   4.580367182  -1.302880219
| 30> H   0.374773115   4.915764831  -1.934164643
| 31> H   2.098649340   5.157710875  -1.570472348
| 32> H   0.950320401   4.800436015  -0.254328827
| 33> *
| 34>
| 35>                          ****END OF INPUT****

CARTESIAN COORDINATES (ANGSTROEM)
---------------------------------
  O     -1.776109   -2.741385   -1.019308
  H     -2.520094   -2.452296   -0.420778
  C     -2.174025   -3.952701   -1.647005
  H     -1.359804   -4.272673   -2.304149
  H     -3.075974   -3.808692   -2.256751
  H     -2.370225   -4.752785   -0.918966
  O     -3.821406   -2.118092    0.596795
  H     -4.342989   -1.344303    0.251966
  C     -3.443884   -1.809641    1.934889
  H     -2.831494   -2.637430    2.305202
  H     -4.325601   -1.719364    2.585075
  H     -2.858527   -0.882645    1.996111
  O      1.390610    3.194081   -1.536659
  H      2.162932    2.881563   -0.993525
  C      1.202977    4.580367   -1.302880
  H      0.374773    4.915765   -1.934165
  H      2.098649    5.157711   -1.570472
  H      0.950320    4.800436   -0.254329

 Total Charge           Charge          ....    0
 Multiplicity           Mult            ....    1
 Number of Electrons    NEL             ....   54
 Basis Dimension        Dim             ....  258

ORBITAL ENERGIES
----------------

  NO   OCC          E(Eh)            E(eV)
   0   2.0000     -20.589991      -560.2822
   1   2.0000     -20.554682      -559.3213
   2   2.0000     -20.509466      -558.0909
   3   2.0000     -11.289291      -307.1972
   4   2.0000     -11.269752      -306.6655
   5   2.0000     -11.244223      -305.9709
   6   2.0000      -1.383248       -37.6401
   7   2.0000      -1.345421       -36.6108
   8   2.0000      -1.306475       -35.5510
   9   2.0000      -0.940790       -25.6002
  10   2.0000      -0.917515       -24.9669
  11   2.0000      -0.890425       -24.2297
  12   2.0000      -0.715208       -19.4618
  13   2.0000      -0.680318       -18.5124
  14   2.0000      -0.670948       -18.2574
  15   2.0000      -0.633546       -17.2397
  16   2.0000      -0.614969       -16.7342
  17   2.0000      -0.607385       -16.5278
  18   2.0000      -0.589888       -16.0517
  19   2.0000      -0.586015       -15.9463
  20   2.0000      -0.557108       -15.1597
  21   2.0000      -0.527666       -14.3585
  22   2.0000      -0.496909       -13.5216
  23   2.0000      -0.486981       -13.2514
  24   2.0000      -0.452433       -12.3113
  25   2.0000      -0.446107       -12.1392
  26   2.0000      -0.411963       -11.2101
  27   0.0000       0.119971         3.2646
  28   0.0000       0.137500         3.7416
  29   0.0000       0.163138         4.4392
  30   0.0000       0.176405         4.8002
  31   0.0000       0.177372         4.8265

MULLIKEN ATOMIC CHARGES
-----------------------
   0 O :   -0.535160
   1 H :    0.340029
   2 C :   -0.154986
   3 H :    0.119067
   4 H :    0.094202
   5 H :    0.094672
   6 O :   -0.512610
   7 H :    0.342413
   8 C :   -0.188705
   9 H :    0.144716
  10 H :    0.124758
  11 H :    0.131604
  12 O :   -0.493981
  13 H :    0.322400
  14 C :   -0.171235
  15 H :    0.128448
  16 H :    0.108349
  17 H :    0.106019
Sum of atomic charges:   -0.0000000

LOEWDIN ATOMIC CHARGES
----------------------
   0 O :   -0.126646
   1 H :    0.157461
   2 C :   -0.396308
   3 H :    0.104897
   4 H :    0.090735
   5 H :    0.091092
   6 O :   -0.072965
   7 H :    0.200271
   8 C :   -0.372550
   9 H :    0.116811
  10 H :    0.103720
  11 H :    0.103484
  12 O :   -0.104105
  13 H :    0.191064
  14 C :   -0.386548
  15 H :    0.110221
  16 H :    0.094978
  17 H :    0.094390

  Mayer bond orders larger than 0.100000
B(  0-O ,  1-H ) :   0.7894 B(  0-O ,  2-C ) :   0.9421 B(  1-H ,  6-O ) :   0.1006
B(  2-C ,  3-H ) :   0.9410 B(  2-C ,  4-H ) :   0.9436 B(  2-C ,  5-H ) :   0.9359
B(  6-O ,  7-H ) :   0.8275 B(  6-O ,  8-C ) :   0.8688 B(  8-C ,  9-H ) :   0.9386
B(  8-C , 10-H ) :   0.9338 B(  8-C , 11-H ) :   0.9391 B( 12-O , 13-H ) :   0.8412
B( 12-O , 14-C ) :   0.9303 B( 14-C , 15-H ) :   0.9376 B( 14-C , 16-H ) :   0.9400
B( 14-C , 17-H ) :   0.9373

MP2 TOTAL ENERGY:     -346.528779773 Eh
FINAL SINGLE POINT ENERGY      -346.528779772754

DIPOLE MOMENT
-------------
                                X             Y             Z
Electronic contribution:      0.15438      -0.57125      -1.01007
Nuclear contribution   :     -0.74752       1.40484       2.20906
                        -----------------------------------------
Total Dipole Moment    :     -0.59313       0.83359       1.19899
                        -----------------------------------------
Magnitude (a.u.)       :      1.57616
Magnitude (Debye)      :      4.00627

Rotational constants in cm-1:     0.075172     0.012451     0.010932
Rotational constants in MHz :  2253.594261   373.262963   327.740551

                             ****ORCA TERMINATED NORMALLY****
TOTAL RUN TIME: 0 days 0 hours 1 minutes 3 seconds 865 msec
