                         Program Version 4.2.0 -  RELEASE  -
|  1> # 12h2o.su.etal.mol3,6,7,11
|  2> ! MP2 def2-TZVP EnGrad TightSCF
|  3>
|  4> %pal
|  5>     nprocs 6
|  6> end
|  7>
|  8> %maxcore 8000
|  9>
| 10> %scf
| 11>     ConvForced true
| 12> end
| 13>
| 14> *xyz 0 1
| 15> O  -1.752130000  -0.741530000  -2.896280000
| 16> H  -2.036450000  -0.920500000  -1.984040000
| 17> H  -0.921210000  -1.242140000  -2.984230000
| 18> O   1.737840000   0.885520000  -0.052730000
| 19> H   2.090180000   1.032320000   0.841890000
| 20> H   0.839590000   1.284090000  -0.017130000
| 21> O  -1.737840000  -0.885520000  -0.052730000
| 22> H  -2.090180000  -1.032320000   0.841890000
| 23> H  -0.839590000  -1.284090000  -0.017130000
| 24> O  -0.741530000   1.752130000   2.896280000
| 25> H  -0.920500000   2.036450000   1.984040000
| 26> H  -1.242140000   0.921210000   2.984230000
| 27> *
| 28>
| 29>                          ****END OF INPUT****

CARTESIAN COORDINATES (ANGSTROEM)
---------------------------------
  O     -1.752130   -0.741530   -2.896280
  H     -2.036450   -0.920500   -1.984040
  H     -0.921210   -1.242140   -2.984230
  O      1.737840    0.885520   -0.052730
  H      2.090180    1.032320    0.841890
  H      0.839590    1.284090   -0.017130
  O     -1.737840   -0.885520   -0.052730
  H     -2.090180   -1.032320    0.841890
  H     -0.839590   -1.284090   -0.017130
  O     -0.741530    1.752130    2.896280
  H     -0.920500    2.036450    1.984040
  H     -1.242140    0.921210    2.984230

 Total Charge           Charge          ....    0
 Multiplicity           Mult            ....    1
 Number of Electrons    NEL             ....   40
 Basis Dimension        Dim             ....  172

ORBITAL ENERGIES
----------------

  NO   OCC          E(Eh)            E(eV)
   0   2.0000     -20.604872      -560.6871
   1   2.0000     -20.584186      -560.1242
   2   2.0000     -20.571470      -559.7782
   3   2.0000     -20.535391      -558.7964
   4   2.0000      -1.383063       -37.6351
   5   2.0000      -1.363107       -37.0920
   6   2.0000      -1.347198       -36.6591
   7   2.0000      -1.317290       -35.8453
   8   2.0000      -0.745255       -20.2794
   9   2.0000      -0.725986       -19.7551
  10   2.0000      -0.709063       -19.2946
  11   2.0000      -0.688239       -18.7279
  12   2.0000      -0.621784       -16.9196
  13   2.0000      -0.600245       -16.3335
  14   2.0000      -0.586724       -15.9656
  15   2.0000      -0.558660       -15.2019
  16   2.0000      -0.542577       -14.7643
  17   2.0000      -0.527571       -14.3559
  18   2.0000      -0.514035       -13.9876
  19   2.0000      -0.481670       -13.1069
  20   0.0000       0.069503         1.8913
  21   0.0000       0.124740         3.3944
  22   0.0000       0.133138         3.6229
  23   0.0000       0.169943         4.6244
  24   0.0000       0.186164         5.0658

MULLIKEN ATOMIC CHARGES
-----------------------
   0 O :   -0.692129
   1 H :    0.366561
   2 H :    0.322035
   3 O :   -0.678138
   4 H :    0.343203
   5 H :    0.334716
   6 O :   -0.694230
   7 H :    0.342697
   8 H :    0.354335
   9 O :   -0.665825
  10 H :    0.335622
  11 H :    0.331153
Sum of atomic charges:   -0.0000000

LOEWDIN ATOMIC CHARGES
----------------------
   0 O :   -0.338316
   1 H :    0.151636
   2 H :    0.159370
   3 O :   -0.335199
   4 H :    0.167018
   5 H :    0.167328
   6 O :   -0.316279
   7 H :    0.166287
   8 H :    0.177444
   9 O :   -0.325200
  10 H :    0.162496
  11 H :    0.163416

  Mayer bond orders larger than 0.100000
B(  0-O ,  1-H ) :   0.8258 B(  0-O ,  2-H ) :   0.8615 B(  3-O ,  4-H ) :   0.8484
B(  3-O ,  5-H ) :   0.8489 B(  6-O ,  7-H ) :   0.8450 B(  6-O ,  8-H ) :   0.8323
B(  9-O , 10-H ) :   0.8518 B(  9-O , 11-H ) :   0.8555

MP2 TOTAL ENERGY:     -305.259887634 Eh
FINAL SINGLE POINT ENERGY      -305.259887633558

DIPOLE MOMENT
-------------
                                X             Y             Z
Electronic contribution:      0.01354       0.19055      -0.09081
Nuclear contribution   :     -0.11069      -1.02062       1.54856
                        -----------------------------------------
Total Dipole Moment    :     -0.09715      -0.83008       1.45774
                        -----------------------------------------
Magnitude (a.u.)       :      1.68032
Magnitude (Debye)      :      4.27104

Rotational constants in cm-1:     0.111023     0.042496     0.032729
Rotational constants in MHz :  3328.387881  1273.983336   981.195996

                             ****ORCA TERMINATED NORMALLY****
TOTAL RUN TIME: 0 days 0 hours 0 minutes 15 seconds 815 msec
