                         Program Version 4.2.0 -  RELEASE  -
|  1> # 12meoh.boyd.etal.mol0,5,8
|  2> ! MP2 def2-TZVP EnGrad TightSCF
|  3>
|  4> %pal
|  5>     nprocs 6
|  6> end
|  7>
|  8> %maxcore 8000
|  9>
| 10> %scf
| 11>     ConvForced true
| 12> end
| 13>
| 14> *xyz 0 1
| 15> O  -1.776108874  -2.741384797  -1.019308298
| 16> H  -2.520094035  -2.452295987  -0.420778302
| 17> C  -2.174025166  -3.952700964  -1.647004581
| 18> H  -1.359803895  -4.272673416  -2.304149236
| 19> H  -3.075973971  -3.808692420  -2.256751112
| 20> H  -2.370225393  -4.752784761  -0.918966137
| 21> O  -0.662721750   1.449094618  -1.383082065
| 22> H   0.064188300   2.119867608  -1.465650660
| 23> C  -0.353319239   0.341218776  -2.229326771
| 24> H  -1.072358530  -0.454743281  -2.019906495
| 25> H   0.657636746  -0.044472139  -2.042736771
| 26> H  -0.434616607   0.624733901  -3.287793021
| 27> O   3.570084754   2.361662577  -0.202416728
| 28> H   3.393280933   1.755669977   0.560634073
| 29> C   4.368082883   1.644741793  -1.143112807
| 30> H   4.552851717   2.311801738  -1.989632421
| 31> H   3.862427494   0.740851663  -1.508095690
| 32> H   5.333949674   1.357289092  -0.706288100
| 33> *
| 34>
| 35>                          ****END OF INPUT****

CARTESIAN COORDINATES (ANGSTROEM)
---------------------------------
  O     -1.776109   -2.741385   -1.019308
  H     -2.520094   -2.452296   -0.420778
  C     -2.174025   -3.952701   -1.647005
  H     -1.359804   -4.272673   -2.304149
  H     -3.075974   -3.808692   -2.256751
  H     -2.370225   -4.752785   -0.918966
  O     -0.662722    1.449095   -1.383082
  H      0.064188    2.119868   -1.465651
  C     -0.353319    0.341219   -2.229327
  H     -1.072359   -0.454743   -2.019906
  H      0.657637   -0.044472   -2.042737
  H     -0.434617    0.624734   -3.287793
  O      3.570085    2.361663   -0.202417
  H      3.393281    1.755670    0.560634
  C      4.368083    1.644742   -1.143113
  H      4.552852    2.311802   -1.989632
  H      3.862427    0.740852   -1.508096
  H      5.333950    1.357289   -0.706288

 Total Charge           Charge          ....    0
 Multiplicity           Mult            ....    1
 Number of Electrons    NEL             ....   54
 Basis Dimension        Dim             ....  258

ORBITAL ENERGIES
----------------

  NO   OCC          E(Eh)            E(eV)
   0   2.0000     -20.561898      -559.5177
   1   2.0000     -20.559809      -559.4609
   2   2.0000     -20.542031      -558.9771
   3   2.0000     -11.274563      -306.7965
   4   2.0000     -11.274026      -306.7818
   5   2.0000     -11.254260      -306.2440
   6   2.0000      -1.351206       -36.7682
   7   2.0000      -1.349181       -36.7131
   8   2.0000      -1.330236       -36.1976
   9   2.0000      -0.922478       -25.1019
  10   2.0000      -0.922196       -25.0942
  11   2.0000      -0.903539       -24.5865
  12   2.0000      -0.685315       -18.6484
  13   2.0000      -0.684227       -18.6188
  14   2.0000      -0.665748       -18.1159
  15   2.0000      -0.621030       -16.8991
  16   2.0000      -0.619526       -16.8581
  17   2.0000      -0.601823       -16.3764
  18   2.0000      -0.595936       -16.2162
  19   2.0000      -0.592076       -16.1112
  20   2.0000      -0.572737       -15.5850
  21   2.0000      -0.504758       -13.7352
  22   2.0000      -0.504063       -13.7163
  23   2.0000      -0.483843       -13.1660
  24   2.0000      -0.452307       -12.3079
  25   2.0000      -0.451814       -12.2945
  26   2.0000      -0.434434       -11.8216
  27   0.0000       0.119194         3.2434
  28   0.0000       0.132627         3.6090
  29   0.0000       0.166055         4.5186
  30   0.0000       0.169792         4.6203
  31   0.0000       0.173944         4.7332

MULLIKEN ATOMIC CHARGES
-----------------------
   0 O :   -0.492628
   1 H :    0.327690
   2 C :   -0.173815
   3 H :    0.128698
   4 H :    0.112154
   5 H :    0.110827
   6 O :   -0.509157
   7 H :    0.324794
   8 C :   -0.170361
   9 H :    0.143402
  10 H :    0.097834
  11 H :    0.098958
  12 O :   -0.500109
  13 H :    0.325133
  14 C :   -0.178594
  15 H :    0.129819
  16 H :    0.111136
  17 H :    0.114219
Sum of atomic charges:   -0.0000000

LOEWDIN ATOMIC CHARGES
----------------------
   0 O :   -0.102049
   1 H :    0.195063
   2 C :   -0.384058
   3 H :    0.110257
   4 H :    0.096078
   5 H :    0.096925
   6 O :   -0.116393
   7 H :    0.188311
   8 C :   -0.381041
   9 H :    0.109760
  10 H :    0.093591
  11 H :    0.092290
  12 O :   -0.110742
  13 H :    0.189577
  14 C :   -0.379594
  15 H :    0.110323
  16 H :    0.094971
  17 H :    0.096730

  Mayer bond orders larger than 0.100000
B(  0-O ,  1-H ) :   0.8368 B(  0-O ,  2-C ) :   0.9179 B(  2-C ,  3-H ) :   0.9393
B(  2-C ,  4-H ) :   0.9400 B(  2-C ,  5-H ) :   0.9340 B(  6-O ,  7-H ) :   0.8398
B(  6-O ,  8-C ) :   0.9265 B(  8-C ,  9-H ) :   0.9306 B(  8-C , 10-H ) :   0.9425
B(  8-C , 11-H ) :   0.9391 B( 12-O , 13-H ) :   0.8412 B( 12-O , 14-C ) :   0.9224
B( 14-C , 15-H ) :   0.9380 B( 14-C , 16-H ) :   0.9364 B( 14-C , 17-H ) :   0.9403

MP2 TOTAL ENERGY:     -346.523842347 Eh
FINAL SINGLE POINT ENERGY      -346.523842346815

DIPOLE MOMENT
-------------
                                X             Y             Z
Electronic contribution:     -0.89222       3.74480       2.95386
Nuclear contribution   :      1.05229      -4.85381      -3.09872
                        -----------------------------------------
Total Dipole Moment    :      0.16007      -1.10902      -0.14486
                        -----------------------------------------
Magnitude (a.u.)       :      1.12984
Magnitude (Debye)      :      2.87181

Rotational constants in cm-1:     0.103158     0.015590     0.014281
Rotational constants in MHz :  3092.606194   467.389735   428.139527

                             ****ORCA TERMINATED NORMALLY****
TOTAL RUN TIME: 0 days 0 hours 1 minutes 37 seconds 118 msec
