                         Program Version 4.2.0 -  RELEASE  -
|  1> # 12mecn.remya.etal.2.mol7,8
|  2> ! MP2 def2-TZVP EnGrad TightSCF
|  3>
|  4> %pal
|  5>     nprocs 6
|  6> end
|  7>
|  8> %maxcore 8000
|  9>
| 10> %scf
| 11>     ConvForced true
| 12> end
| 13>
| 14> *xyz 0 1
| 15> C   1.502241000   0.651296000   1.710523000
| 16> H   1.309219000   1.637164000   2.143202000
| 17> H   2.493408000   0.297996000   2.009069000
| 18> H   0.746597000  -0.059850000   2.055508000
| 19> C   1.447974000   0.738517000   0.269805000
| 20> N   1.405612000   0.808047000  -0.894380000
| 21> C   1.912641000  -2.468050000  -1.750510000
| 22> H   2.876947000  -2.793500000  -2.151200000
| 23> H   1.688016000  -1.463720000  -2.122170000
| 24> H   1.123460000  -3.154780000  -2.069590000
| 25> C   1.977850000  -2.444240000  -0.306900000
| 26> N   2.036566000  -2.426130000   0.858249000
| 27> *
| 28>
| 29>                          ****END OF INPUT****

CARTESIAN COORDINATES (ANGSTROEM)
---------------------------------
  C      1.502241    0.651296    1.710523
  H      1.309219    1.637164    2.143202
  H      2.493408    0.297996    2.009069
  H      0.746597   -0.059850    2.055508
  C      1.447974    0.738517    0.269805
  N      1.405612    0.808047   -0.894380
  C      1.912641   -2.468050   -1.750510
  H      2.876947   -2.793500   -2.151200
  H      1.688016   -1.463720   -2.122170
  H      1.123460   -3.154780   -2.069590
  C      1.977850   -2.444240   -0.306900
  N      2.036566   -2.426130    0.858249

 Total Charge           Charge          ....    0
 Multiplicity           Mult            ....    1
 Number of Electrons    NEL             ....   44
 Basis Dimension        Dim             ....  222

ORBITAL ENERGIES
----------------

  NO   OCC          E(Eh)            E(eV)
   0   2.0000     -15.570884      -423.7053
   1   2.0000     -15.569171      -423.6587
   2   2.0000     -11.282563      -307.0141
   3   2.0000     -11.281257      -306.9786
   4   2.0000     -11.273283      -306.7616
   5   2.0000     -11.272343      -306.7360
   6   2.0000      -1.217159       -33.1206
   7   2.0000      -1.212393       -32.9909
   8   2.0000      -1.036568       -28.2064
   9   2.0000      -1.033671       -28.1276
  10   2.0000      -0.693691       -18.8763
  11   2.0000      -0.689633       -18.7659
  12   2.0000      -0.629426       -17.1276
  13   2.0000      -0.624715       -16.9994
  14   2.0000      -0.619841       -16.8667
  15   2.0000      -0.615785       -16.7564
  16   2.0000      -0.558210       -15.1897
  17   2.0000      -0.555134       -15.1060
  18   2.0000      -0.463136       -12.6026
  19   2.0000      -0.458546       -12.4777
  20   2.0000      -0.455721       -12.4008
  21   2.0000      -0.450862       -12.2686
  22   0.0000       0.126011         3.4289
  23   0.0000       0.144492         3.9318
  24   0.0000       0.173518         4.7217
  25   0.0000       0.177881         4.8404
  26   0.0000       0.180304         4.9063

MULLIKEN ATOMIC CHARGES
-----------------------
   0 C :   -0.256284
   1 H :    0.170943
   2 H :    0.176372
   3 H :    0.177536
   4 C :   -0.122322
   5 N :   -0.146257
   6 C :   -0.286484
   7 H :    0.166740
   8 H :    0.204659
   9 H :    0.166586
  10 C :   -0.112568
  11 N :   -0.138920
Sum of atomic charges:    0.0000000

LOEWDIN ATOMIC CHARGES
----------------------
   0 C :   -0.284329
   1 H :    0.149721
   2 H :    0.157038
   3 H :    0.156793
   4 C :   -0.211714
   5 N :    0.028191
   6 C :   -0.281797
   7 H :    0.152282
   8 H :    0.157231
   9 H :    0.151645
  10 C :   -0.209691
  11 N :    0.034629

  Mayer bond orders larger than 0.100000
B(  0-C ,  1-H ) :   0.9102 B(  0-C ,  2-H ) :   0.9127 B(  0-C ,  3-H ) :   0.9124
B(  0-C ,  4-C ) :   0.9110 B(  4-C ,  5-N ) :   2.7826 B(  6-C ,  7-H ) :   0.9153
B(  6-C ,  8-H ) :   0.9037 B(  6-C ,  9-H ) :   0.9157 B(  6-C , 10-C ) :   0.8991
B( 10-C , 11-N ) :   2.7939

MP2 TOTAL ENERGY:     -264.975896589 Eh
FINAL SINGLE POINT ENERGY      -264.975896588704

DIPOLE MOMENT
-------------
                                X             Y             Z
Electronic contribution:      0.02649       0.23985       0.02440
Nuclear contribution   :     -0.04122      -0.35677      -0.01930
                        -----------------------------------------
Total Dipole Moment    :     -0.01473      -0.11692       0.00510
                        -----------------------------------------
Magnitude (a.u.)       :      0.11796
Magnitude (Debye)      :      0.29983

Rotational constants in cm-1:     0.169859     0.068744     0.049875
Rotational constants in MHz :  5092.247385  2060.885391  1495.220661

                             ****ORCA TERMINATED NORMALLY****
TOTAL RUN TIME: 0 days 0 hours 1 minutes 13 seconds 129 msec
