                         Program Version 4.2.0 -  RELEASE  -
|  1> # 12mecn.remya.etal.2.mol1,2,8
|  2> ! MP2 def2-TZVP EnGrad TightSCF
|  3>
|  4> %pal
|  5>     nprocs 6
|  6> end
|  7>
|  8> %maxcore 8000
|  9>
| 10> %scf
| 11>     ConvForced true
| 12> end
| 13>
| 14> *xyz 0 1
| 15> C  -4.697980000  -0.249690000   1.746215000
| 16> H  -4.927570000   0.755530000   2.111799000
| 17> H  -3.709180000  -0.561560000   2.093253000
| 18> H  -5.432280000  -0.961520000   2.128066000
| 19> C  -4.714100000  -0.247110000   0.301670000
| 20> N  -4.729750000  -0.234960000  -0.865260000
| 21> C  -4.219070000  -3.477410000  -1.501740000
| 22> H  -3.251530000  -3.803540000  -1.893830000
| 23> H  -4.452920000  -2.481700000  -1.890840000
| 24> H  -4.992170000  -4.178130000  -1.824640000
| 25> C  -4.154550000  -3.418790000  -0.058340000
| 26> N  -4.091140000  -3.354840000   1.104432000
| 27> C   1.912641000  -2.468050000  -1.750510000
| 28> H   2.876947000  -2.793500000  -2.151200000
| 29> H   1.688016000  -1.463720000  -2.122170000
| 30> H   1.123460000  -3.154780000  -2.069590000
| 31> C   1.977850000  -2.444240000  -0.306900000
| 32> N   2.036566000  -2.426130000   0.858249000
| 33> *
| 34>
| 35>                          ****END OF INPUT****

CARTESIAN COORDINATES (ANGSTROEM)
---------------------------------
  C     -4.697980   -0.249690    1.746215
  H     -4.927570    0.755530    2.111799
  H     -3.709180   -0.561560    2.093253
  H     -5.432280   -0.961520    2.128066
  C     -4.714100   -0.247110    0.301670
  N     -4.729750   -0.234960   -0.865260
  C     -4.219070   -3.477410   -1.501740
  H     -3.251530   -3.803540   -1.893830
  H     -4.452920   -2.481700   -1.890840
  H     -4.992170   -4.178130   -1.824640
  C     -4.154550   -3.418790   -0.058340
  N     -4.091140   -3.354840    1.104432
  C      1.912641   -2.468050   -1.750510
  H      2.876947   -2.793500   -2.151200
  H      1.688016   -1.463720   -2.122170
  H      1.123460   -3.154780   -2.069590
  C      1.977850   -2.444240   -0.306900
  N      2.036566   -2.426130    0.858249

 Total Charge           Charge          ....    0
 Multiplicity           Mult            ....    1
 Number of Electrons    NEL             ....   66
 Basis Dimension        Dim             ....  333

ORBITAL ENERGIES
----------------

  NO   OCC          E(Eh)            E(eV)
   0   2.0000     -15.573040      -423.7640
   1   2.0000     -15.571184      -423.7135
   2   2.0000     -15.570405      -423.6922
   3   2.0000     -11.285986      -307.1073
   4   2.0000     -11.283083      -307.0283
   5   2.0000     -11.282256      -307.0058
   6   2.0000     -11.279836      -306.9399
   7   2.0000     -11.273837      -306.7767
   8   2.0000     -11.271417      -306.7109
   9   2.0000      -1.218136       -33.1472
  10   2.0000      -1.214298       -33.0427
  11   2.0000      -1.213390       -33.0180
  12   2.0000      -1.044391       -28.4193
  13   2.0000      -1.037010       -28.2185
  14   2.0000      -1.033518       -28.1235
  15   2.0000      -0.700072       -19.0499
  16   2.0000      -0.695503       -18.9256
  17   2.0000      -0.690705       -18.7950
  18   2.0000      -0.633642       -17.2423
  19   2.0000      -0.631591       -17.1865
  20   2.0000      -0.631421       -17.1819
  21   2.0000      -0.624313       -16.9884
  22   2.0000      -0.617647       -16.8070
  23   2.0000      -0.616385       -16.7727
  24   2.0000      -0.558825       -15.2064
  25   2.0000      -0.555907       -15.1270
  26   2.0000      -0.555547       -15.1172
  27   2.0000      -0.462873       -12.5954
  28   2.0000      -0.458788       -12.4842
  29   2.0000      -0.457517       -12.4497
  30   2.0000      -0.457289       -12.4435
  31   2.0000      -0.456957       -12.4344
  32   2.0000      -0.452728       -12.3194
  33   0.0000       0.105588         2.8732
  34   0.0000       0.130850         3.5606
  35   0.0000       0.143421         3.9027
  36   0.0000       0.165538         4.5045
  37   0.0000       0.171141         4.6570

MULLIKEN ATOMIC CHARGES
-----------------------
   0 C :   -0.259409
   1 H :    0.171271
   2 H :    0.181308
   3 H :    0.178128
   4 C :   -0.116421
   5 N :   -0.153504
   6 C :   -0.287534
   7 H :    0.159857
   8 H :    0.205827
   9 H :    0.167202
  10 C :   -0.113555
  11 N :   -0.133167
  12 C :   -0.278227
  13 H :    0.172488
  14 H :    0.173786
  15 H :    0.167945
  16 C :   -0.145685
  17 N :   -0.090307
Sum of atomic charges:    0.0000000

LOEWDIN ATOMIC CHARGES
----------------------
   0 C :   -0.283630
   1 H :    0.150369
   2 H :    0.158475
   3 H :    0.155818
   4 C :   -0.209038
   5 N :    0.025933
   6 C :   -0.283562
   7 H :    0.150150
   8 H :    0.157009
   9 H :    0.150186
  10 C :   -0.210266
  11 N :    0.038557
  12 C :   -0.284138
  13 H :    0.152751
  14 H :    0.153065
  15 H :    0.151282
  16 C :   -0.220213
  17 N :    0.047253

  Mayer bond orders larger than 0.100000
B(  0-C ,  1-H ) :   0.9093 B(  0-C ,  2-H ) :   0.9115 B(  0-C ,  3-H ) :   0.9124
B(  0-C ,  4-C ) :   0.9120 B(  4-C ,  5-N ) :   2.7737 B(  6-C ,  7-H ) :   0.9169
B(  6-C ,  8-H ) :   0.9020 B(  6-C ,  9-H ) :   0.9163 B(  6-C , 10-C ) :   0.9002
B( 10-C , 11-N ) :   2.7897 B( 12-C , 13-H ) :   0.9165 B( 12-C , 14-H ) :   0.9164
B( 12-C , 15-H ) :   0.9173 B( 12-C , 16-C ) :   0.9014 B( 16-C , 17-N ) :   2.8358

MP2 TOTAL ENERGY:     -397.458931827 Eh
FINAL SINGLE POINT ENERGY      -397.458931827044

DIPOLE MOMENT
-------------
                                X             Y             Z
Electronic contribution:      0.23420       0.20304       3.17749
Nuclear contribution   :     -0.35990      -0.29153      -4.63752
                        -----------------------------------------
Total Dipole Moment    :     -0.12570      -0.08849      -1.46002
                        -----------------------------------------
Magnitude (a.u.)       :      1.46809
Magnitude (Debye)      :      3.73159

Rotational constants in cm-1:     0.046200     0.012880     0.012074
Rotational constants in MHz :  1385.036615   386.118192   361.963678

                             ****ORCA TERMINATED NORMALLY****
TOTAL RUN TIME: 0 days 0 hours 3 minutes 5 seconds 419 msec
