                         Program Version 4.2.0 -  RELEASE  -
|  1> # 12h2o.su.etal.mol1,2,4,8,9,11
|  2> ! MP2 def2-TZVP EnGrad TightSCF
|  3>
|  4> %pal
|  5>     nprocs 6
|  6> end
|  7>
|  8> %maxcore 8000
|  9>
| 10> %scf
| 11>     ConvForced true
| 12> end
| 13>
| 14> *xyz 0 1
| 15> O  -1.794470000  -0.923410000   2.768350000
| 16> H  -2.338250000  -1.359750000   3.430940000
| 17> H  -0.879480000  -1.303000000   2.865760000
| 18> O   0.923410000  -1.794470000  -2.768350000
| 19> H   1.359750000  -2.338250000  -3.430940000
| 20> H   1.303000000  -0.879480000  -2.865760000
| 21> O  -0.885520000   1.737840000   0.052730000
| 22> H  -1.032320000   2.090180000  -0.841890000
| 23> H  -1.284090000   0.839590000   0.017130000
| 24> O   1.752130000   0.741530000  -2.896280000
| 25> H   2.036450000   0.920500000  -1.984040000
| 26> H   0.921210000   1.242140000  -2.984230000
| 27> O   0.741530000  -1.752130000   2.896280000
| 28> H   0.920500000  -2.036450000   1.984040000
| 29> H   1.242140000  -0.921210000   2.984230000
| 30> O  -0.741530000   1.752130000   2.896280000
| 31> H  -0.920500000   2.036450000   1.984040000
| 32> H  -1.242140000   0.921210000   2.984230000
| 33> *
| 34>
| 35>                          ****END OF INPUT****

CARTESIAN COORDINATES (ANGSTROEM)
---------------------------------
  O     -1.794470   -0.923410    2.768350
  H     -2.338250   -1.359750    3.430940
  H     -0.879480   -1.303000    2.865760
  O      0.923410   -1.794470   -2.768350
  H      1.359750   -2.338250   -3.430940
  H      1.303000   -0.879480   -2.865760
  O     -0.885520    1.737840    0.052730
  H     -1.032320    2.090180   -0.841890
  H     -1.284090    0.839590    0.017130
  O      1.752130    0.741530   -2.896280
  H      2.036450    0.920500   -1.984040
  H      0.921210    1.242140   -2.984230
  O      0.741530   -1.752130    2.896280
  H      0.920500   -2.036450    1.984040
  H      1.242140   -0.921210    2.984230
  O     -0.741530    1.752130    2.896280
  H     -0.920500    2.036450    1.984040
  H     -1.242140    0.921210    2.984230

 Total Charge           Charge          ....    0
 Multiplicity           Mult            ....    1
 Number of Electrons    NEL             ....   60
 Basis Dimension        Dim             ....  258

ORBITAL ENERGIES
----------------

  NO   OCC          E(Eh)            E(eV)
   0   2.0000     -20.608525      -560.7865
   1   2.0000     -20.597473      -560.4857
   2   2.0000     -20.590973      -560.3088
   3   2.0000     -20.543897      -559.0279
   4   2.0000     -20.529401      -558.6334
   5   2.0000     -20.503408      -557.9261
   6   2.0000      -1.393734       -37.9254
   7   2.0000      -1.383284       -37.6411
   8   2.0000      -1.369116       -37.2555
   9   2.0000      -1.328059       -36.1383
  10   2.0000      -1.311785       -35.6955
  11   2.0000      -1.288381       -35.0586
  12   2.0000      -0.751296       -20.4438
  13   2.0000      -0.739742       -20.1294
  14   2.0000      -0.731004       -19.8916
  15   2.0000      -0.713251       -19.4085
  16   2.0000      -0.702761       -19.1231
  17   2.0000      -0.667135       -18.1537
  18   2.0000      -0.628613       -17.1054
  19   2.0000      -0.623572       -16.9682
  20   2.0000      -0.607084       -16.5196
  21   2.0000      -0.575619       -15.6634
  22   2.0000      -0.569410       -15.4944
  23   2.0000      -0.541048       -14.7227
  24   2.0000      -0.529659       -14.4128
  25   2.0000      -0.525890       -14.3102
  26   2.0000      -0.519990       -14.1496
  27   2.0000      -0.489481       -13.3195
  28   2.0000      -0.479884       -13.0583
  29   2.0000      -0.453545       -12.3416
  30   0.0000       0.076426         2.0797
  31   0.0000       0.112786         3.0691
  32   0.0000       0.141354         3.8464
  33   0.0000       0.164553         4.4777
  34   0.0000       0.168456         4.5839

MULLIKEN ATOMIC CHARGES
-----------------------
   0 O :   -0.739743
   1 H :    0.340586
   2 H :    0.378741
   3 O :   -0.735728
   4 H :    0.329192
   5 H :    0.363406
   6 O :   -0.695286
   7 H :    0.335431
   8 H :    0.362814
   9 O :   -0.673212
  10 H :    0.362867
  11 H :    0.351339
  12 O :   -0.687959
  13 H :    0.362853
  14 H :    0.369557
  15 O :   -0.734618
  16 H :    0.361802
  17 H :    0.347959
Sum of atomic charges:    0.0000000

LOEWDIN ATOMIC CHARGES
----------------------
   0 O :   -0.341359
   1 H :    0.155524
   2 H :    0.144991
   3 O :   -0.374067
   4 H :    0.150297
   5 H :    0.140977
   6 O :   -0.318078
   7 H :    0.162811
   8 H :    0.181680
   9 O :   -0.267904
  10 H :    0.176251
  11 H :    0.172488
  12 O :   -0.270553
  13 H :    0.176639
  14 H :    0.179811
  15 O :   -0.358677
  16 H :    0.148034
  17 H :    0.141134

  Mayer bond orders larger than 0.100000
B(  0-O ,  1-H ) :   0.8490 B(  0-O ,  2-H ) :   0.7656 B(  3-O ,  4-H ) :   0.8587
B(  3-O ,  5-H ) :   0.7891 B(  6-O ,  7-H ) :   0.8491 B(  6-O ,  8-H ) :   0.8292
B(  9-O , 10-H ) :   0.8334 B(  9-O , 11-H ) :   0.8401 B( 12-O , 13-H ) :   0.8342
B( 12-O , 14-H ) :   0.8254 B( 15-O , 16-H ) :   0.8314 B( 15-O , 17-H ) :   0.8178

MP2 TOTAL ENERGY:     -457.912651857 Eh
FINAL SINGLE POINT ENERGY      -457.912651856971

DIPOLE MOMENT
-------------
                                X             Y             Z
Electronic contribution:      0.30917       0.06708       0.13995
Nuclear contribution   :      0.07922      -0.25891      -1.46039
                        -----------------------------------------
Total Dipole Moment    :      0.38839      -0.19182      -1.32043
                        -----------------------------------------
Magnitude (a.u.)       :      1.38967
Magnitude (Debye)      :      3.53226

Rotational constants in cm-1:     0.051014     0.019645     0.016095
Rotational constants in MHz :  1529.361389   588.931965   482.525719

                             ****ORCA TERMINATED NORMALLY****
TOTAL RUN TIME: 0 days 0 hours 0 minutes 47 seconds 491 msec
