                         Program Version 4.2.0 -  RELEASE  -
|  1> # 12mecn.remya.etal.2.mol0,1,7
|  2> ! MP2 def2-TZVP EnGrad TightSCF
|  3>
|  4> %pal
|  5>     nprocs 6
|  6> end
|  7>
|  8> %maxcore 8000
|  9>
| 10> %scf
| 11>     ConvForced true
| 12> end
| 13>
| 14> *xyz 0 1
| 15> C  -0.869520000  -3.929380000   1.700199000
| 16> H  -0.057420000  -3.268850000   2.015352000
| 17> H  -0.697530000  -4.930670000   2.101524000
| 18> H  -1.821490000  -3.546590000   2.077146000
| 19> C  -0.916080000  -3.969960000   0.256749000
| 20> N  -0.955390000  -3.995980000  -0.909290000
| 21> C  -4.697980000  -0.249690000   1.746215000
| 22> H  -4.927570000   0.755530000   2.111799000
| 23> H  -3.709180000  -0.561560000   2.093253000
| 24> H  -5.432280000  -0.961520000   2.128066000
| 25> C  -4.714100000  -0.247110000   0.301670000
| 26> N  -4.729750000  -0.234960000  -0.865260000
| 27> C   1.502241000   0.651296000   1.710523000
| 28> H   1.309219000   1.637164000   2.143202000
| 29> H   2.493408000   0.297996000   2.009069000
| 30> H   0.746597000  -0.059850000   2.055508000
| 31> C   1.447974000   0.738517000   0.269805000
| 32> N   1.405612000   0.808047000  -0.894380000
| 33> *
| 34>
| 35>                          ****END OF INPUT****

CARTESIAN COORDINATES (ANGSTROEM)
---------------------------------
  C     -0.869520   -3.929380    1.700199
  H     -0.057420   -3.268850    2.015352
  H     -0.697530   -4.930670    2.101524
  H     -1.821490   -3.546590    2.077146
  C     -0.916080   -3.969960    0.256749
  N     -0.955390   -3.995980   -0.909290
  C     -4.697980   -0.249690    1.746215
  H     -4.927570    0.755530    2.111799
  H     -3.709180   -0.561560    2.093253
  H     -5.432280   -0.961520    2.128066
  C     -4.714100   -0.247110    0.301670
  N     -4.729750   -0.234960   -0.865260
  C      1.502241    0.651296    1.710523
  H      1.309219    1.637164    2.143202
  H      2.493408    0.297996    2.009069
  H      0.746597   -0.059850    2.055508
  C      1.447974    0.738517    0.269805
  N      1.405612    0.808047   -0.894380

 Total Charge           Charge          ....    0
 Multiplicity           Mult            ....    1
 Number of Electrons    NEL             ....   66
 Basis Dimension        Dim             ....  333

ORBITAL ENERGIES
----------------

  NO   OCC          E(Eh)            E(eV)
   0   2.0000     -15.574581      -423.8059
   1   2.0000     -15.574269      -423.7974
   2   2.0000     -15.573669      -423.7811
   3   2.0000     -11.292265      -307.2782
   4   2.0000     -11.291337      -307.2529
   5   2.0000     -11.290152      -307.2207
   6   2.0000     -11.279756      -306.9378
   7   2.0000     -11.279743      -306.9374
   8   2.0000     -11.279188      -306.9223
   9   2.0000      -1.214705       -33.0538
  10   2.0000      -1.214674       -33.0530
  11   2.0000      -1.213929       -33.0327
  12   2.0000      -1.049910       -28.5695
  13   2.0000      -1.049082       -28.5470
  14   2.0000      -1.048111       -28.5206
  15   2.0000      -0.705323       -19.1928
  16   2.0000      -0.703665       -19.1477
  17   2.0000      -0.703324       -19.1384
  18   2.0000      -0.640458       -17.4277
  19   2.0000      -0.639662       -17.4061
  20   2.0000      -0.638361       -17.3707
  21   2.0000      -0.638128       -17.3644
  22   2.0000      -0.637090       -17.3361
  23   2.0000      -0.634872       -17.2757
  24   2.0000      -0.555363       -15.1122
  25   2.0000      -0.555247       -15.1091
  26   2.0000      -0.554722       -15.0948
  27   2.0000      -0.458651       -12.4805
  28   2.0000      -0.458331       -12.4718
  29   2.0000      -0.457888       -12.4598
  30   2.0000      -0.457276       -12.4431
  31   2.0000      -0.457186       -12.4407
  32   2.0000      -0.456781       -12.4296
  33   0.0000       0.074900         2.0381
  34   0.0000       0.113648         3.0925
  35   0.0000       0.132721         3.6115
  36   0.0000       0.155314         4.2263
  37   0.0000       0.157761         4.2929

MULLIKEN ATOMIC CHARGES
-----------------------
   0 C :   -0.282920
   1 H :    0.162107
   2 H :    0.177597
   3 H :    0.163470
   4 C :   -0.142726
   5 N :   -0.077446
   6 C :   -0.281428
   7 H :    0.175212
   8 H :    0.156948
   9 H :    0.173473
  10 C :   -0.144091
  11 N :   -0.080154
  12 C :   -0.279788
  13 H :    0.174967
  14 H :    0.174246
  15 H :    0.155491
  16 C :   -0.144913
  17 N :   -0.080043
Sum of atomic charges:   -0.0000000

LOEWDIN ATOMIC CHARGES
----------------------
   0 C :   -0.286550
   1 H :    0.148431
   2 H :    0.152334
   3 H :    0.149141
   4 C :   -0.222034
   5 N :    0.058681
   6 C :   -0.286217
   7 H :    0.153096
   8 H :    0.147507
   9 H :    0.151221
  10 C :   -0.221707
  11 N :    0.056093
  12 C :   -0.285955
  13 H :    0.152610
  14 H :    0.153039
  15 H :    0.146944
  16 C :   -0.222648
  17 N :    0.056014

  Mayer bond orders larger than 0.100000
B(  0-C ,  1-H ) :   0.9202 B(  0-C ,  2-H ) :   0.9169 B(  0-C ,  3-H ) :   0.9201
B(  0-C ,  4-C ) :   0.8997 B(  4-C ,  5-N ) :   2.8241 B(  6-C ,  7-H ) :   0.9164
B(  6-C ,  8-H ) :   0.9209 B(  6-C ,  9-H ) :   0.9180 B(  6-C , 10-C ) :   0.9005
B( 10-C , 11-N ) :   2.8273 B( 12-C , 13-H ) :   0.9171 B( 12-C , 14-H ) :   0.9173
B( 12-C , 15-H ) :   0.9210 B( 12-C , 16-C ) :   0.8993 B( 16-C , 17-N ) :   2.8276

MP2 TOTAL ENERGY:     -397.445127665 Eh
FINAL SINGLE POINT ENERGY      -397.445127665209

DIPOLE MOMENT
-------------
                                X             Y             Z
Electronic contribution:     -0.26698       0.12681      -9.53327
Nuclear contribution   :      0.38796      -0.18876      13.89454
                        -----------------------------------------
Total Dipole Moment    :      0.12098      -0.06195       4.36127
                        -----------------------------------------
Magnitude (a.u.)       :      4.36339
Magnitude (Debye)      :     11.09085

Rotational constants in cm-1:     0.025480     0.017487     0.012886
Rotational constants in MHz :   763.871172   524.255093   386.319078

                             ****ORCA TERMINATED NORMALLY****
TOTAL RUN TIME: 0 days 0 hours 2 minutes 31 seconds 63 msec
