                         Program Version 4.2.0 -  RELEASE  -
|  1> # 12h2o.su.etal.mol4,6,7,8,11
|  2> ! MP2 def2-TZVP EnGrad TightSCF
|  3>
|  4> %pal
|  5>     nprocs 6
|  6> end
|  7>
|  8> %maxcore 8000
|  9>
| 10> %scf
| 11>     ConvForced true
| 12> end
| 13>
| 14> *xyz 0 1
| 15> O  -0.885520000   1.737840000   0.052730000
| 16> H  -1.032320000   2.090180000  -0.841890000
| 17> H  -1.284090000   0.839590000   0.017130000
| 18> O   1.737840000   0.885520000  -0.052730000
| 19> H   2.090180000   1.032320000   0.841890000
| 20> H   0.839590000   1.284090000  -0.017130000
| 21> O  -1.737840000  -0.885520000  -0.052730000
| 22> H  -2.090180000  -1.032320000   0.841890000
| 23> H  -0.839590000  -1.284090000  -0.017130000
| 24> O   1.752130000   0.741530000  -2.896280000
| 25> H   2.036450000   0.920500000  -1.984040000
| 26> H   0.921210000   1.242140000  -2.984230000
| 27> O  -0.741530000   1.752130000   2.896280000
| 28> H  -0.920500000   2.036450000   1.984040000
| 29> H  -1.242140000   0.921210000   2.984230000
| 30> *
| 31>
| 32>                          ****END OF INPUT****

CARTESIAN COORDINATES (ANGSTROEM)
---------------------------------
  O     -0.885520    1.737840    0.052730
  H     -1.032320    2.090180   -0.841890
  H     -1.284090    0.839590    0.017130
  O      1.737840    0.885520   -0.052730
  H      2.090180    1.032320    0.841890
  H      0.839590    1.284090   -0.017130
  O     -1.737840   -0.885520   -0.052730
  H     -2.090180   -1.032320    0.841890
  H     -0.839590   -1.284090   -0.017130
  O      1.752130    0.741530   -2.896280
  H      2.036450    0.920500   -1.984040
  H      0.921210    1.242140   -2.984230
  O     -0.741530    1.752130    2.896280
  H     -0.920500    2.036450    1.984040
  H     -1.242140    0.921210    2.984230

 Total Charge           Charge          ....    0
 Multiplicity           Mult            ....    1
 Number of Electrons    NEL             ....   50
 Basis Dimension        Dim             ....  215

ORBITAL ENERGIES
----------------

  NO   OCC          E(Eh)            E(eV)
   0   2.0000     -20.621312      -561.1344
   1   2.0000     -20.599470      -560.5401
   2   2.0000     -20.556484      -559.3704
   3   2.0000     -20.555456      -559.3424
   4   2.0000     -20.532649      -558.7218
   5   2.0000      -1.404605       -38.2212
   6   2.0000      -1.384983       -37.6873
   7   2.0000      -1.340311       -36.4717
   8   2.0000      -1.336943       -36.3801
   9   2.0000      -1.313818       -35.7508
  10   2.0000      -0.758980       -20.6529
  11   2.0000      -0.755053       -20.5460
  12   2.0000      -0.715234       -19.4625
  13   2.0000      -0.707214       -19.2443
  14   2.0000      -0.682964       -18.5844
  15   2.0000      -0.650087       -17.6898
  16   2.0000      -0.625113       -17.0102
  17   2.0000      -0.596298       -16.2261
  18   2.0000      -0.572739       -15.5850
  19   2.0000      -0.557145       -15.1607
  20   2.0000      -0.550309       -14.9747
  21   2.0000      -0.534745       -14.5511
  22   2.0000      -0.505450       -13.7540
  23   2.0000      -0.501215       -13.6387
  24   2.0000      -0.478815       -13.0292
  25   0.0000       0.073310         1.9949
  26   0.0000       0.112022         3.0483
  27   0.0000       0.151289         4.1168
  28   0.0000       0.157967         4.2985
  29   0.0000       0.196715         5.3529

MULLIKEN ATOMIC CHARGES
-----------------------
   0 O :   -0.730990
   1 H :    0.358206
   2 H :    0.368467
   3 O :   -0.731913
   4 H :    0.347791
   5 H :    0.352095
   6 O :   -0.683884
   7 H :    0.354591
   8 H :    0.375618
   9 O :   -0.690379
  10 H :    0.375564
  11 H :    0.306070
  12 O :   -0.685703
  13 H :    0.373354
  14 H :    0.311112
Sum of atomic charges:   -0.0000000

LOEWDIN ATOMIC CHARGES
----------------------
   0 O :   -0.293661
   1 H :    0.170211
   2 H :    0.146083
   3 O :   -0.341884
   4 H :    0.166793
   5 H :    0.139861
   6 O :   -0.284448
   7 H :    0.171335
   8 H :    0.187395
   9 O :   -0.339255
  10 H :    0.154265
  11 H :    0.151388
  12 O :   -0.334250
  13 H :    0.152037
  14 H :    0.154128

  Mayer bond orders larger than 0.100000
B(  0-O ,  1-H ) :   0.8348 B(  0-O ,  2-H ) :   0.7636 B(  3-O ,  4-H ) :   0.8431
B(  3-O ,  5-H ) :   0.7847 B(  6-O ,  7-H ) :   0.8384 B(  6-O ,  8-H ) :   0.8204
B(  9-O , 10-H ) :   0.8138 B(  9-O , 11-H ) :   0.8698 B( 12-O , 13-H ) :   0.8194
B( 12-O , 14-H ) :   0.8665

MP2 TOTAL ENERGY:     -381.597459945 Eh
FINAL SINGLE POINT ENERGY      -381.597459944991

DIPOLE MOMENT
-------------
                                X             Y             Z
Electronic contribution:     -0.03253      -0.14728      -0.07910
Nuclear contribution   :     -1.47457      -0.34371       0.77428
                        -----------------------------------------
Total Dipole Moment    :     -1.50710      -0.49098       0.69518
                        -----------------------------------------
Magnitude (a.u.)       :      1.73081
Magnitude (Debye)      :      4.39936

Rotational constants in cm-1:     0.090410     0.039542     0.032020
Rotational constants in MHz :  2710.427066  1185.428624   959.936337

                             ****ORCA TERMINATED NORMALLY****
TOTAL RUN TIME: 0 days 0 hours 0 minutes 32 seconds 890 msec
