                         Program Version 4.2.0 -  RELEASE  -
|  1> # 12mecn.remya.etal.2.mol1,5
|  2> ! MP2 def2-TZVP EnGrad TightSCF
|  3>
|  4> %pal
|  5>     nprocs 6
|  6> end
|  7>
|  8> %maxcore 8000
|  9>
| 10> %scf
| 11>     ConvForced true
| 12> end
| 13>
| 14> *xyz 0 1
| 15> C  -4.697980000  -0.249690000   1.746215000
| 16> H  -4.927570000   0.755530000   2.111799000
| 17> H  -3.709180000  -0.561560000   2.093253000
| 18> H  -5.432280000  -0.961520000   2.128066000
| 19> C  -4.714100000  -0.247110000   0.301670000
| 20> N  -4.729750000  -0.234960000  -0.865260000
| 21> C  -1.955700000   2.515080000   1.698463000
| 22> H  -2.923830000   2.883163000   2.049269000
| 23> H  -1.154850000   3.171830000   2.050990000
| 24> H  -1.790380000   1.506115000   2.087896000
| 25> C  -1.948230000   2.482156000   0.253672000
| 26> N  -1.937550000   2.462523000  -0.913150000
| 27> *
| 28>
| 29>                          ****END OF INPUT****

CARTESIAN COORDINATES (ANGSTROEM)
---------------------------------
  C     -4.697980   -0.249690    1.746215
  H     -4.927570    0.755530    2.111799
  H     -3.709180   -0.561560    2.093253
  H     -5.432280   -0.961520    2.128066
  C     -4.714100   -0.247110    0.301670
  N     -4.729750   -0.234960   -0.865260
  C     -1.955700    2.515080    1.698463
  H     -2.923830    2.883163    2.049269
  H     -1.154850    3.171830    2.050990
  H     -1.790380    1.506115    2.087896
  C     -1.948230    2.482156    0.253672
  N     -1.937550    2.462523   -0.913150

 Total Charge           Charge          ....    0
 Multiplicity           Mult            ....    1
 Number of Electrons    NEL             ....   44
 Basis Dimension        Dim             ....  222

ORBITAL ENERGIES
----------------

  NO   OCC          E(Eh)            E(eV)
   0   2.0000     -15.573069      -423.7647
   1   2.0000     -15.572694      -423.7546
   2   2.0000     -11.290736      -307.2365
   3   2.0000     -11.290666      -307.2346
   4   2.0000     -11.278017      -306.8904
   5   2.0000     -11.277711      -306.8821
   6   2.0000      -1.213418       -33.0188
   7   2.0000      -1.212420       -32.9916
   8   2.0000      -1.049579       -28.5605
   9   2.0000      -1.046896       -28.4875
  10   2.0000      -0.704890       -19.1810
  11   2.0000      -0.702137       -19.1061
  12   2.0000      -0.643432       -17.5087
  13   2.0000      -0.640526       -17.4296
  14   2.0000      -0.635497       -17.2928
  15   2.0000      -0.630185       -17.1482
  16   2.0000      -0.554604       -15.0915
  17   2.0000      -0.552771       -15.0417
  18   2.0000      -0.462406       -12.5827
  19   2.0000      -0.457775       -12.4567
  20   2.0000      -0.455223       -12.3873
  21   2.0000      -0.449527       -12.2322
  22   0.0000       0.094491         2.5712
  23   0.0000       0.141815         3.8590
  24   0.0000       0.146357         3.9826
  25   0.0000       0.155020         4.2183
  26   0.0000       0.183472         4.9925

MULLIKEN ATOMIC CHARGES
-----------------------
   0 C :   -0.284765
   1 H :    0.164444
   2 H :    0.165115
   3 H :    0.182572
   4 C :   -0.152993
   5 N :   -0.074374
   6 C :   -0.282669
   7 H :    0.166432
   8 H :    0.182601
   9 H :    0.161889
  10 C :   -0.153620
  11 N :   -0.074632
Sum of atomic charges:   -0.0000000

LOEWDIN ATOMIC CHARGES
----------------------
   0 C :   -0.287967
   1 H :    0.149540
   2 H :    0.149472
   3 H :    0.152673
   4 C :   -0.223972
   5 N :    0.060279
   6 C :   -0.287948
   7 H :    0.149773
   8 H :    0.153790
   9 H :    0.148357
  10 C :   -0.223977
  11 N :    0.059980

  Mayer bond orders larger than 0.100000
B(  0-C ,  1-H ) :   0.9201 B(  0-C ,  2-H ) :   0.9229 B(  0-C ,  3-H ) :   0.9112
B(  0-C ,  4-C ) :   0.8982 B(  4-C ,  5-N ) :   2.8265 B(  6-C ,  7-H ) :   0.9221
B(  6-C ,  8-H ) :   0.9109 B(  6-C ,  9-H ) :   0.9208 B(  6-C , 10-C ) :   0.8984
B( 10-C , 11-N ) :   2.8274

MP2 TOTAL ENERGY:     -264.964141512 Eh
FINAL SINGLE POINT ENERGY      -264.964141511684

DIPOLE MOMENT
-------------
                                X             Y             Z
Electronic contribution:     -0.03247      -0.04473      -6.38826
Nuclear contribution   :      0.04011       0.05895       9.28123
                        -----------------------------------------
Total Dipole Moment    :      0.00764       0.01422       2.89297
                        -----------------------------------------
Magnitude (a.u.)       :      2.89302
Magnitude (Debye)      :      7.35346

Rotational constants in cm-1:     0.154250     0.053223     0.040184
Rotational constants in MHz :  4624.311716  1595.592514  1204.676524

                             ****ORCA TERMINATED NORMALLY****
TOTAL RUN TIME: 0 days 0 hours 1 minutes 2 seconds 227 msec
