                         Program Version 4.2.0 -  RELEASE  -
|  1> # 12h2o.su.etal.mol1,2,5,6,7,8,9,10,11
|  2> ! MP2 def2-TZVP EnGrad TightSCF
|  3>
|  4> %pal
|  5>     nprocs 6
|  6> end
|  7>
|  8> %maxcore 8000
|  9>
| 10> %scf
| 11>     ConvForced true
| 12> end
| 13>
| 14> *xyz 0 1
| 15> O  -1.794470000  -0.923410000   2.768350000
| 16> H  -2.338250000  -1.359750000   3.430940000
| 17> H  -0.879480000  -1.303000000   2.865760000
| 18> O   0.923410000  -1.794470000  -2.768350000
| 19> H   1.359750000  -2.338250000  -3.430940000
| 20> H   1.303000000  -0.879480000  -2.865760000
| 21> O   0.885520000  -1.737840000   0.052730000
| 22> H   1.284090000  -0.839590000   0.017130000
| 23> H   1.032320000  -2.090180000  -0.841890000
| 24> O   1.737840000   0.885520000  -0.052730000
| 25> H   2.090180000   1.032320000   0.841890000
| 26> H   0.839590000   1.284090000  -0.017130000
| 27> O  -1.737840000  -0.885520000  -0.052730000
| 28> H  -2.090180000  -1.032320000   0.841890000
| 29> H  -0.839590000  -1.284090000  -0.017130000
| 30> O   1.752130000   0.741530000  -2.896280000
| 31> H   2.036450000   0.920500000  -1.984040000
| 32> H   0.921210000   1.242140000  -2.984230000
| 33> O   0.741530000  -1.752130000   2.896280000
| 34> H   0.920500000  -2.036450000   1.984040000
| 35> H   1.242140000  -0.921210000   2.984230000
| 36> O  -0.923410000   1.794470000  -2.768350000
| 37> H  -1.359750000   2.338250000  -3.430940000
| 38> H  -1.303000000   0.879480000  -2.865760000
| 39> O  -0.741530000   1.752130000   2.896280000
| 40> H  -0.920500000   2.036450000   1.984040000
| 41> H  -1.242140000   0.921210000   2.984230000
| 42> *
| 43>
| 44>                          ****END OF INPUT****

CARTESIAN COORDINATES (ANGSTROEM)
---------------------------------
  O     -1.794470   -0.923410    2.768350
  H     -2.338250   -1.359750    3.430940
  H     -0.879480   -1.303000    2.865760
  O      0.923410   -1.794470   -2.768350
  H      1.359750   -2.338250   -3.430940
  H      1.303000   -0.879480   -2.865760
  O      0.885520   -1.737840    0.052730
  H      1.284090   -0.839590    0.017130
  H      1.032320   -2.090180   -0.841890
  O      1.737840    0.885520   -0.052730
  H      2.090180    1.032320    0.841890
  H      0.839590    1.284090   -0.017130
  O     -1.737840   -0.885520   -0.052730
  H     -2.090180   -1.032320    0.841890
  H     -0.839590   -1.284090   -0.017130
  O      1.752130    0.741530   -2.896280
  H      2.036450    0.920500   -1.984040
  H      0.921210    1.242140   -2.984230
  O      0.741530   -1.752130    2.896280
  H      0.920500   -2.036450    1.984040
  H      1.242140   -0.921210    2.984230
  O     -0.923410    1.794470   -2.768350
  H     -1.359750    2.338250   -3.430940
  H     -1.303000    0.879480   -2.865760
  O     -0.741530    1.752130    2.896280
  H     -0.920500    2.036450    1.984040
  H     -1.242140    0.921210    2.984230

 Total Charge           Charge          ....    0
 Multiplicity           Mult            ....    1
 Number of Electrons    NEL             ....   90
 Basis Dimension        Dim             ....  387

ORBITAL ENERGIES
----------------

  NO   OCC          E(Eh)            E(eV)
   0   2.0000     -20.625447      -561.2470
   1   2.0000     -20.591275      -560.3171
   2   2.0000     -20.580285      -560.0180
   3   2.0000     -20.561590      -559.5093
   4   2.0000     -20.557545      -559.3993
   5   2.0000     -20.556978      -559.3838
   6   2.0000     -20.543324      -559.0123
   7   2.0000     -20.543207      -559.0091
   8   2.0000     -20.499930      -557.8314
   9   2.0000      -1.408852       -38.3368
  10   2.0000      -1.372417       -37.3454
  11   2.0000      -1.370183       -37.2846
  12   2.0000      -1.353991       -36.8440
  13   2.0000      -1.348153       -36.6851
  14   2.0000      -1.342869       -36.5413
  15   2.0000      -1.324197       -36.0332
  16   2.0000      -1.323635       -36.0180
  17   2.0000      -1.283930       -34.9375
  18   2.0000      -0.766788       -20.8654
  19   2.0000      -0.737668       -20.0730
  20   2.0000      -0.733452       -19.9583
  21   2.0000      -0.724817       -19.7233
  22   2.0000      -0.721280       -19.6270
  23   2.0000      -0.717582       -19.5264
  24   2.0000      -0.709140       -19.2967
  25   2.0000      -0.692963       -18.8565
  26   2.0000      -0.667247       -18.1567
  27   2.0000      -0.654689       -17.8150
  28   2.0000      -0.626740       -17.0545
  29   2.0000      -0.612615       -16.6701
  30   2.0000      -0.604221       -16.4417
  31   2.0000      -0.591592       -16.0980
  32   2.0000      -0.585629       -15.9358
  33   2.0000      -0.567597       -15.4451
  34   2.0000      -0.559094       -15.2137
  35   2.0000      -0.556119       -15.1328
  36   2.0000      -0.538013       -14.6401
  37   2.0000      -0.531488       -14.4625
  38   2.0000      -0.518778       -14.1167
  39   2.0000      -0.504456       -13.7269
  40   2.0000      -0.502342       -13.6694
  41   2.0000      -0.494047       -13.4437
  42   2.0000      -0.491483       -13.3739
  43   2.0000      -0.489402       -13.3173
  44   2.0000      -0.451006       -12.2725
  45   0.0000       0.081236         2.2105
  46   0.0000       0.116155         3.1607
  47   0.0000       0.144675         3.9368
  48   0.0000       0.146826         3.9953
  49   0.0000       0.152049         4.1375

MULLIKEN ATOMIC CHARGES
-----------------------
   0 O :   -0.750203
   1 H :    0.346373
   2 H :    0.384620
   3 O :   -0.740639
   4 H :    0.336407
   5 H :    0.371433
   6 O :   -0.753987
   7 H :    0.348500
   8 H :    0.389912
   9 O :   -0.718613
  10 H :    0.369336
  11 H :    0.379226
  12 O :   -0.747861
  13 H :    0.357854
  14 H :    0.351325
  15 O :   -0.714935
  16 H :    0.380022
  17 H :    0.368371
  18 O :   -0.698029
  19 H :    0.394544
  20 H :    0.342312
  21 O :   -0.712904
  22 H :    0.355271
  23 H :    0.382527
  24 O :   -0.714874
  25 H :    0.325656
  26 H :    0.368356
Sum of atomic charges:    0.0000000

LOEWDIN ATOMIC CHARGES
----------------------
   0 O :   -0.313494
   1 H :    0.157248
   2 H :    0.146709
   3 O :   -0.341822
   4 H :    0.153756
   5 H :    0.143342
   6 O :   -0.304238
   7 H :    0.137902
   8 H :    0.156287
   9 O :   -0.274894
  10 H :    0.176425
  11 H :    0.185613
  12 O :   -0.374995
  13 H :    0.142104
  14 H :    0.134961
  15 O :   -0.284644
  16 H :    0.154342
  17 H :    0.150732
  18 O :   -0.274352
  19 H :    0.159643
  20 H :    0.166309
  21 O :   -0.314376
  22 H :    0.165301
  23 H :    0.196226
  24 O :   -0.348959
  25 H :    0.155641
  26 H :    0.149234

  Mayer bond orders larger than 0.100000
B(  0-O ,  1-H ) :   0.8422 B(  0-O ,  2-H ) :   0.7424 B(  3-O ,  4-H ) :   0.8509
B(  3-O ,  5-H ) :   0.7508 B(  5-H , 15-O ) :   0.1107 B(  6-O ,  7-H ) :   0.7877
B(  6-O ,  8-H ) :   0.7836 B(  9-O , 10-H ) :   0.8271 B(  9-O , 11-H ) :   0.8093
B( 12-O , 13-H ) :   0.8247 B( 12-O , 14-H ) :   0.8017 B( 15-O , 16-H ) :   0.8154
B( 15-O , 17-H ) :   0.7995 B( 18-O , 19-H ) :   0.7887 B( 18-O , 20-H ) :   0.8432
B( 21-O , 22-H ) :   0.8400 B( 21-O , 23-H ) :   0.8125 B( 24-O , 25-H ) :   0.8574
B( 24-O , 26-H ) :   0.8023

MP2 TOTAL ENERGY:     -686.912824057 Eh
FINAL SINGLE POINT ENERGY      -686.912824056832

DIPOLE MOMENT
-------------
                                X             Y             Z
Electronic contribution:      0.29320       0.15311      -0.07970
Nuclear contribution   :      0.30796       0.34090      -0.54442
                        -----------------------------------------
Total Dipole Moment    :      0.60116       0.49401      -0.62412
                        -----------------------------------------
Magnitude (a.u.)       :      0.99748
Magnitude (Debye)      :      2.53540

Rotational constants in cm-1:     0.030215     0.014652     0.013245
Rotational constants in MHz :   905.822033   439.253775   397.079809

                             ****ORCA TERMINATED NORMALLY****
TOTAL RUN TIME: 0 days 0 hours 4 minutes 39 seconds 232 msec
