                         Program Version 4.2.0 -  RELEASE  -
|  1> # 12meoh.boyd.etal.mol9,10,11
|  2> ! MP2 def2-TZVP EnGrad TightSCF
|  3>
|  4> %pal
|  5>     nprocs 6
|  6> end
|  7>
|  8> %maxcore 8000
|  9>
| 10> %scf
| 11>     ConvForced true
| 12> end
| 13>
| 14> *xyz 0 1
| 15> O   1.390610024   3.194080770  -1.536658882
| 16> H   2.162932299   2.881562730  -0.993525056
| 17> C   1.202977189   4.580367182  -1.302880219
| 18> H   0.374773115   4.915764831  -1.934164643
| 19> H   2.098649340   5.157710875  -1.570472348
| 20> H   0.950320401   4.800436015  -0.254328827
| 21> O  -5.201143618   0.064582726  -0.172223772
| 22> H  -4.686891530   0.869258890   0.107806143
| 23> C  -6.513192168   0.171391798   0.359883449
| 24> H  -7.049381312  -0.749234190   0.111361174
| 25> H  -7.057741163   1.017801101  -0.081819420
| 26> H  -6.514770575   0.292264928   1.453058834
| 27> O   3.252955559   0.588596242   1.858934315
| 28> H   3.621209177  -0.251605199   1.476063364
| 29> C   4.040824528   0.944288422   2.989639460
| 30> H   3.670521436   1.902573549   3.363847391
| 31> H   5.103749934   1.055868619   2.734277559
| 32> H   3.948540682   0.200279590   3.792908518
| 33> *
| 34>
| 35>                          ****END OF INPUT****

CARTESIAN COORDINATES (ANGSTROEM)
---------------------------------
  O      1.390610    3.194081   -1.536659
  H      2.162932    2.881563   -0.993525
  C      1.202977    4.580367   -1.302880
  H      0.374773    4.915765   -1.934165
  H      2.098649    5.157711   -1.570472
  H      0.950320    4.800436   -0.254329
  O     -5.201144    0.064583   -0.172224
  H     -4.686892    0.869259    0.107806
  C     -6.513192    0.171392    0.359883
  H     -7.049381   -0.749234    0.111361
  H     -7.057741    1.017801   -0.081819
  H     -6.514771    0.292265    1.453059
  O      3.252956    0.588596    1.858934
  H      3.621209   -0.251605    1.476063
  C      4.040825    0.944288    2.989639
  H      3.670521    1.902574    3.363847
  H      5.103750    1.055869    2.734278
  H      3.948541    0.200280    3.792909

 Total Charge           Charge          ....    0
 Multiplicity           Mult            ....    1
 Number of Electrons    NEL             ....   54
 Basis Dimension        Dim             ....  258

ORBITAL ENERGIES
----------------

  NO   OCC          E(Eh)            E(eV)
   0   2.0000     -20.562799      -559.5422
   1   2.0000     -20.553193      -559.2808
   2   2.0000     -20.549236      -559.1732
   3   2.0000     -11.276291      -306.8435
   4   2.0000     -11.267861      -306.6141
   5   2.0000     -11.265682      -306.5548
   6   2.0000      -1.351958       -36.7886
   7   2.0000      -1.343329       -36.5538
   8   2.0000      -1.340149       -36.4673
   9   2.0000      -0.924496       -25.1568
  10   2.0000      -0.915507       -24.9122
  11   2.0000      -0.913195       -24.8493
  12   2.0000      -0.686764       -18.6878
  13   2.0000      -0.678174       -18.4541
  14   2.0000      -0.675347       -18.3771
  15   2.0000      -0.621902       -16.9228
  16   2.0000      -0.613015       -16.6810
  17   2.0000      -0.610435       -16.6108
  18   2.0000      -0.596051       -16.2194
  19   2.0000      -0.587483       -15.9862
  20   2.0000      -0.585343       -15.9280
  21   2.0000      -0.505277       -13.7493
  22   2.0000      -0.495912       -13.4944
  23   2.0000      -0.492433       -13.3998
  24   2.0000      -0.454298       -12.3621
  25   2.0000      -0.444489       -12.0952
  26   2.0000      -0.441235       -12.0066
  27   0.0000       0.123957         3.3730
  28   0.0000       0.139667         3.8005
  29   0.0000       0.149281         4.0621
  30   0.0000       0.169694         4.6176
  31   0.0000       0.179588         4.8868

MULLIKEN ATOMIC CHARGES
-----------------------
   0 O :   -0.499399
   1 H :    0.327552
   2 C :   -0.169831
   3 H :    0.126250
   4 H :    0.106065
   5 H :    0.107385
   6 O :   -0.495055
   7 H :    0.323234
   8 C :   -0.172367
   9 H :    0.128259
  10 H :    0.107923
  11 H :    0.108006
  12 O :   -0.499826
  13 H :    0.324518
  14 C :   -0.174036
  15 H :    0.128525
  16 H :    0.110525
  17 H :    0.112271
Sum of atomic charges:    0.0000000

LOEWDIN ATOMIC CHARGES
----------------------
   0 O :   -0.105573
   1 H :    0.192870
   2 C :   -0.386929
   3 H :    0.109287
   4 H :    0.094232
   5 H :    0.094824
   6 O :   -0.106093
   7 H :    0.191863
   8 C :   -0.385584
   9 H :    0.110059
  10 H :    0.094806
  11 H :    0.094950
  12 O :   -0.110668
  13 H :    0.191403
  14 C :   -0.381593
  15 H :    0.109987
  16 H :    0.095605
  17 H :    0.096555

  Mayer bond orders larger than 0.100000
B(  0-O ,  1-H ) :   0.8369 B(  0-O ,  2-C ) :   0.9329 B(  2-C ,  3-H ) :   0.9379
B(  2-C ,  4-H ) :   0.9404 B(  2-C ,  5-H ) :   0.9373 B(  6-O ,  7-H ) :   0.8410
B(  6-O ,  8-C ) :   0.9297 B(  8-C ,  9-H ) :   0.9378 B(  8-C , 10-H ) :   0.9389
B(  8-C , 11-H ) :   0.9385 B( 12-O , 13-H ) :   0.8404 B( 12-O , 14-C ) :   0.9227
B( 14-C , 15-H ) :   0.9379 B( 14-C , 16-H ) :   0.9385 B( 14-C , 17-H ) :   0.9383

MP2 TOTAL ENERGY:     -346.521171232 Eh
FINAL SINGLE POINT ENERGY      -346.521171231636

DIPOLE MOMENT
-------------
                                X             Y             Z
Electronic contribution:      0.69936      -2.39288      -2.48629
Nuclear contribution   :      0.06448       2.88373       3.55486
                        -----------------------------------------
Total Dipole Moment    :      0.76384       0.49085       1.06857
                        -----------------------------------------
Magnitude (a.u.)       :      1.40222
Magnitude (Debye)      :      3.56417

Rotational constants in cm-1:     0.036610     0.009942     0.008026
Rotational constants in MHz :  1097.528354   298.049733   240.604270

                             ****ORCA TERMINATED NORMALLY****
TOTAL RUN TIME: 0 days 0 hours 1 minutes 0 seconds 603 msec
