                         Program Version 4.2.0 -  RELEASE  -
|  1> # 12h2o.su.etal.mol1,2,3,5,7,9,10,11
|  2> ! MP2 def2-TZVP EnGrad TightSCF
|  3>
|  4> %pal
|  5>     nprocs 6
|  6> end
|  7>
|  8> %maxcore 8000
|  9>
| 10> %scf
| 11>     ConvForced true
| 12> end
| 13>
| 14> *xyz 0 1
| 15> O  -1.794470000  -0.923410000   2.768350000
| 16> H  -2.338250000  -1.359750000   3.430940000
| 17> H  -0.879480000  -1.303000000   2.865760000
| 18> O   0.923410000  -1.794470000  -2.768350000
| 19> H   1.359750000  -2.338250000  -3.430940000
| 20> H   1.303000000  -0.879480000  -2.865760000
| 21> O  -1.752130000  -0.741530000  -2.896280000
| 22> H  -2.036450000  -0.920500000  -1.984040000
| 23> H  -0.921210000  -1.242140000  -2.984230000
| 24> O   0.885520000  -1.737840000   0.052730000
| 25> H   1.284090000  -0.839590000   0.017130000
| 26> H   1.032320000  -2.090180000  -0.841890000
| 27> O  -1.737840000  -0.885520000  -0.052730000
| 28> H  -2.090180000  -1.032320000   0.841890000
| 29> H  -0.839590000  -1.284090000  -0.017130000
| 30> O   0.741530000  -1.752130000   2.896280000
| 31> H   0.920500000  -2.036450000   1.984040000
| 32> H   1.242140000  -0.921210000   2.984230000
| 33> O  -0.923410000   1.794470000  -2.768350000
| 34> H  -1.359750000   2.338250000  -3.430940000
| 35> H  -1.303000000   0.879480000  -2.865760000
| 36> O  -0.741530000   1.752130000   2.896280000
| 37> H  -0.920500000   2.036450000   1.984040000
| 38> H  -1.242140000   0.921210000   2.984230000
| 39> *
| 40>
| 41>                          ****END OF INPUT****

CARTESIAN COORDINATES (ANGSTROEM)
---------------------------------
  O     -1.794470   -0.923410    2.768350
  H     -2.338250   -1.359750    3.430940
  H     -0.879480   -1.303000    2.865760
  O      0.923410   -1.794470   -2.768350
  H      1.359750   -2.338250   -3.430940
  H      1.303000   -0.879480   -2.865760
  O     -1.752130   -0.741530   -2.896280
  H     -2.036450   -0.920500   -1.984040
  H     -0.921210   -1.242140   -2.984230
  O      0.885520   -1.737840    0.052730
  H      1.284090   -0.839590    0.017130
  H      1.032320   -2.090180   -0.841890
  O     -1.737840   -0.885520   -0.052730
  H     -2.090180   -1.032320    0.841890
  H     -0.839590   -1.284090   -0.017130
  O      0.741530   -1.752130    2.896280
  H      0.920500   -2.036450    1.984040
  H      1.242140   -0.921210    2.984230
  O     -0.923410    1.794470   -2.768350
  H     -1.359750    2.338250   -3.430940
  H     -1.303000    0.879480   -2.865760
  O     -0.741530    1.752130    2.896280
  H     -0.920500    2.036450    1.984040
  H     -1.242140    0.921210    2.984230

 Total Charge           Charge          ....    0
 Multiplicity           Mult            ....    1
 Number of Electrons    NEL             ....   80
 Basis Dimension        Dim             ....  344

ORBITAL ENERGIES
----------------

  NO   OCC          E(Eh)            E(eV)
   0   2.0000     -20.632931      -561.4506
   1   2.0000     -20.609968      -560.8257
   2   2.0000     -20.586110      -560.1765
   3   2.0000     -20.560768      -559.4869
   4   2.0000     -20.540697      -558.9408
   5   2.0000     -20.527245      -558.5747
   6   2.0000     -20.524791      -558.5080
   7   2.0000     -20.507284      -558.0316
   8   2.0000      -1.414376       -38.4871
   9   2.0000      -1.395612       -37.9765
  10   2.0000      -1.375296       -37.4237
  11   2.0000      -1.346295       -36.6346
  12   2.0000      -1.334743       -36.3202
  13   2.0000      -1.311724       -35.6938
  14   2.0000      -1.306857       -35.5614
  15   2.0000      -1.288569       -35.0637
  16   2.0000      -0.779234       -21.2040
  17   2.0000      -0.760823       -20.7030
  18   2.0000      -0.734329       -19.9821
  19   2.0000      -0.727880       -19.8066
  20   2.0000      -0.704826       -19.1793
  21   2.0000      -0.694409       -18.8958
  22   2.0000      -0.676645       -18.4125
  23   2.0000      -0.674993       -18.3675
  24   2.0000      -0.661256       -17.9937
  25   2.0000      -0.637491       -17.3470
  26   2.0000      -0.613157       -16.6849
  27   2.0000      -0.600311       -16.3353
  28   2.0000      -0.589954       -16.0535
  29   2.0000      -0.566663       -15.4197
  30   2.0000      -0.562798       -15.3145
  31   2.0000      -0.547966       -14.9109
  32   2.0000      -0.535916       -14.5830
  33   2.0000      -0.527103       -14.3432
  34   2.0000      -0.522688       -14.2231
  35   2.0000      -0.503516       -13.7014
  36   2.0000      -0.482477       -13.1289
  37   2.0000      -0.476514       -12.9666
  38   2.0000      -0.472654       -12.8616
  39   2.0000      -0.458087       -12.4652
  40   0.0000       0.077155         2.0995
  41   0.0000       0.112345         3.0570
  42   0.0000       0.144883         3.9425
  43   0.0000       0.158820         4.3217
  44   0.0000       0.176165         4.7937

MULLIKEN ATOMIC CHARGES
-----------------------
   0 O :   -0.749143
   1 H :    0.347471
   2 H :    0.384365
   3 O :   -0.725240
   4 H :    0.371934
   5 H :    0.380188
   6 O :   -0.716246
   7 H :    0.389753
   8 H :    0.351409
   9 O :   -0.725511
  10 H :    0.358244
  11 H :    0.391535
  12 O :   -0.741326
  13 H :    0.370208
  14 H :    0.340966
  15 O :   -0.700248
  16 H :    0.387742
  17 H :    0.358034
  18 O :   -0.746135
  19 H :    0.322310
  20 H :    0.370350
  21 O :   -0.720874
  22 H :    0.339542
  23 H :    0.360675
Sum of atomic charges:    0.0000000

LOEWDIN ATOMIC CHARGES
----------------------
   0 O :   -0.312639
   1 H :    0.157957
   2 H :    0.146602
   3 O :   -0.287899
   4 H :    0.171749
   5 H :    0.195929
   6 O :   -0.288831
   7 H :    0.158378
   8 H :    0.143203
   9 O :   -0.284166
  10 H :    0.178968
  11 H :    0.158217
  12 O :   -0.345325
  13 H :    0.148894
  14 H :    0.136140
  15 O :   -0.273641
  16 H :    0.157830
  17 H :    0.174161
  18 O :   -0.380295
  19 H :    0.146779
  20 H :    0.141510
  21 O :   -0.352918
  22 H :    0.163645
  23 H :    0.145751

  Mayer bond orders larger than 0.100000
B(  0-O ,  1-H ) :   0.8420 B(  0-O ,  2-H ) :   0.7445 B(  3-O ,  4-H ) :   0.8279
B(  3-O ,  5-H ) :   0.8121 B(  6-O ,  7-H ) :   0.7923 B(  6-O ,  8-H ) :   0.8271
B(  6-O , 20-H ) :   0.1038 B(  9-O , 10-H ) :   0.8303 B(  9-O , 11-H ) :   0.7925
B( 12-O , 13-H ) :   0.8100 B( 12-O , 14-H ) :   0.8009 B( 15-O , 16-H ) :   0.8024
B( 15-O , 17-H ) :   0.8333 B( 18-O , 19-H ) :   0.8621 B( 18-O , 20-H ) :   0.7678
B( 21-O , 22-H ) :   0.8507 B( 21-O , 23-H ) :   0.8134

MP2 TOTAL ENERGY:     -610.581197218 Eh
FINAL SINGLE POINT ENERGY      -610.581197217655

DIPOLE MOMENT
-------------
                                X             Y             Z
Electronic contribution:      0.20310      -0.54010       0.22693
Nuclear contribution   :      1.67229      -1.24435      -1.31870
                        -----------------------------------------
Total Dipole Moment    :      1.87539      -1.78445      -1.09177
                        -----------------------------------------
Magnitude (a.u.)       :      2.80951
Magnitude (Debye)      :      7.14120

Rotational constants in cm-1:     0.035562     0.016804     0.013891
Rotational constants in MHz :  1066.124082   503.766728   416.438672

                             ****ORCA TERMINATED NORMALLY****
TOTAL RUN TIME: 0 days 0 hours 3 minutes 56 seconds 559 msec
