                         Program Version 4.2.0 -  RELEASE  -
|  1> # 12mecn.remya.etal.2.mol1,6,8
|  2> ! MP2 def2-TZVP EnGrad TightSCF
|  3>
|  4> %pal
|  5>     nprocs 6
|  6> end
|  7>
|  8> %maxcore 8000
|  9>
| 10> %scf
| 11>     ConvForced true
| 12> end
| 13>
| 14> *xyz 0 1
| 15> C  -4.697980000  -0.249690000   1.746215000
| 16> H  -4.927570000   0.755530000   2.111799000
| 17> H  -3.709180000  -0.561560000   2.093253000
| 18> H  -5.432280000  -0.961520000   2.128066000
| 19> C  -4.714100000  -0.247110000   0.301670000
| 20> N  -4.729750000  -0.234960000  -0.865260000
| 21> C   5.300864000  -2.920090000   1.401103000
| 22> H   5.986071000  -2.139770000   1.737487000
| 23> H   5.636642000  -3.888750000   1.778233000
| 24> H   4.307359000  -2.697240000   1.799307000
| 25> C   5.234791000  -2.933140000  -0.043290000
| 26> N   5.170868000  -2.941760000  -1.207750000
| 27> C   1.912641000  -2.468050000  -1.750510000
| 28> H   2.876947000  -2.793500000  -2.151200000
| 29> H   1.688016000  -1.463720000  -2.122170000
| 30> H   1.123460000  -3.154780000  -2.069590000
| 31> C   1.977850000  -2.444240000  -0.306900000
| 32> N   2.036566000  -2.426130000   0.858249000
| 33> *
| 34>
| 35>                          ****END OF INPUT****

CARTESIAN COORDINATES (ANGSTROEM)
---------------------------------
  C     -4.697980   -0.249690    1.746215
  H     -4.927570    0.755530    2.111799
  H     -3.709180   -0.561560    2.093253
  H     -5.432280   -0.961520    2.128066
  C     -4.714100   -0.247110    0.301670
  N     -4.729750   -0.234960   -0.865260
  C      5.300864   -2.920090    1.401103
  H      5.986071   -2.139770    1.737487
  H      5.636642   -3.888750    1.778233
  H      4.307359   -2.697240    1.799307
  C      5.234791   -2.933140   -0.043290
  N      5.170868   -2.941760   -1.207750
  C      1.912641   -2.468050   -1.750510
  H      2.876947   -2.793500   -2.151200
  H      1.688016   -1.463720   -2.122170
  H      1.123460   -3.154780   -2.069590
  C      1.977850   -2.444240   -0.306900
  N      2.036566   -2.426130    0.858249

 Total Charge           Charge          ....    0
 Multiplicity           Mult            ....    1
 Number of Electrons    NEL             ....   66
 Basis Dimension        Dim             ....  333

ORBITAL ENERGIES
----------------

  NO   OCC          E(Eh)            E(eV)
   0   2.0000     -15.573054      -423.7643
   1   2.0000     -15.571374      -423.7186
   2   2.0000     -15.570928      -423.7065
   3   2.0000     -11.284051      -307.0546
   4   2.0000     -11.283290      -307.0339
   5   2.0000     -11.283224      -307.0321
   6   2.0000     -11.280262      -306.9515
   7   2.0000     -11.271607      -306.7160
   8   2.0000     -11.270286      -306.6801
   9   2.0000      -1.218444       -33.1556
  10   2.0000      -1.214346       -33.0440
  11   2.0000      -1.214208       -33.0403
  12   2.0000      -1.043609       -28.3980
  13   2.0000      -1.036067       -28.1928
  14   2.0000      -1.032899       -28.1066
  15   2.0000      -0.699573       -19.0363
  16   2.0000      -0.695414       -18.9232
  17   2.0000      -0.690021       -18.7764
  18   2.0000      -0.633449       -17.2370
  19   2.0000      -0.630346       -17.1526
  20   2.0000      -0.629237       -17.1224
  21   2.0000      -0.623319       -16.9614
  22   2.0000      -0.620087       -16.8734
  23   2.0000      -0.613235       -16.6870
  24   2.0000      -0.559414       -15.2224
  25   2.0000      -0.556116       -15.1327
  26   2.0000      -0.555968       -15.1287
  27   2.0000      -0.460605       -12.5337
  28   2.0000      -0.458728       -12.4826
  29   2.0000      -0.457693       -12.4544
  30   2.0000      -0.457153       -12.4398
  31   2.0000      -0.457078       -12.4377
  32   2.0000      -0.456163       -12.4128
  33   0.0000       0.119885         3.2622
  34   0.0000       0.129236         3.5167
  35   0.0000       0.143566         3.9066
  36   0.0000       0.169380         4.6091
  37   0.0000       0.171638         4.6705

MULLIKEN ATOMIC CHARGES
-----------------------
   0 C :   -0.279447
   1 H :    0.171929
   2 H :    0.175526
   3 H :    0.171753
   4 C :   -0.145370
   5 N :   -0.094396
   6 C :   -0.287178
   7 H :    0.166034
   8 H :    0.166389
   9 H :    0.205823
  10 C :   -0.101610
  11 N :   -0.149807
  12 C :   -0.283651
  13 H :    0.205420
  14 H :    0.168273
  15 H :    0.168084
  16 C :   -0.101751
  17 N :   -0.156021
Sum of atomic charges:    0.0000000

LOEWDIN ATOMIC CHARGES
----------------------
   0 C :   -0.283361
   1 H :    0.153015
   2 H :    0.153940
   3 H :    0.151636
   4 C :   -0.219396
   5 N :    0.044165
   6 C :   -0.282514
   7 H :    0.150658
   8 H :    0.150902
   9 H :    0.157066
  10 C :   -0.206743
  11 N :    0.030667
  12 C :   -0.281445
  13 H :    0.156973
  14 H :    0.153690
  15 H :    0.151858
  16 C :   -0.207208
  17 N :    0.026097

  Mayer bond orders larger than 0.100000
B(  0-C ,  1-H ) :   0.9158 B(  0-C ,  2-H ) :   0.9157 B(  0-C ,  3-H ) :   0.9169
B(  0-C ,  4-C ) :   0.9016 B(  4-C ,  5-N ) :   2.8382 B(  6-C ,  7-H ) :   0.9161
B(  6-C ,  8-H ) :   0.9148 B(  6-C ,  9-H ) :   0.9014 B(  6-C , 10-C ) :   0.9028
B( 10-C , 11-N ) :   2.7705 B( 12-C , 13-H ) :   0.9012 B( 12-C , 14-H ) :   0.9138
B( 12-C , 15-H ) :   0.9152 B( 12-C , 16-C ) :   0.9020 B( 16-C , 17-N ) :   2.7720

MP2 TOTAL ENERGY:     -397.459962961 Eh
FINAL SINGLE POINT ENERGY      -397.459962961024

DIPOLE MOMENT
-------------
                                X             Y             Z
Electronic contribution:     -0.03365       0.01843      -3.14052
Nuclear contribution   :      0.05273      -0.03736       4.65956
                        -----------------------------------------
Total Dipole Moment    :      0.01908      -0.01893       1.51904
                        -----------------------------------------
Magnitude (a.u.)       :      1.51928
Magnitude (Debye)      :      3.86170

Rotational constants in cm-1:     0.093540     0.007344     0.006854
Rotational constants in MHz :  2804.259844   220.153743   205.492121

                             ****ORCA TERMINATED NORMALLY****
TOTAL RUN TIME: 0 days 0 hours 2 minutes 30 seconds 219 msec
