                         Program Version 3.0.3 - RELEASE   -
|  1> ! B3LYP Def2-TZVP def2-TZVP/J RIJCOSX TightSCF Grid4 D3BJ COSMO
|  2>
|  3> %pal nprocs 12 end
|  4>
|  5> %scf
|  6>         maxiter 400
|  7> end
|  8>
|  9> %cosmo
| 10>         SMD true
| 11>         solvent "WATER"
| 12> end
| 13>
| 14> * xyz  0  1
| 15> O  1.247123	-1.368774	0.353058
| 16> H  0.918425	-2.260883	0.122043
| 17> H  0.488328	-0.983997	0.909437
| 18> O  -1.110486	1.493781	-0.263157
| 19> H  -1.980379	1.260014	-0.644597
| 20> H  -0.460540	1.012745	-0.879644
| 21> O  0.557216	0.076609	-1.765081
| 22> H  1.321498	0.659720	-1.945808
| 23> H  0.891972	-0.505437	-1.001609
| 24> O  -0.703903	-0.207311	1.735478
| 25> H  -0.927803	0.474197	1.014997
| 26> H  -0.199912	0.320394	2.386968
| 27> **                         ****END OF INPUT****

CARTESIAN COORDINATES (ANGSTROEM)
---------------------------------
  O      1.247123   -1.368774    0.353058
  H      0.918425   -2.260883    0.122043
  H      0.488328   -0.983997    0.909437
  O     -1.110486    1.493781   -0.263157
  H     -1.980379    1.260014   -0.644597
  H     -0.460540    1.012745   -0.879644
  O      0.557216    0.076609   -1.765081
  H      1.321498    0.659720   -1.945808
  H      0.891972   -0.505437   -1.001609
  O     -0.703903   -0.207311    1.735478
  H     -0.927803    0.474197    1.014997
  H     -0.199912    0.320394    2.386968

 Total Charge           Charge          ....    0
 Multiplicity           Mult            ....    1
 Number of Electrons    NEL             ....   40
 Basis Dimension        Dim             ....  172

ORBITAL ENERGIES
----------------

  NO   OCC          E(Eh)            E(eV)
   0   2.0000     -19.124819      -520.4128
   1   2.0000     -19.124772      -520.4115
   2   2.0000     -19.124700      -520.4095
   3   2.0000     -19.124171      -520.3952
   4   2.0000      -1.020780       -27.7768
   5   2.0000      -1.001103       -27.2414
   6   2.0000      -1.000988       -27.2383
   7   2.0000      -0.981673       -26.7127
   8   2.0000      -0.526421       -14.3246
   9   2.0000      -0.516457       -14.0535
  10   2.0000      -0.514874       -14.0104
  11   2.0000      -0.513935       -13.9849
  12   2.0000      -0.435865       -11.8605
  13   2.0000      -0.404329       -11.0024
  14   2.0000      -0.403433       -10.9780
  15   2.0000      -0.378022       -10.2865
  16   2.0000      -0.320293        -8.7156
  17   2.0000      -0.319407        -8.6915
  18   2.0000      -0.316406        -8.6098
  19   2.0000      -0.315315        -8.5802
  20   0.0000       0.023302         0.6341
  21   0.0000       0.068726         1.8701
  22   0.0000       0.068815         1.8726
  23   0.0000       0.092513         2.5174
  24   0.0000       0.193549         5.2667

MULLIKEN ATOMIC CHARGES
-----------------------
   0 O :   -0.746843
   1 H :    0.381725
   2 H :    0.364638
   3 O :   -0.748264
   4 H :    0.381044
   5 H :    0.365790
   6 O :   -0.746478
   7 H :    0.381457
   8 H :    0.364777
   9 O :   -0.747903
  10 H :    0.368326
  11 H :    0.381732
Sum of atomic charges:   -0.0000000

LOEWDIN ATOMIC CHARGES
----------------------
   0 O :   -0.332453
   1 H :    0.184609
   2 H :    0.147404
   3 O :   -0.332587
   4 H :    0.184284
   5 H :    0.147251
   6 O :   -0.331044
   7 H :    0.184474
   8 H :    0.147715
   9 O :   -0.331838
  10 H :    0.147759
  11 H :    0.184427

  Mayer bond orders larger than 0.1
B(  0-O ,  1-H ) :   0.8595 B(  0-O ,  2-H ) :   0.7596 B(  0-O ,  8-H ) :   0.1672
B(  2-H ,  9-O ) :   0.1666 B(  3-O ,  4-H ) :   0.8602 B(  3-O ,  5-H ) :   0.7568
B(  3-O , 10-H ) :   0.1667 B(  5-H ,  6-O ) :   0.1708 B(  6-O ,  7-H ) :   0.8594
B(  6-O ,  8-H ) :   0.7590 B(  9-O , 10-H ) :   0.7578 B(  9-O , 11-H ) :   0.8597

Dispersion correction           -0.008340046
FINAL SINGLE POINT ENERGY      -305.779204733095

DIPOLE MOMENT
-------------
                                X             Y             Z
Electronic contribution:      0.00107      -0.00130       0.00027
Nuclear contribution   :      0.05967      -0.00987      -0.13219
                        -----------------------------------------
Total Dipole Moment    :      0.06074      -0.01117      -0.13192
                        -----------------------------------------
Magnitude (a.u.)       :      0.14566
Magnitude (Debye)      :      0.37023

                             ****ORCA TERMINATED NORMALLY****
TOTAL RUN TIME: 0 days 0 hours 0 minutes 53 seconds 408 msec
