                         Program Version 3.0.3 - RELEASE   -
|  1> ! wB97X-D3 MA-Def2-TZVP def2-TZVP/J RIJCOSX TightSCF Grid4
|  2>
|  3> %pal nprocs 1 end
|  4>
|  5> %scf
|  6>         maxiter 400
|  7> end
|  8>
|  9> %cosmo
| 10>         SMD true
| 11>         solvent "WATER"
| 12> end
| 13>
| 14> * xyz  0  1
| 15> O  1.247123	-1.368774	0.353058
| 16> H  0.918425	-2.260883	0.122043
| 17> H  0.488328	-0.983997	0.909437
| 18> O  -1.110486	1.493781	-0.263157
| 19> H  -1.980379	1.260014	-0.644597
| 20> H  -0.460540	1.012745	-0.879644
| 21> O  0.557216	0.076609	-1.765081
| 22> H  1.321498	0.659720	-1.945808
| 23> H  0.891972	-0.505437	-1.001609
| 24> O  -0.703903	-0.207311	1.735478
| 25> H  -0.927803	0.474197	1.014997
| 26> H  -0.199912	0.320394	2.386968
| 27> **                         ****END OF INPUT****

CARTESIAN COORDINATES (ANGSTROEM)
---------------------------------
  O      1.247123   -1.368774    0.353058
  H      0.918425   -2.260883    0.122043
  H      0.488328   -0.983997    0.909437
  O     -1.110486    1.493781   -0.263157
  H     -1.980379    1.260014   -0.644597
  H     -0.460540    1.012745   -0.879644
  O      0.557216    0.076609   -1.765081
  H      1.321498    0.659720   -1.945808
  H      0.891972   -0.505437   -1.001609
  O     -0.703903   -0.207311    1.735478
  H     -0.927803    0.474197    1.014997
  H     -0.199912    0.320394    2.386968

 Total Charge           Charge          ....    0
 Multiplicity           Mult            ....    1
 Number of Electrons    NEL             ....   40
 Basis Dimension        Dim             ....  188

ORBITAL ENERGIES
----------------

  NO   OCC          E(Eh)            E(eV)
   0   2.0000     -19.235873      -523.4347
   1   2.0000     -19.235839      -523.4338
   2   2.0000     -19.235769      -523.4319
   3   2.0000     -19.235228      -523.4172
   4   2.0000      -1.139337       -31.0029
   5   2.0000      -1.119095       -30.4521
   6   2.0000      -1.118971       -30.4487
   7   2.0000      -1.099202       -29.9108
   8   2.0000      -0.632325       -17.2064
   9   2.0000      -0.621517       -16.9123
  10   2.0000      -0.619918       -16.8688
  11   2.0000      -0.619278       -16.8514
  12   2.0000      -0.541600       -14.7377
  13   2.0000      -0.508616       -13.8401
  14   2.0000      -0.507695       -13.8151
  15   2.0000      -0.481682       -13.1072
  16   2.0000      -0.421406       -11.4670
  17   2.0000      -0.420520       -11.4429
  18   2.0000      -0.416772       -11.3409
  19   2.0000      -0.416449       -11.3321
  20   0.0000       0.073564         2.0018
  21   0.0000       0.112230         3.0539
  22   0.0000       0.112476         3.0606
  23   0.0000       0.128503         3.4968
  24   0.0000       0.144520         3.9326

MULLIKEN ATOMIC CHARGES
-----------------------
   0 O :   -0.797154
   1 H :    0.411453
   2 H :    0.386217
   3 O :   -0.801216
   4 H :    0.410628
   5 H :    0.389824
   6 O :   -0.800536
   7 H :    0.410224
   8 H :    0.388568
   9 O :   -0.804553
  10 H :    0.394204
  11 H :    0.412342
Sum of atomic charges:   -0.0000000

LOEWDIN ATOMIC CHARGES
----------------------
   0 O :   -0.410414
   1 H :    0.216824
   2 H :    0.193320
   3 O :   -0.411277
   4 H :    0.216710
   5 H :    0.193568
   6 O :   -0.409306
   7 H :    0.216612
   8 H :    0.193686
   9 O :   -0.410635
  10 H :    0.194005
  11 H :    0.216908

  Mayer bond orders larger than 0.1
B(  0-O ,  1-H ) :   0.8490 B(  0-O ,  2-H ) :   0.7732 B(  0-O ,  8-H ) :   0.1158
B(  2-H ,  9-O ) :   0.1150 B(  3-O ,  4-H ) :   0.8489 B(  3-O ,  5-H ) :   0.7672
B(  3-O , 10-H ) :   0.1132 B(  5-H ,  6-O ) :   0.1201 B(  6-O ,  7-H ) :   0.8486
B(  6-O ,  8-H ) :   0.7710 B(  9-O , 10-H ) :   0.7690 B(  9-O , 11-H ) :   0.8489

Dispersion correction           -0.003102284
FINAL SINGLE POINT ENERGY      -305.827966108363

DIPOLE MOMENT
-------------
                                X             Y             Z
Electronic contribution:      0.00294      -0.00173      -0.00415
Nuclear contribution   :      0.05967      -0.00987      -0.13219
                        -----------------------------------------
Total Dipole Moment    :      0.06261      -0.01160      -0.13634
                        -----------------------------------------
Magnitude (a.u.)       :      0.15048
Magnitude (Debye)      :      0.38248

                             ****ORCA TERMINATED NORMALLY****
TOTAL RUN TIME: 0 days 0 hours 1 minutes 33 seconds 847 msec
