                         Program Version 3.0.3 - RELEASE   -
|  1> ! B3LYP Def2-TZVP def2-TZVP/J RIJCOSX TightSCF Grid4 D3BJ
|  2>
|  3> %pal nprocs 12 end
|  4>
|  5> %scf
|  6>         maxiter 400
|  7> end
|  8>
|  9> * xyz  0  1
| 10> O  1.193840	-1.405299	0.303535
| 11> H  0.931398	-2.326670	0.171088
| 12> H  0.487996	-1.031228	0.898777
| 13> O  -1.172771	1.453159	-0.259000
| 14> H  -2.011338	1.211346	-0.677342
| 15> H  -0.490458	1.093952	-0.887884
| 16> O  0.603253	0.157796	-1.778521
| 17> H  1.406183	0.632912	-2.030125
| 18> H  0.901719	-0.479489	-1.074138
| 19> O  -0.665675	-0.176646	1.793117
| 20> H  -0.928522	0.487544	1.098441
| 21> H  -0.214087	0.353681	2.464138
| 22> **                         ****END OF INPUT****

CARTESIAN COORDINATES (ANGSTROEM)
---------------------------------
  O      1.193840   -1.405299    0.303535
  H      0.931398   -2.326670    0.171088
  H      0.487996   -1.031228    0.898777
  O     -1.172771    1.453159   -0.259000
  H     -2.011338    1.211346   -0.677342
  H     -0.490458    1.093952   -0.887884
  O      0.603253    0.157796   -1.778521
  H      1.406183    0.632912   -2.030125
  H      0.901719   -0.479489   -1.074138
  O     -0.665675   -0.176646    1.793117
  H     -0.928522    0.487544    1.098441
  H     -0.214087    0.353681    2.464138

 Total Charge           Charge          ....    0
 Multiplicity           Mult            ....    1
 Number of Electrons    NEL             ....   40
 Basis Dimension        Dim             ....  172

ORBITAL ENERGIES
----------------

  NO   OCC          E(Eh)            E(eV)
   0   2.0000     -19.125335      -520.4268
   1   2.0000     -19.124683      -520.4091
   2   2.0000     -19.124576      -520.4062
   3   2.0000     -19.123755      -520.3838
   4   2.0000      -1.025106       -27.8946
   5   2.0000      -1.008119       -27.4323
   6   2.0000      -1.007405       -27.4129
   7   2.0000      -0.990799       -26.9610
   8   2.0000      -0.539566       -14.6823
   9   2.0000      -0.527900       -14.3649
  10   2.0000      -0.526317       -14.3218
  11   2.0000      -0.521622       -14.1941
  12   2.0000      -0.435838       -11.8598
  13   2.0000      -0.400417       -10.8959
  14   2.0000      -0.399588       -10.8733
  15   2.0000      -0.367301        -9.9948
  16   2.0000      -0.320495        -8.7211
  17   2.0000      -0.318777        -8.6744
  18   2.0000      -0.317842        -8.6489
  19   2.0000      -0.313855        -8.5404
  20   0.0000       0.009213         0.2507
  21   0.0000       0.047000         1.2789
  22   0.0000       0.047436         1.2908
  23   0.0000       0.066148         1.8000
  24   0.0000       0.178334         4.8527

MULLIKEN ATOMIC CHARGES
-----------------------
   0 O :   -0.681313
   1 H :    0.325039
   2 H :    0.353736
   3 O :   -0.679519
   4 H :    0.326143
   5 H :    0.356123
   6 O :   -0.683536
   7 H :    0.324379
   8 H :    0.355222
   9 O :   -0.680793
  10 H :    0.358616
  11 H :    0.325903
Sum of atomic charges:   -0.0000000

LOEWDIN ATOMIC CHARGES
----------------------
   0 O :   -0.296319
   1 H :    0.156732
   2 H :    0.139481
   3 O :   -0.293817
   4 H :    0.158144
   5 H :    0.139485
   6 O :   -0.297986
   7 H :    0.156116
   8 H :    0.138620
   9 O :   -0.296424
  10 H :    0.138909
  11 H :    0.157059

  Mayer bond orders larger than 0.1
B(  0-O ,  1-H ) :   0.8989 B(  0-O ,  2-H ) :   0.7839 B(  0-O ,  8-H ) :   0.1462
B(  2-H ,  9-O ) :   0.1467 B(  3-O ,  4-H ) :   0.8995 B(  3-O ,  5-H ) :   0.7871
B(  3-O , 10-H ) :   0.1435 B(  5-H ,  6-O ) :   0.1459 B(  6-O ,  7-H ) :   0.8994
B(  6-O ,  8-H ) :   0.7842 B(  9-O , 10-H ) :   0.7846 B(  9-O , 11-H ) :   0.8989

Dispersion correction           -0.008078275
FINAL SINGLE POINT ENERGY      -305.758616009215

DIPOLE MOMENT
-------------
                                X             Y             Z
Electronic contribution:     -0.02712       0.02024       0.02816
Nuclear contribution   :      0.13784      -0.09653      -0.12927
                        -----------------------------------------
Total Dipole Moment    :      0.11072      -0.07629      -0.10111
                        -----------------------------------------
Magnitude (a.u.)       :      0.16823
Magnitude (Debye)      :      0.42762

                             ****ORCA TERMINATED NORMALLY****
TOTAL RUN TIME: 0 days 0 hours 0 minutes 51 seconds 207 msec
