                         Program Version 4.2.0 -  RELEASE  -
|  1> # 12h2o.su.etal.mol2,4,6,7,8,10
|  2> ! MP2 def2-TZVP EnGrad TightSCF
|  3>
|  4> %pal
|  5>     nprocs 6
|  6> end
|  7>
|  8> %maxcore 8000
|  9>
| 10> %scf
| 11>     ConvForced true
| 12> end
| 13>
| 14> *xyz 0 1
| 15> O   0.923410000  -1.794470000  -2.768350000
| 16> H   1.359750000  -2.338250000  -3.430940000
| 17> H   1.303000000  -0.879480000  -2.865760000
| 18> O  -0.885520000   1.737840000   0.052730000
| 19> H  -1.032320000   2.090180000  -0.841890000
| 20> H  -1.284090000   0.839590000   0.017130000
| 21> O   1.737840000   0.885520000  -0.052730000
| 22> H   2.090180000   1.032320000   0.841890000
| 23> H   0.839590000   1.284090000  -0.017130000
| 24> O  -1.737840000  -0.885520000  -0.052730000
| 25> H  -2.090180000  -1.032320000   0.841890000
| 26> H  -0.839590000  -1.284090000  -0.017130000
| 27> O   1.752130000   0.741530000  -2.896280000
| 28> H   2.036450000   0.920500000  -1.984040000
| 29> H   0.921210000   1.242140000  -2.984230000
| 30> O  -0.923410000   1.794470000  -2.768350000
| 31> H  -1.359750000   2.338250000  -3.430940000
| 32> H  -1.303000000   0.879480000  -2.865760000
| 33> *
| 34>
| 35>                          ****END OF INPUT****

CARTESIAN COORDINATES (ANGSTROEM)
---------------------------------
  O      0.923410   -1.794470   -2.768350
  H      1.359750   -2.338250   -3.430940
  H      1.303000   -0.879480   -2.865760
  O     -0.885520    1.737840    0.052730
  H     -1.032320    2.090180   -0.841890
  H     -1.284090    0.839590    0.017130
  O      1.737840    0.885520   -0.052730
  H      2.090180    1.032320    0.841890
  H      0.839590    1.284090   -0.017130
  O     -1.737840   -0.885520   -0.052730
  H     -2.090180   -1.032320    0.841890
  H     -0.839590   -1.284090   -0.017130
  O      1.752130    0.741530   -2.896280
  H      2.036450    0.920500   -1.984040
  H      0.921210    1.242140   -2.984230
  O     -0.923410    1.794470   -2.768350
  H     -1.359750    2.338250   -3.430940
  H     -1.303000    0.879480   -2.865760

 Total Charge           Charge          ....    0
 Multiplicity           Mult            ....    1
 Number of Electrons    NEL             ....   60
 Basis Dimension        Dim             ....  258

ORBITAL ENERGIES
----------------

  NO   OCC          E(Eh)            E(eV)
   0   2.0000     -20.610734      -560.8466
   1   2.0000     -20.592889      -560.3610
   2   2.0000     -20.543719      -559.0230
   3   2.0000     -20.542512      -558.9902
   4   2.0000     -20.537308      -558.8486
   5   2.0000     -20.507446      -558.0360
   6   2.0000      -1.391312       -37.8595
   7   2.0000      -1.374052       -37.3898
   8   2.0000      -1.338021       -36.4094
   9   2.0000      -1.330635       -36.2084
  10   2.0000      -1.318710       -35.8839
  11   2.0000      -1.288487       -35.0615
  12   2.0000      -0.756566       -20.5872
  13   2.0000      -0.730648       -19.8819
  14   2.0000      -0.708237       -19.2721
  15   2.0000      -0.702351       -19.1119
  16   2.0000      -0.692420       -18.8417
  17   2.0000      -0.674378       -18.3507
  18   2.0000      -0.636953       -17.3324
  19   2.0000      -0.613914       -16.7054
  20   2.0000      -0.592230       -16.1154
  21   2.0000      -0.585593       -15.9348
  22   2.0000      -0.557945       -15.1825
  23   2.0000      -0.545067       -14.8320
  24   2.0000      -0.526830       -14.3358
  25   2.0000      -0.523973       -14.2580
  26   2.0000      -0.495134       -13.4733
  27   2.0000      -0.488025       -13.2798
  28   2.0000      -0.476914       -12.9775
  29   2.0000      -0.458351       -12.4724
  30   0.0000       0.099112         2.6970
  31   0.0000       0.125246         3.4081
  32   0.0000       0.156941         4.2706
  33   0.0000       0.170648         4.6436
  34   0.0000       0.196622         5.3504

MULLIKEN ATOMIC CHARGES
-----------------------
   0 O :   -0.745501
   1 H :    0.321979
   2 H :    0.370991
   3 O :   -0.723987
   4 H :    0.371776
   5 H :    0.355389
   6 O :   -0.733206
   7 H :    0.336603
   8 H :    0.357431
   9 O :   -0.695372
  10 H :    0.354928
  11 H :    0.379450
  12 O :   -0.717946
  13 H :    0.386563
  14 H :    0.356863
  15 O :   -0.724187
  16 H :    0.364393
  17 H :    0.383834
Sum of atomic charges:   -0.0000000

LOEWDIN ATOMIC CHARGES
----------------------
   0 O :   -0.379803
   1 H :    0.147050
   2 H :    0.142005
   3 O :   -0.316296
   4 H :    0.147431
   5 H :    0.139721
   6 O :   -0.344895
   7 H :    0.162703
   8 H :    0.142418
   9 O :   -0.291527
  10 H :    0.172467
  11 H :    0.187348
  12 O :   -0.288730
  13 H :    0.158324
  14 H :    0.145563
  15 O :   -0.288481
  16 H :    0.168122
  17 H :    0.196579

  Mayer bond orders larger than 0.100000
B(  0-O ,  1-H ) :   0.8620 B(  0-O ,  2-H ) :   0.7649 B(  2-H , 12-O ) :   0.1061
B(  3-O ,  4-H ) :   0.8155 B(  3-O ,  5-H ) :   0.7870 B(  3-O ,  8-H ) :   0.1112
B(  6-O ,  7-H ) :   0.8505 B(  6-O ,  8-H ) :   0.7651 B(  9-O , 10-H ) :   0.8390
B(  9-O , 11-H ) :   0.8154 B( 12-O , 13-H ) :   0.7986 B( 12-O , 14-H ) :   0.8194
B( 15-O , 16-H ) :   0.8319 B( 15-O , 17-H ) :   0.8096

MP2 TOTAL ENERGY:     -457.934838498 Eh
FINAL SINGLE POINT ENERGY      -457.934838498312

DIPOLE MOMENT
-------------
                                X             Y             Z
Electronic contribution:     -0.24928       0.19278      -0.00832
Nuclear contribution   :     -0.90891       0.11126       0.19520
                        -----------------------------------------
Total Dipole Moment    :     -1.15819       0.30405       0.18688
                        -----------------------------------------
Magnitude (a.u.)       :      1.21193
Magnitude (Debye)      :      3.08048

Rotational constants in cm-1:     0.050966     0.038685     0.035538
Rotational constants in MHz :  1527.916857  1159.739875  1065.390447

                             ****ORCA TERMINATED NORMALLY****
TOTAL RUN TIME: 0 days 0 hours 1 minutes 16 seconds 5 msec
