                         Program Version 4.2.0 -  RELEASE  -
|  1> # 12mecn.remya.etal.2.mol0,4,5
|  2> ! MP2 def2-TZVP EnGrad TightSCF
|  3>
|  4> %pal
|  5>     nprocs 6
|  6> end
|  7>
|  8> %maxcore 8000
|  9>
| 10> %scf
| 11>     ConvForced true
| 12> end
| 13>
| 14> *xyz 0 1
| 15> C  -0.869520000  -3.929380000   1.700199000
| 16> H  -0.057420000  -3.268850000   2.015352000
| 17> H  -0.697530000  -4.930670000   2.101524000
| 18> H  -1.821490000  -3.546590000   2.077146000
| 19> C  -0.916080000  -3.969960000   0.256749000
| 20> N  -0.955390000  -3.995980000  -0.909290000
| 21> C  -1.509690000  -0.693960000  -1.610140000
| 22> H  -1.327010000  -1.692700000  -2.017370000
| 23> H  -0.742170000  -0.000650000  -1.964400000
| 24> H  -2.491920000  -0.334310000  -1.929350000
| 25> C  -1.473570000  -0.748120000  -0.167200000
| 26> N  -1.447490000  -0.793720000   0.998938000
| 27> C  -1.955700000   2.515080000   1.698463000
| 28> H  -2.923830000   2.883163000   2.049269000
| 29> H  -1.154850000   3.171830000   2.050990000
| 30> H  -1.790380000   1.506115000   2.087896000
| 31> C  -1.948230000   2.482156000   0.253672000
| 32> N  -1.937550000   2.462523000  -0.913150000
| 33> *
| 34>
| 35>                          ****END OF INPUT****

CARTESIAN COORDINATES (ANGSTROEM)
---------------------------------
  C     -0.869520   -3.929380    1.700199
  H     -0.057420   -3.268850    2.015352
  H     -0.697530   -4.930670    2.101524
  H     -1.821490   -3.546590    2.077146
  C     -0.916080   -3.969960    0.256749
  N     -0.955390   -3.995980   -0.909290
  C     -1.509690   -0.693960   -1.610140
  H     -1.327010   -1.692700   -2.017370
  H     -0.742170   -0.000650   -1.964400
  H     -2.491920   -0.334310   -1.929350
  C     -1.473570   -0.748120   -0.167200
  N     -1.447490   -0.793720    0.998938
  C     -1.955700    2.515080    1.698463
  H     -2.923830    2.883163    2.049269
  H     -1.154850    3.171830    2.050990
  H     -1.790380    1.506115    2.087896
  C     -1.948230    2.482156    0.253672
  N     -1.937550    2.462523   -0.913150

 Total Charge           Charge          ....    0
 Multiplicity           Mult            ....    1
 Number of Electrons    NEL             ....   66
 Basis Dimension        Dim             ....  333

ORBITAL ENERGIES
----------------

  NO   OCC          E(Eh)            E(eV)
   0   2.0000     -15.571122      -423.7118
   1   2.0000     -15.569366      -423.6640
   2   2.0000     -15.568262      -423.6339
   3   2.0000     -11.284399      -307.0641
   4   2.0000     -11.282028      -306.9996
   5   2.0000     -11.280940      -306.9700
   6   2.0000     -11.274183      -306.7861
   7   2.0000     -11.273485      -306.7671
   8   2.0000     -11.260786      -306.4216
   9   2.0000      -1.218255       -33.1504
  10   2.0000      -1.214608       -33.0512
  11   2.0000      -1.212041       -32.9813
  12   2.0000      -1.036620       -28.2079
  13   2.0000      -1.035539       -28.1784
  14   2.0000      -1.026542       -27.9336
  15   2.0000      -0.693952       -18.8834
  16   2.0000      -0.692881       -18.8543
  17   2.0000      -0.683771       -18.6064
  18   2.0000      -0.629810       -17.1380
  19   2.0000      -0.625330       -17.0161
  20   2.0000      -0.622893       -16.9498
  21   2.0000      -0.622256       -16.9325
  22   2.0000      -0.611759       -16.6468
  23   2.0000      -0.608400       -16.5554
  24   2.0000      -0.560104       -15.2412
  25   2.0000      -0.555880       -15.1263
  26   2.0000      -0.554458       -15.0876
  27   2.0000      -0.462459       -12.5841
  28   2.0000      -0.458282       -12.4705
  29   2.0000      -0.458171       -12.4675
  30   2.0000      -0.457271       -12.4430
  31   2.0000      -0.455693       -12.4000
  32   2.0000      -0.449691       -12.2367
  33   0.0000       0.124475         3.3871
  34   0.0000       0.136109         3.7037
  35   0.0000       0.156566         4.2604
  36   0.0000       0.173728         4.7274
  37   0.0000       0.175984         4.7888

MULLIKEN ATOMIC CHARGES
-----------------------
   0 C :   -0.254651
   1 H :    0.173658
   2 H :    0.171871
   3 H :    0.175152
   4 C :   -0.123875
   5 N :   -0.141285
   6 C :   -0.262881
   7 H :    0.206347
   8 H :    0.174158
   9 H :    0.170070
  10 C :   -0.081109
  11 N :   -0.206877
  12 C :   -0.286983
  13 H :    0.166693
  14 H :    0.166891
  15 H :    0.200619
  16 C :   -0.115706
  17 N :   -0.132091
Sum of atomic charges:    0.0000000

LOEWDIN ATOMIC CHARGES
----------------------
   0 C :   -0.285041
   1 H :    0.155818
   2 H :    0.148843
   3 H :    0.156063
   4 C :   -0.211337
   5 N :    0.032022
   6 C :   -0.281326
   7 H :    0.155092
   8 H :    0.156121
   9 H :    0.156267
  10 C :   -0.202243
  11 N :    0.017163
  12 C :   -0.283016
  13 H :    0.151723
  14 H :    0.151953
  15 H :    0.155559
  16 C :   -0.211277
  17 N :    0.037618

  Mayer bond orders larger than 0.100000
B(  0-C ,  1-H ) :   0.9135 B(  0-C ,  2-H ) :   0.9105 B(  0-C ,  3-H ) :   0.9130
B(  0-C ,  4-C ) :   0.9121 B(  4-C ,  5-N ) :   2.7806 B(  6-C ,  7-H ) :   0.8952
B(  6-C ,  8-H ) :   0.9106 B(  6-C ,  9-H ) :   0.9113 B(  6-C , 10-C ) :   0.9111
B( 10-C , 11-N ) :   2.7224 B( 12-C , 13-H ) :   0.9158 B( 12-C , 14-H ) :   0.9159
B( 12-C , 15-H ) :   0.9052 B( 12-C , 16-C ) :   0.8983 B( 16-C , 17-N ) :   2.7952

MP2 TOTAL ENERGY:     -397.467683963 Eh
FINAL SINGLE POINT ENERGY      -397.467683962644

DIPOLE MOMENT
-------------
                                X             Y             Z
Electronic contribution:     -0.00156      -0.29394      -3.16731
Nuclear contribution   :      0.00611       0.41219       4.65191
                        -----------------------------------------
Total Dipole Moment    :      0.00455       0.11824       1.48460
                        -----------------------------------------
Magnitude (a.u.)       :      1.48931
Magnitude (Debye)      :      3.78553

Rotational constants in cm-1:     0.094340     0.019025     0.015980
Rotational constants in MHz :  2828.251568   570.370134   479.060808

                             ****ORCA TERMINATED NORMALLY****
TOTAL RUN TIME: 0 days 0 hours 4 minutes 8 seconds 930 msec
