                         Program Version 4.2.0 -  RELEASE  -
|  1> # 12h2o.su.etal.mol1,2,4,5,9
|  2> ! MP2 def2-TZVP EnGrad TightSCF
|  3>
|  4> %pal
|  5>     nprocs 6
|  6> end
|  7>
|  8> %maxcore 8000
|  9>
| 10> %scf
| 11>     ConvForced true
| 12> end
| 13>
| 14> *xyz 0 1
| 15> O  -1.794470000  -0.923410000   2.768350000
| 16> H  -2.338250000  -1.359750000   3.430940000
| 17> H  -0.879480000  -1.303000000   2.865760000
| 18> O   0.923410000  -1.794470000  -2.768350000
| 19> H   1.359750000  -2.338250000  -3.430940000
| 20> H   1.303000000  -0.879480000  -2.865760000
| 21> O  -0.885520000   1.737840000   0.052730000
| 22> H  -1.032320000   2.090180000  -0.841890000
| 23> H  -1.284090000   0.839590000   0.017130000
| 24> O   0.885520000  -1.737840000   0.052730000
| 25> H   1.284090000  -0.839590000   0.017130000
| 26> H   1.032320000  -2.090180000  -0.841890000
| 27> O   0.741530000  -1.752130000   2.896280000
| 28> H   0.920500000  -2.036450000   1.984040000
| 29> H   1.242140000  -0.921210000   2.984230000
| 30> *
| 31>
| 32>                          ****END OF INPUT****

CARTESIAN COORDINATES (ANGSTROEM)
---------------------------------
  O     -1.794470   -0.923410    2.768350
  H     -2.338250   -1.359750    3.430940
  H     -0.879480   -1.303000    2.865760
  O      0.923410   -1.794470   -2.768350
  H      1.359750   -2.338250   -3.430940
  H      1.303000   -0.879480   -2.865760
  O     -0.885520    1.737840    0.052730
  H     -1.032320    2.090180   -0.841890
  H     -1.284090    0.839590    0.017130
  O      0.885520   -1.737840    0.052730
  H      1.284090   -0.839590    0.017130
  H      1.032320   -2.090180   -0.841890
  O      0.741530   -1.752130    2.896280
  H      0.920500   -2.036450    1.984040
  H      1.242140   -0.921210    2.984230

 Total Charge           Charge          ....    0
 Multiplicity           Mult            ....    1
 Number of Electrons    NEL             ....   50
 Basis Dimension        Dim             ....  215

ORBITAL ENERGIES
----------------

  NO   OCC          E(Eh)            E(eV)
   0   2.0000     -20.605060      -560.6922
   1   2.0000     -20.565653      -559.6199
   2   2.0000     -20.557600      -559.4007
   3   2.0000     -20.553125      -559.2790
   4   2.0000     -20.498678      -557.7974
   5   2.0000      -1.383069       -37.6352
   6   2.0000      -1.351413       -36.7738
   7   2.0000      -1.340845       -36.4862
   8   2.0000      -1.329024       -36.1646
   9   2.0000      -1.280683       -34.8492
  10   2.0000      -0.749938       -20.4068
  11   2.0000      -0.719494       -19.5784
  12   2.0000      -0.702642       -19.1199
  13   2.0000      -0.690311       -18.7843
  14   2.0000      -0.668820       -18.1995
  15   2.0000      -0.623896       -16.9771
  16   2.0000      -0.600066       -16.3286
  17   2.0000      -0.574594       -15.6355
  18   2.0000      -0.568601       -15.4724
  19   2.0000      -0.543594       -14.7920
  20   2.0000      -0.529412       -14.4060
  21   2.0000      -0.512454       -13.9446
  22   2.0000      -0.495942       -13.4953
  23   2.0000      -0.486097       -13.2274
  24   2.0000      -0.449099       -12.2206
  25   0.0000       0.086172         2.3449
  26   0.0000       0.128603         3.4995
  27   0.0000       0.148055         4.0288
  28   0.0000       0.169139         4.6025
  29   0.0000       0.188230         5.1220

MULLIKEN ATOMIC CHARGES
-----------------------
   0 O :   -0.733113
   1 H :    0.318337
   2 H :    0.369817
   3 O :   -0.692734
   4 H :    0.355660
   5 H :    0.352261
   6 O :   -0.686263
   7 H :    0.326042
   8 H :    0.358765
   9 O :   -0.710127
  10 H :    0.331147
  11 H :    0.377653
  12 O :   -0.695584
  13 H :    0.385906
  14 H :    0.342232
Sum of atomic charges:    0.0000000

LOEWDIN ATOMIC CHARGES
----------------------
   0 O :   -0.373467
   1 H :    0.145677
   2 H :    0.142934
   3 O :   -0.309175
   4 H :    0.165229
   5 H :    0.184757
   6 O :   -0.339583
   7 H :    0.159989
   8 H :    0.178200
   9 O :   -0.323639
  10 H :    0.166049
  11 H :    0.154923
  12 O :   -0.278947
  13 H :    0.158616
  14 H :    0.168437

  Mayer bond orders larger than 0.100000
B(  0-O ,  1-H ) :   0.8639 B(  0-O ,  2-H ) :   0.7790 B(  3-O ,  4-H ) :   0.8399
B(  3-O ,  5-H ) :   0.8359 B(  6-O ,  7-H ) :   0.8582 B(  6-O ,  8-H ) :   0.8322
B(  9-O , 10-H ) :   0.8460 B(  9-O , 11-H ) :   0.8057 B( 12-O , 13-H ) :   0.7983
B( 12-O , 14-H ) :   0.8465

MP2 TOTAL ENERGY:     -381.589553275 Eh
FINAL SINGLE POINT ENERGY      -381.589553274571

DIPOLE MOMENT
-------------
                                X             Y             Z
Electronic contribution:      0.02381      -0.19059      -0.04149
Nuclear contribution   :      1.55378       0.08480      -2.23466
                        -----------------------------------------
Total Dipole Moment    :      1.57759      -0.10579      -2.27616
                        -----------------------------------------
Magnitude (a.u.)       :      2.77144
Magnitude (Debye)      :      7.04443

Rotational constants in cm-1:     0.067925     0.035397     0.026038
Rotational constants in MHz :  2036.353661  1061.186268   780.610917

                             ****ORCA TERMINATED NORMALLY****
TOTAL RUN TIME: 0 days 0 hours 0 minutes 39 seconds 435 msec
