                         Program Version 4.2.0 -  RELEASE  -
|  1> # 12h2o.su.etal.mol0,2,3,6,8,10
|  2> ! MP2 def2-TZVP EnGrad TightSCF
|  3>
|  4> %pal
|  5>     nprocs 6
|  6> end
|  7>
|  8> %maxcore 8000
|  9>
| 10> %scf
| 11>     ConvForced true
| 12> end
| 13>
| 14> *xyz 0 1
| 15> O   1.794470000   0.923410000   2.768350000
| 16> H   2.338250000   1.359750000   3.430940000
| 17> H   0.879480000   1.303000000   2.865760000
| 18> O   0.923410000  -1.794470000  -2.768350000
| 19> H   1.359750000  -2.338250000  -3.430940000
| 20> H   1.303000000  -0.879480000  -2.865760000
| 21> O  -1.752130000  -0.741530000  -2.896280000
| 22> H  -2.036450000  -0.920500000  -1.984040000
| 23> H  -0.921210000  -1.242140000  -2.984230000
| 24> O   1.737840000   0.885520000  -0.052730000
| 25> H   2.090180000   1.032320000   0.841890000
| 26> H   0.839590000   1.284090000  -0.017130000
| 27> O   1.752130000   0.741530000  -2.896280000
| 28> H   2.036450000   0.920500000  -1.984040000
| 29> H   0.921210000   1.242140000  -2.984230000
| 30> O  -0.923410000   1.794470000  -2.768350000
| 31> H  -1.359750000   2.338250000  -3.430940000
| 32> H  -1.303000000   0.879480000  -2.865760000
| 33> *
| 34>
| 35>                          ****END OF INPUT****

CARTESIAN COORDINATES (ANGSTROEM)
---------------------------------
  O      1.794470    0.923410    2.768350
  H      2.338250    1.359750    3.430940
  H      0.879480    1.303000    2.865760
  O      0.923410   -1.794470   -2.768350
  H      1.359750   -2.338250   -3.430940
  H      1.303000   -0.879480   -2.865760
  O     -1.752130   -0.741530   -2.896280
  H     -2.036450   -0.920500   -1.984040
  H     -0.921210   -1.242140   -2.984230
  O      1.737840    0.885520   -0.052730
  H      2.090180    1.032320    0.841890
  H      0.839590    1.284090   -0.017130
  O      1.752130    0.741530   -2.896280
  H      2.036450    0.920500   -1.984040
  H      0.921210    1.242140   -2.984230
  O     -0.923410    1.794470   -2.768350
  H     -1.359750    2.338250   -3.430940
  H     -1.303000    0.879480   -2.865760

 Total Charge           Charge          ....    0
 Multiplicity           Mult            ....    1
 Number of Electrons    NEL             ....   60
 Basis Dimension        Dim             ....  258

ORBITAL ENERGIES
----------------

  NO   OCC          E(Eh)            E(eV)
   0   2.0000     -20.597947      -560.4986
   1   2.0000     -20.562051      -559.5218
   2   2.0000     -20.553214      -559.2814
   3   2.0000     -20.542195      -558.9815
   4   2.0000     -20.530490      -558.6630
   5   2.0000     -20.528561      -558.6106
   6   2.0000      -1.375871       -37.4394
   7   2.0000      -1.354481       -36.8573
   8   2.0000      -1.336501       -36.3680
   9   2.0000      -1.327152       -36.1136
  10   2.0000      -1.322354       -35.9831
  11   2.0000      -1.305145       -35.5148
  12   2.0000      -0.742774       -20.2119
  13   2.0000      -0.713654       -19.4195
  14   2.0000      -0.709338       -19.3021
  15   2.0000      -0.705128       -19.1875
  16   2.0000      -0.690862       -18.7993
  17   2.0000      -0.684291       -18.6205
  18   2.0000      -0.615780       -16.7562
  19   2.0000      -0.609101       -16.5745
  20   2.0000      -0.586094       -15.9484
  21   2.0000      -0.569195       -15.4886
  22   2.0000      -0.566032       -15.4025
  23   2.0000      -0.540705       -14.7133
  24   2.0000      -0.530025       -14.4227
  25   2.0000      -0.502685       -13.6787
  26   2.0000      -0.499739       -13.5986
  27   2.0000      -0.491112       -13.3638
  28   2.0000      -0.479324       -13.0431
  29   2.0000      -0.475582       -12.9412
  30   0.0000       0.096994         2.6393
  31   0.0000       0.129177         3.5151
  32   0.0000       0.164439         4.4746
  33   0.0000       0.167646         4.5619
  34   0.0000       0.176492         4.8026

MULLIKEN ATOMIC CHARGES
-----------------------
   0 O :   -0.690529
   1 H :    0.353452
   2 H :    0.351629
   3 O :   -0.743851
   4 H :    0.334689
   5 H :    0.384908
   6 O :   -0.708887
   7 H :    0.349749
   8 H :    0.379481
   9 O :   -0.710052
  10 H :    0.374169
  11 H :    0.333601
  12 O :   -0.728827
  13 H :    0.384974
  14 H :    0.363105
  15 O :   -0.745342
  16 H :    0.339523
  17 H :    0.378207
Sum of atomic charges:    0.0000000

LOEWDIN ATOMIC CHARGES
----------------------
   0 O :   -0.308642
   1 H :    0.164190
   2 H :    0.184532
   3 O :   -0.341954
   4 H :    0.152592
   5 H :    0.146171
   6 O :   -0.285467
   7 H :    0.169359
   8 H :    0.155050
   9 O :   -0.325188
  10 H :    0.153502
  11 H :    0.168071
  12 O :   -0.291808
  13 H :    0.156587
  14 H :    0.147697
  15 O :   -0.344168
  16 H :    0.154777
  17 H :    0.144701

  Mayer bond orders larger than 0.100000
B(  0-O ,  1-H ) :   0.8411 B(  0-O ,  2-H ) :   0.8366 B(  3-O ,  4-H ) :   0.8517
B(  3-O ,  5-H ) :   0.7392 B(  5-H , 12-O ) :   0.1172 B(  6-O ,  7-H ) :   0.8427
B(  6-O ,  8-H ) :   0.7759 B(  6-O , 17-H ) :   0.1102 B(  9-O , 10-H ) :   0.8090
B(  9-O , 11-H ) :   0.8465 B( 12-O , 13-H ) :   0.8018 B( 12-O , 14-H ) :   0.7982
B( 15-O , 16-H ) :   0.8495 B( 15-O , 17-H ) :   0.7491

MP2 TOTAL ENERGY:     -457.937721711 Eh
FINAL SINGLE POINT ENERGY      -457.937721710718

DIPOLE MOMENT
-------------
                                X             Y             Z
Electronic contribution:      0.23456      -0.19550       0.16150
Nuclear contribution   :     -0.76337       1.13309       1.51390
                        -----------------------------------------
Total Dipole Moment    :     -0.52881       0.93760       1.67540
                        -----------------------------------------
Magnitude (a.u.)       :      1.99140
Magnitude (Debye)      :      5.06174

Rotational constants in cm-1:     0.062459     0.023132     0.021955
Rotational constants in MHz :  1872.484243   693.467414   658.184124

                             ****ORCA TERMINATED NORMALLY****
TOTAL RUN TIME: 0 days 0 hours 1 minutes 4 seconds 610 msec
