                         Program Version 4.2.0 -  RELEASE  -
|  1> # 12h2o.su.etal.mol0,3,7,8
|  2> ! MP2 def2-TZVP EnGrad TightSCF
|  3>
|  4> %pal
|  5>     nprocs 6
|  6> end
|  7>
|  8> %maxcore 8000
|  9>
| 10> %scf
| 11>     ConvForced true
| 12> end
| 13>
| 14> *xyz 0 1
| 15> O   1.794470000   0.923410000   2.768350000
| 16> H   2.338250000   1.359750000   3.430940000
| 17> H   0.879480000   1.303000000   2.865760000
| 18> O  -1.752130000  -0.741530000  -2.896280000
| 19> H  -2.036450000  -0.920500000  -1.984040000
| 20> H  -0.921210000  -1.242140000  -2.984230000
| 21> O  -1.737840000  -0.885520000  -0.052730000
| 22> H  -2.090180000  -1.032320000   0.841890000
| 23> H  -0.839590000  -1.284090000  -0.017130000
| 24> O   1.752130000   0.741530000  -2.896280000
| 25> H   2.036450000   0.920500000  -1.984040000
| 26> H   0.921210000   1.242140000  -2.984230000
| 27> *
| 28>
| 29>                          ****END OF INPUT****

CARTESIAN COORDINATES (ANGSTROEM)
---------------------------------
  O      1.794470    0.923410    2.768350
  H      2.338250    1.359750    3.430940
  H      0.879480    1.303000    2.865760
  O     -1.752130   -0.741530   -2.896280
  H     -2.036450   -0.920500   -1.984040
  H     -0.921210   -1.242140   -2.984230
  O     -1.737840   -0.885520   -0.052730
  H     -2.090180   -1.032320    0.841890
  H     -0.839590   -1.284090   -0.017130
  O      1.752130    0.741530   -2.896280
  H      2.036450    0.920500   -1.984040
  H      0.921210    1.242140   -2.984230

 Total Charge           Charge          ....    0
 Multiplicity           Mult            ....    1
 Number of Electrons    NEL             ....   40
 Basis Dimension        Dim             ....  172

ORBITAL ENERGIES
----------------

  NO   OCC          E(Eh)            E(eV)
   0   2.0000     -20.591667      -560.3278
   1   2.0000     -20.576364      -559.9113
   2   2.0000     -20.555192      -559.3352
   3   2.0000     -20.530686      -558.6684
   4   2.0000      -1.370022       -37.2802
   5   2.0000      -1.351685       -36.7812
   6   2.0000      -1.334401       -36.3109
   7   2.0000      -1.312430       -35.7130
   8   2.0000      -0.732523       -19.9330
   9   2.0000      -0.720176       -19.5970
  10   2.0000      -0.697020       -18.9669
  11   2.0000      -0.682133       -18.5618
  12   2.0000      -0.610397       -16.6097
  13   2.0000      -0.588044       -16.0015
  14   2.0000      -0.572413       -15.5761
  15   2.0000      -0.551168       -14.9980
  16   2.0000      -0.532075       -14.4785
  17   2.0000      -0.519663       -14.1408
  18   2.0000      -0.499951       -13.6044
  19   2.0000      -0.476651       -12.9703
  20   0.0000       0.090521         2.4632
  21   0.0000       0.122055         3.3213
  22   0.0000       0.138429         3.7668
  23   0.0000       0.175889         4.7862
  24   0.0000       0.189387         5.1535

MULLIKEN ATOMIC CHARGES
-----------------------
   0 O :   -0.686714
   1 H :    0.343916
   2 H :    0.342751
   3 O :   -0.699646
   4 H :    0.368072
   5 H :    0.326870
   6 O :   -0.692378
   7 H :    0.349080
   8 H :    0.348974
   9 O :   -0.685395
  10 H :    0.336698
  11 H :    0.347772
Sum of atomic charges:   -0.0000000

LOEWDIN ATOMIC CHARGES
----------------------
   0 O :   -0.340881
   1 H :    0.160162
   2 H :    0.180636
   3 O :   -0.339591
   4 H :    0.152274
   5 H :    0.159026
   6 O :   -0.318589
   7 H :    0.170551
   8 H :    0.176884
   9 O :   -0.334296
  10 H :    0.164769
  11 H :    0.169054

  Mayer bond orders larger than 0.100000
B(  0-O ,  1-H ) :   0.8505 B(  0-O ,  2-H ) :   0.8454 B(  3-O ,  4-H ) :   0.8225
B(  3-O ,  5-H ) :   0.8559 B(  6-O ,  7-H ) :   0.8429 B(  6-O ,  8-H ) :   0.8394
B(  9-O , 10-H ) :   0.8531 B(  9-O , 11-H ) :   0.8428

MP2 TOTAL ENERGY:     -305.260719056 Eh
FINAL SINGLE POINT ENERGY      -305.260719056451

DIPOLE MOMENT
-------------
                                X             Y             Z
Electronic contribution:     -0.04506      -0.01114      -0.26367
Nuclear contribution   :      0.14541       0.22520       2.77909
                        -----------------------------------------
Total Dipole Moment    :      0.10036       0.21406       2.51541
                        -----------------------------------------
Magnitude (a.u.)       :      2.52650
Magnitude (Debye)      :      6.42185

Rotational constants in cm-1:     0.077726     0.036618     0.025086
Rotational constants in MHz :  2330.168711  1097.778533   752.052590

                             ****ORCA TERMINATED NORMALLY****
TOTAL RUN TIME: 0 days 0 hours 0 minutes 14 seconds 138 msec
