                         Program Version 4.2.0 -  RELEASE  -
|  1> # 12h2o.su.etal.mol0,1,3,4,5,8,11
|  2> ! MP2 def2-TZVP EnGrad TightSCF
|  3>
|  4> %pal
|  5>     nprocs 6
|  6> end
|  7>
|  8> %maxcore 8000
|  9>
| 10> %scf
| 11>     ConvForced true
| 12> end
| 13>
| 14> *xyz 0 1
| 15> O   1.794470000   0.923410000   2.768350000
| 16> H   2.338250000   1.359750000   3.430940000
| 17> H   0.879480000   1.303000000   2.865760000
| 18> O  -1.794470000  -0.923410000   2.768350000
| 19> H  -2.338250000  -1.359750000   3.430940000
| 20> H  -0.879480000  -1.303000000   2.865760000
| 21> O  -1.752130000  -0.741530000  -2.896280000
| 22> H  -2.036450000  -0.920500000  -1.984040000
| 23> H  -0.921210000  -1.242140000  -2.984230000
| 24> O  -0.885520000   1.737840000   0.052730000
| 25> H  -1.032320000   2.090180000  -0.841890000
| 26> H  -1.284090000   0.839590000   0.017130000
| 27> O   0.885520000  -1.737840000   0.052730000
| 28> H   1.284090000  -0.839590000   0.017130000
| 29> H   1.032320000  -2.090180000  -0.841890000
| 30> O   1.752130000   0.741530000  -2.896280000
| 31> H   2.036450000   0.920500000  -1.984040000
| 32> H   0.921210000   1.242140000  -2.984230000
| 33> O  -0.741530000   1.752130000   2.896280000
| 34> H  -0.920500000   2.036450000   1.984040000
| 35> H  -1.242140000   0.921210000   2.984230000
| 36> *
| 37>
| 38>                          ****END OF INPUT****

CARTESIAN COORDINATES (ANGSTROEM)
---------------------------------
  O      1.794470    0.923410    2.768350
  H      2.338250    1.359750    3.430940
  H      0.879480    1.303000    2.865760
  O     -1.794470   -0.923410    2.768350
  H     -2.338250   -1.359750    3.430940
  H     -0.879480   -1.303000    2.865760
  O     -1.752130   -0.741530   -2.896280
  H     -2.036450   -0.920500   -1.984040
  H     -0.921210   -1.242140   -2.984230
  O     -0.885520    1.737840    0.052730
  H     -1.032320    2.090180   -0.841890
  H     -1.284090    0.839590    0.017130
  O      0.885520   -1.737840    0.052730
  H      1.284090   -0.839590    0.017130
  H      1.032320   -2.090180   -0.841890
  O      1.752130    0.741530   -2.896280
  H      2.036450    0.920500   -1.984040
  H      0.921210    1.242140   -2.984230
  O     -0.741530    1.752130    2.896280
  H     -0.920500    2.036450    1.984040
  H     -1.242140    0.921210    2.984230

 Total Charge           Charge          ....    0
 Multiplicity           Mult            ....    1
 Number of Electrons    NEL             ....   70
 Basis Dimension        Dim             ....  301

ORBITAL ENERGIES
----------------

  NO   OCC          E(Eh)            E(eV)
   0   2.0000     -20.596151      -560.4498
   1   2.0000     -20.590916      -560.3073
   2   2.0000     -20.580192      -560.0155
   3   2.0000     -20.576555      -559.9165
   4   2.0000     -20.571485      -559.7786
   5   2.0000     -20.544221      -559.0367
   6   2.0000     -20.511053      -558.1341
   7   2.0000      -1.374754       -37.4089
   8   2.0000      -1.368835       -37.2479
   9   2.0000      -1.359129       -36.9838
  10   2.0000      -1.355455       -36.8838
  11   2.0000      -1.347126       -36.6572
  12   2.0000      -1.335741       -36.3474
  13   2.0000      -1.292304       -35.1654
  14   2.0000      -0.737254       -20.0617
  15   2.0000      -0.735983       -20.0271
  16   2.0000      -0.722134       -19.6503
  17   2.0000      -0.717775       -19.5317
  18   2.0000      -0.708577       -19.2814
  19   2.0000      -0.702320       -19.1111
  20   2.0000      -0.678471       -18.4621
  21   2.0000      -0.624606       -16.9964
  22   2.0000      -0.605036       -16.4639
  23   2.0000      -0.596871       -16.2417
  24   2.0000      -0.593313       -16.1449
  25   2.0000      -0.587240       -15.9796
  26   2.0000      -0.574480       -15.6324
  27   2.0000      -0.541894       -14.7457
  28   2.0000      -0.538619       -14.6566
  29   2.0000      -0.526522       -14.3274
  30   2.0000      -0.525123       -14.2893
  31   2.0000      -0.518589       -14.1115
  32   2.0000      -0.513708       -13.9787
  33   2.0000      -0.483358       -13.1528
  34   2.0000      -0.462019       -12.5722
  35   0.0000       0.070583         1.9207
  36   0.0000       0.115718         3.1489
  37   0.0000       0.125242         3.4080
  38   0.0000       0.130640         3.5549
  39   0.0000       0.160338         4.3630

MULLIKEN ATOMIC CHARGES
-----------------------
   0 O :   -0.743667
   1 H :    0.322592
   2 H :    0.369167
   3 O :   -0.711389
   4 H :    0.354473
   5 H :    0.379111
   6 O :   -0.678113
   7 H :    0.335190
   8 H :    0.344103
   9 O :   -0.698102
  10 H :    0.348761
  11 H :    0.352589
  12 O :   -0.684427
  13 H :    0.350626
  14 H :    0.332703
  15 O :   -0.677794
  16 H :    0.339624
  17 H :    0.339457
  18 O :   -0.715913
  19 H :    0.380433
  20 H :    0.360578
Sum of atomic charges:   -0.0000000

LOEWDIN ATOMIC CHARGES
----------------------
   0 O :   -0.378991
   1 H :    0.147383
   2 H :    0.141660
   3 O :   -0.314668
   4 H :    0.164651
   5 H :    0.194696
   6 O :   -0.328173
   7 H :    0.161887
   8 H :    0.166949
   9 O :   -0.314326
  10 H :    0.168360
  11 H :    0.174285
  12 O :   -0.335046
  13 H :    0.173238
  14 H :    0.161373
  15 O :   -0.327933
  16 H :    0.163953
  17 H :    0.164856
  18 O :   -0.287870
  19 H :    0.155941
  20 H :    0.147776

  Mayer bond orders larger than 0.100000
B(  0-O ,  1-H ) :   0.8616 B(  0-O ,  2-H ) :   0.7673 B(  2-H , 18-O ) :   0.1045
B(  3-O ,  4-H ) :   0.8406 B(  3-O ,  5-H ) :   0.8153 B(  6-O ,  7-H ) :   0.8520
B(  6-O ,  8-H ) :   0.8447 B(  9-O , 10-H ) :   0.8415 B(  9-O , 11-H ) :   0.8314
B( 12-O , 13-H ) :   0.8359 B( 12-O , 14-H ) :   0.8531 B( 15-O , 16-H ) :   0.8492
B( 15-O , 17-H ) :   0.8479 B( 18-O , 19-H ) :   0.8114 B( 18-O , 20-H ) :   0.8088

MP2 TOTAL ENERGY:     -534.228824373 Eh
FINAL SINGLE POINT ENERGY      -534.228824373178

DIPOLE MOMENT
-------------
                                X             Y             Z
Electronic contribution:     -0.27106      -0.02098      -0.20562
Nuclear contribution   :     -0.56566      -0.45497       0.40274
                        -----------------------------------------
Total Dipole Moment    :     -0.83672      -0.47595       0.19712
                        -----------------------------------------
Magnitude (a.u.)       :      0.98259
Magnitude (Debye)      :      2.49755

Rotational constants in cm-1:     0.036548     0.018667     0.016827
Rotational constants in MHz :  1095.678990   559.618055   504.471093

                             ****ORCA TERMINATED NORMALLY****
TOTAL RUN TIME: 0 days 0 hours 1 minutes 41 seconds 497 msec
