                         Program Version 4.2.0 -  RELEASE  -
|  1> # 12h2o.su.etal.mol1,3,4,5,6
|  2> ! MP2 def2-TZVP EnGrad TightSCF
|  3>
|  4> %pal
|  5>     nprocs 6
|  6> end
|  7>
|  8> %maxcore 8000
|  9>
| 10> %scf
| 11>     ConvForced true
| 12> end
| 13>
| 14> *xyz 0 1
| 15> O  -1.794470000  -0.923410000   2.768350000
| 16> H  -2.338250000  -1.359750000   3.430940000
| 17> H  -0.879480000  -1.303000000   2.865760000
| 18> O  -1.752130000  -0.741530000  -2.896280000
| 19> H  -2.036450000  -0.920500000  -1.984040000
| 20> H  -0.921210000  -1.242140000  -2.984230000
| 21> O  -0.885520000   1.737840000   0.052730000
| 22> H  -1.032320000   2.090180000  -0.841890000
| 23> H  -1.284090000   0.839590000   0.017130000
| 24> O   0.885520000  -1.737840000   0.052730000
| 25> H   1.284090000  -0.839590000   0.017130000
| 26> H   1.032320000  -2.090180000  -0.841890000
| 27> O   1.737840000   0.885520000  -0.052730000
| 28> H   2.090180000   1.032320000   0.841890000
| 29> H   0.839590000   1.284090000  -0.017130000
| 30> *
| 31>
| 32>                          ****END OF INPUT****

CARTESIAN COORDINATES (ANGSTROEM)
---------------------------------
  O     -1.794470   -0.923410    2.768350
  H     -2.338250   -1.359750    3.430940
  H     -0.879480   -1.303000    2.865760
  O     -1.752130   -0.741530   -2.896280
  H     -2.036450   -0.920500   -1.984040
  H     -0.921210   -1.242140   -2.984230
  O     -0.885520    1.737840    0.052730
  H     -1.032320    2.090180   -0.841890
  H     -1.284090    0.839590    0.017130
  O      0.885520   -1.737840    0.052730
  H      1.284090   -0.839590    0.017130
  H      1.032320   -2.090180   -0.841890
  O      1.737840    0.885520   -0.052730
  H      2.090180    1.032320    0.841890
  H      0.839590    1.284090   -0.017130

 Total Charge           Charge          ....    0
 Multiplicity           Mult            ....    1
 Number of Electrons    NEL             ....   50
 Basis Dimension        Dim             ....  215

ORBITAL ENERGIES
----------------

  NO   OCC          E(Eh)            E(eV)
   0   2.0000     -20.592214      -560.3426
   1   2.0000     -20.572828      -559.8151
   2   2.0000     -20.561963      -559.5195
   3   2.0000     -20.561844      -559.5162
   4   2.0000     -20.538541      -558.8821
   5   2.0000      -1.374079       -37.3906
   6   2.0000      -1.351770       -36.7835
   7   2.0000      -1.347238       -36.6602
   8   2.0000      -1.337177       -36.3864
   9   2.0000      -1.318199       -35.8700
  10   2.0000      -0.729971       -19.8635
  11   2.0000      -0.715918       -19.4811
  12   2.0000      -0.714568       -19.4444
  13   2.0000      -0.705389       -19.1946
  14   2.0000      -0.692375       -18.8405
  15   2.0000      -0.618473       -16.8295
  16   2.0000      -0.591926       -16.1071
  17   2.0000      -0.589330       -16.0365
  18   2.0000      -0.574358       -15.6291
  19   2.0000      -0.564976       -15.3738
  20   2.0000      -0.527342       -14.3497
  21   2.0000      -0.516606       -14.0576
  22   2.0000      -0.505408       -13.7529
  23   2.0000      -0.503054       -13.6888
  24   2.0000      -0.486385       -13.2352
  25   0.0000       0.088200         2.4001
  26   0.0000       0.128880         3.5070
  27   0.0000       0.141246         3.8435
  28   0.0000       0.149881         4.0785
  29   0.0000       0.178843         4.8666

MULLIKEN ATOMIC CHARGES
-----------------------
   0 O :   -0.692235
   1 H :    0.338815
   2 H :    0.353675
   3 O :   -0.674277
   4 H :    0.336948
   5 H :    0.337977
   6 O :   -0.685965
   7 H :    0.359785
   8 H :    0.364511
   9 O :   -0.719077
  10 H :    0.355465
  11 H :    0.319895
  12 O :   -0.713639
  13 H :    0.348658
  14 H :    0.369464
Sum of atomic charges:   -0.0000000

LOEWDIN ATOMIC CHARGES
----------------------
   0 O :   -0.342413
   1 H :    0.158086
   2 H :    0.184496
   3 O :   -0.328690
   4 H :    0.162718
   5 H :    0.166261
   6 O :   -0.285563
   7 H :    0.173804
   8 H :    0.179535
   9 O :   -0.363938
  10 H :    0.140904
  11 H :    0.153568
  12 O :   -0.311457
  13 H :    0.166940
  14 H :    0.145749

  Mayer bond orders larger than 0.100000
B(  0-O ,  1-H ) :   0.8529 B(  0-O ,  2-H ) :   0.8368 B(  3-O ,  4-H ) :   0.8509
B(  3-O ,  5-H ) :   0.8511 B(  6-O ,  7-H ) :   0.8350 B(  6-O ,  8-H ) :   0.8246
B(  9-O , 10-H ) :   0.7833 B(  9-O , 11-H ) :   0.8619 B( 10-H , 12-O ) :   0.1016
B( 12-O , 13-H ) :   0.8433 B( 12-O , 14-H ) :   0.7759

MP2 TOTAL ENERGY:     -381.590124400 Eh
FINAL SINGLE POINT ENERGY      -381.590124400448

DIPOLE MOMENT
-------------
                                X             Y             Z
Electronic contribution:     -0.23457       0.46142      -0.06594
Nuclear contribution   :      0.30955      -0.79086       0.54442
                        -----------------------------------------
Total Dipole Moment    :      0.07499      -0.32944       0.47848
                        -----------------------------------------
Magnitude (a.u.)       :      0.58574
Magnitude (Debye)      :      1.48884

Rotational constants in cm-1:     0.050809     0.039144     0.034619
Rotational constants in MHz :  1523.202581  1173.518323  1037.853789

                             ****ORCA TERMINATED NORMALLY****
TOTAL RUN TIME: 0 days 0 hours 0 minutes 29 seconds 18 msec
