                         Program Version 4.2.0 -  RELEASE  -
|  1> # 12h2o.su.etal.mol2,4,5,6,7,10
|  2> ! MP2 def2-TZVP EnGrad TightSCF
|  3>
|  4> %pal
|  5>     nprocs 6
|  6> end
|  7>
|  8> %maxcore 8000
|  9>
| 10> %scf
| 11>     ConvForced true
| 12> end
| 13>
| 14> *xyz 0 1
| 15> O   0.923410000  -1.794470000  -2.768350000
| 16> H   1.359750000  -2.338250000  -3.430940000
| 17> H   1.303000000  -0.879480000  -2.865760000
| 18> O  -0.885520000   1.737840000   0.052730000
| 19> H  -1.032320000   2.090180000  -0.841890000
| 20> H  -1.284090000   0.839590000   0.017130000
| 21> O   0.885520000  -1.737840000   0.052730000
| 22> H   1.284090000  -0.839590000   0.017130000
| 23> H   1.032320000  -2.090180000  -0.841890000
| 24> O   1.737840000   0.885520000  -0.052730000
| 25> H   2.090180000   1.032320000   0.841890000
| 26> H   0.839590000   1.284090000  -0.017130000
| 27> O  -1.737840000  -0.885520000  -0.052730000
| 28> H  -2.090180000  -1.032320000   0.841890000
| 29> H  -0.839590000  -1.284090000  -0.017130000
| 30> O  -0.923410000   1.794470000  -2.768350000
| 31> H  -1.359750000   2.338250000  -3.430940000
| 32> H  -1.303000000   0.879480000  -2.865760000
| 33> *
| 34>
| 35>                          ****END OF INPUT****

CARTESIAN COORDINATES (ANGSTROEM)
---------------------------------
  O      0.923410   -1.794470   -2.768350
  H      1.359750   -2.338250   -3.430940
  H      1.303000   -0.879480   -2.865760
  O     -0.885520    1.737840    0.052730
  H     -1.032320    2.090180   -0.841890
  H     -1.284090    0.839590    0.017130
  O      0.885520   -1.737840    0.052730
  H      1.284090   -0.839590    0.017130
  H      1.032320   -2.090180   -0.841890
  O      1.737840    0.885520   -0.052730
  H      2.090180    1.032320    0.841890
  H      0.839590    1.284090   -0.017130
  O     -1.737840   -0.885520   -0.052730
  H     -2.090180   -1.032320    0.841890
  H     -0.839590   -1.284090   -0.017130
  O     -0.923410    1.794470   -2.768350
  H     -1.359750    2.338250   -3.430940
  H     -1.303000    0.879480   -2.865760

 Total Charge           Charge          ....    0
 Multiplicity           Mult            ....    1
 Number of Electrons    NEL             ....   60
 Basis Dimension        Dim             ....  258

ORBITAL ENERGIES
----------------

  NO   OCC          E(Eh)            E(eV)
   0   2.0000     -20.587313      -560.2093
   1   2.0000     -20.587313      -560.2093
   2   2.0000     -20.547381      -559.1227
   3   2.0000     -20.547381      -559.1227
   4   2.0000     -20.528331      -558.6043
   5   2.0000     -20.528331      -558.6043
   6   2.0000      -1.365757       -37.1641
   7   2.0000      -1.365206       -37.1491
   8   2.0000      -1.342980       -36.5443
   9   2.0000      -1.333008       -36.2730
  10   2.0000      -1.316661       -35.8282
  11   2.0000      -1.306790       -35.5596
  12   2.0000      -0.733403       -19.9569
  13   2.0000      -0.730512       -19.8782
  14   2.0000      -0.701192       -19.0804
  15   2.0000      -0.696984       -18.9659
  16   2.0000      -0.692403       -18.8412
  17   2.0000      -0.688605       -18.7379
  18   2.0000      -0.613934       -16.7060
  19   2.0000      -0.607265       -16.5245
  20   2.0000      -0.591672       -16.1002
  21   2.0000      -0.577894       -15.7253
  22   2.0000      -0.566340       -15.4109
  23   2.0000      -0.551780       -15.0147
  24   2.0000      -0.523904       -14.2562
  25   2.0000      -0.523717       -14.2511
  26   2.0000      -0.491493       -13.3742
  27   2.0000      -0.489233       -13.3127
  28   2.0000      -0.478072       -13.0090
  29   2.0000      -0.475373       -12.9356
  30   0.0000       0.100749         2.7415
  31   0.0000       0.131156         3.5689
  32   0.0000       0.152286         4.1439
  33   0.0000       0.166755         4.5376
  34   0.0000       0.195137         5.3099

MULLIKEN ATOMIC CHARGES
-----------------------
   0 O :   -0.704220
   1 H :    0.350308
   2 H :    0.366548
   3 O :   -0.733975
   4 H :    0.372308
   5 H :    0.353172
   6 O :   -0.733975
   7 H :    0.353172
   8 H :    0.372308
   9 O :   -0.724787
  10 H :    0.345317
  11 H :    0.375329
  12 O :   -0.724787
  13 H :    0.345317
  14 H :    0.375329
  15 O :   -0.704220
  16 H :    0.350308
  17 H :    0.366548
Sum of atomic charges:   -0.0000000

LOEWDIN ATOMIC CHARGES
----------------------
   0 O :   -0.313011
   1 H :    0.162723
   2 H :    0.188940
   3 O :   -0.319752
   4 H :    0.147981
   5 H :    0.138599
   6 O :   -0.319752
   7 H :    0.138599
   8 H :    0.147981
   9 O :   -0.316482
  10 H :    0.165187
  11 H :    0.145814
  12 O :   -0.316482
  13 H :    0.165187
  14 H :    0.145814
  15 O :   -0.313011
  16 H :    0.162723
  17 H :    0.188940

  Mayer bond orders larger than 0.100000
B(  0-O ,  1-H ) :   0.8426 B(  0-O ,  2-H ) :   0.8241 B(  3-O ,  4-H ) :   0.8124
B(  3-O ,  5-H ) :   0.7761 B(  3-O , 11-H ) :   0.1179 B(  5-H , 12-O ) :   0.1093
B(  6-O ,  7-H ) :   0.7761 B(  6-O ,  8-H ) :   0.8124 B(  6-O , 14-H ) :   0.1179
B(  7-H ,  9-O ) :   0.1093 B(  9-O , 10-H ) :   0.8450 B(  9-O , 11-H ) :   0.7550
B( 12-O , 13-H ) :   0.8450 B( 12-O , 14-H ) :   0.7550 B( 15-O , 16-H ) :   0.8426
B( 15-O , 17-H ) :   0.8241

MP2 TOTAL ENERGY:     -457.940115796 Eh
FINAL SINGLE POINT ENERGY      -457.940115795611

DIPOLE MOMENT
-------------
                                X             Y             Z
Electronic contribution:      0.00000      -0.00000      -0.16965
Nuclear contribution   :      0.00000       0.00000      -1.26519
                        -----------------------------------------
Total Dipole Moment    :      0.00000      -0.00000      -1.43484
                        -----------------------------------------
Magnitude (a.u.)       :      1.43484
Magnitude (Debye)      :      3.64707

Rotational constants in cm-1:     0.050742     0.039673     0.035120
Rotational constants in MHz :  1521.200917  1189.374781  1052.863823

                             ****ORCA TERMINATED NORMALLY****
TOTAL RUN TIME: 0 days 0 hours 1 minutes 17 seconds 735 msec
