                         Program Version 4.2.0 -  RELEASE  -
|  1> # 12h2o.su.etal.mol1,3,4,6,9
|  2> ! MP2 def2-TZVP EnGrad TightSCF
|  3>
|  4> %pal
|  5>     nprocs 6
|  6> end
|  7>
|  8> %maxcore 8000
|  9>
| 10> %scf
| 11>     ConvForced true
| 12> end
| 13>
| 14> *xyz 0 1
| 15> O  -1.794470000  -0.923410000   2.768350000
| 16> H  -2.338250000  -1.359750000   3.430940000
| 17> H  -0.879480000  -1.303000000   2.865760000
| 18> O  -1.752130000  -0.741530000  -2.896280000
| 19> H  -2.036450000  -0.920500000  -1.984040000
| 20> H  -0.921210000  -1.242140000  -2.984230000
| 21> O  -0.885520000   1.737840000   0.052730000
| 22> H  -1.032320000   2.090180000  -0.841890000
| 23> H  -1.284090000   0.839590000   0.017130000
| 24> O   1.737840000   0.885520000  -0.052730000
| 25> H   2.090180000   1.032320000   0.841890000
| 26> H   0.839590000   1.284090000  -0.017130000
| 27> O   0.741530000  -1.752130000   2.896280000
| 28> H   0.920500000  -2.036450000   1.984040000
| 29> H   1.242140000  -0.921210000   2.984230000
| 30> *
| 31>
| 32>                          ****END OF INPUT****

CARTESIAN COORDINATES (ANGSTROEM)
---------------------------------
  O     -1.794470   -0.923410    2.768350
  H     -2.338250   -1.359750    3.430940
  H     -0.879480   -1.303000    2.865760
  O     -1.752130   -0.741530   -2.896280
  H     -2.036450   -0.920500   -1.984040
  H     -0.921210   -1.242140   -2.984230
  O     -0.885520    1.737840    0.052730
  H     -1.032320    2.090180   -0.841890
  H     -1.284090    0.839590    0.017130
  O      1.737840    0.885520   -0.052730
  H      2.090180    1.032320    0.841890
  H      0.839590    1.284090   -0.017130
  O      0.741530   -1.752130    2.896280
  H      0.920500   -2.036450    1.984040
  H      1.242140   -0.921210    2.984230

 Total Charge           Charge          ....    0
 Multiplicity           Mult            ....    1
 Number of Electrons    NEL             ....   50
 Basis Dimension        Dim             ....  215

ORBITAL ENERGIES
----------------

  NO   OCC          E(Eh)            E(eV)
   0   2.0000     -20.603592      -560.6522
   1   2.0000     -20.589777      -560.2763
   2   2.0000     -20.574355      -559.8567
   3   2.0000     -20.541316      -558.9576
   4   2.0000     -20.529165      -558.6270
   5   2.0000      -1.388864       -37.7929
   6   2.0000      -1.370496       -37.2931
   7   2.0000      -1.353358       -36.8267
   8   2.0000      -1.321825       -35.9687
   9   2.0000      -1.311349       -35.6836
  10   2.0000      -0.746398       -20.3105
  11   2.0000      -0.727750       -19.8031
  12   2.0000      -0.716050       -19.4847
  13   2.0000      -0.701483       -19.0883
  14   2.0000      -0.696489       -18.9524
  15   2.0000      -0.624646       -16.9975
  16   2.0000      -0.611477       -16.6391
  17   2.0000      -0.590626       -16.0718
  18   2.0000      -0.570461       -15.5230
  19   2.0000      -0.566956       -15.4277
  20   2.0000      -0.523809       -14.2536
  21   2.0000      -0.521346       -14.1865
  22   2.0000      -0.517844       -14.0912
  23   2.0000      -0.489183       -13.3113
  24   2.0000      -0.479602       -13.0506
  25   0.0000       0.082413         2.2426
  26   0.0000       0.108776         2.9599
  27   0.0000       0.150573         4.0973
  28   0.0000       0.156837         4.2678
  29   0.0000       0.174036         4.7358

MULLIKEN ATOMIC CHARGES
-----------------------
   0 O :   -0.735606
   1 H :    0.329270
   2 H :    0.364964
   3 O :   -0.672949
   4 H :    0.331280
   5 H :    0.345037
   6 O :   -0.679517
   7 H :    0.359520
   8 H :    0.355204
   9 O :   -0.714272
  10 H :    0.318452
  11 H :    0.357907
  12 O :   -0.676767
  13 H :    0.360887
  14 H :    0.356590
Sum of atomic charges:   -0.0000000

LOEWDIN ATOMIC CHARGES
----------------------
   0 O :   -0.373824
   1 H :    0.150881
   2 H :    0.141542
   3 O :   -0.328820
   4 H :    0.160968
   5 H :    0.170456
   6 O :   -0.286095
   7 H :    0.173668
   8 H :    0.176899
   9 O :   -0.362158
  10 H :    0.152857
  11 H :    0.142718
  12 O :   -0.269125
  13 H :    0.175324
  14 H :    0.174711

  Mayer bond orders larger than 0.100000
B(  0-O ,  1-H ) :   0.8583 B(  0-O ,  2-H ) :   0.7857 B(  3-O ,  4-H ) :   0.8549
B(  3-O ,  5-H ) :   0.8479 B(  6-O ,  7-H ) :   0.8354 B(  6-O ,  8-H ) :   0.8311
B(  9-O , 10-H ) :   0.8630 B(  9-O , 11-H ) :   0.7919 B( 12-O , 13-H ) :   0.8340
B( 12-O , 14-H ) :   0.8364

MP2 TOTAL ENERGY:     -381.585085606 Eh
FINAL SINGLE POINT ENERGY      -381.585085605532

DIPOLE MOMENT
-------------
                                X             Y             Z
Electronic contribution:     -0.04332       0.12321      -0.14701
Nuclear contribution   :      0.42127      -0.79028       0.63259
                        -----------------------------------------
Total Dipole Moment    :      0.37794      -0.66707       0.48558
                        -----------------------------------------
Magnitude (a.u.)       :      0.90753
Magnitude (Debye)      :      2.30677

Rotational constants in cm-1:     0.057916     0.030948     0.026384
Rotational constants in MHz :  1736.271688   927.783381   790.985698

                             ****ORCA TERMINATED NORMALLY****
TOTAL RUN TIME: 0 days 0 hours 0 minutes 55 seconds 620 msec
