                         Program Version 4.2.0 -  RELEASE  -
|  1> # 12meoh.boyd.etal.mol5,6
|  2> ! MP2 def2-TZVP EnGrad TightSCF
|  3>
|  4> %pal
|  5>     nprocs 6
|  6> end
|  7>
|  8> %maxcore 8000
|  9>
| 10> %scf
| 11>     ConvForced true
| 12> end
| 13>
| 14> *xyz 0 1
| 15> O  -0.662721750   1.449094618  -1.383082065
| 16> H   0.064188300   2.119867608  -1.465650660
| 17> C  -0.353319239   0.341218776  -2.229326771
| 18> H  -1.072358530  -0.454743281  -2.019906495
| 19> H   0.657636746  -0.044472139  -2.042736771
| 20> H  -0.434616607   0.624733901  -3.287793021
| 21> O   2.622209273  -1.703002590  -1.445859723
| 22> H   1.828551432  -1.986513781  -0.909754968
| 23> C   2.781117675  -2.615822239  -2.525472890
| 24> H   3.691063626  -2.339003544  -3.065143454
| 25> H   1.934727323  -2.559520367  -3.223226661
| 26> H   2.879948338  -3.653846211  -2.177750170
| 27> *
| 28>
| 29>                          ****END OF INPUT****

CARTESIAN COORDINATES (ANGSTROEM)
---------------------------------
  O     -0.662722    1.449095   -1.383082
  H      0.064188    2.119868   -1.465651
  C     -0.353319    0.341219   -2.229327
  H     -1.072359   -0.454743   -2.019906
  H      0.657637   -0.044472   -2.042737
  H     -0.434617    0.624734   -3.287793
  O      2.622209   -1.703003   -1.445860
  H      1.828551   -1.986514   -0.909755
  C      2.781118   -2.615822   -2.525473
  H      3.691064   -2.339004   -3.065143
  H      1.934727   -2.559520   -3.223227
  H      2.879948   -3.653846   -2.177750

 Total Charge           Charge          ....    0
 Multiplicity           Mult            ....    1
 Number of Electrons    NEL             ....   36
 Basis Dimension        Dim             ....  172

ORBITAL ENERGIES
----------------

  NO   OCC          E(Eh)            E(eV)
   0   2.0000     -20.565003      -559.6022
   1   2.0000     -20.552664      -559.2664
   2   2.0000     -11.277258      -306.8698
   3   2.0000     -11.266896      -306.5878
   4   2.0000      -1.353117       -36.8202
   5   2.0000      -1.340967       -36.4896
   6   2.0000      -0.925380       -25.1809
   7   2.0000      -0.916319       -24.9343
   8   2.0000      -0.687718       -18.7138
   9   2.0000      -0.676484       -18.4081
  10   2.0000      -0.625118       -17.0103
  11   2.0000      -0.611369       -16.6362
  12   2.0000      -0.597331       -16.2542
  13   2.0000      -0.587129       -15.9766
  14   2.0000      -0.506214       -13.7748
  15   2.0000      -0.496621       -13.5138
  16   2.0000      -0.457302       -12.4438
  17   2.0000      -0.442805       -12.0493
  18   0.0000       0.124174         3.3789
  19   0.0000       0.144816         3.9406
  20   0.0000       0.168620         4.5884
  21   0.0000       0.186041         5.0624
  22   0.0000       0.220192         5.9917

MULLIKEN ATOMIC CHARGES
-----------------------
   0 O :   -0.503070
   1 H :    0.323693
   2 C :   -0.190111
   3 H :    0.121743
   4 H :    0.124245
   5 H :    0.108691
   6 O :   -0.494928
   7 H :    0.328583
   8 C :   -0.176409
   9 H :    0.131249
  10 H :    0.109932
  11 H :    0.116381
Sum of atomic charges:   -0.0000000

LOEWDIN ATOMIC CHARGES
----------------------
   0 O :   -0.113274
   1 H :    0.189549
   2 C :   -0.383942
   3 H :    0.107074
   4 H :    0.097624
   5 H :    0.095550
   6 O :   -0.105501
   7 H :    0.192972
   8 C :   -0.383212
   9 H :    0.111031
  10 H :    0.094548
  11 H :    0.097580

  Mayer bond orders larger than 0.100000
B(  0-O ,  1-H ) :   0.8417 B(  0-O ,  2-C ) :   0.9176 B(  2-C ,  3-H ) :   0.9347
B(  2-C ,  4-H ) :   0.9346 B(  2-C ,  5-H ) :   0.9366 B(  6-O ,  7-H ) :   0.8363
B(  6-O ,  8-C ) :   0.9184 B(  8-C ,  9-H ) :   0.9382 B(  8-C , 10-H ) :   0.9373
B(  8-C , 11-H ) :   0.9392

MP2 TOTAL ENERGY:     -231.015009050 Eh
FINAL SINGLE POINT ENERGY      -231.015009049614

DIPOLE MOMENT
-------------
                                X             Y             Z
Electronic contribution:     -0.50090       2.48970       2.42297
Nuclear contribution   :      0.74121      -3.11161      -2.91632
                        -----------------------------------------
Total Dipole Moment    :      0.24031      -0.62192      -0.49335
                        -----------------------------------------
Magnitude (a.u.)       :      0.82941
Magnitude (Debye)      :      2.10820

Rotational constants in cm-1:     0.609869     0.050078     0.047590
Rotational constants in MHz : 18283.419720  1501.296914  1426.705023

                             ****ORCA TERMINATED NORMALLY****
TOTAL RUN TIME: 0 days 0 hours 0 minutes 23 seconds 319 msec
