                         Program Version 3.0.3 - RELEASE   -
|  1> ! wB97X-D3 Def2-TZVP def2-TZVP/J RIJCOSX TightSCF Grid4 COSMO
|  2>
|  3> %pal nprocs 12 end
|  4>
|  5> %scf
|  6>         maxiter 400
|  7> end
|  8>
|  9> %cosmo
| 10>         SMD true
| 11>         solvent "WATER"
| 12> end
| 13>
| 14> * xyz  0  1
| 15> O  -1.647887	-0.576136	-0.741123
| 16> H  -0.701617	-0.639005	-1.109727
| 17> H  -2.034505	0.162893	-1.252800
| 18> O  -0.882715	0.521451	1.551480
| 19> H  -1.196613	1.446576	1.503566
| 20> H  -1.257097	0.106761	0.702144
| 21> O  1.605041	0.700100	0.645924
| 22> H  2.129610	0.062261	1.170281
| 23> H  0.682625	0.641213	1.069940
| 24> O  0.887557	-0.671956	-1.505431
| 25> H  1.250814	-0.142425	-0.715994
| 26> H  1.157877	-1.589067	-1.298696
| 27> **                         ****END OF INPUT****

CARTESIAN COORDINATES (ANGSTROEM)
---------------------------------
  O     -1.647887   -0.576136   -0.741123
  H     -0.701617   -0.639005   -1.109727
  H     -2.034505    0.162893   -1.252800
  O     -0.882715    0.521451    1.551480
  H     -1.196613    1.446576    1.503566
  H     -1.257097    0.106761    0.702144
  O      1.605041    0.700100    0.645924
  H      2.129610    0.062261    1.170281
  H      0.682625    0.641213    1.069940
  O      0.887557   -0.671956   -1.505431
  H      1.250814   -0.142425   -0.715994
  H      1.157877   -1.589067   -1.298696

 Total Charge           Charge          ....    0
 Multiplicity           Mult            ....    1
 Number of Electrons    NEL             ....   40
 Basis Dimension        Dim             ....  172

ORBITAL ENERGIES
----------------

  NO   OCC          E(Eh)            E(eV)
   0   2.0000     -19.233945      -523.3823
   1   2.0000     -19.233764      -523.3773
   2   2.0000     -19.233710      -523.3759
   3   2.0000     -19.233625      -523.3736
   4   2.0000      -1.138798       -30.9883
   5   2.0000      -1.118446       -30.4345
   6   2.0000      -1.118119       -30.4256
   7   2.0000      -1.098206       -29.8837
   8   2.0000      -0.632605       -17.2141
   9   2.0000      -0.623933       -16.9781
  10   2.0000      -0.619306       -16.8522
  11   2.0000      -0.617766       -16.8103
  12   2.0000      -0.533427       -14.5153
  13   2.0000      -0.514457       -13.9991
  14   2.0000      -0.500451       -13.6180
  15   2.0000      -0.489527       -13.3207
  16   2.0000      -0.421926       -11.4812
  17   2.0000      -0.418563       -11.3897
  18   2.0000      -0.416747       -11.3403
  19   2.0000      -0.412018       -11.2116
  20   0.0000       0.107486         2.9248
  21   0.0000       0.151933         4.1343
  22   0.0000       0.163834         4.4581
  23   0.0000       0.194573         5.2946
  24   0.0000       0.263561         7.1719

MULLIKEN ATOMIC CHARGES
-----------------------
   0 O :   -0.776194
   1 H :    0.376286
   2 H :    0.398076
   3 O :   -0.773834
   4 H :    0.398140
   5 H :    0.378658
   6 O :   -0.772954
   7 H :    0.398006
   8 H :    0.371669
   9 O :   -0.776060
  10 H :    0.381062
  11 H :    0.397145
Sum of atomic charges:    0.0000000

LOEWDIN ATOMIC CHARGES
----------------------
   0 O :   -0.335591
   1 H :    0.147567
   2 H :    0.186363
   3 O :   -0.333303
   4 H :    0.186372
   5 H :    0.147414
   6 O :   -0.333987
   7 H :    0.186476
   8 H :    0.147584
   9 O :   -0.333104
  10 H :    0.148123
  11 H :    0.186085

  Mayer bond orders larger than 0.1
B(  0-O ,  1-H ) :   0.7623 B(  0-O ,  2-H ) :   0.8486 B(  0-O ,  5-H ) :   0.1488
B(  1-H ,  9-O ) :   0.1526 B(  3-O ,  4-H ) :   0.8490 B(  3-O ,  5-H ) :   0.7625
B(  3-O ,  8-H ) :   0.1535 B(  6-O ,  7-H ) :   0.8488 B(  6-O ,  8-H ) :   0.7642
B(  6-O , 10-H ) :   0.1495 B(  9-O , 10-H ) :   0.7600 B(  9-O , 11-H ) :   0.8496

Dispersion correction           -0.003163701
FINAL SINGLE POINT ENERGY      -305.824771718621

DIPOLE MOMENT
-------------
                                X             Y             Z
Electronic contribution:      0.00309       0.00073       0.00279
Nuclear contribution   :      0.08915       0.08514       0.13902
                        -----------------------------------------
Total Dipole Moment    :      0.09224       0.08587       0.14180
                        -----------------------------------------
Magnitude (a.u.)       :      0.18971
Magnitude (Debye)      :      0.48221

                             ****ORCA TERMINATED NORMALLY****
TOTAL RUN TIME: 0 days 0 hours 0 minutes 53 seconds 94 msec
