                         Program Version 3.0.3 - RELEASE   -
|  1> ! wB97X-D3 MA-Def2-TZVP def2-TZVP/J RIJCOSX TightSCF Grid4
|  2>
|  3> %pal nprocs 1 end
|  4>
|  5> %scf
|  6>         maxiter 400
|  7> end
|  8>
|  9> %cosmo
| 10>         SMD true
| 11>         solvent "WATER"
| 12> end
| 13>
| 14> * xyz  0  1
| 15> O  -1.647887	-0.576136	-0.741123
| 16> H  -0.701617	-0.639005	-1.109727
| 17> H  -2.034505	0.162893	-1.252800
| 18> O  -0.882715	0.521451	1.551480
| 19> H  -1.196613	1.446576	1.503566
| 20> H  -1.257097	0.106761	0.702144
| 21> O  1.605041	0.700100	0.645924
| 22> H  2.129610	0.062261	1.170281
| 23> H  0.682625	0.641213	1.069940
| 24> O  0.887557	-0.671956	-1.505431
| 25> H  1.250814	-0.142425	-0.715994
| 26> H  1.157877	-1.589067	-1.298696
| 27> **                         ****END OF INPUT****

CARTESIAN COORDINATES (ANGSTROEM)
---------------------------------
  O     -1.647887   -0.576136   -0.741123
  H     -0.701617   -0.639005   -1.109727
  H     -2.034505    0.162893   -1.252800
  O     -0.882715    0.521451    1.551480
  H     -1.196613    1.446576    1.503566
  H     -1.257097    0.106761    0.702144
  O      1.605041    0.700100    0.645924
  H      2.129610    0.062261    1.170281
  H      0.682625    0.641213    1.069940
  O      0.887557   -0.671956   -1.505431
  H      1.250814   -0.142425   -0.715994
  H      1.157877   -1.589067   -1.298696

 Total Charge           Charge          ....    0
 Multiplicity           Mult            ....    1
 Number of Electrons    NEL             ....   40
 Basis Dimension        Dim             ....  188

ORBITAL ENERGIES
----------------

  NO   OCC          E(Eh)            E(eV)
   0   2.0000     -19.236938      -523.4637
   1   2.0000     -19.236764      -523.4590
   2   2.0000     -19.236742      -523.4584
   3   2.0000     -19.236645      -523.4557
   4   2.0000      -1.140770       -31.0419
   5   2.0000      -1.120411       -30.4879
   6   2.0000      -1.120094       -30.4793
   7   2.0000      -1.100176       -29.9373
   8   2.0000      -0.634406       -17.2631
   9   2.0000      -0.625739       -17.0272
  10   2.0000      -0.621096       -16.9009
  11   2.0000      -0.619570       -16.8594
  12   2.0000      -0.535250       -14.5649
  13   2.0000      -0.516422       -14.0525
  14   2.0000      -0.502230       -13.6664
  15   2.0000      -0.491368       -13.3708
  16   2.0000      -0.423907       -11.5351
  17   2.0000      -0.420485       -11.4420
  18   2.0000      -0.418732       -11.3943
  19   2.0000      -0.413951       -11.2642
  20   0.0000       0.073021         1.9870
  21   0.0000       0.111240         3.0270
  22   0.0000       0.113160         3.0793
  23   0.0000       0.131330         3.5737
  24   0.0000       0.144390         3.9291

MULLIKEN ATOMIC CHARGES
-----------------------
   0 O :   -0.817469
   1 H :    0.403712
   2 H :    0.415412
   3 O :   -0.823433
   4 H :    0.417225
   5 H :    0.407312
   6 O :   -0.803907
   7 H :    0.413674
   8 H :    0.392600
   9 O :   -0.832320
  10 H :    0.410023
  11 H :    0.417170
Sum of atomic charges:   -0.0000000

LOEWDIN ATOMIC CHARGES
----------------------
   0 O :   -0.411491
   1 H :    0.192874
   2 H :    0.217071
   3 O :   -0.410044
   4 H :    0.216990
   5 H :    0.193457
   6 O :   -0.409599
   7 H :    0.216922
   8 H :    0.192956
   9 O :   -0.410213
  10 H :    0.194119
  11 H :    0.216960

  Mayer bond orders larger than 0.1
B(  0-O ,  1-H ) :   0.7698 B(  0-O ,  2-H ) :   0.8485 B(  0-O ,  5-H ) :   0.1043
B(  1-H ,  9-O ) :   0.1065 B(  3-O ,  4-H ) :   0.8483 B(  3-O ,  5-H ) :   0.7658
B(  3-O ,  8-H ) :   0.1130 B(  6-O ,  7-H ) :   0.8491 B(  6-O ,  8-H ) :   0.7730
B(  6-O , 10-H ) :   0.1050 B(  9-O , 10-H ) :   0.7630 B(  9-O , 11-H ) :   0.8486

Dispersion correction           -0.003163701
FINAL SINGLE POINT ENERGY      -305.827401692770

DIPOLE MOMENT
-------------
                                X             Y             Z
Electronic contribution:      0.00442       0.00052       0.00335
Nuclear contribution   :      0.08915       0.08514       0.13902
                        -----------------------------------------
Total Dipole Moment    :      0.09357       0.08566       0.14236
                        -----------------------------------------
Magnitude (a.u.)       :      0.19068
Magnitude (Debye)      :      0.48468

                             ****ORCA TERMINATED NORMALLY****
TOTAL RUN TIME: 0 days 0 hours 1 minutes 33 seconds 763 msec
