                         Program Version 3.0.3 - RELEASE   -
|  1> ! B3LYP Def2-TZVP def2-TZVP/J RIJCOSX TightSCF Grid4 D3BJ COSMO
|  2>
|  3> %pal nprocs 12 end
|  4>
|  5> %scf
|  6>         maxiter 400
|  7> end
|  8>
|  9> %cosmo
| 10>         SMD true
| 11>         solvent "WATER"
| 12> end
| 13>
| 14> * xyz  0  1
| 15> O  -1.647887	-0.576136	-0.741123
| 16> H  -0.701617	-0.639005	-1.109727
| 17> H  -2.034505	0.162893	-1.252800
| 18> O  -0.882715	0.521451	1.551480
| 19> H  -1.196613	1.446576	1.503566
| 20> H  -1.257097	0.106761	0.702144
| 21> O  1.605041	0.700100	0.645924
| 22> H  2.129610	0.062261	1.170281
| 23> H  0.682625	0.641213	1.069940
| 24> O  0.887557	-0.671956	-1.505431
| 25> H  1.250814	-0.142425	-0.715994
| 26> H  1.157877	-1.589067	-1.298696
| 27> **                         ****END OF INPUT****

CARTESIAN COORDINATES (ANGSTROEM)
---------------------------------
  O     -1.647887   -0.576136   -0.741123
  H     -0.701617   -0.639005   -1.109727
  H     -2.034505    0.162893   -1.252800
  O     -0.882715    0.521451    1.551480
  H     -1.196613    1.446576    1.503566
  H     -1.257097    0.106761    0.702144
  O      1.605041    0.700100    0.645924
  H      2.129610    0.062261    1.170281
  H      0.682625    0.641213    1.069940
  O      0.887557   -0.671956   -1.505431
  H      1.250814   -0.142425   -0.715994
  H      1.157877   -1.589067   -1.298696

 Total Charge           Charge          ....    0
 Multiplicity           Mult            ....    1
 Number of Electrons    NEL             ....   40
 Basis Dimension        Dim             ....  172

ORBITAL ENERGIES
----------------

  NO   OCC          E(Eh)            E(eV)
   0   2.0000     -19.126094      -520.4475
   1   2.0000     -19.125900      -520.4422
   2   2.0000     -19.125866      -520.4413
   3   2.0000     -19.125766      -520.4386
   4   2.0000      -1.022319       -27.8187
   5   2.0000      -1.002534       -27.2803
   6   2.0000      -1.002214       -27.2716
   7   2.0000      -0.982758       -26.7422
   8   2.0000      -0.528665       -14.3857
   9   2.0000      -0.520720       -14.1695
  10   2.0000      -0.515479       -14.0269
  11   2.0000      -0.514783       -14.0080
  12   2.0000      -0.430412       -11.7121
  13   2.0000      -0.411647       -11.2015
  14   2.0000      -0.398673       -10.8484
  15   2.0000      -0.387010       -10.5311
  16   2.0000      -0.322827        -8.7846
  17   2.0000      -0.319680        -8.6989
  18   2.0000      -0.318532        -8.6677
  19   2.0000      -0.313065        -8.5189
  20   0.0000       0.020609         0.5608
  21   0.0000       0.062373         1.6973
  22   0.0000       0.072964         1.9855
  23   0.0000       0.102332         2.7846
  24   0.0000       0.178176         4.8484

MULLIKEN ATOMIC CHARGES
-----------------------
   0 O :   -0.755167
   1 H :    0.371853
   2 H :    0.381471
   3 O :   -0.752532
   4 H :    0.381489
   5 H :    0.373998
   6 O :   -0.752332
   7 H :    0.381451
   8 H :    0.367580
   9 O :   -0.753977
  10 H :    0.375872
  11 H :    0.380295
Sum of atomic charges:    0.0000000

LOEWDIN ATOMIC CHARGES
----------------------
   0 O :   -0.332577
   1 H :    0.146854
   2 H :    0.184126
   3 O :   -0.330274
   4 H :    0.184100
   5 H :    0.146583
   6 O :   -0.330992
   7 H :    0.184232
   8 H :    0.146919
   9 O :   -0.329973
  10 H :    0.147215
  11 H :    0.183786

  Mayer bond orders larger than 0.1
B(  0-O ,  1-H ) :   0.7575 B(  0-O ,  2-H ) :   0.8587 B(  0-O ,  5-H ) :   0.1593
B(  1-H ,  9-O ) :   0.1640 B(  3-O ,  4-H ) :   0.8592 B(  3-O ,  5-H ) :   0.7581
B(  3-O ,  8-H ) :   0.1647 B(  6-O ,  7-H ) :   0.8589 B(  6-O ,  8-H ) :   0.7589
B(  6-O , 10-H ) :   0.1604 B(  9-O , 10-H ) :   0.7560 B(  9-O , 11-H ) :   0.8598

Dispersion correction           -0.008417454
FINAL SINGLE POINT ENERGY      -305.778806760946

DIPOLE MOMENT
-------------
                                X             Y             Z
Electronic contribution:      0.00172      -0.00027       0.00105
Nuclear contribution   :      0.08915       0.08514       0.13902
                        -----------------------------------------
Total Dipole Moment    :      0.09087       0.08487       0.14006
                        -----------------------------------------
Magnitude (a.u.)       :      0.18729
Magnitude (Debye)      :      0.47606

                             ****ORCA TERMINATED NORMALLY****
TOTAL RUN TIME: 0 days 0 hours 0 minutes 52 seconds 885 msec
