                         Program Version 4.2.0 -  RELEASE  -
|  1> # 12h2o.su.etal.mol3,6,8,10,11
|  2> ! MP2 def2-TZVP EnGrad TightSCF
|  3>
|  4> %pal
|  5>     nprocs 6
|  6> end
|  7>
|  8> %maxcore 8000
|  9>
| 10> %scf
| 11>     ConvForced true
| 12> end
| 13>
| 14> *xyz 0 1
| 15> O  -1.752130000  -0.741530000  -2.896280000
| 16> H  -2.036450000  -0.920500000  -1.984040000
| 17> H  -0.921210000  -1.242140000  -2.984230000
| 18> O   1.737840000   0.885520000  -0.052730000
| 19> H   2.090180000   1.032320000   0.841890000
| 20> H   0.839590000   1.284090000  -0.017130000
| 21> O   1.752130000   0.741530000  -2.896280000
| 22> H   2.036450000   0.920500000  -1.984040000
| 23> H   0.921210000   1.242140000  -2.984230000
| 24> O  -0.923410000   1.794470000  -2.768350000
| 25> H  -1.359750000   2.338250000  -3.430940000
| 26> H  -1.303000000   0.879480000  -2.865760000
| 27> O  -0.741530000   1.752130000   2.896280000
| 28> H  -0.920500000   2.036450000   1.984040000
| 29> H  -1.242140000   0.921210000   2.984230000
| 30> *
| 31>
| 32>                          ****END OF INPUT****

CARTESIAN COORDINATES (ANGSTROEM)
---------------------------------
  O     -1.752130   -0.741530   -2.896280
  H     -2.036450   -0.920500   -1.984040
  H     -0.921210   -1.242140   -2.984230
  O      1.737840    0.885520   -0.052730
  H      2.090180    1.032320    0.841890
  H      0.839590    1.284090   -0.017130
  O      1.752130    0.741530   -2.896280
  H      2.036450    0.920500   -1.984040
  H      0.921210    1.242140   -2.984230
  O     -0.923410    1.794470   -2.768350
  H     -1.359750    2.338250   -3.430940
  H     -1.303000    0.879480   -2.865760
  O     -0.741530    1.752130    2.896280
  H     -0.920500    2.036450    1.984040
  H     -1.242140    0.921210    2.984230

 Total Charge           Charge          ....    0
 Multiplicity           Mult            ....    1
 Number of Electrons    NEL             ....   50
 Basis Dimension        Dim             ....  215

ORBITAL ENERGIES
----------------

  NO   OCC          E(Eh)            E(eV)
   0   2.0000     -20.605127      -560.6940
   1   2.0000     -20.581525      -560.0518
   2   2.0000     -20.580361      -560.0201
   3   2.0000     -20.550510      -559.2078
   4   2.0000     -20.502006      -557.8879
   5   2.0000      -1.390862       -37.8473
   6   2.0000      -1.360600       -37.0238
   7   2.0000      -1.358527       -36.9674
   8   2.0000      -1.334607       -36.3165
   9   2.0000      -1.287070       -35.0230
  10   2.0000      -0.747464       -20.3395
  11   2.0000      -0.723565       -19.6892
  12   2.0000      -0.720621       -19.6091
  13   2.0000      -0.719852       -19.5882
  14   2.0000      -0.665167       -18.1001
  15   2.0000      -0.629869       -17.1396
  16   2.0000      -0.600799       -16.3486
  17   2.0000      -0.597370       -16.2553
  18   2.0000      -0.580694       -15.8015
  19   2.0000      -0.539388       -14.6775
  20   2.0000      -0.529862       -14.4183
  21   2.0000      -0.525233       -14.2923
  22   2.0000      -0.518077       -14.0976
  23   2.0000      -0.494478       -13.4554
  24   2.0000      -0.452131       -12.3031
  25   0.0000       0.082570         2.2468
  26   0.0000       0.113155         3.0791
  27   0.0000       0.149028         4.0552
  28   0.0000       0.160196         4.3592
  29   0.0000       0.172568         4.6958

MULLIKEN ATOMIC CHARGES
-----------------------
   0 O :   -0.684523
   1 H :    0.354730
   2 H :    0.374479
   3 O :   -0.691032
   4 H :    0.351917
   5 H :    0.337406
   6 O :   -0.734759
   7 H :    0.365208
   8 H :    0.345936
   9 O :   -0.741406
  10 H :    0.342031
  11 H :    0.376813
  12 O :   -0.669098
  13 H :    0.331685
  14 H :    0.340613
Sum of atomic charges:    0.0000000

LOEWDIN ATOMIC CHARGES
----------------------
   0 O :   -0.269675
   1 H :    0.173274
   2 H :    0.182103
   3 O :   -0.316623
   4 H :    0.170476
   5 H :    0.169466
   6 O :   -0.358627
   7 H :    0.149273
   8 H :    0.140195
   9 O :   -0.342571
  10 H :    0.156020
  11 H :    0.144320
  12 O :   -0.327301
  13 H :    0.161157
  14 H :    0.168513

  Mayer bond orders larger than 0.100000
B(  0-O ,  1-H ) :   0.8395 B(  0-O ,  2-H ) :   0.8221 B(  3-O ,  4-H ) :   0.8402
B(  3-O ,  5-H ) :   0.8425 B(  6-O ,  7-H ) :   0.8278 B(  6-O ,  8-H ) :   0.8214
B(  9-O , 10-H ) :   0.8482 B(  9-O , 11-H ) :   0.7668 B( 12-O , 13-H ) :   0.8547
B( 12-O , 14-H ) :   0.8506

MP2 TOTAL ENERGY:     -381.591508025 Eh
FINAL SINGLE POINT ENERGY      -381.591508024719

DIPOLE MOMENT
-------------
                                X             Y             Z
Electronic contribution:      0.04065      -0.20181       0.01460
Nuclear contribution   :     -1.69920      -0.31000       0.82779
                        -----------------------------------------
Total Dipole Moment    :     -1.65855      -0.51181       0.84240
                        -----------------------------------------
Magnitude (a.u.)       :      1.92934
Magnitude (Debye)      :      4.90400

Rotational constants in cm-1:     0.067386     0.030828     0.024741
Rotational constants in MHz :  2020.180048   924.205510   741.724094

                             ****ORCA TERMINATED NORMALLY****
TOTAL RUN TIME: 0 days 0 hours 0 minutes 32 seconds 230 msec
