                         Program Version 4.2.0 -  RELEASE  -
|  1> # 12h2o.su.etal.mol0,1,5,9,10,11
|  2> ! MP2 def2-TZVP EnGrad TightSCF
|  3>
|  4> %pal
|  5>     nprocs 6
|  6> end
|  7>
|  8> %maxcore 8000
|  9>
| 10> %scf
| 11>     ConvForced true
| 12> end
| 13>
| 14> *xyz 0 1
| 15> O   1.794470000   0.923410000   2.768350000
| 16> H   2.338250000   1.359750000   3.430940000
| 17> H   0.879480000   1.303000000   2.865760000
| 18> O  -1.794470000  -0.923410000   2.768350000
| 19> H  -2.338250000  -1.359750000   3.430940000
| 20> H  -0.879480000  -1.303000000   2.865760000
| 21> O   0.885520000  -1.737840000   0.052730000
| 22> H   1.284090000  -0.839590000   0.017130000
| 23> H   1.032320000  -2.090180000  -0.841890000
| 24> O   0.741530000  -1.752130000   2.896280000
| 25> H   0.920500000  -2.036450000   1.984040000
| 26> H   1.242140000  -0.921210000   2.984230000
| 27> O  -0.923410000   1.794470000  -2.768350000
| 28> H  -1.359750000   2.338250000  -3.430940000
| 29> H  -1.303000000   0.879480000  -2.865760000
| 30> O  -0.741530000   1.752130000   2.896280000
| 31> H  -0.920500000   2.036450000   1.984040000
| 32> H  -1.242140000   0.921210000   2.984230000
| 33> *
| 34>
| 35>                          ****END OF INPUT****

CARTESIAN COORDINATES (ANGSTROEM)
---------------------------------
  O      1.794470    0.923410    2.768350
  H      2.338250    1.359750    3.430940
  H      0.879480    1.303000    2.865760
  O     -1.794470   -0.923410    2.768350
  H     -2.338250   -1.359750    3.430940
  H     -0.879480   -1.303000    2.865760
  O      0.885520   -1.737840    0.052730
  H      1.284090   -0.839590    0.017130
  H      1.032320   -2.090180   -0.841890
  O      0.741530   -1.752130    2.896280
  H      0.920500   -2.036450    1.984040
  H      1.242140   -0.921210    2.984230
  O     -0.923410    1.794470   -2.768350
  H     -1.359750    2.338250   -3.430940
  H     -1.303000    0.879480   -2.865760
  O     -0.741530    1.752130    2.896280
  H     -0.920500    2.036450    1.984040
  H     -1.242140    0.921210    2.984230

 Total Charge           Charge          ....    0
 Multiplicity           Mult            ....    1
 Number of Electrons    NEL             ....   60
 Basis Dimension        Dim             ....  258

ORBITAL ENERGIES
----------------

  NO   OCC          E(Eh)            E(eV)
   0   2.0000     -20.581774      -560.0585
   1   2.0000     -20.570149      -559.7422
   2   2.0000     -20.560864      -559.4895
   3   2.0000     -20.542014      -558.9766
   4   2.0000     -20.537232      -558.8465
   5   2.0000     -20.532795      -558.7258
   6   2.0000      -1.360686       -37.0262
   7   2.0000      -1.353597       -36.8333
   8   2.0000      -1.345478       -36.6123
   9   2.0000      -1.333326       -36.2817
  10   2.0000      -1.323619       -36.0175
  11   2.0000      -1.309884       -35.6438
  12   2.0000      -0.723363       -19.6837
  13   2.0000      -0.713927       -19.4269
  14   2.0000      -0.713019       -19.4022
  15   2.0000      -0.709386       -19.3034
  16   2.0000      -0.695353       -18.9215
  17   2.0000      -0.691778       -18.8242
  18   2.0000      -0.615085       -16.7373
  19   2.0000      -0.599941       -16.3252
  20   2.0000      -0.581734       -15.8298
  21   2.0000      -0.573436       -15.6040
  22   2.0000      -0.569049       -15.4846
  23   2.0000      -0.540395       -14.7049
  24   2.0000      -0.524891       -14.2830
  25   2.0000      -0.513419       -13.9708
  26   2.0000      -0.501776       -13.6540
  27   2.0000      -0.491515       -13.3748
  28   2.0000      -0.483544       -13.1579
  29   2.0000      -0.481799       -13.1104
  30   0.0000       0.101320         2.7570
  31   0.0000       0.129677         3.5287
  32   0.0000       0.143444         3.9033
  33   0.0000       0.165677         4.5083
  34   0.0000       0.177247         4.8231

MULLIKEN ATOMIC CHARGES
-----------------------
   0 O :   -0.746151
   1 H :    0.340551
   2 H :    0.379558
   3 O :   -0.744533
   4 H :    0.335628
   5 H :    0.383716
   6 O :   -0.698641
   7 H :    0.360328
   8 H :    0.346798
   9 O :   -0.725993
  10 H :    0.381820
  11 H :    0.365164
  12 O :   -0.685657
  13 H :    0.341818
  14 H :    0.343814
  15 O :   -0.711282
  16 H :    0.354697
  17 H :    0.378364
Sum of atomic charges:    0.0000000

LOEWDIN ATOMIC CHARGES
----------------------
   0 O :   -0.343938
   1 H :    0.155347
   2 H :    0.145038
   3 O :   -0.342423
   4 H :    0.152958
   5 H :    0.145836
   6 O :   -0.319158
   7 H :    0.180831
   8 H :    0.169916
   9 O :   -0.289771
  10 H :    0.156509
  11 H :    0.148661
  12 O :   -0.340475
  13 H :    0.159220
  14 H :    0.181177
  15 O :   -0.285688
  16 H :    0.171444
  17 H :    0.154515

  Mayer bond orders larger than 0.100000
B(  0-O ,  1-H ) :   0.8490 B(  0-O ,  2-H ) :   0.7481 B(  2-H , 15-O ) :   0.1102
B(  3-O ,  4-H ) :   0.8512 B(  3-O ,  5-H ) :   0.7409 B(  5-H ,  9-O ) :   0.1162
B(  6-O ,  7-H ) :   0.8314 B(  6-O ,  8-H ) :   0.8445 B(  9-O , 10-H ) :   0.8082
B(  9-O , 11-H ) :   0.7949 B( 12-O , 13-H ) :   0.8516 B( 12-O , 14-H ) :   0.8448
B( 15-O , 16-H ) :   0.8396 B( 15-O , 17-H ) :   0.7785

MP2 TOTAL ENERGY:     -457.932401245 Eh
FINAL SINGLE POINT ENERGY      -457.932401244668

DIPOLE MOMENT
-------------
                                X             Y             Z
Electronic contribution:      0.03936      -0.04528       0.05693
Nuclear contribution   :     -0.22520       0.14541      -1.51390
                        -----------------------------------------
Total Dipole Moment    :     -0.18584       0.10013      -1.45697
                        -----------------------------------------
Magnitude (a.u.)       :      1.47219
Magnitude (Debye)      :      3.74200

Rotational constants in cm-1:     0.043847     0.024201     0.021625
Rotational constants in MHz :  1314.496959   725.522001   648.313464

                             ****ORCA TERMINATED NORMALLY****
TOTAL RUN TIME: 0 days 0 hours 1 minutes 0 seconds 401 msec
