                         Program Version 4.2.0 -  RELEASE  -
|  1> # 12meoh.boyd.etal.mol8,11
|  2> ! MP2 def2-TZVP EnGrad TightSCF
|  3>
|  4> %pal
|  5>     nprocs 6
|  6> end
|  7>
|  8> %maxcore 8000
|  9>
| 10> %scf
| 11>     ConvForced true
| 12> end
| 13>
| 14> *xyz 0 1
| 15> O   3.570084754   2.361662577  -0.202416728
| 16> H   3.393280933   1.755669977   0.560634073
| 17> C   4.368082883   1.644741793  -1.143112807
| 18> H   4.552851717   2.311801738  -1.989632421
| 19> H   3.862427494   0.740851663  -1.508095690
| 20> H   5.333949674   1.357289092  -0.706288100
| 21> O   3.252955559   0.588596242   1.858934315
| 22> H   3.621209177  -0.251605199   1.476063364
| 23> C   4.040824528   0.944288422   2.989639460
| 24> H   3.670521436   1.902573549   3.363847391
| 25> H   5.103749934   1.055868619   2.734277559
| 26> H   3.948540682   0.200279590   3.792908518
| 27> *
| 28>
| 29>                          ****END OF INPUT****

CARTESIAN COORDINATES (ANGSTROEM)
---------------------------------
  O      3.570085    2.361663   -0.202417
  H      3.393281    1.755670    0.560634
  C      4.368083    1.644742   -1.143113
  H      4.552852    2.311802   -1.989632
  H      3.862427    0.740852   -1.508096
  H      5.333950    1.357289   -0.706288
  O      3.252956    0.588596    1.858934
  H      3.621209   -0.251605    1.476063
  C      4.040825    0.944288    2.989639
  H      3.670521    1.902574    3.363847
  H      5.103750    1.055869    2.734278
  H      3.948541    0.200280    3.792909

 Total Charge           Charge          ....    0
 Multiplicity           Mult            ....    1
 Number of Electrons    NEL             ....   36
 Basis Dimension        Dim             ....  172

ORBITAL ENERGIES
----------------

  NO   OCC          E(Eh)            E(eV)
   0   2.0000     -20.589998      -560.2823
   1   2.0000     -20.519879      -558.3743
   2   2.0000     -11.290053      -307.2180
   3   2.0000     -11.256743      -306.3115
   4   2.0000      -1.382670       -37.6244
   5   2.0000      -1.316194       -35.8155
   6   2.0000      -0.941868       -25.6295
   7   2.0000      -0.902933       -24.5700
   8   2.0000      -0.712556       -19.3896
   9   2.0000      -0.678369       -18.4594
  10   2.0000      -0.632995       -17.2247
  11   2.0000      -0.613224       -16.6867
  12   2.0000      -0.597513       -16.2591
  13   2.0000      -0.566177       -15.4065
  14   2.0000      -0.527282       -14.3481
  15   2.0000      -0.491837       -13.3836
  16   2.0000      -0.461018       -12.5449
  17   2.0000      -0.423337       -11.5196
  18   0.0000       0.112665         3.0658
  19   0.0000       0.159068         4.3285
  20   0.0000       0.177001         4.8164
  21   0.0000       0.208474         5.6729
  22   0.0000       0.214395         5.8340

MULLIKEN ATOMIC CHARGES
-----------------------
   0 O :   -0.520250
   1 H :    0.358622
   2 C :   -0.193455
   3 H :    0.128229
   4 H :    0.101718
   5 H :    0.094404
   6 O :   -0.516065
   7 H :    0.339828
   8 C :   -0.192093
   9 H :    0.148116
  10 H :    0.126051
  11 H :    0.124896
Sum of atomic charges:   -0.0000000

LOEWDIN ATOMIC CHARGES
----------------------
   0 O :   -0.119459
   1 H :    0.159645
   2 C :   -0.395920
   3 H :    0.108343
   4 H :    0.090644
   5 H :    0.088722
   6 O :   -0.076875
   7 H :    0.197105
   8 C :   -0.374533
   9 H :    0.117285
  10 H :    0.101621
  11 H :    0.103422

  Mayer bond orders larger than 0.100000
B(  0-O ,  1-H ) :   0.7958 B(  0-O ,  2-C ) :   0.9444 B(  2-C ,  3-H ) :   0.9429
B(  2-C ,  4-H ) :   0.9399 B(  2-C ,  5-H ) :   0.9343 B(  6-O ,  7-H ) :   0.8297
B(  6-O ,  8-C ) :   0.8750 B(  8-C ,  9-H ) :   0.9391 B(  8-C , 10-H ) :   0.9364
B(  8-C , 11-H ) :   0.9347

MP2 TOTAL ENERGY:     -231.022363417 Eh
FINAL SINGLE POINT ENERGY      -231.022363416554

DIPOLE MOMENT
-------------
                                X             Y             Z
Electronic contribution:     -2.13124       0.59011       0.03056
Nuclear contribution   :      2.83761      -1.72613       0.63135
                        -----------------------------------------
Total Dipole Moment    :      0.70636      -1.13602       0.66191
                        -----------------------------------------
Magnitude (a.u.)       :      1.49252
Magnitude (Debye)      :      3.79368

Rotational constants in cm-1:     0.545480     0.082540     0.081084
Rotational constants in MHz : 16353.067005  2474.487823  2430.827627

                             ****ORCA TERMINATED NORMALLY****
TOTAL RUN TIME: 0 days 0 hours 0 minutes 28 seconds 990 msec
