                         Program Version 4.2.0 -  RELEASE  -
|  1> # 12h2o.su.etal.mol0,1,4,8,9
|  2> ! MP2 def2-TZVP EnGrad TightSCF
|  3>
|  4> %pal
|  5>     nprocs 6
|  6> end
|  7>
|  8> %maxcore 8000
|  9>
| 10> %scf
| 11>     ConvForced true
| 12> end
| 13>
| 14> *xyz 0 1
| 15> O   1.794470000   0.923410000   2.768350000
| 16> H   2.338250000   1.359750000   3.430940000
| 17> H   0.879480000   1.303000000   2.865760000
| 18> O  -1.794470000  -0.923410000   2.768350000
| 19> H  -2.338250000  -1.359750000   3.430940000
| 20> H  -0.879480000  -1.303000000   2.865760000
| 21> O  -0.885520000   1.737840000   0.052730000
| 22> H  -1.032320000   2.090180000  -0.841890000
| 23> H  -1.284090000   0.839590000   0.017130000
| 24> O   1.752130000   0.741530000  -2.896280000
| 25> H   2.036450000   0.920500000  -1.984040000
| 26> H   0.921210000   1.242140000  -2.984230000
| 27> O   0.741530000  -1.752130000   2.896280000
| 28> H   0.920500000  -2.036450000   1.984040000
| 29> H   1.242140000  -0.921210000   2.984230000
| 30> *
| 31>
| 32>                          ****END OF INPUT****

CARTESIAN COORDINATES (ANGSTROEM)
---------------------------------
  O      1.794470    0.923410    2.768350
  H      2.338250    1.359750    3.430940
  H      0.879480    1.303000    2.865760
  O     -1.794470   -0.923410    2.768350
  H     -2.338250   -1.359750    3.430940
  H     -0.879480   -1.303000    2.865760
  O     -0.885520    1.737840    0.052730
  H     -1.032320    2.090180   -0.841890
  H     -1.284090    0.839590    0.017130
  O      1.752130    0.741530   -2.896280
  H      2.036450    0.920500   -1.984040
  H      0.921210    1.242140   -2.984230
  O      0.741530   -1.752130    2.896280
  H      0.920500   -2.036450    1.984040
  H      1.242140   -0.921210    2.984230

 Total Charge           Charge          ....    0
 Multiplicity           Mult            ....    1
 Number of Electrons    NEL             ....   50
 Basis Dimension        Dim             ....  215

ORBITAL ENERGIES
----------------

  NO   OCC          E(Eh)            E(eV)
   0   2.0000     -20.589896      -560.2795
   1   2.0000     -20.569113      -559.7140
   2   2.0000     -20.568116      -559.6869
   3   2.0000     -20.562986      -559.5473
   4   2.0000     -20.519306      -558.3587
   5   2.0000      -1.369527       -37.2667
   6   2.0000      -1.355952       -36.8973
   7   2.0000      -1.343942       -36.5705
   8   2.0000      -1.342110       -36.5207
   9   2.0000      -1.301099       -35.4047
  10   2.0000      -0.736354       -20.0372
  11   2.0000      -0.717368       -19.5206
  12   2.0000      -0.705915       -19.2089
  13   2.0000      -0.704725       -19.1765
  14   2.0000      -0.688502       -18.7351
  15   2.0000      -0.615910       -16.7598
  16   2.0000      -0.589853       -16.0507
  17   2.0000      -0.584109       -15.8944
  18   2.0000      -0.579557       -15.7706
  19   2.0000      -0.549963       -14.9653
  20   2.0000      -0.530392       -14.4327
  21   2.0000      -0.510944       -13.9035
  22   2.0000      -0.506776       -13.7901
  23   2.0000      -0.501749       -13.6533
  24   2.0000      -0.470068       -12.7912
  25   0.0000       0.092592         2.5196
  26   0.0000       0.116548         3.1714
  27   0.0000       0.147619         4.0169
  28   0.0000       0.164140         4.4665
  29   0.0000       0.180680         4.9165

MULLIKEN ATOMIC CHARGES
-----------------------
   0 O :   -0.705906
   1 H :    0.352897
   2 H :    0.377513
   3 O :   -0.739010
   4 H :    0.326000
   5 H :    0.364614
   6 O :   -0.680657
   7 H :    0.326233
   8 H :    0.354869
   9 O :   -0.673428
  10 H :    0.343596
  11 H :    0.327721
  12 O :   -0.700635
  13 H :    0.351996
  14 H :    0.374198
Sum of atomic charges:   -0.0000000

LOEWDIN ATOMIC CHARGES
----------------------
   0 O :   -0.311831
   1 H :    0.164149
   2 H :    0.194283
   3 O :   -0.376315
   4 H :    0.149090
   5 H :    0.140888
   6 O :   -0.337114
   7 H :    0.159533
   8 H :    0.178369
   9 O :   -0.330742
  10 H :    0.167339
  11 H :    0.161539
  12 O :   -0.283501
  13 H :    0.170665
  14 H :    0.153648

  Mayer bond orders larger than 0.100000
B(  0-O ,  1-H ) :   0.8412 B(  0-O ,  2-H ) :   0.8165 B(  3-O ,  4-H ) :   0.8600
B(  3-O ,  5-H ) :   0.7753 B(  6-O ,  7-H ) :   0.8575 B(  6-O ,  8-H ) :   0.8371
B(  9-O , 10-H ) :   0.8486 B(  9-O , 11-H ) :   0.8577 B( 12-O , 13-H ) :   0.8415
B( 12-O , 14-H ) :   0.7957

MP2 TOTAL ENERGY:     -381.588303242 Eh
FINAL SINGLE POINT ENERGY      -381.588303241858

DIPOLE MOMENT
-------------
                                X             Y             Z
Electronic contribution:      0.42719       0.01720      -0.01456
Nuclear contribution   :     -0.34326       0.56623       0.49091
                        -----------------------------------------
Total Dipole Moment    :      0.08393       0.58343       0.47635
                        -----------------------------------------
Magnitude (a.u.)       :      0.75785
Magnitude (Debye)      :      1.92630

Rotational constants in cm-1:     0.064301     0.026412     0.023757
Rotational constants in MHz :  1927.704799   791.825227   712.214794

                             ****ORCA TERMINATED NORMALLY****
TOTAL RUN TIME: 0 days 0 hours 0 minutes 31 seconds 354 msec
