                         Program Version 4.2.0 -  RELEASE  -
|  1> # 12mecn.remya.etal.2.mol0,1,4
|  2> ! MP2 def2-TZVP EnGrad TightSCF
|  3>
|  4> %pal
|  5>     nprocs 6
|  6> end
|  7>
|  8> %maxcore 8000
|  9>
| 10> %scf
| 11>     ConvForced true
| 12> end
| 13>
| 14> *xyz 0 1
| 15> C  -0.869520000  -3.929380000   1.700199000
| 16> H  -0.057420000  -3.268850000   2.015352000
| 17> H  -0.697530000  -4.930670000   2.101524000
| 18> H  -1.821490000  -3.546590000   2.077146000
| 19> C  -0.916080000  -3.969960000   0.256749000
| 20> N  -0.955390000  -3.995980000  -0.909290000
| 21> C  -4.697980000  -0.249690000   1.746215000
| 22> H  -4.927570000   0.755530000   2.111799000
| 23> H  -3.709180000  -0.561560000   2.093253000
| 24> H  -5.432280000  -0.961520000   2.128066000
| 25> C  -4.714100000  -0.247110000   0.301670000
| 26> N  -4.729750000  -0.234960000  -0.865260000
| 27> C  -1.509690000  -0.693960000  -1.610140000
| 28> H  -1.327010000  -1.692700000  -2.017370000
| 29> H  -0.742170000  -0.000650000  -1.964400000
| 30> H  -2.491920000  -0.334310000  -1.929350000
| 31> C  -1.473570000  -0.748120000  -0.167200000
| 32> N  -1.447490000  -0.793720000   0.998938000
| 33> *
| 34>
| 35>                          ****END OF INPUT****

CARTESIAN COORDINATES (ANGSTROEM)
---------------------------------
  C     -0.869520   -3.929380    1.700199
  H     -0.057420   -3.268850    2.015352
  H     -0.697530   -4.930670    2.101524
  H     -1.821490   -3.546590    2.077146
  C     -0.916080   -3.969960    0.256749
  N     -0.955390   -3.995980   -0.909290
  C     -4.697980   -0.249690    1.746215
  H     -4.927570    0.755530    2.111799
  H     -3.709180   -0.561560    2.093253
  H     -5.432280   -0.961520    2.128066
  C     -4.714100   -0.247110    0.301670
  N     -4.729750   -0.234960   -0.865260
  C     -1.509690   -0.693960   -1.610140
  H     -1.327010   -1.692700   -2.017370
  H     -0.742170   -0.000650   -1.964400
  H     -2.491920   -0.334310   -1.929350
  C     -1.473570   -0.748120   -0.167200
  N     -1.447490   -0.793720    0.998938

 Total Charge           Charge          ....    0
 Multiplicity           Mult            ....    1
 Number of Electrons    NEL             ....   66
 Basis Dimension        Dim             ....  333

ORBITAL ENERGIES
----------------

  NO   OCC          E(Eh)            E(eV)
   0   2.0000     -15.571992      -423.7354
   1   2.0000     -15.570101      -423.6840
   2   2.0000     -15.568838      -423.6496
   3   2.0000     -11.284728      -307.0731
   4   2.0000     -11.283075      -307.0281
   5   2.0000     -11.281315      -306.9802
   6   2.0000     -11.275484      -306.8215
   7   2.0000     -11.275110      -306.8113
   8   2.0000     -11.259649      -306.3906
   9   2.0000      -1.218895       -33.1678
  10   2.0000      -1.215374       -33.0720
  11   2.0000      -1.212615       -32.9969
  12   2.0000      -1.038287       -28.2532
  13   2.0000      -1.037113       -28.2213
  14   2.0000      -1.026722       -27.9385
  15   2.0000      -0.695949       -18.9377
  16   2.0000      -0.694315       -18.8933
  17   2.0000      -0.684022       -18.6132
  18   2.0000      -0.630061       -17.1448
  19   2.0000      -0.628592       -17.1049
  20   2.0000      -0.626139       -17.0381
  21   2.0000      -0.623692       -16.9715
  22   2.0000      -0.611768       -16.6471
  23   2.0000      -0.608928       -16.5698
  24   2.0000      -0.560259       -15.2454
  25   2.0000      -0.556114       -15.1326
  26   2.0000      -0.555118       -15.1055
  27   2.0000      -0.462688       -12.5904
  28   2.0000      -0.459120       -12.4933
  29   2.0000      -0.458235       -12.4692
  30   2.0000      -0.456771       -12.4294
  31   2.0000      -0.455905       -12.4058
  32   2.0000      -0.451900       -12.2968
  33   0.0000       0.115936         3.1548
  34   0.0000       0.141942         3.8624
  35   0.0000       0.155988         4.2447
  36   0.0000       0.163928         4.4607
  37   0.0000       0.173231         4.7139

MULLIKEN ATOMIC CHARGES
-----------------------
   0 C :   -0.255170
   1 H :    0.177213
   2 H :    0.172961
   3 H :    0.166655
   4 C :   -0.122936
   5 N :   -0.138283
   6 C :   -0.288834
   7 H :    0.169338
   8 H :    0.198054
   9 H :    0.167123
  10 C :   -0.101374
  11 N :   -0.144259
  12 C :   -0.291321
  13 H :    0.199905
  14 H :    0.160397
  15 H :    0.200202
  16 C :   -0.069985
  17 N :   -0.199686
Sum of atomic charges:    0.0000000

LOEWDIN ATOMIC CHARGES
----------------------
   0 C :   -0.285132
   1 H :    0.156440
   2 H :    0.149050
   3 H :    0.153480
   4 C :   -0.211722
   5 N :    0.034389
   6 C :   -0.283619
   7 H :    0.153319
   8 H :    0.154554
   9 H :    0.150011
  10 C :   -0.208941
  11 N :    0.035129
  12 C :   -0.280015
  13 H :    0.157543
  14 H :    0.150313
  15 H :    0.156771
  16 C :   -0.200557
  17 N :    0.018990

  Mayer bond orders larger than 0.100000
B(  0-C ,  1-H ) :   0.9132 B(  0-C ,  2-H ) :   0.9112 B(  0-C ,  3-H ) :   0.9152
B(  0-C ,  4-C ) :   0.9114 B(  4-C ,  5-N ) :   2.7795 B(  6-C ,  7-H ) :   0.9142
B(  6-C ,  8-H ) :   0.9049 B(  6-C ,  9-H ) :   0.9176 B(  6-C , 10-C ) :   0.8995
B( 10-C , 11-N ) :   2.7683 B( 12-C , 13-H ) :   0.9028 B( 12-C , 14-H ) :   0.9141
B( 12-C , 15-H ) :   0.9018 B( 12-C , 16-C ) :   0.8961 B( 16-C , 17-N ) :   2.7260

MP2 TOTAL ENERGY:     -397.467195021 Eh
FINAL SINGLE POINT ENERGY      -397.467195020703

DIPOLE MOMENT
-------------
                                X             Y             Z
Electronic contribution:     -0.06461      -0.20305      -3.18780
Nuclear contribution   :      0.09667       0.28868       4.65306
                        -----------------------------------------
Total Dipole Moment    :      0.03207       0.08563       1.46526
                        -----------------------------------------
Magnitude (a.u.)       :      1.46811
Magnitude (Debye)      :      3.73165

Rotational constants in cm-1:     0.060421     0.025043     0.021706
Rotational constants in MHz :  1811.376175   750.772389   650.717445

                             ****ORCA TERMINATED NORMALLY****
TOTAL RUN TIME: 0 days 0 hours 4 minutes 16 seconds 896 msec
