                         Program Version 4.2.0 -  RELEASE  -
|  1> # 12h2o.su.etal.mol2,4,5,7,11
|  2> ! MP2 def2-TZVP EnGrad TightSCF
|  3>
|  4> %pal
|  5>     nprocs 6
|  6> end
|  7>
|  8> %maxcore 8000
|  9>
| 10> %scf
| 11>     ConvForced true
| 12> end
| 13>
| 14> *xyz 0 1
| 15> O   0.923410000  -1.794470000  -2.768350000
| 16> H   1.359750000  -2.338250000  -3.430940000
| 17> H   1.303000000  -0.879480000  -2.865760000
| 18> O  -0.885520000   1.737840000   0.052730000
| 19> H  -1.032320000   2.090180000  -0.841890000
| 20> H  -1.284090000   0.839590000   0.017130000
| 21> O   0.885520000  -1.737840000   0.052730000
| 22> H   1.284090000  -0.839590000   0.017130000
| 23> H   1.032320000  -2.090180000  -0.841890000
| 24> O  -1.737840000  -0.885520000  -0.052730000
| 25> H  -2.090180000  -1.032320000   0.841890000
| 26> H  -0.839590000  -1.284090000  -0.017130000
| 27> O  -0.741530000   1.752130000   2.896280000
| 28> H  -0.920500000   2.036450000   1.984040000
| 29> H  -1.242140000   0.921210000   2.984230000
| 30> *
| 31>
| 32>                          ****END OF INPUT****

CARTESIAN COORDINATES (ANGSTROEM)
---------------------------------
  O      0.923410   -1.794470   -2.768350
  H      1.359750   -2.338250   -3.430940
  H      1.303000   -0.879480   -2.865760
  O     -0.885520    1.737840    0.052730
  H     -1.032320    2.090180   -0.841890
  H     -1.284090    0.839590    0.017130
  O      0.885520   -1.737840    0.052730
  H      1.284090   -0.839590    0.017130
  H      1.032320   -2.090180   -0.841890
  O     -1.737840   -0.885520   -0.052730
  H     -2.090180   -1.032320    0.841890
  H     -0.839590   -1.284090   -0.017130
  O     -0.741530    1.752130    2.896280
  H     -0.920500    2.036450    1.984040
  H     -1.242140    0.921210    2.984230

 Total Charge           Charge          ....    0
 Multiplicity           Mult            ....    1
 Number of Electrons    NEL             ....   50
 Basis Dimension        Dim             ....  215

ORBITAL ENERGIES
----------------

  NO   OCC          E(Eh)            E(eV)
   0   2.0000     -20.606337      -560.7269
   1   2.0000     -20.575712      -559.8936
   2   2.0000     -20.561587      -559.5092
   3   2.0000     -20.548553      -559.1546
   4   2.0000     -20.524217      -558.4923
   5   2.0000      -1.384851       -37.6837
   6   2.0000      -1.362098       -37.0646
   7   2.0000      -1.346285       -36.6343
   8   2.0000      -1.329508       -36.1778
   9   2.0000      -1.305411       -35.5220
  10   2.0000      -0.751263       -20.4429
  11   2.0000      -0.722210       -19.6523
  12   2.0000      -0.714016       -19.4294
  13   2.0000      -0.704439       -19.1688
  14   2.0000      -0.674290       -18.3484
  15   2.0000      -0.628672       -17.1070
  16   2.0000      -0.608864       -16.5680
  17   2.0000      -0.590685       -16.0733
  18   2.0000      -0.574392       -15.6300
  19   2.0000      -0.545385       -14.8407
  20   2.0000      -0.540406       -14.7052
  21   2.0000      -0.516064       -14.0428
  22   2.0000      -0.505243       -13.7484
  23   2.0000      -0.496257       -13.5038
  24   2.0000      -0.470504       -12.8031
  25   0.0000       0.086124         2.3436
  26   0.0000       0.119776         3.2593
  27   0.0000       0.148145         4.0312
  28   0.0000       0.169880         4.6227
  29   0.0000       0.186246         5.0680

MULLIKEN ATOMIC CHARGES
-----------------------
   0 O :   -0.695259
   1 H :    0.357562
   2 H :    0.354303
   3 O :   -0.730164
   4 H :    0.335179
   5 H :    0.351921
   6 O :   -0.701942
   7 H :    0.348177
   8 H :    0.380922
   9 O :   -0.709662
  10 H :    0.340162
  11 H :    0.379192
  12 O :   -0.693380
  13 H :    0.373482
  14 H :    0.309506
Sum of atomic charges:   -0.0000000

LOEWDIN ATOMIC CHARGES
----------------------
   0 O :   -0.309162
   1 H :    0.166084
   2 H :    0.185772
   3 O :   -0.345240
   4 H :    0.161455
   5 H :    0.141246
   6 O :   -0.295941
   7 H :    0.173863
   8 H :    0.154219
   9 O :   -0.308151
  10 H :    0.162270
  11 H :    0.147702
  12 O :   -0.340729
  13 H :    0.153770
  14 H :    0.152844

  Mayer bond orders larger than 0.100000
B(  0-O ,  1-H ) :   0.8388 B(  0-O ,  2-H ) :   0.8344 B(  3-O ,  4-H ) :   0.8513
B(  3-O ,  5-H ) :   0.7692 B(  5-H ,  9-O ) :   0.1065 B(  6-O ,  7-H ) :   0.8377
B(  6-O ,  8-H ) :   0.8009 B(  9-O , 10-H ) :   0.8472 B(  9-O , 11-H ) :   0.7677
B( 12-O , 13-H ) :   0.8149 B( 12-O , 14-H ) :   0.8679

MP2 TOTAL ENERGY:     -381.599958370 Eh
FINAL SINGLE POINT ENERGY      -381.599958370052

DIPOLE MOMENT
-------------
                                X             Y             Z
Electronic contribution:      0.14106      -0.30461      -0.10264
Nuclear contribution   :      0.56789      -0.59993      -2.09298
                        -----------------------------------------
Total Dipole Moment    :      0.70894      -0.90454      -2.19562
                        -----------------------------------------
Magnitude (a.u.)       :      2.47821
Magnitude (Debye)      :      6.29912

Rotational constants in cm-1:     0.117412     0.031073     0.029681
Rotational constants in MHz :  3519.918290   931.541695   889.805688

                             ****ORCA TERMINATED NORMALLY****
TOTAL RUN TIME: 0 days 0 hours 0 minutes 36 seconds 225 msec
