                         Program Version 4.2.0 -  RELEASE  -
|  1> # 12h2o.su.etal.mol0,4,6,8,9,10
|  2> ! MP2 def2-TZVP EnGrad TightSCF
|  3>
|  4> %pal
|  5>     nprocs 6
|  6> end
|  7>
|  8> %maxcore 8000
|  9>
| 10> %scf
| 11>     ConvForced true
| 12> end
| 13>
| 14> *xyz 0 1
| 15> O   1.794470000   0.923410000   2.768350000
| 16> H   2.338250000   1.359750000   3.430940000
| 17> H   0.879480000   1.303000000   2.865760000
| 18> O  -0.885520000   1.737840000   0.052730000
| 19> H  -1.032320000   2.090180000  -0.841890000
| 20> H  -1.284090000   0.839590000   0.017130000
| 21> O   1.737840000   0.885520000  -0.052730000
| 22> H   2.090180000   1.032320000   0.841890000
| 23> H   0.839590000   1.284090000  -0.017130000
| 24> O   1.752130000   0.741530000  -2.896280000
| 25> H   2.036450000   0.920500000  -1.984040000
| 26> H   0.921210000   1.242140000  -2.984230000
| 27> O   0.741530000  -1.752130000   2.896280000
| 28> H   0.920500000  -2.036450000   1.984040000
| 29> H   1.242140000  -0.921210000   2.984230000
| 30> O  -0.923410000   1.794470000  -2.768350000
| 31> H  -1.359750000   2.338250000  -3.430940000
| 32> H  -1.303000000   0.879480000  -2.865760000
| 33> *
| 34>
| 35>                          ****END OF INPUT****

CARTESIAN COORDINATES (ANGSTROEM)
---------------------------------
  O      1.794470    0.923410    2.768350
  H      2.338250    1.359750    3.430940
  H      0.879480    1.303000    2.865760
  O     -0.885520    1.737840    0.052730
  H     -1.032320    2.090180   -0.841890
  H     -1.284090    0.839590    0.017130
  O      1.737840    0.885520   -0.052730
  H      2.090180    1.032320    0.841890
  H      0.839590    1.284090   -0.017130
  O      1.752130    0.741530   -2.896280
  H      2.036450    0.920500   -1.984040
  H      0.921210    1.242140   -2.984230
  O      0.741530   -1.752130    2.896280
  H      0.920500   -2.036450    1.984040
  H      1.242140   -0.921210    2.984230
  O     -0.923410    1.794470   -2.768350
  H     -1.359750    2.338250   -3.430940
  H     -1.303000    0.879480   -2.865760

 Total Charge           Charge          ....    0
 Multiplicity           Mult            ....    1
 Number of Electrons    NEL             ....   60
 Basis Dimension        Dim             ....  258

ORBITAL ENERGIES
----------------

  NO   OCC          E(Eh)            E(eV)
   0   2.0000     -20.620191      -561.1039
   1   2.0000     -20.606808      -560.7397
   2   2.0000     -20.582321      -560.0734
   3   2.0000     -20.532102      -558.7069
   4   2.0000     -20.522342      -558.4413
   5   2.0000     -20.499631      -557.8233
   6   2.0000      -1.400744       -38.1162
   7   2.0000      -1.386995       -37.7421
   8   2.0000      -1.365697       -37.1625
   9   2.0000      -1.314579       -35.7715
  10   2.0000      -1.309585       -35.6356
  11   2.0000      -1.284392       -34.9501
  12   2.0000      -0.766048       -20.8452
  13   2.0000      -0.752587       -20.4789
  14   2.0000      -0.729812       -19.8592
  15   2.0000      -0.691914       -18.8279
  16   2.0000      -0.685272       -18.6472
  17   2.0000      -0.666986       -18.1496
  18   2.0000      -0.641351       -17.4521
  19   2.0000      -0.625208       -17.0128
  20   2.0000      -0.601805       -16.3759
  21   2.0000      -0.583399       -15.8751
  22   2.0000      -0.564147       -15.3512
  23   2.0000      -0.548155       -14.9160
  24   2.0000      -0.534289       -14.5388
  25   2.0000      -0.520222       -14.1560
  26   2.0000      -0.508036       -13.8244
  27   2.0000      -0.479988       -13.0611
  28   2.0000      -0.473377       -12.8812
  29   2.0000      -0.449363       -12.2278
  30   0.0000       0.085330         2.3220
  31   0.0000       0.105942         2.8828
  32   0.0000       0.141126         3.8402
  33   0.0000       0.169643         4.6162
  34   0.0000       0.180881         4.9220

MULLIKEN ATOMIC CHARGES
-----------------------
   0 O :   -0.712712
   1 H :    0.361781
   2 H :    0.374416
   3 O :   -0.697725
   4 H :    0.380660
   5 H :    0.345672
   6 O :   -0.739877
   7 H :    0.360742
   8 H :    0.341467
   9 O :   -0.725645
  10 H :    0.372444
  11 H :    0.332810
  12 O :   -0.708564
  13 H :    0.335886
  14 H :    0.355862
  15 O :   -0.713101
  16 H :    0.367047
  17 H :    0.368837
Sum of atomic charges:    0.0000000

LOEWDIN ATOMIC CHARGES
----------------------
   0 O :   -0.286559
   1 H :    0.166783
   2 H :    0.192865
   3 O :   -0.299252
   4 H :    0.153417
   5 H :    0.173592
   6 O :   -0.347328
   7 H :    0.144907
   8 H :    0.137352
   9 O :   -0.356836
  10 H :    0.151503
  11 H :    0.136024
  12 O :   -0.348743
  13 H :    0.162720
  14 H :    0.145618
  15 O :   -0.286566
  16 H :    0.169072
  17 H :    0.191429

  Mayer bond orders larger than 0.100000
B(  0-O ,  1-H ) :   0.8334 B(  0-O ,  2-H ) :   0.8182 B(  3-O ,  4-H ) :   0.8043
B(  3-O ,  5-H ) :   0.8417 B(  6-O ,  7-H ) :   0.8248 B(  6-O ,  8-H ) :   0.7900
B(  9-O , 10-H ) :   0.8149 B(  9-O , 11-H ) :   0.8459 B( 12-O , 13-H ) :   0.8532
B( 12-O , 14-H ) :   0.8249 B( 15-O , 16-H ) :   0.8304 B( 15-O , 17-H ) :   0.8216

MP2 TOTAL ENERGY:     -457.918699876 Eh
FINAL SINGLE POINT ENERGY      -457.918699875880

DIPOLE MOMENT
-------------
                                X             Y             Z
Electronic contribution:      0.00650       0.09328       0.11986
Nuclear contribution   :     -1.78578       1.39034       0.00000
                        -----------------------------------------
Total Dipole Moment    :     -1.77927       1.48362       0.11986
                        -----------------------------------------
Magnitude (a.u.)       :      2.31977
Magnitude (Debye)      :      5.89638

Rotational constants in cm-1:     0.073623     0.022625     0.020897
Rotational constants in MHz :  2207.171350   678.286163   626.490548

                             ****ORCA TERMINATED NORMALLY****
TOTAL RUN TIME: 0 days 0 hours 1 minutes 4 seconds 968 msec
