                         Program Version 4.2.0 -  RELEASE  -
|  1> # 12h2o.su.etal.mol2,8,10,11
|  2> ! MP2 def2-TZVP EnGrad TightSCF
|  3>
|  4> %pal
|  5>     nprocs 6
|  6> end
|  7>
|  8> %maxcore 8000
|  9>
| 10> %scf
| 11>     ConvForced true
| 12> end
| 13>
| 14> *xyz 0 1
| 15> O   0.923410000  -1.794470000  -2.768350000
| 16> H   1.359750000  -2.338250000  -3.430940000
| 17> H   1.303000000  -0.879480000  -2.865760000
| 18> O   1.752130000   0.741530000  -2.896280000
| 19> H   2.036450000   0.920500000  -1.984040000
| 20> H   0.921210000   1.242140000  -2.984230000
| 21> O  -0.923410000   1.794470000  -2.768350000
| 22> H  -1.359750000   2.338250000  -3.430940000
| 23> H  -1.303000000   0.879480000  -2.865760000
| 24> O  -0.741530000   1.752130000   2.896280000
| 25> H  -0.920500000   2.036450000   1.984040000
| 26> H  -1.242140000   0.921210000   2.984230000
| 27> *
| 28>
| 29>                          ****END OF INPUT****

CARTESIAN COORDINATES (ANGSTROEM)
---------------------------------
  O      0.923410   -1.794470   -2.768350
  H      1.359750   -2.338250   -3.430940
  H      1.303000   -0.879480   -2.865760
  O      1.752130    0.741530   -2.896280
  H      2.036450    0.920500   -1.984040
  H      0.921210    1.242140   -2.984230
  O     -0.923410    1.794470   -2.768350
  H     -1.359750    2.338250   -3.430940
  H     -1.303000    0.879480   -2.865760
  O     -0.741530    1.752130    2.896280
  H     -0.920500    2.036450    1.984040
  H     -1.242140    0.921210    2.984230

 Total Charge           Charge          ....    0
 Multiplicity           Mult            ....    1
 Number of Electrons    NEL             ....   40
 Basis Dimension        Dim             ....  172

ORBITAL ENERGIES
----------------

  NO   OCC          E(Eh)            E(eV)
   0   2.0000     -20.601284      -560.5895
   1   2.0000     -20.570947      -559.7639
   2   2.0000     -20.561030      -559.4941
   3   2.0000     -20.517226      -558.3021
   4   2.0000      -1.379794       -37.5461
   5   2.0000      -1.358852       -36.9762
   6   2.0000      -1.340309       -36.4717
   7   2.0000      -1.299236       -35.3540
   8   2.0000      -0.746854       -20.3229
   9   2.0000      -0.720659       -19.6101
  10   2.0000      -0.703128       -19.1331
  11   2.0000      -0.687198       -18.6996
  12   2.0000      -0.623460       -16.9652
  13   2.0000      -0.594583       -16.1794
  14   2.0000      -0.577807       -15.7229
  15   2.0000      -0.551259       -15.0005
  16   2.0000      -0.539169       -14.6715
  17   2.0000      -0.505197       -13.7471
  18   2.0000      -0.502080       -13.6623
  19   2.0000      -0.467978       -12.7343
  20   0.0000       0.100322         2.7299
  21   0.0000       0.129061         3.5119
  22   0.0000       0.150539         4.0964
  23   0.0000       0.174281         4.7424
  24   0.0000       0.189447         5.1551

MULLIKEN ATOMIC CHARGES
-----------------------
   0 O :   -0.738648
   1 H :    0.325221
   2 H :    0.364046
   3 O :   -0.699723
   4 H :    0.353972
   5 H :    0.372242
   6 O :   -0.705048
   7 H :    0.357307
   8 H :    0.370762
   9 O :   -0.675075
  10 H :    0.337109
  11 H :    0.337835
Sum of atomic charges:    0.0000000

LOEWDIN ATOMIC CHARGES
----------------------
   0 O :   -0.376455
   1 H :    0.148295
   2 H :    0.140562
   3 O :   -0.283014
   4 H :    0.171675
   5 H :    0.152848
   6 O :   -0.312116
   7 H :    0.165982
   8 H :    0.192297
   9 O :   -0.332422
  10 H :    0.165352
  11 H :    0.166995

  Mayer bond orders larger than 0.100000
B(  0-O ,  1-H ) :   0.8607 B(  0-O ,  2-H ) :   0.7781 B(  3-O ,  4-H ) :   0.8403
B(  3-O ,  5-H ) :   0.7998 B(  6-O ,  7-H ) :   0.8389 B(  6-O ,  8-H ) :   0.8222
B(  9-O , 10-H ) :   0.8533 B(  9-O , 11-H ) :   0.8527

MP2 TOTAL ENERGY:     -305.271199698 Eh
FINAL SINGLE POINT ENERGY      -305.271199698272

DIPOLE MOMENT
-------------
                                X             Y             Z
Electronic contribution:      0.05051       0.37545       0.18708
Nuclear contribution   :     -1.02062       0.11069      -1.26519
                        -----------------------------------------
Total Dipole Moment    :     -0.97011       0.48613      -1.07811
                        -----------------------------------------
Magnitude (a.u.)       :      1.52963
Magnitude (Debye)      :      3.88800

Rotational constants in cm-1:     0.096805     0.030304     0.026269
Rotational constants in MHz :  2902.131605   908.490859   787.521086

                             ****ORCA TERMINATED NORMALLY****
TOTAL RUN TIME: 0 days 0 hours 0 minutes 15 seconds 99 msec
