                         Program Version 4.2.0 -  RELEASE  -
|  1> # 12mecn.remya.etal.2.mol0,7
|  2> ! MP2 def2-TZVP EnGrad TightSCF
|  3>
|  4> %pal
|  5>     nprocs 6
|  6> end
|  7>
|  8> %maxcore 8000
|  9>
| 10> %scf
| 11>     ConvForced true
| 12> end
| 13>
| 14> *xyz 0 1
| 15> C  -0.869520000  -3.929380000   1.700199000
| 16> H  -0.057420000  -3.268850000   2.015352000
| 17> H  -0.697530000  -4.930670000   2.101524000
| 18> H  -1.821490000  -3.546590000   2.077146000
| 19> C  -0.916080000  -3.969960000   0.256749000
| 20> N  -0.955390000  -3.995980000  -0.909290000
| 21> C   1.502241000   0.651296000   1.710523000
| 22> H   1.309219000   1.637164000   2.143202000
| 23> H   2.493408000   0.297996000   2.009069000
| 24> H   0.746597000  -0.059850000   2.055508000
| 25> C   1.447974000   0.738517000   0.269805000
| 26> N   1.405612000   0.808047000  -0.894380000
| 27> *
| 28>
| 29>                          ****END OF INPUT****

CARTESIAN COORDINATES (ANGSTROEM)
---------------------------------
  C     -0.869520   -3.929380    1.700199
  H     -0.057420   -3.268850    2.015352
  H     -0.697530   -4.930670    2.101524
  H     -1.821490   -3.546590    2.077146
  C     -0.916080   -3.969960    0.256749
  N     -0.955390   -3.995980   -0.909290
  C      1.502241    0.651296    1.710523
  H      1.309219    1.637164    2.143202
  H      2.493408    0.297996    2.009069
  H      0.746597   -0.059850    2.055508
  C      1.447974    0.738517    0.269805
  N      1.405612    0.808047   -0.894380

 Total Charge           Charge          ....    0
 Multiplicity           Mult            ....    1
 Number of Electrons    NEL             ....   44
 Basis Dimension        Dim             ....  222

ORBITAL ENERGIES
----------------

  NO   OCC          E(Eh)            E(eV)
   0   2.0000     -15.574307      -423.7984
   1   2.0000     -15.574109      -423.7930
   2   2.0000     -11.289494      -307.2027
   3   2.0000     -11.289224      -307.1954
   4   2.0000     -11.280336      -306.9535
   5   2.0000     -11.280130      -306.9479
   6   2.0000      -1.214945       -33.0603
   7   2.0000      -1.214839       -33.0574
   8   2.0000      -1.047819       -28.5126
   9   2.0000      -1.047591       -28.5064
  10   2.0000      -0.703316       -19.1382
  11   2.0000      -0.702079       -19.1045
  12   2.0000      -0.638164       -17.3653
  13   2.0000      -0.636628       -17.3235
  14   2.0000      -0.636029       -17.3072
  15   2.0000      -0.634962       -17.2782
  16   2.0000      -0.555973       -15.1288
  17   2.0000      -0.555726       -15.1221
  18   2.0000      -0.458768       -12.4837
  19   2.0000      -0.458173       -12.4675
  20   2.0000      -0.458008       -12.4630
  21   2.0000      -0.457363       -12.4455
  22   0.0000       0.092598         2.5197
  23   0.0000       0.131719         3.5843
  24   0.0000       0.160681         4.3723
  25   0.0000       0.168050         4.5729
  26   0.0000       0.168319         4.5802

MULLIKEN ATOMIC CHARGES
-----------------------
   0 C :   -0.281257
   1 H :    0.160869
   2 H :    0.175475
   3 H :    0.173270
   4 C :   -0.144006
   5 N :   -0.084364
   6 C :   -0.279178
   7 H :    0.175217
   8 H :    0.173288
   9 H :    0.160411
  10 C :   -0.144970
  11 N :   -0.084755
Sum of atomic charges:    0.0000000

LOEWDIN ATOMIC CHARGES
----------------------
   0 C :   -0.285141
   1 H :    0.148613
   2 H :    0.152062
   3 H :    0.152685
   4 C :   -0.220867
   5 N :    0.052643
   6 C :   -0.284958
   7 H :    0.153064
   8 H :    0.152886
   9 H :    0.148594
  10 C :   -0.221852
  11 N :    0.052272

  Mayer bond orders larger than 0.100000
B(  0-C ,  1-H ) :   0.9195 B(  0-C ,  2-H ) :   0.9168 B(  0-C ,  3-H ) :   0.9173
B(  0-C ,  4-C ) :   0.9004 B(  4-C ,  5-N ) :   2.8304 B(  6-C ,  7-H ) :   0.9166
B(  6-C ,  8-H ) :   0.9173 B(  6-C ,  9-H ) :   0.9197 B(  6-C , 10-C ) :   0.8995
B( 10-C , 11-N ) :   2.8308

MP2 TOTAL ENERGY:     -264.964596196 Eh
FINAL SINGLE POINT ENERGY      -264.964596195560

DIPOLE MOMENT
-------------
                                X             Y             Z
Electronic contribution:     -0.21909       0.10378      -6.28580
Nuclear contribution   :      0.32262      -0.15648       9.25335
                        -----------------------------------------
Total Dipole Moment    :      0.10353      -0.05270       2.96756
                        -----------------------------------------
Magnitude (a.u.)       :      2.96983
Magnitude (Debye)      :      7.54871

Rotational constants in cm-1:     0.154565     0.029405     0.024944
Rotational constants in MHz :  4633.732929   881.527938   747.787368

                             ****ORCA TERMINATED NORMALLY****
TOTAL RUN TIME: 0 days 0 hours 0 minutes 54 seconds 496 msec
