                         Program Version 4.2.0 -  RELEASE  -
|  1> # 12meoh.boyd.etal.mol1,2,8
|  2> ! MP2 def2-TZVP EnGrad TightSCF
|  3>
|  4> %pal
|  5>     nprocs 6
|  6> end
|  7>
|  8> %maxcore 8000
|  9>
| 10> %scf
| 11>     ConvForced true
| 12> end
| 13>
| 14> *xyz 0 1
| 15> O   0.666045193  -2.600503172   0.138317521
| 16> H  -0.227115049  -2.712051982  -0.281868004
| 17> C   0.490021232  -1.851247678   1.341189459
| 18> H   1.466500502  -1.466176022   1.645844415
| 19> H   0.097564527  -2.488364683   2.146902740
| 20> H  -0.187588112  -1.000787499   1.200739571
| 21> O  -3.839777402   2.233595098   0.660436763
| 22> H  -2.958345897   1.907036203   0.973588449
| 23> C  -3.600368059   3.168790682  -0.390480452
| 24> H  -4.551709193   3.344148967  -0.901254863
| 25> H  -2.868237594   2.789240199  -1.113617525
| 26> H  -3.243594915   4.128998607   0.009549480
| 27> O   3.570084754   2.361662577  -0.202416728
| 28> H   3.393280933   1.755669977   0.560634073
| 29> C   4.368082883   1.644741793  -1.143112807
| 30> H   4.552851717   2.311801738  -1.989632421
| 31> H   3.862427494   0.740851663  -1.508095690
| 32> H   5.333949674   1.357289092  -0.706288100
| 33> *
| 34>
| 35>                          ****END OF INPUT****

CARTESIAN COORDINATES (ANGSTROEM)
---------------------------------
  O      0.666045   -2.600503    0.138318
  H     -0.227115   -2.712052   -0.281868
  C      0.490021   -1.851248    1.341189
  H      1.466501   -1.466176    1.645844
  H      0.097565   -2.488365    2.146903
  H     -0.187588   -1.000787    1.200740
  O     -3.839777    2.233595    0.660437
  H     -2.958346    1.907036    0.973588
  C     -3.600368    3.168791   -0.390480
  H     -4.551709    3.344149   -0.901255
  H     -2.868238    2.789240   -1.113618
  H     -3.243595    4.128999    0.009549
  O      3.570085    2.361663   -0.202417
  H      3.393281    1.755670    0.560634
  C      4.368083    1.644742   -1.143113
  H      4.552852    2.311802   -1.989632
  H      3.862427    0.740852   -1.508096
  H      5.333950    1.357289   -0.706288

 Total Charge           Charge          ....    0
 Multiplicity           Mult            ....    1
 Number of Electrons    NEL             ....   54
 Basis Dimension        Dim             ....  258

ORBITAL ENERGIES
----------------

  NO   OCC          E(Eh)            E(eV)
   0   2.0000     -20.563809      -559.5697
   1   2.0000     -20.559001      -559.4389
   2   2.0000     -20.558432      -559.4234
   3   2.0000     -11.279763      -306.9380
   4   2.0000     -11.272791      -306.7482
   5   2.0000     -11.271728      -306.7193
   6   2.0000      -1.352023       -36.7904
   7   2.0000      -1.348393       -36.6916
   8   2.0000      -1.347839       -36.6766
   9   2.0000      -0.927604       -25.2414
  10   2.0000      -0.920832       -25.0571
  11   2.0000      -0.920105       -25.0373
  12   2.0000      -0.687889       -18.7184
  13   2.0000      -0.683324       -18.5942
  14   2.0000      -0.682627       -18.5752
  15   2.0000      -0.623960       -16.9788
  16   2.0000      -0.618034       -16.8176
  17   2.0000      -0.617350       -16.7990
  18   2.0000      -0.597401       -16.2561
  19   2.0000      -0.591524       -16.0962
  20   2.0000      -0.590435       -16.0666
  21   2.0000      -0.508509       -13.8372
  22   2.0000      -0.503117       -13.6905
  23   2.0000      -0.502228       -13.6663
  24   2.0000      -0.456303       -12.4166
  25   2.0000      -0.450869       -12.2688
  26   2.0000      -0.450538       -12.2598
  27   0.0000       0.103221         2.8088
  28   0.0000       0.122989         3.3467
  29   0.0000       0.142148         3.8681
  30   0.0000       0.166115         4.5202
  31   0.0000       0.173159         4.7119

MULLIKEN ATOMIC CHARGES
-----------------------
   0 O :   -0.496889
   1 H :    0.324508
   2 C :   -0.170397
   3 H :    0.121170
   4 H :    0.115751
   5 H :    0.105863
   6 O :   -0.496989
   7 H :    0.319214
   8 C :   -0.175883
   9 H :    0.129146
  10 H :    0.112363
  11 H :    0.112176
  12 O :   -0.498372
  13 H :    0.319341
  14 C :   -0.176829
  15 H :    0.128721
  16 H :    0.116957
  17 H :    0.110150
Sum of atomic charges:   -0.0000000

LOEWDIN ATOMIC CHARGES
----------------------
   0 O :   -0.111946
   1 H :    0.191049
   2 C :   -0.378111
   3 H :    0.106835
   4 H :    0.097741
   5 H :    0.094447
   6 O :   -0.111646
   7 H :    0.186912
   8 C :   -0.378027
   9 H :    0.109825
  10 H :    0.096278
  11 H :    0.096639
  12 O :   -0.111418
  13 H :    0.186698
  14 C :   -0.378480
  15 H :    0.110194
  16 H :    0.097220
  17 H :    0.095791

  Mayer bond orders larger than 0.100000
B(  0-O ,  1-H ) :   0.8416 B(  0-O ,  2-C ) :   0.9299 B(  2-C ,  3-H ) :   0.9387
B(  2-C ,  4-H ) :   0.9385 B(  2-C ,  5-H ) :   0.9413 B(  6-O ,  7-H ) :   0.8452
B(  6-O ,  8-C ) :   0.9237 B(  8-C ,  9-H ) :   0.9377 B(  8-C , 10-H ) :   0.9410
B(  8-C , 11-H ) :   0.9380 B( 12-O , 13-H ) :   0.8450 B( 12-O , 14-C ) :   0.9217
B( 14-C , 15-H ) :   0.9375 B( 14-C , 16-H ) :   0.9377 B( 14-C , 17-H ) :   0.9396

MP2 TOTAL ENERGY:     -346.520326483 Eh
FINAL SINGLE POINT ENERGY      -346.520326483468

DIPOLE MOMENT
-------------
                                X             Y             Z
Electronic contribution:     -1.08466      -1.10283       0.86116
Nuclear contribution   :      1.31180       0.83736      -0.81135
                        -----------------------------------------
Total Dipole Moment    :      0.22714      -0.26547       0.04982
                        -----------------------------------------
Magnitude (a.u.)       :      0.35291
Magnitude (Debye)      :      0.89703

Rotational constants in cm-1:     0.033597     0.016403     0.011531
Rotational constants in MHz :  1007.222741   491.735140   345.704013

                             ****ORCA TERMINATED NORMALLY****
TOTAL RUN TIME: 0 days 0 hours 0 minutes 47 seconds 21 msec
