                         Program Version 4.2.0 -  RELEASE  -
|  1> # 12h2o.su.etal.mol0,1,11
|  2> ! MP2 def2-TZVP EnGrad TightSCF
|  3>
|  4> %pal
|  5>     nprocs 6
|  6> end
|  7>
|  8> %maxcore 8000
|  9>
| 10> %scf
| 11>     ConvForced true
| 12> end
| 13>
| 14> *xyz 0 1
| 15> O   1.794470000   0.923410000   2.768350000
| 16> H   2.338250000   1.359750000   3.430940000
| 17> H   0.879480000   1.303000000   2.865760000
| 18> O  -1.794470000  -0.923410000   2.768350000
| 19> H  -2.338250000  -1.359750000   3.430940000
| 20> H  -0.879480000  -1.303000000   2.865760000
| 21> O  -0.741530000   1.752130000   2.896280000
| 22> H  -0.920500000   2.036450000   1.984040000
| 23> H  -1.242140000   0.921210000   2.984230000
| 24> *
| 25>
| 26>                          ****END OF INPUT****

CARTESIAN COORDINATES (ANGSTROEM)
---------------------------------
  O      1.794470    0.923410    2.768350
  H      2.338250    1.359750    3.430940
  H      0.879480    1.303000    2.865760
  O     -1.794470   -0.923410    2.768350
  H     -2.338250   -1.359750    3.430940
  H     -0.879480   -1.303000    2.865760
  O     -0.741530    1.752130    2.896280
  H     -0.920500    2.036450    1.984040
  H     -1.242140    0.921210    2.984230

 Total Charge           Charge          ....    0
 Multiplicity           Mult            ....    1
 Number of Electrons    NEL             ....   30
 Basis Dimension        Dim             ....  129

ORBITAL ENERGIES
----------------

  NO   OCC          E(Eh)            E(eV)
   0   2.0000     -20.595716      -560.4379
   1   2.0000     -20.568117      -559.6869
   2   2.0000     -20.514464      -558.2270
   3   2.0000      -1.374436       -37.4003
   4   2.0000      -1.355796       -36.8931
   5   2.0000      -1.296471       -35.2788
   6   2.0000      -0.741505       -20.1774
   7   2.0000      -0.717525       -19.5248
   8   2.0000      -0.684404       -18.6236
   9   2.0000      -0.618660       -16.8346
  10   2.0000      -0.590831       -16.0773
  11   2.0000      -0.547650       -14.9023
  12   2.0000      -0.534455       -14.5433
  13   2.0000      -0.499274       -13.5859
  14   2.0000      -0.465197       -12.6587
  15   0.0000       0.107245         2.9183
  16   0.0000       0.152803         4.1580
  17   0.0000       0.177519         4.8305
  18   0.0000       0.194624         5.2960
  19   0.0000       0.279015         7.5924

MULLIKEN ATOMIC CHARGES
-----------------------
   0 O :   -0.737454
   1 H :    0.324137
   2 H :    0.363826
   3 O :   -0.702486
   4 H :    0.355461
   5 H :    0.370785
   6 O :   -0.700155
   7 H :    0.353284
   8 H :    0.372603
Sum of atomic charges:   -0.0000000

LOEWDIN ATOMIC CHARGES
----------------------
   0 O :   -0.376010
   1 H :    0.147807
   2 H :    0.140588
   3 O :   -0.310946
   4 H :    0.165196
   5 H :    0.192426
   6 O :   -0.283506
   7 H :    0.171384
   8 H :    0.153062

  Mayer bond orders larger than 0.100000
B(  0-O ,  1-H ) :   0.8612 B(  0-O ,  2-H ) :   0.7782 B(  3-O ,  4-H ) :   0.8400
B(  3-O ,  5-H ) :   0.8223 B(  6-O ,  7-H ) :   0.8408 B(  6-O ,  8-H ) :   0.7987

MP2 TOTAL ENERGY:     -228.957863978 Eh
FINAL SINGLE POINT ENERGY      -228.957863978329

DIPOLE MOMENT
-------------
                                X             Y             Z
Electronic contribution:     -0.30580      -0.04888      -0.08810
Nuclear contribution   :     -0.56566      -0.45497       0.57908
                        -----------------------------------------
Total Dipole Moment    :     -0.87145      -0.50385       0.49098
                        -----------------------------------------
Magnitude (a.u.)       :      1.11998
Magnitude (Debye)      :      2.84676

Rotational constants in cm-1:     0.368560     0.111234     0.086907
Rotational constants in MHz : 11049.146528  3334.698614  2605.418249

                             ****ORCA TERMINATED NORMALLY****
TOTAL RUN TIME: 0 days 0 hours 0 minutes 41 seconds 144 msec
