   * xtb version 6.3.3 (5b13467) compiled by 'ehlert@majestix' on 2020-09-17
          program call               : /ihome/jkeith/amm503/codes/xtb-6.3.3/bin/xtb ./10mecn.abc0.iter1.xyz --opt vtight --gfn 2 --charge 0
          number of atoms            :                    60
          number of electrons        :                   160
          charge                     :                     0
          spin                       :                   0.0

   ID    Z sym.   atoms
    1    6 C      1, 5, 7, 11, 13, 17, 19, 23, 25, 29, 31, 35, 37, 41, 43,
                  47, 49, 53, 55, 59
    2    1 H      2-4, 8-10, 14-16, 20-22, 26-28, 32-34, 38-40, 44-46, 50-52,
                  56-58
    3    7 N      6, 12, 18, 24, 30, 36, 42, 48, 54, 60

          :  Hamiltonian                  GFN2-xTB          :
 * total energy  :   -86.8946052 Eh     change       -0.1844725E-08 Eh
 * total energy  :   -86.9545192 Eh     change       -0.5991400E-01 Eh
 * total energy  :   -86.9685228 Eh     change       -0.1400367E-01 Eh
 * total energy  :   -86.9702295 Eh     change       -0.1706672E-02 Eh
 * total energy  :   -86.9716767 Eh     change       -0.1447201E-02 Eh
 * total energy  :   -86.9738884 Eh     change       -0.2211732E-02 Eh
 * total energy  :   -86.9760119 Eh     change       -0.2123490E-02 Eh
 * total energy  :   -86.9779244 Eh     change       -0.1912470E-02 Eh
 * total energy  :   -86.9790020 Eh     change       -0.1077550E-02 Eh
 * total energy  :   -86.9798360 Eh     change       -0.8340598E-03 Eh
 * total energy  :   -86.9874347 Eh     change       -0.3860859E-04 Eh
 * total energy  :   -86.9876015 Eh     change       -0.1667917E-03 Eh
 * total energy  :   -86.9876495 Eh     change       -0.4796559E-04 Eh
 * total energy  :   -86.9876579 Eh     change       -0.8405731E-05 Eh
 * total energy  :   -86.9876822 Eh     change       -0.2433604E-04 Eh
 * total energy  :   -86.9876847 Eh     change       -0.2433132E-05 Eh
 * total energy  :   -86.9876819 Eh     change        0.2768275E-05 Eh
 * total energy  :   -86.9876862 Eh     change       -0.4346526E-05 Eh
 * total energy  :   -86.9876863 Eh     change       -0.3153114E-07 Eh
   *** GEOMETRY OPTIMIZATION CONVERGED AFTER 508 ITERATIONS ***

 final structure:
================
60
 xtb: 6.3.3 (5b13467)
C         2.92458529894170    1.37560025732301   -2.81597708489861
H         3.02105648742408    0.29080599816271   -2.74518563726410
H         3.66013400016661    1.77144597714805   -3.51436246291836
H         1.91778678186346    1.61999828403915   -3.15253374435229
C         3.13332559735356    1.93194575297832   -1.52201365863169
N         3.30328456467167    2.37535128949231   -0.47900447507845
C         0.08041348972783   -3.07593834186892    2.57001718112546
H         0.16688623422777   -3.53011291327121    1.58013931378317
H         0.03881132940623   -3.85403365058517    3.33032181515131
H         0.94249206759865   -2.43055628466628    2.74812248799562
C        -1.10499400808209   -2.29082313720394    2.61296960365629
N        -2.05663535549070   -1.65146238126750    2.63437805120992
C         2.66075541381823    1.62299167173268    2.53766139727388
H         2.99967863861224    1.92247215568707    1.54305378332706
H         3.36377235036982    1.97824196100361    3.28919005249653
H         1.67277611219531    2.04732904971275    2.72536147609311
C         2.57412654159087    0.20394725292127    2.58583804577239
N         2.49580024309429   -0.93974482194314    2.61154133596931
C         3.35062134465821   -3.08376200410376    0.34951717537258
H         2.55493214968399   -3.82838333794473    0.33061328598380
H         3.24372692096415   -2.45880760907218    1.23753534865462
H         4.32133338914213   -3.57665517431880    0.36080815727923
C         3.23602549206539   -2.26422555655519   -0.81469256155805
N         3.13821984539802   -1.60621821646419   -1.74625395706632
C        -4.35921966528170   -1.35381181266415    0.38932991447941
H        -4.61907356528782   -0.29568821762880    0.36531587691930
H        -3.75062875573463   -1.55933559191304    1.27139389707657
H        -5.26398238562247   -1.95880250182555    0.41715147101559
C        -3.60365280805918   -1.66488103065586   -0.78216000481063
N        -2.99440914162413   -1.90894991999514   -1.72006998462164
C        -0.33498433648862   -3.27918205236063   -2.78769884499136
H         0.36716787959194   -2.53251740368519   -3.15678361215604
H        -1.32453211490235   -2.82530149664651   -2.71037340608062
H        -0.36622658175861   -4.13223589887783   -3.46356137320525
C         0.06977703847417   -3.70089661325964   -1.48939287164438
N         0.38987651289036   -4.04023164149004   -0.44257772953802
C        -2.65100900178222    1.83165434855748   -2.80202889508777
H        -2.36883080494919    0.83511025167408   -3.13968013774877
H        -1.75471613726237    2.45118562918961   -2.73956520386223
H        -3.36423915506685    2.27478706545583   -3.49516198184290
C        -3.22708203588197    1.74005273946032   -1.50304072747030
N        -3.68802871887284    1.67112331315805   -0.45607838403155
C        -2.69559635586445    1.50732404048181    2.55780854107732
H        -3.13395751512040    1.64456959553874    1.56652860657696
H        -3.34816243763026    1.94208890401453    3.31304511997920
H        -2.56577792747950    0.44089260638552    2.75080740511545
C        -1.42397339660535    2.14413484629060    2.58983611834456
N        -0.39544552270688    2.65080871371910    2.60263566836110
C         0.00895868904428    0.00268784711720   -0.01204385331681
H        -0.08663238699392    1.03444872749337    0.32372068735592
H         0.94474310022148   -0.41493809940143    0.35698541244380
H        -0.82659337831553   -0.58307189806219    0.36888747711527
C         0.00277180092740   -0.03424505840198   -1.44164574058411
N        -0.00252276963680   -0.06308586910114   -2.58480872943305
C         1.00157336981718    4.46252025427081    0.32723921103489
H         0.52411466204725    4.05429599818090    1.21950167246421
H         0.90537394936867    5.54699491567838    0.32156729875840
H         2.05449831244877    4.18162760864465    0.31749618465795
C         0.37200549686190    3.91345721905682   -0.83124399742232
N        -0.13049884287105    3.46800425270308   -1.75837999319336

          :  Hamiltonian                  GFN2-xTB          :
         :: total energy             -86.987686271385 Eh    ::
         :: gradient norm              0.000188855369 Eh/a0 ::
         :: HOMO-LUMO gap              5.649924911028 eV    ::
         :: SCC energy               -88.780014857959 Eh    ::
         :: -> dispersion             -0.056977505886 Eh    ::
         :: repulsion energy           1.788554938246 Eh    ::

    * Orbital Energies and Occupations

         #    Occupation            Energy/Eh            Energy/eV
      -------------------------------------------------------------
         1        2.0000           -0.6499541             -17.6862
       ...           ...                  ...                  ...
        68        2.0000           -0.4462488             -12.1430
        69        2.0000           -0.4460320             -12.1371
        70        2.0000           -0.4421002             -12.0302
        71        2.0000           -0.4339698             -11.8089
        72        2.0000           -0.4338179             -11.8048
        73        2.0000           -0.4287809             -11.6677
        74        2.0000           -0.4270418             -11.6204
        75        2.0000           -0.4263147             -11.6006
        76        2.0000           -0.4258614             -11.5883
        77        2.0000           -0.4227039             -11.5024
        78        2.0000           -0.4222363             -11.4896
        79        2.0000           -0.4216917             -11.4748
        80        2.0000           -0.4210219             -11.4566 (HOMO)
        81                         -0.2133910              -5.8067 (LUMO)
        82                         -0.2075217              -5.6470
        83                         -0.2073767              -5.6430
        84                         -0.2070436              -5.6339
        85                         -0.2016066              -5.4860
        86                         -0.2014390              -5.4814
        87                         -0.2012887              -5.4773
        88                         -0.2005462              -5.4571
        89                         -0.2004926              -5.4557
        90                         -0.1982435              -5.3945
        91                         -0.1980936              -5.3904
       ...                                ...                  ...
       150                          1.1611283              31.5959
      -------------------------------------------------------------
                  HL-Gap            0.2076309 Eh            5.6499 eV

     #   Z          covCN         q      C6AA      Î±(0)
     1   6 C        3.754    -0.126    22.980     6.836
     2   1 H        0.924     0.122     1.599     1.977
     3   1 H        0.925     0.077     2.012     2.218
     4   1 H        0.925     0.096     1.818     2.108
     5   6 C        1.890     0.134    27.831     8.520
     6   7 N        0.911    -0.299    27.700     7.612
     7   6 C        3.753    -0.133    23.109     6.855
     8   1 H        0.924     0.116     1.649     2.008
     9   1 H        0.925     0.077     2.012     2.218
    10   1 H        0.924     0.109     1.704     2.041
    11   6 C        1.890     0.133    27.872     8.527
    12   7 N        0.911    -0.304    27.817     7.628
    13   6 C        3.753    -0.133    23.108     6.855
    14   1 H        0.924     0.116     1.648     2.008
    15   1 H        0.925     0.077     2.012     2.218
    16   1 H        0.924     0.109     1.707     2.043
    17   6 C        1.890     0.133    27.873     8.527
    18   7 N        0.911    -0.304    27.815     7.628
    19   6 C        3.754    -0.124    22.927     6.828
    20   1 H        0.925     0.100     1.787     2.091
    21   1 H        0.924     0.104     1.748     2.068
    22   1 H        0.925     0.073     2.048     2.238
    23   6 C        1.890     0.127    27.997     8.546
    24   7 N        0.911    -0.283    27.293     7.556
    25   6 C        3.754    -0.123    22.924     6.827
    26   1 H        0.925     0.099     1.791     2.093
    27   1 H        0.924     0.104     1.745     2.066
    28   1 H        0.925     0.074     2.046     2.237
    29   6 C        1.890     0.127    27.990     8.545
    30   7 N        0.911    -0.283    27.303     7.557
    31   6 C        3.754    -0.126    22.983     6.836
    32   1 H        0.925     0.097     1.809     2.103
    33   1 H        0.924     0.121     1.603     1.980
    34   1 H        0.925     0.077     2.012     2.218
    35   6 C        1.890     0.134    27.831     8.520
    36   7 N        0.911    -0.299    27.699     7.612
    37   6 C        3.754    -0.126    22.977     6.835
    38   1 H        0.925     0.097     1.811     2.105
    39   1 H        0.924     0.121     1.608     1.983
    40   1 H        0.925     0.077     2.011     2.218
    41   6 C        1.890     0.134    27.833     8.521
    42   7 N        0.911    -0.299    27.689     7.611
    43   6 C        3.753    -0.133    23.108     6.855
    44   1 H        0.924     0.115     1.650     2.009
    45   1 H        0.925     0.077     2.012     2.218
    46   1 H        0.924     0.109     1.706     2.042
    47   6 C        1.890     0.133    27.874     8.527
    48   7 N        0.911    -0.303    27.811     7.627
    49   6 C        3.754    -0.107    22.600     6.779
    50   1 H        0.925     0.078     2.002     2.213
    51   1 H        0.925     0.078     2.000     2.212
    52   1 H        0.925     0.078     2.003     2.213
    53   6 C        1.890     0.128    27.973     8.542
    54   7 N        0.911    -0.257    26.671     7.469
    55   6 C        3.754    -0.123    22.923     6.827
    56   1 H        0.924     0.105     1.742     2.064
    57   1 H        0.925     0.074     2.046     2.237
    58   1 H        0.925     0.099     1.791     2.093
    59   6 C        1.890     0.128    27.982     8.543
    60   7 N        0.911    -0.284    27.320     7.560

Wiberg/Mayer (AO) data.
largest (>0.10) Wiberg bond orders for each atom

     #   Z sym  total        # sym  WBO       # sym  WBO       # sym  WBO
 ---------------------------------------------------------------------------
     1   6 C    3.988 --     5 C    1.098     3 H    0.948     4 H    0.939
                             2 H    0.920
     2   1 H    0.985 --     1 C    0.920
     3   1 H    0.994 --     1 C    0.948
     4   1 H    0.991 --     1 C    0.939
     5   6 C    3.938 --     6 N    2.790     1 C    1.098
     6   7 N    3.001 --     5 C    2.790
     7   6 C    3.985 --    11 C    1.102     9 H    0.946    10 H    0.923
                             8 H    0.917
     8   1 H    0.987 --     7 C    0.917
     9   1 H    0.994 --     7 C    0.946
    10   1 H    0.988 --     7 C    0.923
    11   6 C    3.938 --    12 N    2.780     7 C    1.102
    12   7 N    3.002 --    11 C    2.780
    13   6 C    3.985 --    17 C    1.102    15 H    0.947    16 H    0.923
                            14 H    0.917
    14   1 H    0.987 --    13 C    0.917
    15   1 H    0.994 --    13 C    0.947
    16   1 H    0.988 --    13 C    0.923
    17   6 C    3.938 --    18 N    2.780    13 C    1.102
    18   7 N    3.002 --    17 C    2.780
    19   6 C    3.990 --    23 C    1.088    22 H    0.950    20 H    0.935
                            21 H    0.929
    20   1 H    0.990 --    19 C    0.935
    21   1 H    0.989 --    19 C    0.929
    22   1 H    0.995 --    19 C    0.950
    23   6 C    3.941 --    24 N    2.813    19 C    1.088
    24   7 N    3.003 --    23 C    2.813
    25   6 C    3.990 --    29 C    1.088    28 H    0.950    26 H    0.936
                            27 H    0.928
    26   1 H    0.990 --    25 C    0.936
    27   1 H    0.989 --    25 C    0.928
    28   1 H    0.995 --    25 C    0.950
    29   6 C    3.941 --    30 N    2.812    25 C    1.088
    30   7 N    3.003 --    29 C    2.812
    31   6 C    3.988 --    35 C    1.098    34 H    0.948    32 H    0.939
                            33 H    0.920
    32   1 H    0.990 --    31 C    0.939
    33   1 H    0.985 --    31 C    0.920
    34   1 H    0.994 --    31 C    0.948
    35   6 C    3.938 --    36 N    2.789    31 C    1.098
    36   7 N    3.001 --    35 C    2.789
    37   6 C    3.988 --    41 C    1.097    40 H    0.948    38 H    0.939
                            39 H    0.921
    38   1 H    0.991 --    37 C    0.939
    39   1 H    0.985 --    37 C    0.921
    40   1 H    0.994 --    37 C    0.948
    41   6 C    3.938 --    42 N    2.790    37 C    1.097
    42   7 N    3.001 --    41 C    2.790
    43   6 C    3.985 --    47 C    1.102    45 H    0.947    46 H    0.923
                            44 H    0.917
    44   1 H    0.987 --    43 C    0.917
    45   1 H    0.994 --    43 C    0.947
    46   1 H    0.988 --    43 C    0.923
    47   6 C    3.938 --    48 N    2.780    43 C    1.102
    48   7 N    3.002 --    47 C    2.780
    49   6 C    3.995 --    53 C    1.079    50 H    0.948    52 H    0.948
                            51 H    0.948
    50   1 H    0.994 --    49 C    0.948
    51   1 H    0.994 --    49 C    0.948
    52   1 H    0.994 --    49 C    0.948
    53   6 C    3.944 --    54 N    2.827    49 C    1.079
    54   7 N    2.997 --    53 C    2.827
    55   6 C    3.990 --    59 C    1.088    57 H    0.950    58 H    0.936
                            56 H    0.928
    56   1 H    0.989 --    55 C    0.928
    57   1 H    0.995 --    55 C    0.950
    58   1 H    0.990 --    55 C    0.936
    59   6 C    3.941 --    60 N    2.812    55 C    1.088
    60   7 N    3.003 --    59 C    2.812
 ---------------------------------------------------------------------------

molecular dipole:
                 x           y           z       tot (Debye)
 q only:       -0.037       0.017       0.296
   full:       -0.049       0.029       0.665       1.696

           -------------------------------------------------
          | TOTAL ENERGY              -86.987686271385 Eh   |
          | GRADIENT NORM               0.000188855369 Eh/Î± |
          | HOMO-LUMO GAP               5.649924911028 eV   |
           -------------------------------------------------

 * finished run on 2021/01/12 at 15:00:32.732
normal termination of xtb
