                         Program Version 4.2.0 -  RELEASE  -
|  1> # 12meoh.boyd.etal.mol7
|  2> ! MP2 def2-TZVP EnGrad TightSCF
|  3>
|  4> %pal
|  5>     nprocs 6
|  6> end
|  7>
|  8> %maxcore 8000
|  9>
| 10> %scf
| 11>     ConvForced true
| 12> end
| 13>
| 14> *xyz 0 1
| 15> O   4.310535586  -1.588322800   0.656128299
| 16> H   3.804372199  -1.630404735  -0.196849819
| 17> C   4.312298137  -2.894980854   1.222112691
| 18> H   4.713177833  -2.819907076   2.237066773
| 19> H   4.957796734  -3.574699304   0.648211180
| 20> H   3.302735989  -3.324433205   1.269756773
| 21> *
| 22>
| 23>                          ****END OF INPUT****

CARTESIAN COORDINATES (ANGSTROEM)
---------------------------------
  O      4.310536   -1.588323    0.656128
  H      3.804372   -1.630405   -0.196850
  C      4.312298   -2.894981    1.222113
  H      4.713178   -2.819907    2.237067
  H      4.957797   -3.574699    0.648211
  H      3.302736   -3.324433    1.269757

 Total Charge           Charge          ....    0
 Multiplicity           Mult            ....    1
 Number of Electrons    NEL             ....   18
 Basis Dimension        Dim             ....   86

ORBITAL ENERGIES
----------------

  NO   OCC          E(Eh)            E(eV)
   0   2.0000     -20.557352      -559.3940
   1   2.0000     -11.271759      -306.7202
   2   2.0000      -1.347046       -36.6550
   3   2.0000      -0.919644       -25.0248
   4   2.0000      -0.681886       -18.5551
   5   2.0000      -0.617045       -16.7907
   6   2.0000      -0.590835       -16.0774
   7   2.0000      -0.500973       -13.6322
   8   2.0000      -0.449110       -12.2209
   9   0.0000       0.134830         3.6689
  10   0.0000       0.175987         4.7889
  11   0.0000       0.228008         6.2044
  12   0.0000       0.231602         6.3022
  13   0.0000       0.254892         6.9360

MULLIKEN ATOMIC CHARGES
-----------------------
   0 O :   -0.495821
   1 H :    0.321359
   2 C :   -0.174286
   3 H :    0.129367
   4 H :    0.109265
   5 H :    0.110116
Sum of atomic charges:    0.0000000

LOEWDIN ATOMIC CHARGES
----------------------
   0 O :   -0.109116
   1 H :    0.189468
   2 C :   -0.381408
   3 H :    0.110090
   4 H :    0.095358
   5 H :    0.095608

  Mayer bond orders larger than 0.100000
B(  0-O ,  1-H ) :   0.8431 B(  0-O ,  2-C ) :   0.9268 B(  2-C ,  3-H ) :   0.9378
B(  2-C ,  4-H ) :   0.9382 B(  2-C ,  5-H ) :   0.9401

MP2 TOTAL ENERGY:     -115.506597454 Eh
FINAL SINGLE POINT ENERGY      -115.506597454136

DIPOLE MOMENT
-------------
                                X             Y             Z
Electronic contribution:      0.06540       1.69427      -0.58473
Nuclear contribution   :     -0.38286      -2.24980       0.29384
                        -----------------------------------------
Total Dipole Moment    :     -0.31746      -0.55552      -0.29090
                        -----------------------------------------
Magnitude (a.u.)       :      0.70286
Magnitude (Debye)      :      1.78652

Rotational constants in cm-1:     4.192938     0.822452     0.791073
Rotational constants in MHz : 125701.108047 24656.500366 23715.780902

                             ****ORCA TERMINATED NORMALLY****
TOTAL RUN TIME: 0 days 0 hours 0 minutes 8 seconds 45 msec
