                         Program Version 4.2.0 -  RELEASE  -
|  1> # 12h2o.su.etal.mol2,5,6,8,9,10
|  2> ! MP2 def2-TZVP EnGrad TightSCF
|  3>
|  4> %pal
|  5>     nprocs 6
|  6> end
|  7>
|  8> %maxcore 8000
|  9>
| 10> %scf
| 11>     ConvForced true
| 12> end
| 13>
| 14> *xyz 0 1
| 15> O   0.923410000  -1.794470000  -2.768350000
| 16> H   1.359750000  -2.338250000  -3.430940000
| 17> H   1.303000000  -0.879480000  -2.865760000
| 18> O   0.885520000  -1.737840000   0.052730000
| 19> H   1.284090000  -0.839590000   0.017130000
| 20> H   1.032320000  -2.090180000  -0.841890000
| 21> O   1.737840000   0.885520000  -0.052730000
| 22> H   2.090180000   1.032320000   0.841890000
| 23> H   0.839590000   1.284090000  -0.017130000
| 24> O   1.752130000   0.741530000  -2.896280000
| 25> H   2.036450000   0.920500000  -1.984040000
| 26> H   0.921210000   1.242140000  -2.984230000
| 27> O   0.741530000  -1.752130000   2.896280000
| 28> H   0.920500000  -2.036450000   1.984040000
| 29> H   1.242140000  -0.921210000   2.984230000
| 30> O  -0.923410000   1.794470000  -2.768350000
| 31> H  -1.359750000   2.338250000  -3.430940000
| 32> H  -1.303000000   0.879480000  -2.865760000
| 33> *
| 34>
| 35>                          ****END OF INPUT****

CARTESIAN COORDINATES (ANGSTROEM)
---------------------------------
  O      0.923410   -1.794470   -2.768350
  H      1.359750   -2.338250   -3.430940
  H      1.303000   -0.879480   -2.865760
  O      0.885520   -1.737840    0.052730
  H      1.284090   -0.839590    0.017130
  H      1.032320   -2.090180   -0.841890
  O      1.737840    0.885520   -0.052730
  H      2.090180    1.032320    0.841890
  H      0.839590    1.284090   -0.017130
  O      1.752130    0.741530   -2.896280
  H      2.036450    0.920500   -1.984040
  H      0.921210    1.242140   -2.984230
  O      0.741530   -1.752130    2.896280
  H      0.920500   -2.036450    1.984040
  H      1.242140   -0.921210    2.984230
  O     -0.923410    1.794470   -2.768350
  H     -1.359750    2.338250   -3.430940
  H     -1.303000    0.879480   -2.865760

 Total Charge           Charge          ....    0
 Multiplicity           Mult            ....    1
 Number of Electrons    NEL             ....   60
 Basis Dimension        Dim             ....  258

ORBITAL ENERGIES
----------------

  NO   OCC          E(Eh)            E(eV)
   0   2.0000     -20.622974      -561.1796
   1   2.0000     -20.605379      -560.7009
   2   2.0000     -20.563018      -559.5482
   3   2.0000     -20.538579      -558.8831
   4   2.0000     -20.522274      -558.4395
   5   2.0000     -20.519544      -558.3652
   6   2.0000      -1.406073       -38.2612
   7   2.0000      -1.383486       -37.6466
   8   2.0000      -1.355270       -36.8788
   9   2.0000      -1.323119       -36.0039
  10   2.0000      -1.309706       -35.6389
  11   2.0000      -1.299315       -35.3562
  12   2.0000      -0.764783       -20.8108
  13   2.0000      -0.750791       -20.4301
  14   2.0000      -0.721941       -19.6450
  15   2.0000      -0.705790       -19.2055
  16   2.0000      -0.691529       -18.8175
  17   2.0000      -0.671822       -18.2812
  18   2.0000      -0.650111       -17.6904
  19   2.0000      -0.622277       -16.9330
  20   2.0000      -0.594997       -16.1907
  21   2.0000      -0.589162       -16.0319
  22   2.0000      -0.558333       -15.1930
  23   2.0000      -0.549191       -14.9442
  24   2.0000      -0.542748       -14.7689
  25   2.0000      -0.525668       -14.3042
  26   2.0000      -0.504103       -13.7173
  27   2.0000      -0.486721       -13.2443
  28   2.0000      -0.472330       -12.8528
  29   2.0000      -0.466989       -12.7074
  30   0.0000       0.083682         2.2771
  31   0.0000       0.107025         2.9123
  32   0.0000       0.153154         4.1675
  33   0.0000       0.165595         4.5061
  34   0.0000       0.185479         5.0471

MULLIKEN ATOMIC CHARGES
-----------------------
   0 O :   -0.742035
   1 H :    0.334528
   2 H :    0.369001
   3 O :   -0.740561
   4 H :    0.331015
   5 H :    0.372946
   6 O :   -0.709729
   7 H :    0.365254
   8 H :    0.377325
   9 O :   -0.713648
  10 H :    0.381257
  11 H :    0.365476
  12 O :   -0.690832
  13 H :    0.378385
  14 H :    0.297866
  15 O :   -0.710458
  16 H :    0.360206
  17 H :    0.374005
Sum of atomic charges:   -0.0000000

LOEWDIN ATOMIC CHARGES
----------------------
   0 O :   -0.344560
   1 H :    0.152449
   2 H :    0.142408
   3 O :   -0.348087
   4 H :    0.133512
   5 H :    0.150398
   6 O :   -0.276467
   7 H :    0.175532
   8 H :    0.187100
   9 O :   -0.284145
  10 H :    0.155058
  11 H :    0.149471
  12 O :   -0.341458
  13 H :    0.154351
  14 H :    0.147506
  15 O :   -0.314009
  16 H :    0.167398
  17 H :    0.193542

  Mayer bond orders larger than 0.100000
B(  0-O ,  1-H ) :   0.8517 B(  0-O ,  2-H ) :   0.7549 B(  2-H ,  9-O ) :   0.1071
B(  3-O ,  4-H ) :   0.8103 B(  3-O ,  5-H ) :   0.8051 B(  6-O ,  7-H ) :   0.8304
B(  6-O ,  8-H ) :   0.8184 B(  9-O , 10-H ) :   0.8134 B(  9-O , 11-H ) :   0.8049
B( 12-O , 13-H ) :   0.8063 B( 12-O , 14-H ) :   0.8742 B( 15-O , 16-H ) :   0.8374
B( 15-O , 17-H ) :   0.8202

MP2 TOTAL ENERGY:     -457.925624204 Eh
FINAL SINGLE POINT ENERGY      -457.925624204398

DIPOLE MOMENT
-------------
                                X             Y             Z
Electronic contribution:     -0.12348       0.25281      -0.13459
Nuclear contribution   :      0.11024       1.92896      -1.26519
                        -----------------------------------------
Total Dipole Moment    :     -0.01324       2.18177      -1.39978
                        -----------------------------------------
Magnitude (a.u.)       :      2.59223
Magnitude (Debye)      :      6.58893

Rotational constants in cm-1:     0.067772     0.025939     0.022938
Rotational constants in MHz :  2031.750799   777.636994   687.662733

                             ****ORCA TERMINATED NORMALLY****
TOTAL RUN TIME: 0 days 0 hours 1 minutes 8 seconds 657 msec
