                         Program Version 4.2.0 -  RELEASE  -
|  1> # 12h2o.su.etal.mol2,3,4,5,6,7,8,9,10,11
|  2> ! MP2 def2-TZVP EnGrad TightSCF
|  3>
|  4> %pal
|  5>     nprocs 6
|  6> end
|  7>
|  8> %maxcore 8000
|  9>
| 10> %scf
| 11>     ConvForced true
| 12> end
| 13>
| 14> *xyz 0 1
| 15> O   0.923410000  -1.794470000  -2.768350000
| 16> H   1.359750000  -2.338250000  -3.430940000
| 17> H   1.303000000  -0.879480000  -2.865760000
| 18> O  -1.752130000  -0.741530000  -2.896280000
| 19> H  -2.036450000  -0.920500000  -1.984040000
| 20> H  -0.921210000  -1.242140000  -2.984230000
| 21> O  -0.885520000   1.737840000   0.052730000
| 22> H  -1.032320000   2.090180000  -0.841890000
| 23> H  -1.284090000   0.839590000   0.017130000
| 24> O   0.885520000  -1.737840000   0.052730000
| 25> H   1.284090000  -0.839590000   0.017130000
| 26> H   1.032320000  -2.090180000  -0.841890000
| 27> O   1.737840000   0.885520000  -0.052730000
| 28> H   2.090180000   1.032320000   0.841890000
| 29> H   0.839590000   1.284090000  -0.017130000
| 30> O  -1.737840000  -0.885520000  -0.052730000
| 31> H  -2.090180000  -1.032320000   0.841890000
| 32> H  -0.839590000  -1.284090000  -0.017130000
| 33> O   1.752130000   0.741530000  -2.896280000
| 34> H   2.036450000   0.920500000  -1.984040000
| 35> H   0.921210000   1.242140000  -2.984230000
| 36> O   0.741530000  -1.752130000   2.896280000
| 37> H   0.920500000  -2.036450000   1.984040000
| 38> H   1.242140000  -0.921210000   2.984230000
| 39> O  -0.923410000   1.794470000  -2.768350000
| 40> H  -1.359750000   2.338250000  -3.430940000
| 41> H  -1.303000000   0.879480000  -2.865760000
| 42> O  -0.741530000   1.752130000   2.896280000
| 43> H  -0.920500000   2.036450000   1.984040000
| 44> H  -1.242140000   0.921210000   2.984230000
| 45> *
| 46>
| 47>                          ****END OF INPUT****

CARTESIAN COORDINATES (ANGSTROEM)
---------------------------------
  O      0.923410   -1.794470   -2.768350
  H      1.359750   -2.338250   -3.430940
  H      1.303000   -0.879480   -2.865760
  O     -1.752130   -0.741530   -2.896280
  H     -2.036450   -0.920500   -1.984040
  H     -0.921210   -1.242140   -2.984230
  O     -0.885520    1.737840    0.052730
  H     -1.032320    2.090180   -0.841890
  H     -1.284090    0.839590    0.017130
  O      0.885520   -1.737840    0.052730
  H      1.284090   -0.839590    0.017130
  H      1.032320   -2.090180   -0.841890
  O      1.737840    0.885520   -0.052730
  H      2.090180    1.032320    0.841890
  H      0.839590    1.284090   -0.017130
  O     -1.737840   -0.885520   -0.052730
  H     -2.090180   -1.032320    0.841890
  H     -0.839590   -1.284090   -0.017130
  O      1.752130    0.741530   -2.896280
  H      2.036450    0.920500   -1.984040
  H      0.921210    1.242140   -2.984230
  O      0.741530   -1.752130    2.896280
  H      0.920500   -2.036450    1.984040
  H      1.242140   -0.921210    2.984230
  O     -0.923410    1.794470   -2.768350
  H     -1.359750    2.338250   -3.430940
  H     -1.303000    0.879480   -2.865760
  O     -0.741530    1.752130    2.896280
  H     -0.920500    2.036450    1.984040
  H     -1.242140    0.921210    2.984230

 Total Charge           Charge          ....    0
 Multiplicity           Mult            ....    1
 Number of Electrons    NEL             ....  100
 Basis Dimension        Dim             ....  430

ORBITAL ENERGIES
----------------

  NO   OCC          E(Eh)            E(eV)
   0   2.0000     -20.594317      -560.3999
   1   2.0000     -20.594317      -560.3999
   2   2.0000     -20.579384      -559.9935
   3   2.0000     -20.579384      -559.9935
   4   2.0000     -20.572946      -559.8183
   5   2.0000     -20.572946      -559.8183
   6   2.0000     -20.567200      -559.6620
   7   2.0000     -20.567200      -559.6620
   8   2.0000     -20.543867      -559.0270
   9   2.0000     -20.543866      -559.0270
  10   2.0000      -1.393746       -37.9258
  11   2.0000      -1.383069       -37.6352
  12   2.0000      -1.376776       -37.4640
  13   2.0000      -1.372252       -37.3409
  14   2.0000      -1.361143       -37.0386
  15   2.0000      -1.357109       -36.9288
  16   2.0000      -1.354370       -36.8543
  17   2.0000      -1.343960       -36.5710
  18   2.0000      -1.325680       -36.0736
  19   2.0000      -1.324993       -36.0549
  20   2.0000      -0.751033       -20.4366
  21   2.0000      -0.747678       -20.3453
  22   2.0000      -0.745370       -20.2825
  23   2.0000      -0.744587       -20.2613
  24   2.0000      -0.738011       -20.0823
  25   2.0000      -0.734444       -19.9852
  26   2.0000      -0.726910       -19.7802
  27   2.0000      -0.720221       -19.5982
  28   2.0000      -0.697167       -18.9709
  29   2.0000      -0.693293       -18.8655
  30   2.0000      -0.660565       -17.9749
  31   2.0000      -0.635292       -17.2872
  32   2.0000      -0.628469       -17.1015
  33   2.0000      -0.624358       -16.9897
  34   2.0000      -0.610279       -16.6065
  35   2.0000      -0.602850       -16.4044
  36   2.0000      -0.590610       -16.0713
  37   2.0000      -0.571027       -15.5384
  38   2.0000      -0.563741       -15.3402
  39   2.0000      -0.556761       -15.1502
  40   2.0000      -0.538435       -14.6516
  41   2.0000      -0.537859       -14.6359
  42   2.0000      -0.528920       -14.3926
  43   2.0000      -0.526527       -14.3275
  44   2.0000      -0.521834       -14.1998
  45   2.0000      -0.520932       -14.1753
  46   2.0000      -0.513481       -13.9725
  47   2.0000      -0.513252       -13.9663
  48   2.0000      -0.493347       -13.4246
  49   2.0000      -0.487160       -13.2563
  50   0.0000       0.092992         2.5304
  51   0.0000       0.124280         3.3818
  52   0.0000       0.128603         3.4995
  53   0.0000       0.136275         3.7082
  54   0.0000       0.189050         5.1443

MULLIKEN ATOMIC CHARGES
-----------------------
   0 O :   -0.764954
   1 H :    0.356009
   2 H :    0.386522
   3 O :   -0.722617
   4 H :    0.388078
   5 H :    0.372196
   6 O :   -0.755939
   7 H :    0.387810
   8 H :    0.357639
   9 O :   -0.755939
  10 H :    0.357639
  11 H :    0.387810
  12 O :   -0.747133
  13 H :    0.364278
  14 H :    0.381024
  15 O :   -0.747133
  16 H :    0.364278
  17 H :    0.381024
  18 O :   -0.722617
  19 H :    0.388078
  20 H :    0.372196
  21 O :   -0.700255
  22 H :    0.373108
  23 H :    0.324234
  24 O :   -0.764954
  25 H :    0.356009
  26 H :    0.386522
  27 O :   -0.700255
  28 H :    0.373108
  29 H :    0.324234
Sum of atomic charges:    0.0000000

LOEWDIN ATOMIC CHARGES
----------------------
   0 O :   -0.317469
   1 H :    0.161770
   2 H :    0.146528
   3 O :   -0.284180
   4 H :    0.156716
   5 H :    0.150587
   6 O :   -0.300146
   7 H :    0.153427
   8 H :    0.140207
   9 O :   -0.300146
  10 H :    0.140207
  11 H :    0.153427
  12 O :   -0.295497
  13 H :    0.172291
  14 H :    0.147614
  15 O :   -0.295497
  16 H :    0.172291
  17 H :    0.147614
  18 O :   -0.284180
  19 H :    0.156716
  20 H :    0.150587
  21 O :   -0.339639
  22 H :    0.150356
  23 H :    0.157437
  24 O :   -0.317469
  25 H :    0.161770
  26 H :    0.146528
  27 O :   -0.339639
  28 H :    0.150356
  29 H :    0.157437

  Mayer bond orders larger than 0.100000
B(  0-O ,  1-H ) :   0.8375 B(  0-O ,  2-H ) :   0.7234 B(  2-H , 18-O ) :   0.1255
B(  3-O ,  4-H ) :   0.8045 B(  3-O ,  5-H ) :   0.7955 B(  3-O , 26-H ) :   0.1255
B(  6-O ,  7-H ) :   0.7912 B(  6-O ,  8-H ) :   0.7655 B(  6-O , 14-H ) :   0.1091
B(  9-O , 10-H ) :   0.7655 B(  9-O , 11-H ) :   0.7912 B(  9-O , 17-H ) :   0.1091
B( 12-O , 13-H ) :   0.8303 B( 12-O , 14-H ) :   0.7444 B( 15-O , 16-H ) :   0.8303
B( 15-O , 17-H ) :   0.7444 B( 18-O , 19-H ) :   0.8045 B( 18-O , 20-H ) :   0.7955
B( 21-O , 22-H ) :   0.8164 B( 21-O , 23-H ) :   0.8563 B( 24-O , 25-H ) :   0.8375
B( 24-O , 26-H ) :   0.7234 B( 27-O , 28-H ) :   0.8164 B( 27-O , 29-H ) :   0.8563

MP2 TOTAL ENERGY:     -763.272028808 Eh
FINAL SINGLE POINT ENERGY      -763.272028807692

DIPOLE MOMENT
-------------
                                X             Y             Z
Electronic contribution:      0.00000      -0.00000      -0.24312
Nuclear contribution   :      0.00000      -0.00000      -1.26519
                        -----------------------------------------
Total Dipole Moment    :      0.00000      -0.00000      -1.50831
                        -----------------------------------------
Magnitude (a.u.)       :      1.50831
Magnitude (Debye)      :      3.83382

Rotational constants in cm-1:     0.024561     0.015473     0.013625
Rotational constants in MHz :   736.332758   463.862217   408.458746

                             ****ORCA TERMINATED NORMALLY****
TOTAL RUN TIME: 0 days 0 hours 8 minutes 4 seconds 564 msec
