                         Program Version 3.0.3 - RELEASE   -
|  1> ! B3LYP Def2-SVP def2-SVP/J RIJCOSX TightSCF Grid4 D3BJ OPT
|  2>
|  3> %pal nprocs 12 end
|  4>
|  5> %scf
|  6>         maxiter 400
|  7> end
|  8>
|  9> * xyz  0  1
| 10> O  0.65654026	0.03092734	-0.96245504
| 11> H  1.47128428	0.53286541	-0.94049575
| 12> H  0.38690419	0.05111308	-1.88067113
| 13> O  -0.92546095	0.08686123	1.37545267
| 14> H  -0.47177885	0.06300633	0.53293540
| 15> H  -0.97064173	-0.82909318	1.64971179
| 16> **                         ****END OF INPUT****
 Total Charge           Charge          ....    0
 Multiplicity           Mult            ....    1
 Number of Electrons    NEL             ....   20
 Basis Dimension        Dim             ....   48

ORBITAL ENERGIES
----------------

  NO   OCC          E(Eh)            E(eV)
   0   2.0000     -19.151841      -521.1481
   1   2.0000     -19.070989      -518.9480
   2   2.0000      -1.015368       -27.6296
   3   2.0000      -0.938500       -25.5379
   4   2.0000      -0.547739       -14.9047
   5   2.0000      -0.482416       -13.1272
   6   2.0000      -0.404318       -11.0021
   7   2.0000      -0.328639        -8.9427
   8   2.0000      -0.317442        -8.6380
   9   2.0000      -0.251027        -6.8308
  10   0.0000       0.027135         0.7384
  11   0.0000       0.102102         2.7783
  12   0.0000       0.109441         2.9780
  13   0.0000       0.242815         6.6073
  14   0.0000       0.537302        14.6207

MULLIKEN ATOMIC CHARGES
-----------------------
   0 O :   -0.256082
   1 H :    0.163093
   2 H :    0.160435
   3 O :   -0.321466
   4 H :    0.120882
   5 H :    0.133137
Sum of atomic charges:   -0.0000000

LOEWDIN ATOMIC CHARGES
----------------------
   0 O :   -0.088737
   1 H :    0.082631
   2 H :    0.081160
   3 O :   -0.164286
   4 H :    0.028495
   5 H :    0.060738

  Mayer bond orders larger than 0.1
B(  0-O ,  1-H ) :   0.9957 B(  0-O ,  2-H ) :   0.9965 B(  0-O ,  4-H ) :   0.1239
B(  3-O ,  4-H ) :   0.9738 B(  3-O ,  5-H ) :   1.0130

Dispersion correction           -0.002169976
FINAL SINGLE POINT ENERGY      -152.656260708853
Dispersion correction            ...
Dispersion correction           -0.002160891
FINAL SINGLE POINT ENERGY      -152.656787689020
Dispersion correction            ...
Dispersion correction           -0.002171524
FINAL SINGLE POINT ENERGY      -152.656855914476
Dispersion correction            ...
FINAL SINGLE POINT ENERGY      -152.657014624585
FINAL SINGLE POINT ENERGY      -152.657073895532
FINAL SINGLE POINT ENERGY      -152.657181977514
FINAL SINGLE POINT ENERGY      -152.657189360076
FINAL SINGLE POINT ENERGY      -152.657282020804
FINAL SINGLE POINT ENERGY      -152.657042917025
FINAL SINGLE POINT ENERGY      -152.654700170414
FINAL SINGLE POINT ENERGY      -152.657988595982
FINAL SINGLE POINT ENERGY      -152.658019831010
FINAL SINGLE POINT ENERGY      -152.658036973502
FINAL SINGLE POINT ENERGY      -152.658039394657
FINAL SINGLE POINT ENERGY      -152.658039506928
FINAL SINGLE POINT ENERGY      -152.658038999594
FINAL SINGLE POINT ENERGY      -152.658040109276
Dispersion correction           -0.002326087
FINAL SINGLE POINT ENERGY      -152.658043530878
Dispersion correction            ...
Dispersion correction           -0.002324401
FINAL SINGLE POINT ENERGY      -152.658047194201
Dispersion correction            ...

CARTESIAN COORDINATES (ANGSTROEM)
---------------------------------
  O      0.925161   -0.137364   -1.071988
  H      1.350489    0.720064   -0.917967
  H      0.073582    0.111826   -1.459572
  O     -0.928703    0.093471    1.050985
  H     -0.156359   -0.201867    0.534740
  H     -1.117323   -0.650450    1.638280

Dispersion correction           -0.002321917
FINAL SINGLE POINT ENERGY      -152.658059078416
Dispersion correction            ...

DIPOLE MOMENT
-------------
                                X             Y             Z
Electronic contribution:      0.10504      -0.00038      -0.14616
Nuclear contribution   :      0.14157       0.05497      -0.15084
                        -----------------------------------------
Total Dipole Moment    :      0.24661       0.05459      -0.29700
                        -----------------------------------------
Magnitude (a.u.)       :      0.38987
Magnitude (Debye)      :      0.99098

                             ****ORCA TERMINATED NORMALLY****
TOTAL RUN TIME: 0 days 0 hours 40 minutes 22 seconds 50 msec
