                         Program Version 3.0.3 - RELEASE   -
|  1> ! BP86 Def2-SVP TightSCF Opt D3BJ
|  2>
|  3> %pal nprocs 12 end
|  4>
|  5> %scf
|  6>         maxiter 800
|  7> end
|  8>
|  9> * xyz  0  1
| 10> O  0.65654026	0.03092734	-0.96245504
| 11> H  1.47128428	0.53286541	-0.94049575
| 12> H  0.38690419	0.05111308	-1.88067113
| 13> O  -0.92546095	0.08686123	1.37545267
| 14> H  -0.47177885	0.06300633	0.53293540
| 15> H  -0.97064173	-0.82909318	1.64971179
| 16> **                         ****END OF INPUT****
 Total Charge           Charge          ....    0
 Multiplicity           Mult            ....    1
 Number of Electrons    NEL             ....   20
Dispersion correction           -0.001860249
FINAL SINGLE POINT ENERGY      -152.733239439841
Dispersion correction            ...
Dispersion correction           -0.001845701
FINAL SINGLE POINT ENERGY      -152.734755263372
Dispersion correction            ...
Dispersion correction           -0.001858263
FINAL SINGLE POINT ENERGY      -152.734982046232
Dispersion correction            ...
FINAL SINGLE POINT ENERGY      -152.735328463593
FINAL SINGLE POINT ENERGY      -152.735483781642
FINAL SINGLE POINT ENERGY      -152.736140390590
FINAL SINGLE POINT ENERGY      -152.736312095040
FINAL SINGLE POINT ENERGY      -152.736331743254
FINAL SINGLE POINT ENERGY      -152.736342645468
FINAL SINGLE POINT ENERGY      -152.736352969991
FINAL SINGLE POINT ENERGY      -152.736363235988
Dispersion correction            ...
Dispersion correction           -0.001937418
FINAL SINGLE POINT ENERGY      -152.736364805529
Dispersion correction            ...
Dispersion correction           -0.001936846
FINAL SINGLE POINT ENERGY      -152.736365702016
Dispersion correction            ...
                    ***********************HURRAY********************

CARTESIAN COORDINATES (ANGSTROEM)
---------------------------------
  O      0.761900   -0.184844   -1.026904
  H      1.377404    0.529775   -0.772623
  H      0.252154    0.214524   -1.757948
  O     -0.968421    0.119482    1.231621
  H     -0.424676   -0.005852    0.419049
  H     -0.851514   -0.737405    1.681283

 Multiplicity           Mult            ....    1
 Number of Electrons    NEL             ....   20
 Basis Dimension        Dim             ....   48

ORBITAL ENERGIES
----------------

  NO   OCC          E(Eh)            E(eV)
   0   2.0000     -18.804932      -511.7082
   1   2.0000     -18.725487      -509.5464
   2   2.0000      -0.931904       -25.3584
   3   2.0000      -0.854551       -23.2535
   4   2.0000      -0.494002       -13.4425
   5   2.0000      -0.424239       -11.5441
   6   2.0000      -0.356051        -9.6886
   7   2.0000      -0.295099        -8.0301
   8   2.0000      -0.264174        -7.1885
   9   2.0000      -0.202462        -5.5093
  10   0.0000       0.004282         0.1165
  11   0.0000       0.076882         2.0921
  12   0.0000       0.083560         2.2738
  13   0.0000       0.200593         5.4584
  14   0.0000       0.475672        12.9437

MULLIKEN ATOMIC CHARGES
-----------------------
   0 O :   -0.256658
   1 H :    0.172826
   2 H :    0.173905
   3 O :   -0.337761
   4 H :    0.104664
   5 H :    0.143023
Sum of atomic charges:    0.0000000

LOEWDIN ATOMIC CHARGES
----------------------
   0 O :   -0.094389
   1 H :    0.090769
   2 H :    0.091603
   3 O :   -0.187647
   4 H :    0.030092
   5 H :    0.069573

  Mayer bond orders larger than 0.1
B(  0-O ,  1-H ) :   0.9903 B(  0-O ,  2-H ) :   0.9913 B(  0-O ,  4-H ) :   0.1683
B(  3-O ,  4-H ) :   0.9497 B(  3-O ,  5-H ) :   1.0093

Dispersion correction           -0.001936712
FINAL SINGLE POINT ENERGY      -152.736366194928

DIPOLE MOMENT
-------------
                                X             Y             Z
Electronic contribution:      0.04262      -0.01927      -0.10419
Nuclear contribution   :      0.63793       0.10968      -0.69891
                        -----------------------------------------
Total Dipole Moment    :      0.68055       0.09041      -0.80310
                        -----------------------------------------
Magnitude (a.u.)       :      1.05655
Magnitude (Debye)      :      2.68554

                             ****ORCA TERMINATED NORMALLY****
TOTAL RUN TIME: 0 days 0 hours 11 minutes 0 seconds 847 msec
