                         Program Version 3.0.3 - RELEASE   -
|  1> ! BP86 Def2-SVP TightSCF Opt D3BJ COSMO
|  2>
|  3> %pal nprocs 12 end
|  4>
|  5> %scf
|  6>         maxiter 800
|  7> end
|  8>
|  9> %cosmo
| 10> 	SMD true
| 11>         solvent "WATER"
| 12> end
| 13>
| 14> * xyz  0  1
| 15>   O      0.656540    0.030927   -0.962455
| 16>   H      1.471284    0.532865   -0.940496
| 17>   H      0.386904    0.051113   -1.880671
| 18>   O     -0.925461    0.086861    1.375453
| 19>   H     -0.471779    0.063006    0.532935
| 20>   H     -0.970642   -0.829093    1.649712
| 21> **                         ****END OF INPUT****
 Total Charge           Charge          ....    0
 Multiplicity           Mult            ....    1
 Number of Electrons    NEL             ....   20
Dispersion correction           -0.001860249
FINAL SINGLE POINT ENERGY      -152.753283259791
Dispersion correction            ...
Dispersion correction           -0.001874778
FINAL SINGLE POINT ENERGY      -152.755499058836
Dispersion correction            ...
Dispersion correction           -0.001910830
FINAL SINGLE POINT ENERGY      -152.755900115805
Dispersion correction            ...
FINAL SINGLE POINT ENERGY      -152.756131366685
FINAL SINGLE POINT ENERGY      -152.756348353004
FINAL SINGLE POINT ENERGY      -152.756639046852
FINAL SINGLE POINT ENERGY      -152.757090085590
FINAL SINGLE POINT ENERGY      -152.757219479168
FINAL SINGLE POINT ENERGY      -152.757213933508
FINAL SINGLE POINT ENERGY      -152.757228980778
FINAL SINGLE POINT ENERGY      -152.757243455935
FINAL SINGLE POINT ENERGY      -152.757243339638
FINAL SINGLE POINT ENERGY      -152.757239050055
FINAL SINGLE POINT ENERGY      -152.757243804296
FINAL SINGLE POINT ENERGY      -152.757241674159
FINAL SINGLE POINT ENERGY      -152.757238476355
FINAL SINGLE POINT ENERGY      -152.757235000809
Dispersion correction            ...
Dispersion correction           -0.001974212
FINAL SINGLE POINT ENERGY      -152.757238871771
Dispersion correction            ...
Dispersion correction           -0.001974363
FINAL SINGLE POINT ENERGY      -152.757239523453
Dispersion correction            ...
                    ***********************HURRAY********************

CARTESIAN COORDINATES (ANGSTROEM)
---------------------------------
  O      0.781428   -0.162418   -0.937504
  H      1.375024    0.613012   -0.870567
  H      0.172553    0.101838   -1.656749
  O     -0.909662    0.134138    1.234022
  H     -0.287464    0.038359    0.462178
  H     -0.985033   -0.789250    1.543099

 Multiplicity           Mult            ....    1
 Number of Electrons    NEL             ....   20
 Basis Dimension        Dim             ....   48

ORBITAL ENERGIES
----------------

  NO   OCC          E(Eh)            E(eV)
   0   2.0000     -18.785399      -511.1767
   1   2.0000     -18.742218      -510.0017
   2   2.0000      -0.909906       -24.7598
   3   2.0000      -0.866687       -23.5838
   4   2.0000      -0.466516       -12.6946
   5   2.0000      -0.435271       -11.8443
   6   2.0000      -0.346891        -9.4394
   7   2.0000      -0.308893        -8.4054
   8   2.0000      -0.259231        -7.0540
   9   2.0000      -0.226303        -6.1580
  10   0.0000       0.038353         1.0436
  11   0.0000       0.086669         2.3584
  12   0.0000       0.123681         3.3655
  13   0.0000       0.212784         5.7902
  14   0.0000       0.496626        13.5139

MULLIKEN ATOMIC CHARGES
-----------------------
   0 O :   -0.316652
   1 H :    0.216152
   2 H :    0.214893
   3 O :   -0.430546
   4 H :    0.128278
   5 H :    0.187876
Sum of atomic charges:   -0.0000000

LOEWDIN ATOMIC CHARGES
----------------------
   0 O :   -0.113663
   1 H :    0.116893
   2 H :    0.115939
   3 O :   -0.244426
   4 H :    0.033294
   5 H :    0.091963

  Mayer bond orders larger than 0.1
B(  0-O ,  1-H ) :   0.9711 B(  0-O ,  2-H ) :   0.9705 B(  0-O ,  4-H ) :   0.2019
B(  3-O ,  4-H ) :   0.9162 B(  3-O ,  5-H ) :   0.9902

Dispersion correction           -0.001974472
FINAL SINGLE POINT ENERGY      -152.757241778004

DIPOLE MOMENT
-------------
                                X             Y             Z
Electronic contribution:      0.17666      -0.00471      -0.21483
Nuclear contribution   :      0.44244       0.01708      -0.92814
                        -----------------------------------------
Total Dipole Moment    :      0.61910       0.01237      -1.14297
                        -----------------------------------------
Magnitude (a.u.)       :      1.29993
Magnitude (Debye)      :      3.30416

                             ****ORCA TERMINATED NORMALLY****
TOTAL RUN TIME: 0 days 0 hours 23 minutes 1 seconds 25 msec
