                         Program Version 4.2.0 -  RELEASE  -
|  1> # 12h2o.su.etal.mol1,2,3,4,5,7,8,10
|  2> ! MP2 def2-TZVP EnGrad TightSCF
|  3>
|  4> %pal
|  5>     nprocs 6
|  6> end
|  7>
|  8> %maxcore 8000
|  9>
| 10> %scf
| 11>     ConvForced true
| 12> end
| 13>
| 14> *xyz 0 1
| 15> O  -1.794470000  -0.923410000   2.768350000
| 16> H  -2.338250000  -1.359750000   3.430940000
| 17> H  -0.879480000  -1.303000000   2.865760000
| 18> O   0.923410000  -1.794470000  -2.768350000
| 19> H   1.359750000  -2.338250000  -3.430940000
| 20> H   1.303000000  -0.879480000  -2.865760000
| 21> O  -1.752130000  -0.741530000  -2.896280000
| 22> H  -2.036450000  -0.920500000  -1.984040000
| 23> H  -0.921210000  -1.242140000  -2.984230000
| 24> O  -0.885520000   1.737840000   0.052730000
| 25> H  -1.032320000   2.090180000  -0.841890000
| 26> H  -1.284090000   0.839590000   0.017130000
| 27> O   0.885520000  -1.737840000   0.052730000
| 28> H   1.284090000  -0.839590000   0.017130000
| 29> H   1.032320000  -2.090180000  -0.841890000
| 30> O  -1.737840000  -0.885520000  -0.052730000
| 31> H  -2.090180000  -1.032320000   0.841890000
| 32> H  -0.839590000  -1.284090000  -0.017130000
| 33> O   1.752130000   0.741530000  -2.896280000
| 34> H   2.036450000   0.920500000  -1.984040000
| 35> H   0.921210000   1.242140000  -2.984230000
| 36> O  -0.923410000   1.794470000  -2.768350000
| 37> H  -1.359750000   2.338250000  -3.430940000
| 38> H  -1.303000000   0.879480000  -2.865760000
| 39> *
| 40>
| 41>                          ****END OF INPUT****

CARTESIAN COORDINATES (ANGSTROEM)
---------------------------------
  O     -1.794470   -0.923410    2.768350
  H     -2.338250   -1.359750    3.430940
  H     -0.879480   -1.303000    2.865760
  O      0.923410   -1.794470   -2.768350
  H      1.359750   -2.338250   -3.430940
  H      1.303000   -0.879480   -2.865760
  O     -1.752130   -0.741530   -2.896280
  H     -2.036450   -0.920500   -1.984040
  H     -0.921210   -1.242140   -2.984230
  O     -0.885520    1.737840    0.052730
  H     -1.032320    2.090180   -0.841890
  H     -1.284090    0.839590    0.017130
  O      0.885520   -1.737840    0.052730
  H      1.284090   -0.839590    0.017130
  H      1.032320   -2.090180   -0.841890
  O     -1.737840   -0.885520   -0.052730
  H     -2.090180   -1.032320    0.841890
  H     -0.839590   -1.284090   -0.017130
  O      1.752130    0.741530   -2.896280
  H      2.036450    0.920500   -1.984040
  H      0.921210    1.242140   -2.984230
  O     -0.923410    1.794470   -2.768350
  H     -1.359750    2.338250   -3.430940
  H     -1.303000    0.879480   -2.865760

 Total Charge           Charge          ....    0
 Multiplicity           Mult            ....    1
 Number of Electrons    NEL             ....   80
 Basis Dimension        Dim             ....  344

ORBITAL ENERGIES
----------------

  NO   OCC          E(Eh)            E(eV)
   0   2.0000     -20.584582      -560.1350
   1   2.0000     -20.582734      -560.0847
   2   2.0000     -20.578975      -559.9824
   3   2.0000     -20.577884      -559.9527
   4   2.0000     -20.557811      -559.4065
   5   2.0000     -20.549653      -559.1845
   6   2.0000     -20.545366      -559.0678
   7   2.0000     -20.492393      -557.6264
   8   2.0000      -1.380440       -37.5637
   9   2.0000      -1.366072       -37.1727
  10   2.0000      -1.362411       -37.0731
  11   2.0000      -1.356157       -36.9029
  12   2.0000      -1.352741       -36.8099
  13   2.0000      -1.336322       -36.3632
  14   2.0000      -1.328798       -36.1584
  15   2.0000      -1.276463       -34.7343
  16   2.0000      -0.744822       -20.2676
  17   2.0000      -0.735214       -20.0062
  18   2.0000      -0.729831       -19.8597
  19   2.0000      -0.724273       -19.7085
  20   2.0000      -0.719248       -19.5717
  21   2.0000      -0.713821       -19.4241
  22   2.0000      -0.702714       -19.1218
  23   2.0000      -0.659773       -17.9533
  24   2.0000      -0.641682       -17.4610
  25   2.0000      -0.615950       -16.7609
  26   2.0000      -0.608378       -16.5548
  27   2.0000      -0.598404       -16.2834
  28   2.0000      -0.593519       -16.1505
  29   2.0000      -0.576759       -15.6944
  30   2.0000      -0.562843       -15.3157
  31   2.0000      -0.537413       -14.6238
  32   2.0000      -0.526269       -14.3205
  33   2.0000      -0.525201       -14.2915
  34   2.0000      -0.523772       -14.2526
  35   2.0000      -0.514928       -14.0119
  36   2.0000      -0.501708       -13.6522
  37   2.0000      -0.494663       -13.4605
  38   2.0000      -0.482217       -13.1218
  39   2.0000      -0.443554       -12.0697
  40   0.0000       0.099137         2.6977
  41   0.0000       0.120222         3.2714
  42   0.0000       0.144139         3.9222
  43   0.0000       0.149525         4.0688
  44   0.0000       0.183698         4.9987

MULLIKEN ATOMIC CHARGES
-----------------------
   0 O :   -0.691853
   1 H :    0.349326
   2 H :    0.360780
   3 O :   -0.759721
   4 H :    0.355384
   5 H :    0.381892
   6 O :   -0.725255
   7 H :    0.390319
   8 H :    0.366334
   9 O :   -0.744415
  10 H :    0.354148
  11 H :    0.350010
  12 O :   -0.703291
  13 H :    0.343725
  14 H :    0.382982
  15 O :   -0.753927
  16 H :    0.381142
  17 H :    0.357226
  18 O :   -0.707187
  19 H :    0.351367
  20 H :    0.386317
  21 O :   -0.756024
  22 H :    0.347393
  23 H :    0.383328
Sum of atomic charges:    0.0000000

LOEWDIN ATOMIC CHARGES
----------------------
   0 O :   -0.307758
   1 H :    0.162444
   2 H :    0.187926
   3 O :   -0.315843
   4 H :    0.161344
   5 H :    0.145601
   6 O :   -0.287640
   7 H :    0.157188
   8 H :    0.148070
   9 O :   -0.374657
  10 H :    0.140033
  11 H :    0.135020
  12 O :   -0.298876
  13 H :    0.170405
  14 H :    0.153642
  15 O :   -0.304524
  16 H :    0.153198
  17 H :    0.140852
  18 O :   -0.279483
  19 H :    0.168283
  20 H :    0.157077
  21 O :   -0.315895
  22 H :    0.157462
  23 H :    0.146133

  Mayer bond orders larger than 0.100000
B(  0-O ,  1-H ) :   0.8436 B(  0-O ,  2-H ) :   0.8304 B(  3-O ,  4-H ) :   0.8379
B(  3-O ,  5-H ) :   0.7317 B(  5-H , 18-O ) :   0.1161 B(  6-O ,  7-H ) :   0.7953
B(  6-O ,  8-H ) :   0.8040 B(  6-O , 23-H ) :   0.1221 B(  9-O , 10-H ) :   0.8288
B(  9-O , 11-H ) :   0.8018 B( 12-O , 13-H ) :   0.8388 B( 12-O , 14-H ) :   0.7955
B( 15-O , 16-H ) :   0.8006 B( 15-O , 17-H ) :   0.7700 B( 18-O , 19-H ) :   0.8395
B( 18-O , 20-H ) :   0.7769 B( 21-O , 22-H ) :   0.8416 B( 21-O , 23-H ) :   0.7265

MP2 TOTAL ENERGY:     -610.600286271 Eh
FINAL SINGLE POINT ENERGY      -610.600286270810

DIPOLE MOMENT
-------------
                                X             Y             Z
Electronic contribution:     -0.04725      -0.12120       0.04588
Nuclear contribution   :      0.76337      -1.13309      -0.03466
                        -----------------------------------------
Total Dipole Moment    :      0.71612      -1.25429       0.01122
                        -----------------------------------------
Magnitude (a.u.)       :      1.44437
Magnitude (Debye)      :      3.67129

Rotational constants in cm-1:     0.037699     0.021083     0.018125
Rotational constants in MHz :  1130.187783   632.062381   543.379946

                             ****ORCA TERMINATED NORMALLY****
TOTAL RUN TIME: 0 days 0 hours 3 minutes 28 seconds 840 msec
