                         Program Version 4.2.0 -  RELEASE  -
|  1> # 12h2o.su.etal.mol1,2,3,4,6,11
|  2> ! MP2 def2-TZVP EnGrad TightSCF
|  3>
|  4> %pal
|  5>     nprocs 6
|  6> end
|  7>
|  8> %maxcore 8000
|  9>
| 10> %scf
| 11>     ConvForced true
| 12> end
| 13>
| 14> *xyz 0 1
| 15> O  -1.794470000  -0.923410000   2.768350000
| 16> H  -2.338250000  -1.359750000   3.430940000
| 17> H  -0.879480000  -1.303000000   2.865760000
| 18> O   0.923410000  -1.794470000  -2.768350000
| 19> H   1.359750000  -2.338250000  -3.430940000
| 20> H   1.303000000  -0.879480000  -2.865760000
| 21> O  -1.752130000  -0.741530000  -2.896280000
| 22> H  -2.036450000  -0.920500000  -1.984040000
| 23> H  -0.921210000  -1.242140000  -2.984230000
| 24> O  -0.885520000   1.737840000   0.052730000
| 25> H  -1.032320000   2.090180000  -0.841890000
| 26> H  -1.284090000   0.839590000   0.017130000
| 27> O   1.737840000   0.885520000  -0.052730000
| 28> H   2.090180000   1.032320000   0.841890000
| 29> H   0.839590000   1.284090000  -0.017130000
| 30> O  -0.741530000   1.752130000   2.896280000
| 31> H  -0.920500000   2.036450000   1.984040000
| 32> H  -1.242140000   0.921210000   2.984230000
| 33> *
| 34>
| 35>                          ****END OF INPUT****

CARTESIAN COORDINATES (ANGSTROEM)
---------------------------------
  O     -1.794470   -0.923410    2.768350
  H     -2.338250   -1.359750    3.430940
  H     -0.879480   -1.303000    2.865760
  O      0.923410   -1.794470   -2.768350
  H      1.359750   -2.338250   -3.430940
  H      1.303000   -0.879480   -2.865760
  O     -1.752130   -0.741530   -2.896280
  H     -2.036450   -0.920500   -1.984040
  H     -0.921210   -1.242140   -2.984230
  O     -0.885520    1.737840    0.052730
  H     -1.032320    2.090180   -0.841890
  H     -1.284090    0.839590    0.017130
  O      1.737840    0.885520   -0.052730
  H      2.090180    1.032320    0.841890
  H      0.839590    1.284090   -0.017130
  O     -0.741530    1.752130    2.896280
  H     -0.920500    2.036450    1.984040
  H     -1.242140    0.921210    2.984230

 Total Charge           Charge          ....    0
 Multiplicity           Mult            ....    1
 Number of Electrons    NEL             ....   60
 Basis Dimension        Dim             ....  258

ORBITAL ENERGIES
----------------

  NO   OCC          E(Eh)            E(eV)
   0   2.0000     -20.606047      -560.7190
   1   2.0000     -20.596299      -560.4538
   2   2.0000     -20.585164      -560.1508
   3   2.0000     -20.545972      -559.0843
   4   2.0000     -20.529829      -558.6450
   5   2.0000     -20.516751      -558.2892
   6   2.0000      -1.388886       -37.7935
   7   2.0000      -1.373904       -37.3858
   8   2.0000      -1.363068       -37.0910
   9   2.0000      -1.327719       -36.1291
  10   2.0000      -1.311015       -35.6745
  11   2.0000      -1.302019       -35.4298
  12   2.0000      -0.747110       -20.3299
  13   2.0000      -0.741022       -20.1642
  14   2.0000      -0.730285       -19.8721
  15   2.0000      -0.695895       -18.9363
  16   2.0000      -0.689887       -18.7728
  17   2.0000      -0.680652       -18.5215
  18   2.0000      -0.629303       -17.1242
  19   2.0000      -0.608332       -16.5535
  20   2.0000      -0.605072       -16.4648
  21   2.0000      -0.573216       -15.5980
  22   2.0000      -0.566032       -15.4025
  23   2.0000      -0.549410       -14.9502
  24   2.0000      -0.529462       -14.4074
  25   2.0000      -0.524625       -14.2758
  26   2.0000      -0.522606       -14.2208
  27   2.0000      -0.493079       -13.4173
  28   2.0000      -0.478264       -13.0142
  29   2.0000      -0.466284       -12.6882
  30   0.0000       0.087706         2.3866
  31   0.0000       0.113439         3.0868
  32   0.0000       0.131439         3.5766
  33   0.0000       0.157580         4.2880
  34   0.0000       0.170280         4.6336

MULLIKEN ATOMIC CHARGES
-----------------------
   0 O :   -0.701997
   1 H :    0.357059
   2 H :    0.364290
   3 O :   -0.698056
   4 H :    0.350777
   5 H :    0.369614
   6 O :   -0.702584
   7 H :    0.320784
   8 H :    0.362813
   9 O :   -0.706953
  10 H :    0.370805
  11 H :    0.361608
  12 O :   -0.722797
  13 H :    0.336738
  14 H :    0.353939
  15 O :   -0.722663
  16 H :    0.362625
  17 H :    0.343998
Sum of atomic charges:    0.0000000

LOEWDIN ATOMIC CHARGES
----------------------
   0 O :   -0.313864
   1 H :    0.165462
   2 H :    0.189671
   3 O :   -0.310813
   4 H :    0.163050
   5 H :    0.191464
   6 O :   -0.345801
   7 H :    0.154586
   8 H :    0.149446
   9 O :   -0.274552
  10 H :    0.177751
  11 H :    0.179187
  12 O :   -0.364477
  13 H :    0.162038
  14 H :    0.140165
  15 O :   -0.352067
  16 H :    0.147267
  17 H :    0.141487

  Mayer bond orders larger than 0.100000
B(  0-O ,  1-H ) :   0.8393 B(  0-O ,  2-H ) :   0.8278 B(  3-O ,  4-H ) :   0.8424
B(  3-O ,  5-H ) :   0.8228 B(  6-O ,  7-H ) :   0.8616 B(  6-O ,  8-H ) :   0.8096
B(  9-O , 10-H ) :   0.8260 B(  9-O , 11-H ) :   0.8244 B( 12-O , 13-H ) :   0.8526
B( 12-O , 14-H ) :   0.8059 B( 15-O , 16-H ) :   0.8315 B( 15-O , 17-H ) :   0.8288

MP2 TOTAL ENERGY:     -457.910989992 Eh
FINAL SINGLE POINT ENERGY      -457.910989992435

DIPOLE MOMENT
-------------
                                X             Y             Z
Electronic contribution:     -0.07718       0.04105      -0.12071
Nuclear contribution   :     -0.03090      -1.39124       0.00000
                        -----------------------------------------
Total Dipole Moment    :     -0.10807      -1.35019      -0.12071
                        -----------------------------------------
Magnitude (a.u.)       :      1.35987
Magnitude (Debye)      :      3.45652

Rotational constants in cm-1:     0.053035     0.021660     0.019581
Rotational constants in MHz :  1589.943846   649.365385   587.028632

                             ****ORCA TERMINATED NORMALLY****
TOTAL RUN TIME: 0 days 0 hours 0 minutes 55 seconds 747 msec
