                         Program Version 4.2.0 -  RELEASE  -
|  1> # 12h2o.su.etal.mol1,4,5,9,10
|  2> ! MP2 def2-TZVP EnGrad TightSCF
|  3>
|  4> %pal
|  5>     nprocs 6
|  6> end
|  7>
|  8> %maxcore 8000
|  9>
| 10> %scf
| 11>     ConvForced true
| 12> end
| 13>
| 14> *xyz 0 1
| 15> O  -1.794470000  -0.923410000   2.768350000
| 16> H  -2.338250000  -1.359750000   3.430940000
| 17> H  -0.879480000  -1.303000000   2.865760000
| 18> O  -0.885520000   1.737840000   0.052730000
| 19> H  -1.032320000   2.090180000  -0.841890000
| 20> H  -1.284090000   0.839590000   0.017130000
| 21> O   0.885520000  -1.737840000   0.052730000
| 22> H   1.284090000  -0.839590000   0.017130000
| 23> H   1.032320000  -2.090180000  -0.841890000
| 24> O   0.741530000  -1.752130000   2.896280000
| 25> H   0.920500000  -2.036450000   1.984040000
| 26> H   1.242140000  -0.921210000   2.984230000
| 27> O  -0.923410000   1.794470000  -2.768350000
| 28> H  -1.359750000   2.338250000  -3.430940000
| 29> H  -1.303000000   0.879480000  -2.865760000
| 30> *
| 31>
| 32>                          ****END OF INPUT****

CARTESIAN COORDINATES (ANGSTROEM)
---------------------------------
  O     -1.794470   -0.923410    2.768350
  H     -2.338250   -1.359750    3.430940
  H     -0.879480   -1.303000    2.865760
  O     -0.885520    1.737840    0.052730
  H     -1.032320    2.090180   -0.841890
  H     -1.284090    0.839590    0.017130
  O      0.885520   -1.737840    0.052730
  H      1.284090   -0.839590    0.017130
  H      1.032320   -2.090180   -0.841890
  O      0.741530   -1.752130    2.896280
  H      0.920500   -2.036450    1.984040
  H      1.242140   -0.921210    2.984230
  O     -0.923410    1.794470   -2.768350
  H     -1.359750    2.338250   -3.430940
  H     -1.303000    0.879480   -2.865760

 Total Charge           Charge          ....    0
 Multiplicity           Mult            ....    1
 Number of Electrons    NEL             ....   50
 Basis Dimension        Dim             ....  215

ORBITAL ENERGIES
----------------

  NO   OCC          E(Eh)            E(eV)
   0   2.0000     -20.594081      -560.3934
   1   2.0000     -20.593092      -560.3665
   2   2.0000     -20.563382      -559.5581
   3   2.0000     -20.525021      -558.5142
   4   2.0000     -20.501351      -557.8701
   5   2.0000      -1.372299       -37.3422
   6   2.0000      -1.371898       -37.3313
   7   2.0000      -1.350579       -36.7511
   8   2.0000      -1.303984       -35.4832
   9   2.0000      -1.283426       -34.9238
  10   2.0000      -0.738939       -20.1075
  11   2.0000      -0.735453       -20.0127
  12   2.0000      -0.711775       -19.3684
  13   2.0000      -0.674368       -18.3505
  14   2.0000      -0.671851       -18.2820
  15   2.0000      -0.619176       -16.8486
  16   2.0000      -0.607356       -16.5270
  17   2.0000      -0.582285       -15.8448
  18   2.0000      -0.556976       -15.1561
  19   2.0000      -0.537346       -14.6219
  20   2.0000      -0.533629       -14.5208
  21   2.0000      -0.523356       -14.2412
  22   2.0000      -0.490533       -13.3481
  23   2.0000      -0.470552       -12.8044
  24   2.0000      -0.451741       -12.2925
  25   0.0000       0.090243         2.4556
  26   0.0000       0.117771         3.2047
  27   0.0000       0.152224         4.1422
  28   0.0000       0.174310         4.7432
  29   0.0000       0.185698         5.0531

MULLIKEN ATOMIC CHARGES
-----------------------
   0 O :   -0.730763
   1 H :    0.318207
   2 H :    0.368326
   3 O :   -0.700930
   4 H :    0.360114
   5 H :    0.332446
   6 O :   -0.698718
   7 H :    0.356479
   8 H :    0.350583
   9 O :   -0.693174
  10 H :    0.382699
  11 H :    0.346199
  12 O :   -0.693055
  13 H :    0.352421
  14 H :    0.349165
Sum of atomic charges:   -0.0000000

LOEWDIN ATOMIC CHARGES
----------------------
   0 O :   -0.372406
   1 H :    0.145687
   2 H :    0.142637
   3 O :   -0.347507
   4 H :    0.146450
   5 H :    0.165325
   6 O :   -0.317724
   7 H :    0.178463
   8 H :    0.171564
   9 O :   -0.276858
  10 H :    0.158666
  11 H :    0.170434
  12 O :   -0.311090
  13 H :    0.163318
  14 H :    0.183041

  Mayer bond orders larger than 0.100000
B(  0-O ,  1-H ) :   0.8638 B(  0-O ,  2-H ) :   0.7808 B(  3-O ,  4-H ) :   0.8250
B(  3-O ,  5-H ) :   0.8481 B(  6-O ,  7-H ) :   0.8307 B(  6-O ,  8-H ) :   0.8424
B(  9-O , 10-H ) :   0.8047 B(  9-O , 11-H ) :   0.8443 B( 12-O , 13-H ) :   0.8415
B( 12-O , 14-H ) :   0.8376

MP2 TOTAL ENERGY:     -381.587236672 Eh
FINAL SINGLE POINT ENERGY      -381.587236672423

DIPOLE MOMENT
-------------
                                X             Y             Z
Electronic contribution:      0.27265       0.03881       0.01388
Nuclear contribution   :      0.19549      -0.53316      -2.23466
                        -----------------------------------------
Total Dipole Moment    :      0.46814      -0.49435      -2.22078
                        -----------------------------------------
Magnitude (a.u.)       :      2.32280
Magnitude (Debye)      :      5.90409

Rotational constants in cm-1:     0.094564     0.028484     0.023692
Rotational constants in MHz :  2834.957050   853.930903   710.272607

                             ****ORCA TERMINATED NORMALLY****
TOTAL RUN TIME: 0 days 0 hours 0 minutes 28 seconds 7 msec
