                         Program Version 4.2.0 -  RELEASE  -
|  1> # 12h2o.su.etal.mol0,4,8,10
|  2> ! MP2 def2-TZVP EnGrad TightSCF
|  3>
|  4> %pal
|  5>     nprocs 6
|  6> end
|  7>
|  8> %maxcore 8000
|  9>
| 10> %scf
| 11>     ConvForced true
| 12> end
| 13>
| 14> *xyz 0 1
| 15> O   1.794470000   0.923410000   2.768350000
| 16> H   2.338250000   1.359750000   3.430940000
| 17> H   0.879480000   1.303000000   2.865760000
| 18> O  -0.885520000   1.737840000   0.052730000
| 19> H  -1.032320000   2.090180000  -0.841890000
| 20> H  -1.284090000   0.839590000   0.017130000
| 21> O   1.752130000   0.741530000  -2.896280000
| 22> H   2.036450000   0.920500000  -1.984040000
| 23> H   0.921210000   1.242140000  -2.984230000
| 24> O  -0.923410000   1.794470000  -2.768350000
| 25> H  -1.359750000   2.338250000  -3.430940000
| 26> H  -1.303000000   0.879480000  -2.865760000
| 27> *
| 28>
| 29>                          ****END OF INPUT****

CARTESIAN COORDINATES (ANGSTROEM)
---------------------------------
  O      1.794470    0.923410    2.768350
  H      2.338250    1.359750    3.430940
  H      0.879480    1.303000    2.865760
  O     -0.885520    1.737840    0.052730
  H     -1.032320    2.090180   -0.841890
  H     -1.284090    0.839590    0.017130
  O      1.752130    0.741530   -2.896280
  H      2.036450    0.920500   -1.984040
  H      0.921210    1.242140   -2.984230
  O     -0.923410    1.794470   -2.768350
  H     -1.359750    2.338250   -3.430940
  H     -1.303000    0.879480   -2.865760

 Total Charge           Charge          ....    0
 Multiplicity           Mult            ....    1
 Number of Electrons    NEL             ....   40
 Basis Dimension        Dim             ....  172

ORBITAL ENERGIES
----------------

  NO   OCC          E(Eh)            E(eV)
   0   2.0000     -20.617115      -561.0202
   1   2.0000     -20.549644      -559.1842
   2   2.0000     -20.546482      -559.0982
   3   2.0000     -20.530054      -558.6512
   4   2.0000      -1.397214       -38.0201
   5   2.0000      -1.325515       -36.0691
   6   2.0000      -1.324951       -36.0538
   7   2.0000      -1.312633       -35.7186
   8   2.0000      -0.762827       -20.7576
   9   2.0000      -0.696928       -18.9644
  10   2.0000      -0.693006       -18.8577
  11   2.0000      -0.684583       -18.6285
  12   2.0000      -0.631910       -17.1951
  13   2.0000      -0.583586       -15.8802
  14   2.0000      -0.561256       -15.2726
  15   2.0000      -0.553530       -15.0623
  16   2.0000      -0.537150       -14.6166
  17   2.0000      -0.493319       -13.4239
  18   2.0000      -0.491207       -13.3664
  19   2.0000      -0.477678       -12.9983
  20   0.0000       0.090212         2.4548
  21   0.0000       0.134106         3.6492
  22   0.0000       0.154572         4.2061
  23   0.0000       0.180178         4.9029
  24   0.0000       0.186696         5.0802

MULLIKEN ATOMIC CHARGES
-----------------------
   0 O :   -0.685053
   1 H :    0.333749
   2 H :    0.349816
   3 O :   -0.690360
   4 H :    0.363175
   5 H :    0.322165
   6 O :   -0.707921
   7 H :    0.341866
   8 H :    0.351531
   9 O :   -0.710362
  10 H :    0.364728
  11 H :    0.366667
Sum of atomic charges:    0.0000000

LOEWDIN ATOMIC CHARGES
----------------------
   0 O :   -0.340149
   1 H :    0.155559
   2 H :    0.182851
   3 O :   -0.343704
   4 H :    0.147315
   5 H :    0.164138
   6 O :   -0.347919
   7 H :    0.165524
   8 H :    0.143987
   9 O :   -0.286053
  10 H :    0.168026
  11 H :    0.190426

  Mayer bond orders larger than 0.100000
B(  0-O ,  1-H ) :   0.8558 B(  0-O ,  2-H ) :   0.8398 B(  3-O ,  4-H ) :   0.8241
B(  3-O ,  5-H ) :   0.8588 B(  6-O ,  7-H ) :   0.8498 B(  6-O ,  8-H ) :   0.8302
B(  9-O , 10-H ) :   0.8315 B(  9-O , 11-H ) :   0.8232

MP2 TOTAL ENERGY:     -305.264062296 Eh
FINAL SINGLE POINT ENERGY      -305.264062295620

DIPOLE MOMENT
-------------
                                X             Y             Z
Electronic contribution:      0.15119       0.03047      -0.15362
Nuclear contribution   :     -1.89704       0.48143      -0.08817
                        -----------------------------------------
Total Dipole Moment    :     -1.74585       0.51190      -0.24179
                        -----------------------------------------
Magnitude (a.u.)       :      1.83534
Magnitude (Debye)      :      4.66507

Rotational constants in cm-1:     0.130286     0.040191     0.031020
Rotational constants in MHz :  3905.888501  1204.887298   929.970745

                             ****ORCA TERMINATED NORMALLY****
TOTAL RUN TIME: 0 days 0 hours 0 minutes 25 seconds 888 msec
