                         Program Version 4.2.0 -  RELEASE  -
|  1> # 12mecn.remya.etal.2.mol1,4,11
|  2> ! MP2 def2-TZVP EnGrad TightSCF
|  3>
|  4> %pal
|  5>     nprocs 6
|  6> end
|  7>
|  8> %maxcore 8000
|  9>
| 10> %scf
| 11>     ConvForced true
| 12> end
| 13>
| 14> *xyz 0 1
| 15> C  -4.697980000  -0.249690000   1.746215000
| 16> H  -4.927570000   0.755530000   2.111799000
| 17> H  -3.709180000  -0.561560000   2.093253000
| 18> H  -5.432280000  -0.961520000   2.128066000
| 19> C  -4.714100000  -0.247110000   0.301670000
| 20> N  -4.729750000  -0.234960000  -0.865260000
| 21> C  -1.509690000  -0.693960000  -1.610140000
| 22> H  -1.327010000  -1.692700000  -2.017370000
| 23> H  -0.742170000  -0.000650000  -1.964400000
| 24> H  -2.491920000  -0.334310000  -1.929350000
| 25> C  -1.473570000  -0.748120000  -0.167200000
| 26> N  -1.447490000  -0.793720000   0.998938000
| 27> C   4.214163000   3.378139000   1.593627000
| 28> H   3.242643000   3.657109000   2.012358000
| 29> H   4.969258000   4.086643000   1.941290000
| 30> H   4.482966000   2.372549000   1.931698000
| 31> C   4.130759000   3.388436000   0.150192000
| 32> N   4.050180000   3.381449000  -1.013420000
| 33> *
| 34>
| 35>                          ****END OF INPUT****

CARTESIAN COORDINATES (ANGSTROEM)
---------------------------------
  C     -4.697980   -0.249690    1.746215
  H     -4.927570    0.755530    2.111799
  H     -3.709180   -0.561560    2.093253
  H     -5.432280   -0.961520    2.128066
  C     -4.714100   -0.247110    0.301670
  N     -4.729750   -0.234960   -0.865260
  C     -1.509690   -0.693960   -1.610140
  H     -1.327010   -1.692700   -2.017370
  H     -0.742170   -0.000650   -1.964400
  H     -2.491920   -0.334310   -1.929350
  C     -1.473570   -0.748120   -0.167200
  N     -1.447490   -0.793720    0.998938
  C      4.214163    3.378139    1.593627
  H      3.242643    3.657109    2.012358
  H      4.969258    4.086643    1.941290
  H      4.482966    2.372549    1.931698
  C      4.130759    3.388436    0.150192
  N      4.050180    3.381449   -1.013420

 Total Charge           Charge          ....    0
 Multiplicity           Mult            ....    1
 Number of Electrons    NEL             ....   66
 Basis Dimension        Dim             ....  333

ORBITAL ENERGIES
----------------

  NO   OCC          E(Eh)            E(eV)
   0   2.0000     -15.573271      -423.7702
   1   2.0000     -15.571648      -423.7261
   2   2.0000     -15.570409      -423.6924
   3   2.0000     -11.284587      -307.0692
   4   2.0000     -11.283424      -307.0376
   5   2.0000     -11.282574      -307.0145
   6   2.0000     -11.280514      -306.9584
   7   2.0000     -11.272592      -306.7428
   8   2.0000     -11.269519      -306.6592
   9   2.0000      -1.217811       -33.1383
  10   2.0000      -1.214956       -33.0606
  11   2.0000      -1.213601       -33.0238
  12   2.0000      -1.043253       -28.3884
  13   2.0000      -1.036774       -28.2121
  14   2.0000      -1.033026       -28.1101
  15   2.0000      -0.700231       -19.0543
  16   2.0000      -0.694711       -18.9041
  17   2.0000      -0.689004       -18.7488
  18   2.0000      -0.631331       -17.1794
  19   2.0000      -0.630447       -17.1553
  20   2.0000      -0.629850       -17.1391
  21   2.0000      -0.625035       -17.0081
  22   2.0000      -0.621232       -16.9046
  23   2.0000      -0.612938       -16.6789
  24   2.0000      -0.559064       -15.2129
  25   2.0000      -0.556361       -15.1394
  26   2.0000      -0.555787       -15.1237
  27   2.0000      -0.460015       -12.5177
  28   2.0000      -0.458286       -12.4706
  29   2.0000      -0.458070       -12.4647
  30   2.0000      -0.457917       -12.4606
  31   2.0000      -0.456633       -12.4256
  32   2.0000      -0.455556       -12.3963
  33   0.0000       0.119486         3.2514
  34   0.0000       0.128791         3.5046
  35   0.0000       0.143860         3.9146
  36   0.0000       0.169231         4.6050
  37   0.0000       0.171372         4.6633

MULLIKEN ATOMIC CHARGES
-----------------------
   0 C :   -0.285396
   1 H :    0.166304
   2 H :    0.204794
   3 H :    0.166871
   4 C :   -0.101734
   5 N :   -0.150682
   6 C :   -0.283863
   7 H :    0.166254
   8 H :    0.171598
   9 H :    0.204714
  10 C :   -0.104710
  11 N :   -0.154159
  12 C :   -0.279489
  13 H :    0.173287
  14 H :    0.171691
  15 H :    0.173296
  16 C :   -0.145378
  17 N :   -0.093399
Sum of atomic charges:   -0.0000000

LOEWDIN ATOMIC CHARGES
----------------------
   0 C :   -0.282069
   1 H :    0.152730
   2 H :    0.157045
   3 H :    0.150612
   4 C :   -0.207770
   5 N :    0.030434
   6 C :   -0.281417
   7 H :    0.153086
   8 H :    0.152827
   9 H :    0.157224
  10 C :   -0.208539
  11 N :    0.025834
  12 C :   -0.283586
  13 H :    0.153440
  14 H :    0.150952
  15 H :    0.153548
  16 C :   -0.218918
  17 N :    0.044566

  Mayer bond orders larger than 0.100000
B(  0-C ,  1-H ) :   0.9143 B(  0-C ,  2-H ) :   0.9023 B(  0-C ,  3-H ) :   0.9166
B(  0-C ,  4-C ) :   0.9012 B(  4-C ,  5-N ) :   2.7698 B(  6-C ,  7-H ) :   0.9138
B(  6-C ,  8-H ) :   0.9152 B(  6-C ,  9-H ) :   0.9014 B(  6-C , 10-C ) :   0.9006
B( 10-C , 11-N ) :   2.7767 B( 12-C , 13-H ) :   0.9158 B( 12-C , 14-H ) :   0.9166
B( 12-C , 15-H ) :   0.9158 B( 12-C , 16-C ) :   0.9028 B( 16-C , 17-N ) :   2.8383

MP2 TOTAL ENERGY:     -397.459841028 Eh
FINAL SINGLE POINT ENERGY      -397.459841028448

DIPOLE MOMENT
-------------
                                X             Y             Z
Electronic contribution:     -0.14293      -0.08102      -3.14307
Nuclear contribution   :      0.21940       0.12755       4.66031
                        -----------------------------------------
Total Dipole Moment    :      0.07647       0.04653       1.51724
                        -----------------------------------------
Magnitude (a.u.)       :      1.51987
Magnitude (Debye)      :      3.86321

Rotational constants in cm-1:     0.067041     0.008167     0.007755
Rotational constants in MHz :  2009.837931   244.829511   232.481255

                             ****ORCA TERMINATED NORMALLY****
TOTAL RUN TIME: 0 days 0 hours 2 minutes 58 seconds 137 msec
