                         Program Version 4.2.0 -  RELEASE  -
|  1> # 12meoh.boyd.etal.mol0,4,9
|  2> ! MP2 def2-TZVP EnGrad TightSCF
|  3>
|  4> %pal
|  5>     nprocs 6
|  6> end
|  7>
|  8> %maxcore 8000
|  9>
| 10> %scf
| 11>     ConvForced true
| 12> end
| 13>
| 14> *xyz 0 1
| 15> O  -1.776108874  -2.741384797  -1.019308298
| 16> H  -2.520094035  -2.452295987  -0.420778302
| 17> C  -2.174025166  -3.952700964  -1.647004581
| 18> H  -1.359803895  -4.272673416  -2.304149236
| 19> H  -3.075973971  -3.808692420  -2.256751112
| 20> H  -2.370225393  -4.752784761  -0.918966137
| 21> O  -1.358578914   1.232360421   1.189721000
| 22> H  -1.058250183   1.216459361   0.238591307
| 23> C  -0.389763452   1.957872567   1.943072362
| 24> H  -0.747220771   2.012806578   2.975200343
| 25> H  -0.260410585   2.982763209   1.565366540
| 26> H   0.585220638   1.453754179   1.934070793
| 27> O   1.390610024   3.194080770  -1.536658882
| 28> H   2.162932299   2.881562730  -0.993525056
| 29> C   1.202977189   4.580367182  -1.302880219
| 30> H   0.374773115   4.915764831  -1.934164643
| 31> H   2.098649340   5.157710875  -1.570472348
| 32> H   0.950320401   4.800436015  -0.254328827
| 33> *
| 34>
| 35>                          ****END OF INPUT****

CARTESIAN COORDINATES (ANGSTROEM)
---------------------------------
  O     -1.776109   -2.741385   -1.019308
  H     -2.520094   -2.452296   -0.420778
  C     -2.174025   -3.952701   -1.647005
  H     -1.359804   -4.272673   -2.304149
  H     -3.075974   -3.808692   -2.256751
  H     -2.370225   -4.752785   -0.918966
  O     -1.358579    1.232360    1.189721
  H     -1.058250    1.216459    0.238591
  C     -0.389763    1.957873    1.943072
  H     -0.747221    2.012807    2.975200
  H     -0.260411    2.982763    1.565367
  H      0.585221    1.453754    1.934071
  O      1.390610    3.194081   -1.536659
  H      2.162932    2.881563   -0.993525
  C      1.202977    4.580367   -1.302880
  H      0.374773    4.915765   -1.934165
  H      2.098649    5.157711   -1.570472
  H      0.950320    4.800436   -0.254329

 Total Charge           Charge          ....    0
 Multiplicity           Mult            ....    1
 Number of Electrons    NEL             ....   54
 Basis Dimension        Dim             ....  258

ORBITAL ENERGIES
----------------

  NO   OCC          E(Eh)            E(eV)
   0   2.0000     -20.564520      -559.5891
   1   2.0000     -20.552560      -559.2636
   2   2.0000     -20.549835      -559.1894
   3   2.0000     -11.276469      -306.8483
   4   2.0000     -11.267246      -306.5974
   5   2.0000     -11.267193      -306.5959
   6   2.0000      -1.354826       -36.8667
   7   2.0000      -1.341765       -36.5113
   8   2.0000      -1.337553       -36.3967
   9   2.0000      -0.924813       -25.1654
  10   2.0000      -0.914591       -24.8873
  11   2.0000      -0.914074       -24.8732
  12   2.0000      -0.688974       -18.7479
  13   2.0000      -0.676497       -18.4084
  14   2.0000      -0.673652       -18.3310
  15   2.0000      -0.623091       -16.9552
  16   2.0000      -0.612657       -16.6712
  17   2.0000      -0.610691       -16.6178
  18   2.0000      -0.598142       -16.2763
  19   2.0000      -0.586395       -15.9566
  20   2.0000      -0.583827       -15.8868
  21   2.0000      -0.505052       -13.7432
  22   2.0000      -0.495565       -13.4850
  23   2.0000      -0.494489       -13.4557
  24   2.0000      -0.454813       -12.3761
  25   2.0000      -0.443946       -12.0804
  26   2.0000      -0.442659       -12.0454
  27   0.0000       0.116177         3.1613
  28   0.0000       0.137781         3.7492
  29   0.0000       0.161869         4.4047
  30   0.0000       0.168579         4.5873
  31   0.0000       0.179313         4.8794

MULLIKEN ATOMIC CHARGES
-----------------------
   0 O :   -0.497380
   1 H :    0.326214
   2 C :   -0.173481
   3 H :    0.127293
   4 H :    0.108581
   5 H :    0.108525
   6 O :   -0.506884
   7 H :    0.333402
   8 C :   -0.167061
   9 H :    0.127841
  10 H :    0.103604
  11 H :    0.105474
  12 O :   -0.500210
  13 H :    0.324684
  14 C :   -0.173563
  15 H :    0.132507
  16 H :    0.115693
  17 H :    0.104762
Sum of atomic charges:   -0.0000000

LOEWDIN ATOMIC CHARGES
----------------------
   0 O :   -0.109090
   1 H :    0.194458
   2 C :   -0.385044
   3 H :    0.109684
   4 H :    0.094860
   5 H :    0.094936
   6 O :   -0.113733
   7 H :    0.196090
   8 C :   -0.381901
   9 H :    0.108885
  10 H :    0.093933
  11 H :    0.094317
  12 O :   -0.105186
  13 H :    0.191542
  14 C :   -0.385459
  15 H :    0.111716
  16 H :    0.096947
  17 H :    0.093045

  Mayer bond orders larger than 0.100000
B(  0-O ,  1-H ) :   0.8384 B(  0-O ,  2-C ) :   0.9299 B(  2-C ,  3-H ) :   0.9378
B(  2-C ,  4-H ) :   0.9397 B(  2-C ,  5-H ) :   0.9382 B(  6-O ,  7-H ) :   0.8338
B(  6-O ,  8-C ) :   0.9310 B(  8-C ,  9-H ) :   0.9374 B(  8-C , 10-H ) :   0.9393
B(  8-C , 11-H ) :   0.9407 B( 12-O , 13-H ) :   0.8394 B( 12-O , 14-C ) :   0.9213
B( 14-C , 15-H ) :   0.9378 B( 14-C , 16-H ) :   0.9415 B( 14-C , 17-H ) :   0.9351

MP2 TOTAL ENERGY:     -346.522954649 Eh
FINAL SINGLE POINT ENERGY      -346.522954649067

DIPOLE MOMENT
-------------
                                X             Y             Z
Electronic contribution:     -0.52364      -1.14591      -0.53284
Nuclear contribution   :      0.89823       1.51068       0.74243
                        -----------------------------------------
Total Dipole Moment    :      0.37459       0.36477       0.20959
                        -----------------------------------------
Magnitude (a.u.)       :      0.56330
Magnitude (Debye)      :      1.43180

Rotational constants in cm-1:     0.074561     0.015508     0.013141
Rotational constants in MHz :  2235.273355   464.931338   393.954476

                             ****ORCA TERMINATED NORMALLY****
TOTAL RUN TIME: 0 days 0 hours 1 minutes 10 seconds 509 msec
