                         Program Version 4.2.0 -  RELEASE  -
|  1> # 12h2o.su.etal.mol0,2,4,6,11
|  2> ! MP2 def2-TZVP EnGrad TightSCF
|  3>
|  4> %pal
|  5>     nprocs 6
|  6> end
|  7>
|  8> %maxcore 8000
|  9>
| 10> %scf
| 11>     ConvForced true
| 12> end
| 13>
| 14> *xyz 0 1
| 15> O   1.794470000   0.923410000   2.768350000
| 16> H   2.338250000   1.359750000   3.430940000
| 17> H   0.879480000   1.303000000   2.865760000
| 18> O   0.923410000  -1.794470000  -2.768350000
| 19> H   1.359750000  -2.338250000  -3.430940000
| 20> H   1.303000000  -0.879480000  -2.865760000
| 21> O  -0.885520000   1.737840000   0.052730000
| 22> H  -1.032320000   2.090180000  -0.841890000
| 23> H  -1.284090000   0.839590000   0.017130000
| 24> O   1.737840000   0.885520000  -0.052730000
| 25> H   2.090180000   1.032320000   0.841890000
| 26> H   0.839590000   1.284090000  -0.017130000
| 27> O  -0.741530000   1.752130000   2.896280000
| 28> H  -0.920500000   2.036450000   1.984040000
| 29> H  -1.242140000   0.921210000   2.984230000
| 30> *
| 31>
| 32>                          ****END OF INPUT****

CARTESIAN COORDINATES (ANGSTROEM)
---------------------------------
  O      1.794470    0.923410    2.768350
  H      2.338250    1.359750    3.430940
  H      0.879480    1.303000    2.865760
  O      0.923410   -1.794470   -2.768350
  H      1.359750   -2.338250   -3.430940
  H      1.303000   -0.879480   -2.865760
  O     -0.885520    1.737840    0.052730
  H     -1.032320    2.090180   -0.841890
  H     -1.284090    0.839590    0.017130
  O      1.737840    0.885520   -0.052730
  H      2.090180    1.032320    0.841890
  H      0.839590    1.284090   -0.017130
  O     -0.741530    1.752130    2.896280
  H     -0.920500    2.036450    1.984040
  H     -1.242140    0.921210    2.984230

 Total Charge           Charge          ....    0
 Multiplicity           Mult            ....    1
 Number of Electrons    NEL             ....   50
 Basis Dimension        Dim             ....  215

ORBITAL ENERGIES
----------------

  NO   OCC          E(Eh)            E(eV)
   0   2.0000     -20.620382      -561.1091
   1   2.0000     -20.584146      -560.1231
   2   2.0000     -20.550278      -559.2015
   3   2.0000     -20.530521      -558.6639
   4   2.0000     -20.496575      -557.7402
   5   2.0000      -1.403720       -38.1972
   6   2.0000      -1.372033       -37.3349
   7   2.0000      -1.325690       -36.0739
   8   2.0000      -1.315358       -35.7927
   9   2.0000      -1.280740       -34.8507
  10   2.0000      -0.763425       -20.7738
  11   2.0000      -0.733700       -19.9650
  12   2.0000      -0.700593       -19.0641
  13   2.0000      -0.693939       -18.8830
  14   2.0000      -0.672070       -18.2879
  15   2.0000      -0.645600       -17.5677
  16   2.0000      -0.602722       -16.4009
  17   2.0000      -0.580445       -15.7947
  18   2.0000      -0.562327       -15.3017
  19   2.0000      -0.553191       -15.0531
  20   2.0000      -0.518143       -14.0994
  21   2.0000      -0.511502       -13.9187
  22   2.0000      -0.493528       -13.4296
  23   2.0000      -0.476129       -12.9561
  24   2.0000      -0.447159       -12.1678
  25   0.0000       0.089575         2.4375
  26   0.0000       0.135498         3.6871
  27   0.0000       0.145977         3.9722
  28   0.0000       0.166062         4.5188
  29   0.0000       0.187404         5.0995

MULLIKEN ATOMIC CHARGES
-----------------------
   0 O :   -0.731722
   1 H :    0.331048
   2 H :    0.366753
   3 O :   -0.688355
   4 H :    0.334653
   5 H :    0.351246
   6 O :   -0.711176
   7 H :    0.373139
   8 H :    0.369131
   9 O :   -0.732679
  10 H :    0.365736
  11 H :    0.328550
  12 O :   -0.689796
  13 H :    0.384633
  14 H :    0.348838
Sum of atomic charges:   -0.0000000

LOEWDIN ATOMIC CHARGES
----------------------
   0 O :   -0.339976
   1 H :    0.150885
   2 H :    0.143037
   3 O :   -0.341758
   4 H :    0.156002
   5 H :    0.183268
   6 O :   -0.279301
   7 H :    0.180357
   8 H :    0.184794
   9 O :   -0.371277
  10 H :    0.146645
  11 H :    0.130465
  12 O :   -0.272956
  13 H :    0.158061
  14 H :    0.171754

  Mayer bond orders larger than 0.100000
B(  0-O ,  1-H ) :   0.8535 B(  0-O ,  2-H ) :   0.7692 B(  3-O ,  4-H ) :   0.8555
B(  3-O ,  5-H ) :   0.8383 B(  6-O ,  7-H ) :   0.8269 B(  6-O ,  8-H ) :   0.8242
B(  9-O , 10-H ) :   0.8159 B(  9-O , 11-H ) :   0.8315 B( 12-O , 13-H ) :   0.8061
B( 12-O , 14-H ) :   0.8426

MP2 TOTAL ENERGY:     -381.591491538 Eh
FINAL SINGLE POINT ENERGY      -381.591491537997

DIPOLE MOMENT
-------------
                                X             Y             Z
Electronic contribution:     -0.29064       0.05637       0.15803
Nuclear contribution   :     -1.10383       0.53271      -0.68611
                        -----------------------------------------
Total Dipole Moment    :     -1.39447       0.58908      -0.52807
                        -----------------------------------------
Magnitude (a.u.)       :      1.60325
Magnitude (Debye)      :      4.07515

Rotational constants in cm-1:     0.098806     0.030791     0.025839
Rotational constants in MHz :  2962.134702   923.083489   774.623824

                             ****ORCA TERMINATED NORMALLY****
TOTAL RUN TIME: 0 days 0 hours 0 minutes 30 seconds 294 msec
