                         Program Version 4.2.0 -  RELEASE  -
|  1> # 12h2o.su.etal.mol2,4,5,6,7,8,9
|  2> ! MP2 def2-TZVP EnGrad TightSCF
|  3>
|  4> %pal
|  5>     nprocs 6
|  6> end
|  7>
|  8> %maxcore 8000
|  9>
| 10> %scf
| 11>     ConvForced true
| 12> end
| 13>
| 14> *xyz 0 1
| 15> O   0.923410000  -1.794470000  -2.768350000
| 16> H   1.359750000  -2.338250000  -3.430940000
| 17> H   1.303000000  -0.879480000  -2.865760000
| 18> O  -0.885520000   1.737840000   0.052730000
| 19> H  -1.032320000   2.090180000  -0.841890000
| 20> H  -1.284090000   0.839590000   0.017130000
| 21> O   0.885520000  -1.737840000   0.052730000
| 22> H   1.284090000  -0.839590000   0.017130000
| 23> H   1.032320000  -2.090180000  -0.841890000
| 24> O   1.737840000   0.885520000  -0.052730000
| 25> H   2.090180000   1.032320000   0.841890000
| 26> H   0.839590000   1.284090000  -0.017130000
| 27> O  -1.737840000  -0.885520000  -0.052730000
| 28> H  -2.090180000  -1.032320000   0.841890000
| 29> H  -0.839590000  -1.284090000  -0.017130000
| 30> O   1.752130000   0.741530000  -2.896280000
| 31> H   2.036450000   0.920500000  -1.984040000
| 32> H   0.921210000   1.242140000  -2.984230000
| 33> O   0.741530000  -1.752130000   2.896280000
| 34> H   0.920500000  -2.036450000   1.984040000
| 35> H   1.242140000  -0.921210000   2.984230000
| 36> *
| 37>
| 38>                          ****END OF INPUT****

CARTESIAN COORDINATES (ANGSTROEM)
---------------------------------
  O      0.923410   -1.794470   -2.768350
  H      1.359750   -2.338250   -3.430940
  H      1.303000   -0.879480   -2.865760
  O     -0.885520    1.737840    0.052730
  H     -1.032320    2.090180   -0.841890
  H     -1.284090    0.839590    0.017130
  O      0.885520   -1.737840    0.052730
  H      1.284090   -0.839590    0.017130
  H      1.032320   -2.090180   -0.841890
  O      1.737840    0.885520   -0.052730
  H      2.090180    1.032320    0.841890
  H      0.839590    1.284090   -0.017130
  O     -1.737840   -0.885520   -0.052730
  H     -2.090180   -1.032320    0.841890
  H     -0.839590   -1.284090   -0.017130
  O      1.752130    0.741530   -2.896280
  H      2.036450    0.920500   -1.984040
  H      0.921210    1.242140   -2.984230
  O      0.741530   -1.752130    2.896280
  H      0.920500   -2.036450    1.984040
  H      1.242140   -0.921210    2.984230

 Total Charge           Charge          ....    0
 Multiplicity           Mult            ....    1
 Number of Electrons    NEL             ....   70
 Basis Dimension        Dim             ....  301

ORBITAL ENERGIES
----------------

  NO   OCC          E(Eh)            E(eV)
   0   2.0000     -20.601118      -560.5849
   1   2.0000     -20.591822      -560.3320
   2   2.0000     -20.579259      -559.9901
   3   2.0000     -20.558186      -559.4167
   4   2.0000     -20.558049      -559.4130
   5   2.0000     -20.549111      -559.1697
   6   2.0000     -20.540558      -558.9370
   7   2.0000      -1.395121       -37.9632
   8   2.0000      -1.379118       -37.5277
   9   2.0000      -1.364573       -37.1319
  10   2.0000      -1.354596       -36.8604
  11   2.0000      -1.336956       -36.3804
  12   2.0000      -1.330149       -36.1952
  13   2.0000      -1.321482       -35.9594
  14   2.0000      -0.757472       -20.6118
  15   2.0000      -0.739910       -20.1340
  16   2.0000      -0.730446       -19.8765
  17   2.0000      -0.723283       -19.6815
  18   2.0000      -0.716947       -19.5091
  19   2.0000      -0.709932       -19.3182
  20   2.0000      -0.690992       -18.8029
  21   2.0000      -0.652839       -17.7647
  22   2.0000      -0.617278       -16.7970
  23   2.0000      -0.611963       -16.6524
  24   2.0000      -0.606776       -16.5112
  25   2.0000      -0.583546       -15.8791
  26   2.0000      -0.571747       -15.5580
  27   2.0000      -0.557173       -15.1614
  28   2.0000      -0.538367       -14.6497
  29   2.0000      -0.526115       -14.3163
  30   2.0000      -0.525401       -14.2969
  31   2.0000      -0.507359       -13.8059
  32   2.0000      -0.502134       -13.6638
  33   2.0000      -0.498683       -13.5699
  34   2.0000      -0.486606       -13.2412
  35   0.0000       0.083396         2.2693
  36   0.0000       0.112754         3.0682
  37   0.0000       0.148547         4.0422
  38   0.0000       0.156247         4.2517
  39   0.0000       0.194272         5.2864

MULLIKEN ATOMIC CHARGES
-----------------------
   0 O :   -0.738447
   1 H :    0.339120
   2 H :    0.373419
   3 O :   -0.712288
   4 H :    0.341221
   5 H :    0.375238
   6 O :   -0.756790
   7 H :    0.349532
   8 H :    0.389127
   9 O :   -0.741369
  10 H :    0.360525
  11 H :    0.369076
  12 O :   -0.722157
  13 H :    0.353174
  14 H :    0.382775
  15 O :   -0.690215
  16 H :    0.390368
  17 H :    0.343619
  18 O :   -0.692611
  19 H :    0.376002
  20 H :    0.310681
Sum of atomic charges:   -0.0000000

LOEWDIN ATOMIC CHARGES
----------------------
   0 O :   -0.340065
   1 H :    0.155228
   2 H :    0.144378
   3 O :   -0.307559
   4 H :    0.162362
   5 H :    0.147146
   6 O :   -0.302043
   7 H :    0.137615
   8 H :    0.155141
   9 O :   -0.297755
  10 H :    0.171256
  11 H :    0.145563
  12 O :   -0.308388
  13 H :    0.168383
  14 H :    0.146851
  15 O :   -0.272203
  16 H :    0.159210
  17 H :    0.168889
  18 O :   -0.339110
  19 H :    0.151624
  20 H :    0.153478

  Mayer bond orders larger than 0.100000
B(  0-O ,  1-H ) :   0.8496 B(  0-O ,  2-H ) :   0.7618 B(  3-O ,  4-H ) :   0.8468
B(  3-O ,  5-H ) :   0.7503 B(  3-O , 11-H ) :   0.1250 B(  5-H , 12-O ) :   0.1240
B(  6-O ,  7-H ) :   0.7784 B(  6-O ,  8-H ) :   0.7851 B(  9-O , 10-H ) :   0.8342
B(  9-O , 11-H ) :   0.7441 B( 12-O , 13-H ) :   0.8387 B( 12-O , 14-H ) :   0.7637
B( 15-O , 16-H ) :   0.7998 B( 15-O , 17-H ) :   0.8444 B( 18-O , 19-H ) :   0.8125
B( 18-O , 20-H ) :   0.8669

MP2 TOTAL ENERGY:     -534.269494060 Eh
FINAL SINGLE POINT ENERGY      -534.269494060289

DIPOLE MOMENT
-------------
                                X             Y             Z
Electronic contribution:     -0.10555      -0.03543      -0.13555
Nuclear contribution   :      0.78984       1.32960      -0.63259
                        -----------------------------------------
Total Dipole Moment    :      0.68428       1.29417      -0.76814
                        -----------------------------------------
Magnitude (a.u.)       :      1.65323
Magnitude (Debye)      :      4.20217

Rotational constants in cm-1:     0.042541     0.027399     0.024458
Rotational constants in MHz :  1275.343179   821.389705   733.237363

                             ****ORCA TERMINATED NORMALLY****
TOTAL RUN TIME: 0 days 0 hours 2 minutes 8 seconds 977 msec
