                         Program Version 4.2.0 -  RELEASE  -
|  1> # 12mecn.remya.etal.2.mol1,3,7
|  2> ! MP2 def2-TZVP EnGrad TightSCF
|  3>
|  4> %pal
|  5>     nprocs 6
|  6> end
|  7>
|  8> %maxcore 8000
|  9>
| 10> %scf
| 11>     ConvForced true
| 12> end
| 13>
| 14> *xyz 0 1
| 15> C  -4.697980000  -0.249690000   1.746215000
| 16> H  -4.927570000   0.755530000   2.111799000
| 17> H  -3.709180000  -0.561560000   2.093253000
| 18> H  -5.432280000  -0.961520000   2.128066000
| 19> C  -4.714100000  -0.247110000   0.301670000
| 20> N  -4.729750000  -0.234960000  -0.865260000
| 21> C  -5.181310000   2.853865000  -1.626100000
| 22> H  -5.488260000   3.811434000  -2.053310000
| 23> H  -5.857590000   2.068112000  -1.968630000
| 24> H  -4.170750000   2.611402000  -1.966640000
| 25> C  -5.187260000   2.919160000  -0.181450000
| 26> N  -5.181700000   2.970641000   0.983640000
| 27> C   1.502241000   0.651296000   1.710523000
| 28> H   1.309219000   1.637164000   2.143202000
| 29> H   2.493408000   0.297996000   2.009069000
| 30> H   0.746597000  -0.059850000   2.055508000
| 31> C   1.447974000   0.738517000   0.269805000
| 32> N   1.405612000   0.808047000  -0.894380000
| 33> *
| 34>
| 35>                          ****END OF INPUT****

CARTESIAN COORDINATES (ANGSTROEM)
---------------------------------
  C     -4.697980   -0.249690    1.746215
  H     -4.927570    0.755530    2.111799
  H     -3.709180   -0.561560    2.093253
  H     -5.432280   -0.961520    2.128066
  C     -4.714100   -0.247110    0.301670
  N     -4.729750   -0.234960   -0.865260
  C     -5.181310    2.853865   -1.626100
  H     -5.488260    3.811434   -2.053310
  H     -5.857590    2.068112   -1.968630
  H     -4.170750    2.611402   -1.966640
  C     -5.187260    2.919160   -0.181450
  N     -5.181700    2.970641    0.983640
  C      1.502241    0.651296    1.710523
  H      1.309219    1.637164    2.143202
  H      2.493408    0.297996    2.009069
  H      0.746597   -0.059850    2.055508
  C      1.447974    0.738517    0.269805
  N      1.405612    0.808047   -0.894380

 Total Charge           Charge          ....    0
 Multiplicity           Mult            ....    1
 Number of Electrons    NEL             ....   66
 Basis Dimension        Dim             ....  333

ORBITAL ENERGIES
----------------

  NO   OCC          E(Eh)            E(eV)
   0   2.0000     -15.573367      -423.7729
   1   2.0000     -15.570812      -423.7033
   2   2.0000     -15.569510      -423.6679
   3   2.0000     -11.286256      -307.1146
   4   2.0000     -11.282231      -307.0051
   5   2.0000     -11.282028      -306.9996
   6   2.0000     -11.280167      -306.9490
   7   2.0000     -11.273488      -306.7672
   8   2.0000     -11.270140      -306.6761
   9   2.0000      -1.217576       -33.1319
  10   2.0000      -1.214572       -33.0502
  11   2.0000      -1.212741       -33.0004
  12   2.0000      -1.045232       -28.4422
  13   2.0000      -1.037119       -28.2214
  14   2.0000      -1.032186       -28.0872
  15   2.0000      -0.699777       -19.0419
  16   2.0000      -0.695059       -18.9135
  17   2.0000      -0.690622       -18.7928
  18   2.0000      -0.634261       -17.2591
  19   2.0000      -0.633060       -17.2264
  20   2.0000      -0.631696       -17.1893
  21   2.0000      -0.622841       -16.9484
  22   2.0000      -0.616803       -16.7841
  23   2.0000      -0.615518       -16.7491
  24   2.0000      -0.558363       -15.1938
  25   2.0000      -0.555841       -15.1252
  26   2.0000      -0.555281       -15.1100
  27   2.0000      -0.462817       -12.5939
  28   2.0000      -0.457887       -12.4597
  29   2.0000      -0.457781       -12.4568
  30   2.0000      -0.457497       -12.4491
  31   2.0000      -0.456366       -12.4183
  32   2.0000      -0.451959       -12.2984
  33   0.0000       0.105966         2.8835
  34   0.0000       0.131337         3.5739
  35   0.0000       0.143762         3.9120
  36   0.0000       0.165358         4.4996
  37   0.0000       0.170968         4.6523

MULLIKEN ATOMIC CHARGES
-----------------------
   0 C :   -0.286247
   1 H :    0.206007
   2 H :    0.159543
   3 H :    0.167290
   4 C :   -0.110945
   5 N :   -0.136672
   6 C :   -0.264756
   7 H :    0.170787
   8 H :    0.184226
   9 H :    0.177859
  10 C :   -0.114975
  11 N :   -0.152120
  12 C :   -0.276972
  13 H :    0.173781
  14 H :    0.172396
  15 H :    0.168077
  16 C :   -0.146102
  17 N :   -0.091177
Sum of atomic charges:    0.0000000

LOEWDIN ATOMIC CHARGES
----------------------
   0 C :   -0.283161
   1 H :    0.156981
   2 H :    0.150296
   3 H :    0.150549
   4 C :   -0.210062
   5 N :    0.037828
   6 C :   -0.283985
   7 H :    0.148742
   8 H :    0.156038
   9 H :    0.158282
  10 C :   -0.208036
  11 N :    0.026527
  12 C :   -0.283741
  13 H :    0.153030
  14 H :    0.153118
  15 H :    0.151711
  16 C :   -0.220858
  17 N :    0.046741

  Mayer bond orders larger than 0.100000
B(  0-C ,  1-H ) :   0.9015 B(  0-C ,  2-H ) :   0.9170 B(  0-C ,  3-H ) :   0.9169
B(  0-C ,  4-C ) :   0.8996 B(  4-C ,  5-N ) :   2.7864 B(  6-C ,  7-H ) :   0.9101
B(  6-C ,  8-H ) :   0.9100 B(  6-C ,  9-H ) :   0.9127 B(  6-C , 10-C ) :   0.9124
B( 10-C , 11-N ) :   2.7748 B( 12-C , 13-H ) :   0.9160 B( 12-C , 14-H ) :   0.9167
B( 12-C , 15-H ) :   0.9176 B( 12-C , 16-C ) :   0.9005 B( 16-C , 17-N ) :   2.8361

MP2 TOTAL ENERGY:     -397.458931564 Eh
FINAL SINGLE POINT ENERGY      -397.458931564154

DIPOLE MOMENT
-------------
                                X             Y             Z
Electronic contribution:     -0.18854       0.38382      -3.14235
Nuclear contribution   :      0.26852      -0.54946       4.60371
                        -----------------------------------------
Total Dipole Moment    :      0.07997      -0.16563       1.46137
                        -----------------------------------------
Magnitude (a.u.)       :      1.47290
Magnitude (Debye)      :      3.74381

Rotational constants in cm-1:     0.045788     0.013044     0.012111
Rotational constants in MHz :  1372.702928   391.052486   363.067379

                             ****ORCA TERMINATED NORMALLY****
TOTAL RUN TIME: 0 days 0 hours 3 minutes 0 seconds 985 msec
