                         Program Version 4.2.0 -  RELEASE  -
|  1> # 12mecn.remya.etal.2.mol6,10
|  2> ! MP2 def2-TZVP EnGrad TightSCF
|  3>
|  4> %pal
|  5>     nprocs 6
|  6> end
|  7>
|  8> %maxcore 8000
|  9>
| 10> %scf
| 11>     ConvForced true
| 12> end
| 13>
| 14> *xyz 0 1
| 15> C   5.300864000  -2.920090000   1.401103000
| 16> H   5.986071000  -2.139770000   1.737487000
| 17> H   5.636642000  -3.888750000   1.778233000
| 18> H   4.307359000  -2.697240000   1.799307000
| 19> C   5.234791000  -2.933140000  -0.043290000
| 20> N   5.170868000  -2.941760000  -1.207750000
| 21> C   4.602033000   0.321019000  -1.784800000
| 22> H   4.827650000  -0.662160000  -2.207910000
| 23> H   5.320558000   1.057980000  -2.148500000
| 24> H   3.601982000   0.643751000  -2.087520000
| 25> C   4.654967000   0.244048000  -0.343060000
| 26> N   4.691648000   0.166590000   0.820757000
| 27> *
| 28>
| 29>                          ****END OF INPUT****

CARTESIAN COORDINATES (ANGSTROEM)
---------------------------------
  C      5.300864   -2.920090    1.401103
  H      5.986071   -2.139770    1.737487
  H      5.636642   -3.888750    1.778233
  H      4.307359   -2.697240    1.799307
  C      5.234791   -2.933140   -0.043290
  N      5.170868   -2.941760   -1.207750
  C      4.602033    0.321019   -1.784800
  H      4.827650   -0.662160   -2.207910
  H      5.320558    1.057980   -2.148500
  H      3.601982    0.643751   -2.087520
  C      4.654967    0.244048   -0.343060
  N      4.691648    0.166590    0.820757

 Total Charge           Charge          ....    0
 Multiplicity           Mult            ....    1
 Number of Electrons    NEL             ....   44
 Basis Dimension        Dim             ....  222

ORBITAL ENERGIES
----------------

  NO   OCC          E(Eh)            E(eV)
   0   2.0000     -15.571318      -423.7171
   1   2.0000     -15.570256      -423.6882
   2   2.0000     -11.283005      -307.0262
   3   2.0000     -11.282510      -307.0127
   4   2.0000     -11.272284      -306.7344
   5   2.0000     -11.271846      -306.7225
   6   2.0000      -1.218249       -33.1502
   7   2.0000      -1.213482       -33.0205
   8   2.0000      -1.036732       -28.2109
   9   2.0000      -1.033382       -28.1197
  10   2.0000      -0.695204       -18.9175
  11   2.0000      -0.691126       -18.8065
  12   2.0000      -0.631907       -17.1951
  13   2.0000      -0.621920       -16.9233
  14   2.0000      -0.618065       -16.8184
  15   2.0000      -0.616336       -16.7713
  16   2.0000      -0.559103       -15.2140
  17   2.0000      -0.555916       -15.1272
  18   2.0000      -0.463208       -12.6045
  19   2.0000      -0.458421       -12.4743
  20   2.0000      -0.457083       -12.4379
  21   2.0000      -0.452969       -12.3259
  22   0.0000       0.126303         3.4369
  23   0.0000       0.145038         3.9467
  24   0.0000       0.172018         4.6808
  25   0.0000       0.177213         4.8222
  26   0.0000       0.178025         4.8443

MULLIKEN ATOMIC CHARGES
-----------------------
   0 C :   -0.261699
   1 H :    0.183164
   2 H :    0.171336
   3 H :    0.173398
   4 C :   -0.118035
   5 N :   -0.147929
   6 C :   -0.286783
   7 H :    0.205757
   8 H :    0.166517
   9 H :    0.166317
  10 C :   -0.111273
  11 N :   -0.140771
Sum of atomic charges:   -0.0000000

LOEWDIN ATOMIC CHARGES
----------------------
   0 C :   -0.284811
   1 H :    0.155850
   2 H :    0.148493
   3 H :    0.156870
   4 C :   -0.209052
   5 N :    0.028914
   6 C :   -0.281899
   7 H :    0.157274
   8 H :    0.150488
   9 H :    0.152683
  10 C :   -0.209334
  11 N :    0.034524

  Mayer bond orders larger than 0.100000
B(  0-C ,  1-H ) :   0.9108 B(  0-C ,  2-H ) :   0.9099 B(  0-C ,  3-H ) :   0.9136
B(  0-C ,  4-C ) :   0.9131 B(  4-C ,  5-N ) :   2.7749 B(  6-C ,  7-H ) :   0.9016
B(  6-C ,  8-H ) :   0.9166 B(  6-C ,  9-H ) :   0.9153 B(  6-C , 10-C ) :   0.8993
B( 10-C , 11-N ) :   2.7894

MP2 TOTAL ENERGY:     -264.975982136 Eh
FINAL SINGLE POINT ENERGY      -264.975982135604

DIPOLE MOMENT
-------------
                                X             Y             Z
Electronic contribution:     -0.00487      -0.23141      -0.01068
Nuclear contribution   :      0.02477       0.33921       0.02462
                        -----------------------------------------
Total Dipole Moment    :      0.01990       0.10780       0.01394
                        -----------------------------------------
Magnitude (a.u.)       :      0.11051
Magnitude (Debye)      :      0.28089

Rotational constants in cm-1:     0.167516     0.071017     0.050829
Rotational constants in MHz :  5021.999996  2129.034650  1523.801935

                             ****ORCA TERMINATED NORMALLY****
TOTAL RUN TIME: 0 days 0 hours 1 minutes 14 seconds 603 msec
