                         Program Version 3.0.3 - RELEASE   -
|  1> ! wB97X-D3 Def2-TZVP def2-TZVP/J RIJCOSX TightSCF Grid4
|  2>
|  3> %pal nprocs 12 end
|  4>
|  5> %scf
|  6>         maxiter 400
|  7> end
|  8>
|  9> * xyz  0  1
| 10> O  2.137170	-2.433554	2.057866
| 11> H  1.563513	-2.712280	1.289961
| 12> H  1.536342	-1.918500	2.666331
| 13> O  2.262862	0.734096	-0.243619
| 14> H  1.913080	1.520962	0.277678
| 15> H  2.899854	0.261645	0.385198
| 16> O  1.132728	-2.430176	-2.616296
| 17> H  1.522998	-1.427582	-2.705376
| 18> H  1.732204	-2.979117	-3.154542
| 19> O  1.261427	2.696421	1.285550
| 20> H  1.844952	2.306030	2.037737
| 21> H  0.330016	2.606573	1.646664
| 22> O  2.524865	1.368868	3.131902
| 23> H  3.168546	0.765751	2.672171
| 24> H  1.829776	0.714642	3.418520
| 25> O  -3.487869	0.867408	-0.898130
| 26> H  -4.273352	1.010339	-1.458823
| 27> H  -2.731768	0.526211	-1.543991
| 28> O  2.094211	-0.124360	-2.820005
| 29> H  2.307449	0.222101	-1.913371
| 30> H  1.436751	0.586493	-3.154441
| 31> O  -1.312494	-0.085890	2.148790
| 32> H  -1.442751	0.910059	2.252050
| 33> H  -0.801799	-0.153323	1.263290
| 34> O  -3.295244	-1.305487	0.745744
| 35> H  -2.667992	-0.906988	1.415304
| 36> H  -3.500332	-0.527338	0.152269
| 37> O  -1.314525	2.539602	2.119587
| 38> H  -1.589497	3.176176	2.804301
| 39> H  -1.795657	2.831661	1.216112
| 40> O  0.304069	3.407770	-1.077034
| 41> H  0.826923	3.207020	-0.238841
| 42> H  0.493680	4.345221	-1.268777
| 43> O  -0.055542	-0.406233	-0.097922
| 44> H  0.164139	-1.402236	-0.069912
| 45> H  0.871851	0.024233	-0.165199
| 46> O  0.537180	-2.951192	-0.100578
| 47> H  -0.430111	-3.219861	-0.168710
| 48> H  0.857976	-2.885835	-1.060228
| 49> O  -1.545717	-2.345062	-3.066318
| 50> H  -1.823017	-2.744008	-2.195332
| 51> H  -0.552359	-2.463014	-3.055806
| 52> O  -1.510922	0.083383	-2.246059
| 53> H  -1.589082	-0.861528	-2.677499
| 54> H  -0.910035	-0.093922	-1.447975
| 55> O  3.711594	-0.521629	1.551448
| 56> H  4.617624	-0.839314	1.387274
| 57> H  3.115428	-1.372556	1.728096
| 58> O  0.318885	1.724085	-3.367773
| 59> H  -0.467821	1.172028	-3.091930
| 60> H  0.414955	2.347731	-2.605757
| 61> O  0.726720	-0.679711	3.591098
| 62> H  0.456460	-0.945318	4.489185
| 63> H  -0.149905	-0.470019	3.083915
| 64> O  -2.274923	3.153817	-0.111406
| 65> H  -1.417372	3.217204	-0.615421
| 66> H  -2.751574	2.335700	-0.447494
| 67> O  -2.082217	-3.170472	-0.499925
| 68> H  -2.579527	-2.391222	0.002900
| 69> H  -2.636952	-3.958940	-0.354985
| 70> **                         ****END OF INPUT****

CARTESIAN COORDINATES (ANGSTROEM)
---------------------------------
  O      2.137170   -2.433554    2.057866
  H      1.563513   -2.712280    1.289961
  H      1.536342   -1.918500    2.666331
  O      2.262862    0.734096   -0.243619
  H      1.913080    1.520962    0.277678
  H      2.899854    0.261645    0.385198
  O      1.132728   -2.430176   -2.616296
  H      1.522998   -1.427582   -2.705376
  H      1.732204   -2.979117   -3.154542
  O      1.261427    2.696421    1.285550
  H      1.844952    2.306030    2.037737
  H      0.330016    2.606573    1.646664
  O      2.524865    1.368868    3.131902
  H      3.168546    0.765751    2.672171
  H      1.829776    0.714642    3.418520
  O     -3.487869    0.867408   -0.898130
  H     -4.273352    1.010339   -1.458823
  H     -2.731768    0.526211   -1.543991
  O      2.094211   -0.124360   -2.820005
  H      2.307449    0.222101   -1.913371
  H      1.436751    0.586493   -3.154441
  O     -1.312494   -0.085890    2.148790
  H     -1.442751    0.910059    2.252050
  H     -0.801799   -0.153323    1.263290
  O     -3.295244   -1.305487    0.745744
  H     -2.667992   -0.906988    1.415304
  H     -3.500332   -0.527338    0.152269
  O     -1.314525    2.539602    2.119587
  H     -1.589497    3.176176    2.804301
  H     -1.795657    2.831661    1.216112
  O      0.304069    3.407770   -1.077034
  H      0.826923    3.207020   -0.238841
  H      0.493680    4.345221   -1.268777
  O     -0.055542   -0.406233   -0.097922
  H      0.164139   -1.402236   -0.069912
  H      0.871851    0.024233   -0.165199
  O      0.537180   -2.951192   -0.100578
  H     -0.430111   -3.219861   -0.168710
  H      0.857976   -2.885835   -1.060228
  O     -1.545717   -2.345062   -3.066318
  H     -1.823017   -2.744008   -2.195332
  H     -0.552359   -2.463014   -3.055806
  O     -1.510922    0.083383   -2.246059
  H     -1.589082   -0.861528   -2.677499
  H     -0.910035   -0.093922   -1.447975
  O      3.711594   -0.521629    1.551448
  H      4.617624   -0.839314    1.387274
  H      3.115428   -1.372556    1.728096
  O      0.318885    1.724085   -3.367773
  H     -0.467821    1.172028   -3.091930
  H      0.414955    2.347731   -2.605757
  O      0.726720   -0.679711    3.591098
  H      0.456460   -0.945318    4.489185
  H     -0.149905   -0.470019    3.083915
  O     -2.274923    3.153817   -0.111406
  H     -1.417372    3.217204   -0.615421
  H     -2.751574    2.335700   -0.447494
  O     -2.082217   -3.170472   -0.499925
  H     -2.579527   -2.391222    0.002900
  H     -2.636952   -3.958940   -0.354985

 Total Charge           Charge          ....    0
 Multiplicity           Mult            ....    1
 Number of Electrons    NEL             ....  200
 Basis Dimension        Dim             ....  860

ORBITAL ENERGIES
----------------

  NO   OCC          E(Eh)            E(eV)
   0   2.0000     -19.263619      -524.1897
   1   2.0000     -19.253953      -523.9267
   2   2.0000     -19.251656      -523.8642
   3   2.0000     -19.248132      -523.7683
   4   2.0000     -19.248044      -523.7659
   5   2.0000     -19.246728      -523.7301
   6   2.0000     -19.239891      -523.5440
   7   2.0000     -19.239427      -523.5314
   8   2.0000     -19.239305      -523.5281
   9   2.0000     -19.238539      -523.5072
  10   2.0000     -19.237962      -523.4916
  11   2.0000     -19.237954      -523.4913
  12   2.0000     -19.232634      -523.3466
  13   2.0000     -19.232001      -523.3294
  14   2.0000     -19.229936      -523.2732
  15   2.0000     -19.228956      -523.2465
  16   2.0000     -19.225840      -523.1617
  17   2.0000     -19.220918      -523.0278
  18   2.0000     -19.216518      -522.9080
  19   2.0000     -19.211828      -522.7804
  20   2.0000      -1.160293       -31.5732
  21   2.0000      -1.153293       -31.3827
  22   2.0000      -1.147397       -31.2223
  23   2.0000      -1.147138       -31.2152
  24   2.0000      -1.140901       -31.0455
  25   2.0000      -1.138770       -30.9875
  26   2.0000      -1.136438       -30.9241
  27   2.0000      -1.132194       -30.8086
  28   2.0000      -1.128069       -30.6963
  29   2.0000      -1.122835       -30.5539
  30   2.0000      -1.121073       -30.5059
  31   2.0000      -1.118706       -30.4415
  32   2.0000      -1.112571       -30.2746
  33   2.0000      -1.108755       -30.1708
  34   2.0000      -1.106745       -30.1161
  35   2.0000      -1.101754       -29.9803
  36   2.0000      -1.099906       -29.9300
  37   2.0000      -1.096125       -29.8271
  38   2.0000      -1.089174       -29.6379
  39   2.0000      -1.084601       -29.5135
  40   2.0000      -0.669567       -18.2199
  41   2.0000      -0.658700       -17.9241
  42   2.0000      -0.657866       -17.9014
  43   2.0000      -0.653713       -17.7884
  44   2.0000      -0.652044       -17.7430
  45   2.0000      -0.650893       -17.7117
  46   2.0000      -0.648264       -17.6402
  47   2.0000      -0.644148       -17.5281
  48   2.0000      -0.641785       -17.4639
  49   2.0000      -0.640682       -17.4338
  50   2.0000      -0.635922       -17.3043
  51   2.0000      -0.634038       -17.2531
  52   2.0000      -0.630027       -17.1439
  53   2.0000      -0.625888       -17.0313
  54   2.0000      -0.621654       -16.9161
  55   2.0000      -0.619832       -16.8665
  56   2.0000      -0.619604       -16.8603
  57   2.0000      -0.616451       -16.7745
  58   2.0000      -0.612424       -16.6649
  59   2.0000      -0.605540       -16.4776
  60   2.0000      -0.580486       -15.7958
  61   2.0000      -0.571629       -15.5548
  62   2.0000      -0.564742       -15.3674
  63   2.0000      -0.555173       -15.1070
  64   2.0000      -0.552350       -15.0302
  65   2.0000      -0.544425       -14.8146
  66   2.0000      -0.529514       -14.4088
  67   2.0000      -0.526838       -14.3360
  68   2.0000      -0.522015       -14.2048
  69   2.0000      -0.510229       -13.8840
  70   2.0000      -0.503818       -13.7096
  71   2.0000      -0.501074       -13.6349
  72   2.0000      -0.495995       -13.4967
  73   2.0000      -0.493402       -13.4262
  74   2.0000      -0.490001       -13.3336
  75   2.0000      -0.483089       -13.1455
  76   2.0000      -0.473289       -12.8788
  77   2.0000      -0.470369       -12.7994
  78   2.0000      -0.466401       -12.6914
  79   2.0000      -0.450483       -12.2583
  80   2.0000      -0.441893       -12.0245
  81   2.0000      -0.438420       -11.9300
  82   2.0000      -0.434123       -11.8131
  83   2.0000      -0.432714       -11.7748
  84   2.0000      -0.429602       -11.6901
  85   2.0000      -0.428933       -11.6719
  86   2.0000      -0.426540       -11.6067
  87   2.0000      -0.425052       -11.5663
  88   2.0000      -0.423209       -11.5161
  89   2.0000      -0.422789       -11.5047
  90   2.0000      -0.422122       -11.4865
  91   2.0000      -0.420079       -11.4309
  92   2.0000      -0.417165       -11.3516
  93   2.0000      -0.415207       -11.2984
  94   2.0000      -0.414080       -11.2677
  95   2.0000      -0.412010       -11.2114
  96   2.0000      -0.404877       -11.0173
  97   2.0000      -0.402570       -10.9545
  98   2.0000      -0.399447       -10.8695
  99   2.0000      -0.390993       -10.6395
 100   0.0000       0.070908         1.9295
 101   0.0000       0.098639         2.6841
 102   0.0000       0.100216         2.7270
 103   0.0000       0.108905         2.9635
 104   0.0000       0.119279         3.2457

MULLIKEN ATOMIC CHARGES
-----------------------
   0 O :   -0.693962
   1 H :    0.399214
   2 H :    0.354462
   3 O :   -0.750993
   4 H :    0.362518
   5 H :    0.389239
   6 O :   -0.789724
   7 H :    0.387909
   8 H :    0.355499
   9 O :   -0.780448
  10 H :    0.405364
  11 H :    0.358145
  12 O :   -0.711252
  13 H :    0.370403
  14 H :    0.354201
  15 O :   -0.766266
  16 H :    0.355418
  17 H :    0.387657
  18 O :   -0.714888
  19 H :    0.376887
  20 H :    0.397115
  21 O :   -0.774789
  22 H :    0.391896
  23 H :    0.371337
  24 O :   -0.710218
  25 H :    0.391486
  26 H :    0.369906
  27 O :   -0.773577
  28 H :    0.358864
  29 H :    0.385105
  30 O :   -0.732164
  31 H :    0.384465
  32 H :    0.362477
  33 O :   -0.767667
  34 H :    0.341151
  35 H :    0.346830
  36 O :   -0.751158
  37 H :    0.384838
  38 H :    0.384764
  39 O :   -0.694851
  40 H :    0.352172
  41 H :    0.361224
  42 O :   -0.791887
  43 H :    0.413736
  44 H :    0.355088
  45 O :   -0.773434
  46 H :    0.356916
  47 H :    0.383167
  48 O :   -0.709214
  49 H :    0.378790
  50 H :    0.352245
  51 O :   -0.755253
  52 H :    0.355952
  53 H :    0.384659
  54 O :   -0.688071
  55 H :    0.360764
  56 H :    0.378308
  57 O :   -0.773303
  58 H :    0.385381
  59 H :    0.357567
Sum of atomic charges:   -0.0000000

LOEWDIN ATOMIC CHARGES
----------------------
   0 O :   -0.268168
   1 H :    0.153436
   2 H :    0.145285
   3 O :   -0.286461
   4 H :    0.141441
   5 H :    0.141330
   6 O :   -0.331870
   7 H :    0.143272
   8 H :    0.160631
   9 O :   -0.332993
  10 H :    0.152172
  11 H :    0.141097
  12 O :   -0.295484
  13 H :    0.149640
  14 H :    0.146591
  15 O :   -0.312960
  16 H :    0.163630
  17 H :    0.136493
  18 O :   -0.270448
  19 H :    0.145385
  20 H :    0.152512
  21 O :   -0.290129
  22 H :    0.143247
  23 H :    0.134910
  24 O :   -0.278322
  25 H :    0.151405
  26 H :    0.147920
  27 O :   -0.312703
  28 H :    0.163076
  29 H :    0.140578
  30 O :   -0.288662
  31 H :    0.156080
  32 H :    0.172671
  33 O :   -0.287660
  34 H :    0.133459
  35 H :    0.132834
  36 O :   -0.293976
  37 H :    0.145484
  38 H :    0.144133
  39 O :   -0.284735
  40 H :    0.141506
  41 H :    0.143915
  42 O :   -0.287479
  43 H :    0.147489
  44 H :    0.134054
  45 O :   -0.312649
  46 H :    0.163267
  47 H :    0.143704
  48 O :   -0.298949
  49 H :    0.144252
  50 H :    0.144958
  51 O :   -0.308261
  52 H :    0.164836
  53 H :    0.142358
  54 O :   -0.258757
  55 H :    0.149358
  56 H :    0.148733
  57 O :   -0.317610
  58 H :    0.146891
  59 H :    0.164246

  Mayer bond orders larger than 0.1
B(  0-O ,  1-H ) :   0.8070 B(  0-O ,  2-H ) :   0.8140 B(  0-O , 47-H ) :   0.2254
B(  2-H , 51-O ) :   0.1069 B(  3-O ,  4-H ) :   0.7872 B(  3-O ,  5-H ) :   0.7499
B(  3-O , 35-H ) :   0.2214 B(  4-H ,  9-O ) :   0.1331 B(  5-H , 45-O ) :   0.1480
B(  6-O ,  7-H ) :   0.6402 B(  6-O ,  8-H ) :   0.8791 B(  6-O , 38-H ) :   0.1432
B(  6-O , 41-H ) :   0.1049 B(  7-H , 18-O ) :   0.2671 B(  9-O , 10-H ) :   0.7301
B(  9-O , 11-H ) :   0.7897 B( 10-H , 12-O ) :   0.1572 B( 11-H , 27-O ) :   0.1180
B( 12-O , 13-H ) :   0.8253 B( 12-O , 14-H ) :   0.8266 B( 15-O , 16-H ) :   0.8774
B( 15-O , 17-H ) :   0.6944 B( 15-O , 56-H ) :   0.1206 B( 17-H , 42-O ) :   0.1967
B( 18-O , 19-H ) :   0.8270 B( 18-O , 20-H ) :   0.7420 B( 20-H , 48-O ) :   0.1527
B( 21-O , 22-H ) :   0.7650 B( 21-O , 23-H ) :   0.7503 B( 21-O , 53-H ) :   0.1674
B( 22-H , 27-O ) :   0.1279 B( 23-H , 33-O ) :   0.1490 B( 24-O , 25-H ) :   0.8078
B( 24-O , 26-H ) :   0.8073 B( 24-O , 58-H ) :   0.2232 B( 27-O , 28-H ) :   0.8750
B( 27-O , 29-H ) :   0.6625 B( 29-H , 54-O ) :   0.2491 B( 30-O , 31-H ) :   0.7864
B( 30-O , 32-H ) :   0.8743 B( 33-O , 34-H ) :   0.7279 B( 33-O , 35-H ) :   0.7161
B( 33-O , 44-H ) :   0.1193 B( 34-H , 36-O ) :   0.2230 B( 36-O , 37-H ) :   0.7804
B( 36-O , 38-H ) :   0.7611 B( 37-H , 57-O ) :   0.1205 B( 39-O , 40-H ) :   0.8259
B( 39-O , 41-H ) :   0.8134 B( 39-O , 43-H ) :   0.2030 B( 42-O , 43-H ) :   0.6860
B( 42-O , 44-H ) :   0.7758 B( 45-O , 46-H ) :   0.8761 B( 45-O , 47-H ) :   0.6840
B( 48-O , 49-H ) :   0.8184 B( 48-O , 50-H ) :   0.8513 B( 51-O , 52-H ) :   0.8776
B( 51-O , 53-H ) :   0.7247 B( 54-O , 55-H ) :   0.8199 B( 54-O , 56-H ) :   0.7853
B( 57-O , 58-H ) :   0.6831 B( 57-O , 59-H ) :   0.8781

Dispersion correction           -0.043220780
FINAL SINGLE POINT ENERGY     -1529.129244627908

DIPOLE MOMENT
-------------
                                X             Y             Z
Electronic contribution:     -0.02240       0.21871      -0.22165
Nuclear contribution   :     -0.39196      -0.35666       1.51548
                        -----------------------------------------
Total Dipole Moment    :     -0.41436      -0.13794       1.29383
                        -----------------------------------------
Magnitude (a.u.)       :      1.36555
Magnitude (Debye)      :      3.47094

                             ****ORCA TERMINATED NORMALLY****
TOTAL RUN TIME: 0 days 0 hours 2 minutes 47 seconds 557 msec
