                         Program Version 3.0.3 - RELEASE   -
|  1> ! B3LYP Def2-TZVP def2-TZVP/J RIJCOSX TightSCF Grid4 D3BJ COSMO
|  2>
|  3> %pal nprocs 12 end
|  4>
|  5> %scf
|  6>         maxiter 400
|  7> end
|  8>
|  9> %cosmo
| 10>         SMD true
| 11>         solvent "WATER"
| 12> end
| 13>
| 14> * xyz  0  1
| 15> O  2.076958	-2.525753	2.073671
| 16> H  1.511416	-2.710561	1.289115
| 17> H  1.531776	-1.945038	2.656820
| 18> O  2.256998	0.761930	-0.176247
| 19> H  1.970498	1.542311	0.353776
| 20> H  2.878875	0.251768	0.414281
| 21> O  1.159940	-2.532163	-2.728499
| 22> H  1.487278	-1.582353	-2.805267
| 23> H  1.794290	-3.073376	-3.222249
| 24> O  1.334279	2.771915	1.484624
| 25> H  1.863330	2.310894	2.194515
| 26> H  0.401422	2.761784	1.808405
| 27> O  2.659678	1.282159	3.272988
| 28> H  3.246611	0.708848	2.730896
| 29> H  1.933193	0.653890	3.503849
| 30> O  -3.574824	0.688348	-0.993761
| 31> H  -4.368686	0.817664	-1.536261
| 32> H  -2.854470	0.423358	-1.638082
| 33> O  2.024850	-0.050505	-2.834066
| 34> H  2.216423	0.256178	-1.921742
| 35> H  1.407640	0.651496	-3.168460
| 36> O  -1.332702	0.014108	2.147657
| 37> H  -1.443665	0.991950	2.285028
| 38> H  -0.869514	-0.049474	1.265478
| 39> O  -3.371880	-1.260116	0.899526
| 40> H  -2.701777	-0.827417	1.481867
| 41> H  -3.549043	-0.573133	0.212240
| 42> O  -1.343188	2.666513	2.179616
| 43> H  -1.784325	3.230048	2.833308
| 44> H  -1.786920	2.853176	1.297569
| 45> O  0.444089	3.310371	-1.046311
| 46> H  0.922187	3.196500	-0.194260
| 47> H  0.475055	4.264866	-1.217899
| 48> O  -0.124132	-0.303479	-0.168530
| 49> H  0.092373	-1.277288	-0.132553
| 50> H  0.785466	0.113901	-0.181601
| 51> O  0.502843	-2.881249	-0.135399
| 52> H  -0.454559	-3.140665	-0.188493
| 53> H  0.839136	-2.895491	-1.068061
| 54> O  -1.524218	-2.440385	-3.048373
| 55> H  -1.807823	-2.746485	-2.154844
| 56> H  -0.548209	-2.584653	-3.056086
| 57> O  -1.463077	0.126098	-2.416002
| 58> H  -1.518690	-0.804593	-2.784931
| 59> H  -0.917554	0.001372	-1.590358
| 60> O  3.734819	-0.564720	1.548058
| 61> H  4.623877	-0.864821	1.305342
| 62> H  3.185839	-1.392154	1.714205
| 63> O  0.286891	1.917568	-3.444190
| 64> H  -0.455687	1.316246	-3.194908
| 65> H  0.435860	2.438647	-2.625176
| 66> O  0.783834	-0.660988	3.583124
| 67> H  0.529829	-0.942770	4.475668
| 68> H  -0.071993	-0.431025	3.119869
| 69> O  -2.233537	2.981634	-0.274002
| 70> H  -1.345590	2.967922	-0.693597
| 71> H  -2.718183	2.173416	-0.564630
| 72> O  -2.120394	-3.103350	-0.456030
| 73> H  -2.612987	-2.405402	0.084392
| 74> H  -2.574054	-3.940911	-0.273553
| 75> **                         ****END OF INPUT****

CARTESIAN COORDINATES (ANGSTROEM)
---------------------------------
  O      2.076958   -2.525753    2.073671
  H      1.511416   -2.710561    1.289115
  H      1.531776   -1.945038    2.656820
  O      2.256998    0.761930   -0.176247
  H      1.970498    1.542311    0.353776
  H      2.878875    0.251768    0.414281
  O      1.159940   -2.532163   -2.728499
  H      1.487278   -1.582353   -2.805267
  H      1.794290   -3.073376   -3.222249
  O      1.334279    2.771915    1.484624
  H      1.863330    2.310894    2.194515
  H      0.401422    2.761784    1.808405
  O      2.659678    1.282159    3.272988
  H      3.246611    0.708848    2.730896
  H      1.933193    0.653890    3.503849
  O     -3.574824    0.688348   -0.993761
  H     -4.368686    0.817664   -1.536261
  H     -2.854470    0.423358   -1.638082
  O      2.024850   -0.050505   -2.834066
  H      2.216423    0.256178   -1.921742
  H      1.407640    0.651496   -3.168460
  O     -1.332702    0.014108    2.147657
  H     -1.443665    0.991950    2.285028
  H     -0.869514   -0.049474    1.265478
  O     -3.371880   -1.260116    0.899526
  H     -2.701777   -0.827417    1.481867
  H     -3.549043   -0.573133    0.212240
  O     -1.343188    2.666513    2.179616
  H     -1.784325    3.230048    2.833308
  H     -1.786920    2.853176    1.297569
  O      0.444089    3.310371   -1.046311
  H      0.922187    3.196500   -0.194260
  H      0.475055    4.264866   -1.217899
  O     -0.124132   -0.303479   -0.168530
  H      0.092373   -1.277288   -0.132553
  H      0.785466    0.113901   -0.181601
  O      0.502843   -2.881249   -0.135399
  H     -0.454559   -3.140665   -0.188493
  H      0.839136   -2.895491   -1.068061
  O     -1.524218   -2.440385   -3.048373
  H     -1.807823   -2.746485   -2.154844
  H     -0.548209   -2.584653   -3.056086
  O     -1.463077    0.126098   -2.416002
  H     -1.518690   -0.804593   -2.784931
  H     -0.917554    0.001372   -1.590358
  O      3.734819   -0.564720    1.548058
  H      4.623877   -0.864821    1.305342
  H      3.185839   -1.392154    1.714205
  O      0.286891    1.917568   -3.444190
  H     -0.455687    1.316246   -3.194908
  H      0.435860    2.438647   -2.625176
  O      0.783834   -0.660988    3.583124
  H      0.529829   -0.942770    4.475668
  H     -0.071993   -0.431025    3.119869
  O     -2.233537    2.981634   -0.274002
  H     -1.345590    2.967922   -0.693597
  H     -2.718183    2.173416   -0.564630
  O     -2.120394   -3.103350   -0.456030
  H     -2.612987   -2.405402    0.084392
  H     -2.574054   -3.940911   -0.273553

 Total Charge           Charge          ....    0
 Multiplicity           Mult            ....    1
 Number of Electrons    NEL             ....  200
 Basis Dimension        Dim             ....  860

ORBITAL ENERGIES
----------------

  NO   OCC          E(Eh)            E(eV)
   0   2.0000     -19.140381      -520.8363
   1   2.0000     -19.132680      -520.6267
   2   2.0000     -19.132007      -520.6084
   3   2.0000     -19.131318      -520.5896
   4   2.0000     -19.130704      -520.5729
   5   2.0000     -19.130405      -520.5648
   6   2.0000     -19.129917      -520.5515
   7   2.0000     -19.127946      -520.4979
   8   2.0000     -19.127907      -520.4968
   9   2.0000     -19.125386      -520.4282
  10   2.0000     -19.122787      -520.3575
  11   2.0000     -19.122105      -520.3389
  12   2.0000     -19.122040      -520.3372
  13   2.0000     -19.120667      -520.2998
  14   2.0000     -19.116264      -520.1800
  15   2.0000     -19.116200      -520.1783
  16   2.0000     -19.116183      -520.1778
  17   2.0000     -19.115559      -520.1608
  18   2.0000     -19.115015      -520.1460
  19   2.0000     -19.115011      -520.1459
  20   2.0000      -1.039389       -28.2832
  21   2.0000      -1.029212       -28.0063
  22   2.0000      -1.027482       -27.9592
  23   2.0000      -1.025352       -27.9012
  24   2.0000      -1.020812       -27.7777
  25   2.0000      -1.019605       -27.7449
  26   2.0000      -1.016951       -27.6726
  27   2.0000      -1.016674       -27.6651
  28   2.0000      -1.011971       -27.5371
  29   2.0000      -1.008812       -27.4512
  30   2.0000      -1.007630       -27.4190
  31   2.0000      -1.003668       -27.3112
  32   2.0000      -1.001930       -27.2639
  33   2.0000      -0.997529       -27.1442
  34   2.0000      -0.991553       -26.9815
  35   2.0000      -0.989042       -26.9132
  36   2.0000      -0.987483       -26.8708
  37   2.0000      -0.986542       -26.8452
  38   2.0000      -0.983596       -26.7650
  39   2.0000      -0.982387       -26.7321
  40   2.0000      -0.556053       -15.1310
  41   2.0000      -0.548931       -14.9372
  42   2.0000      -0.545870       -14.8539
  43   2.0000      -0.542996       -14.7757
  44   2.0000      -0.541153       -14.7255
  45   2.0000      -0.540182       -14.6991
  46   2.0000      -0.536380       -14.5957
  47   2.0000      -0.535667       -14.5762
  48   2.0000      -0.534229       -14.5371
  49   2.0000      -0.531985       -14.4760
  50   2.0000      -0.530468       -14.4348
  51   2.0000      -0.529535       -14.4094
  52   2.0000      -0.526990       -14.3401
  53   2.0000      -0.524478       -14.2718
  54   2.0000      -0.523028       -14.2323
  55   2.0000      -0.520174       -14.1547
  56   2.0000      -0.519042       -14.1239
  57   2.0000      -0.516631       -14.0582
  58   2.0000      -0.515985       -14.0407
  59   2.0000      -0.510957       -13.9038
  60   2.0000      -0.463574       -12.6145
  61   2.0000      -0.453980       -12.3534
  62   2.0000      -0.450839       -12.2680
  63   2.0000      -0.446148       -12.1403
  64   2.0000      -0.438194       -11.9239
  65   2.0000      -0.435775       -11.8580
  66   2.0000      -0.421751       -11.4764
  67   2.0000      -0.417908       -11.3718
  68   2.0000      -0.411424       -11.1954
  69   2.0000      -0.409976       -11.1560
  70   2.0000      -0.401266       -10.9190
  71   2.0000      -0.396266       -10.7829
  72   2.0000      -0.392673       -10.6852
  73   2.0000      -0.390397       -10.6233
  74   2.0000      -0.386729       -10.5234
  75   2.0000      -0.383029       -10.4227
  76   2.0000      -0.377239       -10.2652
  77   2.0000      -0.371738       -10.1155
  78   2.0000      -0.368424       -10.0253
  79   2.0000      -0.356300        -9.6954
  80   2.0000      -0.335564        -9.1312
  81   2.0000      -0.331940        -9.0325
  82   2.0000      -0.330315        -8.9883
  83   2.0000      -0.330033        -8.9807
  84   2.0000      -0.328889        -8.9495
  85   2.0000      -0.327037        -8.8991
  86   2.0000      -0.325515        -8.8577
  87   2.0000      -0.324802        -8.8383
  88   2.0000      -0.324687        -8.8352
  89   2.0000      -0.324083        -8.8187
  90   2.0000      -0.322508        -8.7759
  91   2.0000      -0.320695        -8.7265
  92   2.0000      -0.320266        -8.7149
  93   2.0000      -0.317913        -8.6509
  94   2.0000      -0.316391        -8.6094
  95   2.0000      -0.315521        -8.5858
  96   2.0000      -0.312974        -8.5164
  97   2.0000      -0.312134        -8.4936
  98   2.0000      -0.311588        -8.4787
  99   2.0000      -0.309970        -8.4347
 100   0.0000       0.004829         0.1314
 101   0.0000       0.034989         0.9521
 102   0.0000       0.035573         0.9680
 103   0.0000       0.044459         1.2098
 104   0.0000       0.059045         1.6067

MULLIKEN ATOMIC CHARGES
-----------------------
   0 O :   -0.755785
   1 H :    0.392687
   2 H :    0.363439
   3 O :   -0.752937
   4 H :    0.359579
   5 H :    0.385180
   6 O :   -0.751354
   7 H :    0.389037
   8 H :    0.385744
   9 O :   -0.781060
  10 H :    0.381822
  11 H :    0.370399
  12 O :   -0.757598
  13 H :    0.373642
  14 H :    0.364707
  15 O :   -0.743032
  16 H :    0.384769
  17 H :    0.382911
  18 O :   -0.758676
  19 H :    0.374800
  20 H :    0.372927
  21 O :   -0.778266
  22 H :    0.383689
  23 H :    0.384623
  24 O :   -0.755377
  25 H :    0.385707
  26 H :    0.371842
  27 O :   -0.742247
  28 H :    0.387342
  29 H :    0.385538
  30 O :   -0.725372
  31 H :    0.377118
  32 H :    0.391815
  33 O :   -0.783004
  34 H :    0.363822
  35 H :    0.365552
  36 O :   -0.761482
  37 H :    0.383617
  38 H :    0.381166
  39 O :   -0.762501
  40 H :    0.368090
  41 H :    0.372254
  42 O :   -0.786519
  43 H :    0.390219
  44 H :    0.382942
  45 O :   -0.745050
  46 H :    0.387443
  47 H :    0.379751
  48 O :   -0.764139
  49 H :    0.383507
  50 H :    0.369985
  51 O :   -0.736899
  52 H :    0.386250
  53 H :    0.381946
  54 O :   -0.744747
  55 H :    0.357138
  56 H :    0.371659
  57 O :   -0.749761
  58 H :    0.374922
  59 H :    0.386224
Sum of atomic charges:   -0.0000000

LOEWDIN ATOMIC CHARGES
----------------------
   0 O :   -0.317334
   1 H :    0.141872
   2 H :    0.138373
   3 O :   -0.279273
   4 H :    0.139568
   5 H :    0.136886
   6 O :   -0.277266
   7 H :    0.143979
   8 H :    0.183007
   9 O :   -0.330761
  10 H :    0.140407
  11 H :    0.142370
  12 O :   -0.326967
  13 H :    0.143836
  14 H :    0.138662
  15 O :   -0.276854
  16 H :    0.184095
  17 H :    0.136615
  18 O :   -0.316236
  19 H :    0.142428
  20 H :    0.138299
  21 O :   -0.283402
  22 H :    0.138528
  23 H :    0.127706
  24 O :   -0.312225
  25 H :    0.139257
  26 H :    0.138727
  27 O :   -0.271489
  28 H :    0.184869
  29 H :    0.145102
  30 O :   -0.269444
  31 H :    0.151583
  32 H :    0.190453
  33 O :   -0.269009
  34 H :    0.130159
  35 H :    0.125435
  36 O :   -0.281897
  37 H :    0.139381
  38 H :    0.141963
  39 O :   -0.323989
  40 H :    0.136900
  41 H :    0.137084
  42 O :   -0.283843
  43 H :    0.139441
  44 H :    0.128171
  45 O :   -0.270060
  46 H :    0.184021
  47 H :    0.143474
  48 O :   -0.333417
  49 H :    0.136949
  50 H :    0.140670
  51 O :   -0.268889
  52 H :    0.184501
  53 H :    0.141050
  54 O :   -0.310317
  55 H :    0.141586
  56 H :    0.139699
  57 O :   -0.276828
  58 H :    0.139406
  59 H :    0.182988

  Mayer bond orders larger than 0.1
B(  0-O ,  1-H ) :   0.8086 B(  0-O ,  2-H ) :   0.8022 B(  0-O , 47-H ) :   0.1579
B(  2-H , 51-O ) :   0.1168 B(  3-O ,  4-H ) :   0.8110 B(  3-O ,  5-H ) :   0.7495
B(  3-O , 35-H ) :   0.1835 B(  4-H ,  9-O ) :   0.1025 B(  5-H , 45-O ) :   0.1530
B(  6-O ,  7-H ) :   0.7457 B(  6-O ,  8-H ) :   0.8534 B(  6-O , 38-H ) :   0.1196
B(  6-O , 41-H ) :   0.1089 B(  7-H , 18-O ) :   0.1403 B(  9-O , 10-H ) :   0.7680
B(  9-O , 11-H ) :   0.7950 B( 10-H , 12-O ) :   0.1388 B( 11-H , 27-O ) :   0.1019
B( 12-O , 13-H ) :   0.8180 B( 12-O , 14-H ) :   0.8042 B( 14-H , 51-O ) :   0.1127
B( 15-O , 16-H ) :   0.8524 B( 15-O , 17-H ) :   0.7519 B( 15-O , 26-H ) :   0.1069
B( 15-O , 56-H ) :   0.1209 B( 17-H , 42-O ) :   0.1387 B( 18-O , 19-H ) :   0.8283
B( 18-O , 20-H ) :   0.7799 B( 20-H , 48-O ) :   0.1379 B( 21-O , 22-H ) :   0.7687
B( 21-O , 23-H ) :   0.7684 B( 21-O , 53-H ) :   0.1254 B( 22-H , 27-O ) :   0.1322
B( 23-H , 33-O ) :   0.1140 B( 24-O , 25-H ) :   0.8016 B( 24-O , 26-H ) :   0.8013
B( 24-O , 58-H ) :   0.1778 B( 27-O , 28-H ) :   0.8508 B( 27-O , 29-H ) :   0.7521
B( 29-H , 54-O ) :   0.1391 B( 30-O , 31-H ) :   0.8135 B( 30-O , 32-H ) :   0.8498
B( 33-O , 34-H ) :   0.7514 B( 33-O , 35-H ) :   0.7395 B( 34-H , 36-O ) :   0.1781
B( 36-O , 37-H ) :   0.7732 B( 36-O , 38-H ) :   0.7816 B( 37-H , 57-O ) :   0.1292
B( 39-O , 40-H ) :   0.8086 B( 39-O , 41-H ) :   0.8026 B( 39-O , 43-H ) :   0.1499
B( 40-H , 57-O ) :   0.1039 B( 42-O , 43-H ) :   0.7517 B( 42-O , 44-H ) :   0.7767
B( 45-O , 46-H ) :   0.8504 B( 45-O , 47-H ) :   0.7450 B( 48-O , 49-H ) :   0.8089
B( 48-O , 50-H ) :   0.8232 B( 51-O , 52-H ) :   0.8525 B( 51-O , 53-H ) :   0.7620
B( 54-O , 55-H ) :   0.8244 B( 54-O , 56-H ) :   0.7941 B( 57-O , 58-H ) :   0.7322
B( 57-O , 59-H ) :   0.8534

Dispersion correction           -0.077862060
FINAL SINGLE POINT ENERGY     -1528.980564757659

DIPOLE MOMENT
-------------
                                X             Y             Z
Electronic contribution:     -0.06446      -0.03728       0.30793
Nuclear contribution   :     -0.50425      -0.54707       1.56309
                        -----------------------------------------
Total Dipole Moment    :     -0.56871      -0.58435       1.87102
                        -----------------------------------------
Magnitude (a.u.)       :      2.04099
Magnitude (Debye)      :      5.18777

                             ****ORCA TERMINATED NORMALLY****
TOTAL RUN TIME: 0 days 0 hours 2 minutes 47 seconds 268 msec
