                         Program Version 3.0.3 - RELEASE   -
|  1> ! wB97X-D3 MA-Def2-TZVP def2-TZVP/J RIJCOSX TightSCF Grid4
|  2>
|  3> %pal nprocs 1 end
|  4>
|  5> %scf
|  6>         maxiter 400
|  7> end
|  8>
|  9> %cosmo
| 10>         SMD true
| 11>         solvent "WATER"
| 12> end
| 13>
| 14> * xyz  0  1
| 15> O  2.076958	-2.525753	2.073671
| 16> H  1.511416	-2.710561	1.289115
| 17> H  1.531776	-1.945038	2.656820
| 18> O  2.256998	0.761930	-0.176247
| 19> H  1.970498	1.542311	0.353776
| 20> H  2.878875	0.251768	0.414281
| 21> O  1.159940	-2.532163	-2.728499
| 22> H  1.487278	-1.582353	-2.805267
| 23> H  1.794290	-3.073376	-3.222249
| 24> O  1.334279	2.771915	1.484624
| 25> H  1.863330	2.310894	2.194515
| 26> H  0.401422	2.761784	1.808405
| 27> O  2.659678	1.282159	3.272988
| 28> H  3.246611	0.708848	2.730896
| 29> H  1.933193	0.653890	3.503849
| 30> O  -3.574824	0.688348	-0.993761
| 31> H  -4.368686	0.817664	-1.536261
| 32> H  -2.854470	0.423358	-1.638082
| 33> O  2.024850	-0.050505	-2.834066
| 34> H  2.216423	0.256178	-1.921742
| 35> H  1.407640	0.651496	-3.168460
| 36> O  -1.332702	0.014108	2.147657
| 37> H  -1.443665	0.991950	2.285028
| 38> H  -0.869514	-0.049474	1.265478
| 39> O  -3.371880	-1.260116	0.899526
| 40> H  -2.701777	-0.827417	1.481867
| 41> H  -3.549043	-0.573133	0.212240
| 42> O  -1.343188	2.666513	2.179616
| 43> H  -1.784325	3.230048	2.833308
| 44> H  -1.786920	2.853176	1.297569
| 45> O  0.444089	3.310371	-1.046311
| 46> H  0.922187	3.196500	-0.194260
| 47> H  0.475055	4.264866	-1.217899
| 48> O  -0.124132	-0.303479	-0.168530
| 49> H  0.092373	-1.277288	-0.132553
| 50> H  0.785466	0.113901	-0.181601
| 51> O  0.502843	-2.881249	-0.135399
| 52> H  -0.454559	-3.140665	-0.188493
| 53> H  0.839136	-2.895491	-1.068061
| 54> O  -1.524218	-2.440385	-3.048373
| 55> H  -1.807823	-2.746485	-2.154844
| 56> H  -0.548209	-2.584653	-3.056086
| 57> O  -1.463077	0.126098	-2.416002
| 58> H  -1.518690	-0.804593	-2.784931
| 59> H  -0.917554	0.001372	-1.590358
| 60> O  3.734819	-0.564720	1.548058
| 61> H  4.623877	-0.864821	1.305342
| 62> H  3.185839	-1.392154	1.714205
| 63> O  0.286891	1.917568	-3.444190
| 64> H  -0.455687	1.316246	-3.194908
| 65> H  0.435860	2.438647	-2.625176
| 66> O  0.783834	-0.660988	3.583124
| 67> H  0.529829	-0.942770	4.475668
| 68> H  -0.071993	-0.431025	3.119869
| 69> O  -2.233537	2.981634	-0.274002
| 70> H  -1.345590	2.967922	-0.693597
| 71> H  -2.718183	2.173416	-0.564630
| 72> O  -2.120394	-3.103350	-0.456030
| 73> H  -2.612987	-2.405402	0.084392
| 74> H  -2.574054	-3.940911	-0.273553
| 75> **                         ****END OF INPUT****

CARTESIAN COORDINATES (ANGSTROEM)
---------------------------------
  O      2.076958   -2.525753    2.073671
  H      1.511416   -2.710561    1.289115
  H      1.531776   -1.945038    2.656820
  O      2.256998    0.761930   -0.176247
  H      1.970498    1.542311    0.353776
  H      2.878875    0.251768    0.414281
  O      1.159940   -2.532163   -2.728499
  H      1.487278   -1.582353   -2.805267
  H      1.794290   -3.073376   -3.222249
  O      1.334279    2.771915    1.484624
  H      1.863330    2.310894    2.194515
  H      0.401422    2.761784    1.808405
  O      2.659678    1.282159    3.272988
  H      3.246611    0.708848    2.730896
  H      1.933193    0.653890    3.503849
  O     -3.574824    0.688348   -0.993761
  H     -4.368686    0.817664   -1.536261
  H     -2.854470    0.423358   -1.638082
  O      2.024850   -0.050505   -2.834066
  H      2.216423    0.256178   -1.921742
  H      1.407640    0.651496   -3.168460
  O     -1.332702    0.014108    2.147657
  H     -1.443665    0.991950    2.285028
  H     -0.869514   -0.049474    1.265478
  O     -3.371880   -1.260116    0.899526
  H     -2.701777   -0.827417    1.481867
  H     -3.549043   -0.573133    0.212240
  O     -1.343188    2.666513    2.179616
  H     -1.784325    3.230048    2.833308
  H     -1.786920    2.853176    1.297569
  O      0.444089    3.310371   -1.046311
  H      0.922187    3.196500   -0.194260
  H      0.475055    4.264866   -1.217899
  O     -0.124132   -0.303479   -0.168530
  H      0.092373   -1.277288   -0.132553
  H      0.785466    0.113901   -0.181601
  O      0.502843   -2.881249   -0.135399
  H     -0.454559   -3.140665   -0.188493
  H      0.839136   -2.895491   -1.068061
  O     -1.524218   -2.440385   -3.048373
  H     -1.807823   -2.746485   -2.154844
  H     -0.548209   -2.584653   -3.056086
  O     -1.463077    0.126098   -2.416002
  H     -1.518690   -0.804593   -2.784931
  H     -0.917554    0.001372   -1.590358
  O      3.734819   -0.564720    1.548058
  H      4.623877   -0.864821    1.305342
  H      3.185839   -1.392154    1.714205
  O      0.286891    1.917568   -3.444190
  H     -0.455687    1.316246   -3.194908
  H      0.435860    2.438647   -2.625176
  O      0.783834   -0.660988    3.583124
  H      0.529829   -0.942770    4.475668
  H     -0.071993   -0.431025    3.119869
  O     -2.233537    2.981634   -0.274002
  H     -1.345590    2.967922   -0.693597
  H     -2.718183    2.173416   -0.564630
  O     -2.120394   -3.103350   -0.456030
  H     -2.612987   -2.405402    0.084392
  H     -2.574054   -3.940911   -0.273553

 Total Charge           Charge          ....    0
 Multiplicity           Mult            ....    1
 Number of Electrons    NEL             ....  200
 Basis Dimension        Dim             ....  940
Dispersion correction           -0.042340891
FINAL SINGLE POINT ENERGY     -1529.220975309998
                             ****ORCA TERMINATED NORMALLY****
TOTAL RUN TIME: 0 days 0 hours 56 minutes 39 seconds 175 msec

ORBITAL ENERGIES
----------------

  NO   OCC          E(Eh)            E(eV)
   0   2.0000     -19.250733      -523.8391
   1   2.0000     -19.242615      -523.6182
   2   2.0000     -19.241896      -523.5986
   3   2.0000     -19.241362      -523.5841
   4   2.0000     -19.240612      -523.5637
   5   2.0000     -19.240544      -523.5618
   6   2.0000     -19.240119      -523.5503
   7   2.0000     -19.239549      -523.5348
   8   2.0000     -19.239366      -523.5298
   9   2.0000     -19.236265      -523.4454
  10   2.0000     -19.234598      -523.4000
  11   2.0000     -19.233925      -523.3817
  12   2.0000     -19.232499      -523.3429
  13   2.0000     -19.231652      -523.3199
  14   2.0000     -19.227855      -523.2165
  15   2.0000     -19.227819      -523.2155
  16   2.0000     -19.227656      -523.2111
  17   2.0000     -19.227650      -523.2109
  18   2.0000     -19.226676      -523.1845
  19   2.0000     -19.226497      -523.1796
  20   2.0000      -1.158320       -31.5195
  21   2.0000      -1.147611       -31.2281
  22   2.0000      -1.145789       -31.1785
  23   2.0000      -1.143448       -31.1148
  24   2.0000      -1.138714       -30.9860
  25   2.0000      -1.137570       -30.9549
  26   2.0000      -1.134904       -30.8823
  27   2.0000      -1.134374       -30.8679
  28   2.0000      -1.130294       -30.7569
  29   2.0000      -1.127198       -30.6726
  30   2.0000      -1.125415       -30.6241
  31   2.0000      -1.121701       -30.5230
  32   2.0000      -1.119797       -30.4712
  33   2.0000      -1.115559       -30.3559
  34   2.0000      -1.109272       -30.1848
  35   2.0000      -1.106689       -30.1145
  36   2.0000      -1.105114       -30.0717
  37   2.0000      -1.104191       -30.0466
  38   2.0000      -1.101221       -29.9658
  39   2.0000      -1.099851       -29.9285
  40   2.0000      -0.663436       -18.0530
  41   2.0000      -0.655727       -17.8432
  42   2.0000      -0.652871       -17.7655
  43   2.0000      -0.649266       -17.6674
  44   2.0000      -0.647133       -17.6094
  45   2.0000      -0.646547       -17.5934
  46   2.0000      -0.642175       -17.4745
  47   2.0000      -0.641108       -17.4454
  48   2.0000      -0.640420       -17.4267
  49   2.0000      -0.637834       -17.3564
  50   2.0000      -0.636465       -17.3191
  51   2.0000      -0.635446       -17.2914
  52   2.0000      -0.632869       -17.2212
  53   2.0000      -0.630205       -17.1487
  54   2.0000      -0.629128       -17.1195
  55   2.0000      -0.625977       -17.0337
  56   2.0000      -0.625208       -17.0128
  57   2.0000      -0.622143       -16.9294
  58   2.0000      -0.621609       -16.9148
  59   2.0000      -0.615836       -16.7578
  60   2.0000      -0.571435       -15.5495
  61   2.0000      -0.560479       -15.2514
  62   2.0000      -0.557554       -15.1718
  63   2.0000      -0.552918       -15.0457
  64   2.0000      -0.544321       -14.8117
  65   2.0000      -0.541475       -14.7343
  66   2.0000      -0.526826       -14.3357
  67   2.0000      -0.521941       -14.2027
  68   2.0000      -0.515590       -14.0299
  69   2.0000      -0.514177       -13.9915
  70   2.0000      -0.505598       -13.7580
  71   2.0000      -0.498810       -13.5733
  72   2.0000      -0.496123       -13.5002
  73   2.0000      -0.493572       -13.4308
  74   2.0000      -0.489058       -13.3079
  75   2.0000      -0.485184       -13.2025
  76   2.0000      -0.479622       -13.0512
  77   2.0000      -0.473623       -12.8879
  78   2.0000      -0.469723       -12.7818
  79   2.0000      -0.457654       -12.4534
  80   2.0000      -0.437232       -11.8977
  81   2.0000      -0.433074       -11.7845
  82   2.0000      -0.431212       -11.7339
  83   2.0000      -0.430872       -11.7246
  84   2.0000      -0.429521       -11.6879
  85   2.0000      -0.428032       -11.6473
  86   2.0000      -0.426519       -11.6062
  87   2.0000      -0.425556       -11.5800
  88   2.0000      -0.425173       -11.5696
  89   2.0000      -0.424893       -11.5619
  90   2.0000      -0.423801       -11.5322
  91   2.0000      -0.421204       -11.4615
  92   2.0000      -0.420810       -11.4508
  93   2.0000      -0.417978       -11.3737
  94   2.0000      -0.417384       -11.3576
  95   2.0000      -0.416572       -11.3355
  96   2.0000      -0.413985       -11.2651
  97   2.0000      -0.412998       -11.2383
  98   2.0000      -0.412220       -11.2171
  99   2.0000      -0.410723       -11.1763
 100   0.0000       0.056248         1.5306
 101   0.0000       0.076459         2.0805
 102   0.0000       0.079265         2.1569
 103   0.0000       0.082379         2.2417
 104   0.0000       0.100028         2.7219

MULLIKEN ATOMIC CHARGES
-----------------------
   0 O :   -0.824870
   1 H :    0.432403
   2 H :    0.398873
   3 O :   -0.821671
   4 H :    0.368223
   5 H :    0.450038
   6 O :   -0.861363
   7 H :    0.434806
   8 H :    0.419892
   9 O :   -0.858059
  10 H :    0.436165
  11 H :    0.423858
  12 O :   -0.827915
  13 H :    0.422250
  14 H :    0.408195
  15 O :   -0.806541
  16 H :    0.418923
  17 H :    0.420446
  18 O :   -0.824953
  19 H :    0.402614
  20 H :    0.432009
  21 O :   -0.804360
  22 H :    0.446409
  23 H :    0.371623
  24 O :   -0.837698
  25 H :    0.421991
  26 H :    0.420589
  27 O :   -0.845291
  28 H :    0.421217
  29 H :    0.431454
  30 O :   -0.800760
  31 H :    0.399638
  32 H :    0.425898
  33 O :   -0.774267
  34 H :    0.337323
  35 H :    0.354834
  36 O :   -0.824422
  37 H :    0.437622
  38 H :    0.439325
  39 O :   -0.827546
  40 H :    0.415910
  41 H :    0.426132
  42 O :   -0.891069
  43 H :    0.470396
  44 H :    0.362105
  45 O :   -0.854499
  46 H :    0.422649
  47 H :    0.430082
  48 O :   -0.842725
  49 H :    0.427811
  50 H :    0.407197
  51 O :   -0.836676
  52 H :    0.418441
  53 H :    0.416358
  54 O :   -0.779817
  55 H :    0.381959
  56 H :    0.397273
  57 O :   -0.856226
  58 H :    0.429620
  59 H :    0.418178
Sum of atomic charges:   -0.0000000

LOEWDIN ATOMIC CHARGES
----------------------
   0 O :   -0.400694
   1 H :    0.191952
   2 H :    0.189406
   3 O :   -0.391218
   4 H :    0.192691
   5 H :    0.190384
   6 O :   -0.376861
   7 H :    0.194535
   8 H :    0.215181
   9 O :   -0.430013
  10 H :    0.192180
  11 H :    0.196781
  12 O :   -0.411918
  13 H :    0.196065
  14 H :    0.191367
  15 O :   -0.373662
  16 H :    0.216306
  17 H :    0.186255
  18 O :   -0.403523
  19 H :    0.195394
  20 H :    0.189553
  21 O :   -0.391880
  22 H :    0.191563
  23 H :    0.183375
  24 O :   -0.398043
  25 H :    0.190339
  26 H :    0.191171
  27 O :   -0.369058
  28 H :    0.216644
  29 H :    0.193561
  30 O :   -0.367946
  31 H :    0.200343
  32 H :    0.221684
  33 O :   -0.394184
  34 H :    0.186574
  35 H :    0.182776
  36 O :   -0.389587
  37 H :    0.192591
  38 H :    0.196242
  39 O :   -0.408651
  40 H :    0.190528
  41 H :    0.189697
  42 O :   -0.400733
  43 H :    0.192994
  44 H :    0.187414
  45 O :   -0.368670
  46 H :    0.216140
  47 H :    0.192584
  48 O :   -0.417350
  49 H :    0.189113
  50 H :    0.191498
  51 O :   -0.367231
  52 H :    0.216524
  53 H :    0.190846
  54 O :   -0.392467
  55 H :    0.193075
  56 H :    0.190169
  57 O :   -0.376837
  58 H :    0.189289
  59 H :    0.215743

  Mayer bond orders larger than 0.1
B(  0-O ,  1-H ) :   0.8275 B(  0-O ,  2-H ) :   0.8171 B(  3-O ,  4-H ) :   0.8318
B(  3-O ,  5-H ) :   0.7643 B(  3-O , 35-H ) :   0.1848 B(  6-O ,  7-H ) :   0.7661
B(  6-O ,  8-H ) :   0.8340 B(  9-O , 10-H ) :   0.7749 B(  9-O , 11-H ) :   0.8191
B( 12-O , 13-H ) :   0.8294 B( 12-O , 14-H ) :   0.8210 B( 15-O , 16-H ) :   0.8383
B( 15-O , 17-H ) :   0.7858 B( 18-O , 19-H ) :   0.8496 B( 18-O , 20-H ) :   0.7793
B( 21-O , 22-H ) :   0.7896 B( 21-O , 23-H ) :   0.8252 B( 24-O , 25-H ) :   0.8200
B( 24-O , 26-H ) :   0.8192 B( 24-O , 58-H ) :   0.1032 B( 27-O , 28-H ) :   0.8327
B( 27-O , 29-H ) :   0.7748 B( 30-O , 31-H ) :   0.8332 B( 30-O , 32-H ) :   0.8355
B( 33-O , 34-H ) :   0.7751 B( 33-O , 35-H ) :   0.7892 B( 33-O , 36-O ) :  -0.1075
B( 34-H , 36-O ) :   0.2129 B( 36-O , 37-H ) :   0.7851 B( 36-O , 38-H ) :   0.7959
B( 39-O , 40-H ) :   0.8269 B( 39-O , 41-H ) :   0.8142 B( 42-O , 43-H ) :   0.7682
B( 42-O , 44-H ) :   0.8420 B( 45-O , 46-H ) :   0.8308 B( 45-O , 47-H ) :   0.7630
B( 48-O , 49-H ) :   0.8169 B( 48-O , 50-H ) :   0.8372 B( 51-O , 52-H ) :   0.8365
B( 51-O , 53-H ) :   0.7879 B( 54-O , 55-H ) :   0.8495 B( 54-O , 56-H ) :   0.8066
B( 57-O , 58-H ) :   0.7491 B( 57-O , 59-H ) :   0.8357

Dispersion correction           -0.042340891
FINAL SINGLE POINT ENERGY     -1529.220975309998

DIPOLE MOMENT
-------------
                                X             Y             Z
Electronic contribution:     -0.04419      -0.04505       0.30145
Nuclear contribution   :     -0.50425      -0.54707       1.56309
                        -----------------------------------------
Total Dipole Moment    :     -0.54844      -0.59212       1.86454
                        -----------------------------------------
Magnitude (a.u.)       :      2.03172
Magnitude (Debye)      :      5.16423

                             ****ORCA TERMINATED NORMALLY****
TOTAL RUN TIME: 0 days 0 hours 49 minutes 51 seconds 627 msec
