                         Program Version 4.2.0 -  RELEASE  -
|  1> # 12meoh.boyd.etal.mol2,4,10
|  2> ! MP2 def2-TZVP EnGrad TightSCF
|  3>
|  4> %pal
|  5>     nprocs 6
|  6> end
|  7>
|  8> %maxcore 8000
|  9>
| 10> %scf
| 11>     ConvForced true
| 12> end
| 13>
| 14> *xyz 0 1
| 15> O  -3.839777402   2.233595098   0.660436763
| 16> H  -2.958345897   1.907036203   0.973588449
| 17> C  -3.600368059   3.168790682  -0.390480452
| 18> H  -4.551709193   3.344148967  -0.901254863
| 19> H  -2.868237594   2.789240199  -1.113617525
| 20> H  -3.243594915   4.128998607   0.009549480
| 21> O  -1.358578914   1.232360421   1.189721000
| 22> H  -1.058250183   1.216459361   0.238591307
| 23> C  -0.389763452   1.957872567   1.943072362
| 24> H  -0.747220771   2.012806578   2.975200343
| 25> H  -0.260410585   2.982763209   1.565366540
| 26> H   0.585220638   1.453754179   1.934070793
| 27> O  -5.201143618   0.064582726  -0.172223772
| 28> H  -4.686891530   0.869258890   0.107806143
| 29> C  -6.513192168   0.171391798   0.359883449
| 30> H  -7.049381312  -0.749234190   0.111361174
| 31> H  -7.057741163   1.017801101  -0.081819420
| 32> H  -6.514770575   0.292264928   1.453058834
| 33> *
| 34>
| 35>                          ****END OF INPUT****

CARTESIAN COORDINATES (ANGSTROEM)
---------------------------------
  O     -3.839777    2.233595    0.660437
  H     -2.958346    1.907036    0.973588
  C     -3.600368    3.168791   -0.390480
  H     -4.551709    3.344149   -0.901255
  H     -2.868238    2.789240   -1.113618
  H     -3.243595    4.128999    0.009549
  O     -1.358579    1.232360    1.189721
  H     -1.058250    1.216459    0.238591
  C     -0.389763    1.957873    1.943072
  H     -0.747221    2.012807    2.975200
  H     -0.260411    2.982763    1.565367
  H      0.585221    1.453754    1.934071
  O     -5.201144    0.064583   -0.172224
  H     -4.686892    0.869259    0.107806
  C     -6.513192    0.171392    0.359883
  H     -7.049381   -0.749234    0.111361
  H     -7.057741    1.017801   -0.081819
  H     -6.514771    0.292265    1.453059

 Total Charge           Charge          ....    0
 Multiplicity           Mult            ....    1
 Number of Electrons    NEL             ....   54
 Basis Dimension        Dim             ....  258

ORBITAL ENERGIES
----------------

  NO   OCC          E(Eh)            E(eV)
   0   2.0000     -20.598672      -560.5184
   1   2.0000     -20.553956      -559.3016
   2   2.0000     -20.502580      -557.9036
   3   2.0000     -11.298025      -307.4349
   4   2.0000     -11.277393      -306.8735
   5   2.0000     -11.239110      -305.8317
   6   2.0000      -1.390248       -37.8306
   7   2.0000      -1.353915       -36.8419
   8   2.0000      -1.300097       -35.3774
   9   2.0000      -0.949850       -25.8467
  10   2.0000      -0.926318       -25.2064
  11   2.0000      -0.885060       -24.0837
  12   2.0000      -0.719244       -19.5716
  13   2.0000      -0.706009       -19.2115
  14   2.0000      -0.660973       -17.9860
  15   2.0000      -0.643622       -17.5138
  16   2.0000      -0.622248       -16.9322
  17   2.0000      -0.616099       -16.7649
  18   2.0000      -0.590060       -16.0563
  19   2.0000      -0.580012       -15.7829
  20   2.0000      -0.551871       -15.0172
  21   2.0000      -0.537489       -14.6258
  22   2.0000      -0.511947       -13.9308
  23   2.0000      -0.480789       -13.0829
  24   2.0000      -0.470383       -12.7998
  25   2.0000      -0.438299       -11.9267
  26   2.0000      -0.405671       -11.0389
  27   0.0000       0.104989         2.8569
  28   0.0000       0.150164         4.0862
  29   0.0000       0.161602         4.3974
  30   0.0000       0.176610         4.8058
  31   0.0000       0.199758         5.4357

MULLIKEN ATOMIC CHARGES
-----------------------
   0 O :   -0.535049
   1 H :    0.370233
   2 C :   -0.197770
   3 H :    0.141573
   4 H :    0.103828
   5 H :    0.118485
   6 O :   -0.513681
   7 H :    0.342855
   8 C :   -0.189385
   9 H :    0.147488
  10 H :    0.124210
  11 H :    0.131423
  12 O :   -0.539079
  13 H :    0.346559
  14 C :   -0.155725
  15 H :    0.115176
  16 H :    0.089092
  17 H :    0.099767
Sum of atomic charges:    0.0000000

LOEWDIN ATOMIC CHARGES
----------------------
   0 O :   -0.082235
   1 H :    0.164902
   2 C :   -0.386510
   3 H :    0.113377
   4 H :    0.093622
   5 H :    0.100547
   6 O :   -0.075790
   7 H :    0.201046
   8 C :   -0.371500
   9 H :    0.116846
  10 H :    0.100798
  11 H :    0.105783
  12 O :   -0.126175
  13 H :    0.157461
  14 C :   -0.397238
  15 H :    0.103413
  16 H :    0.089129
  17 H :    0.092523

  Mayer bond orders larger than 0.100000
B(  0-O ,  1-H ) :   0.7694 B(  0-O ,  2-C ) :   0.8922 B(  0-O , 13-H ) :   0.1043
B(  2-C ,  3-H ) :   0.9427 B(  2-C ,  4-H ) :   0.9393 B(  2-C ,  5-H ) :   0.9356
B(  6-O ,  7-H ) :   0.8271 B(  6-O ,  8-C ) :   0.8712 B(  8-C ,  9-H ) :   0.9387
B(  8-C , 10-H ) :   0.9359 B(  8-C , 11-H ) :   0.9351 B( 12-O , 13-H ) :   0.7828
B( 12-O , 14-C ) :   0.9472 B( 14-C , 15-H ) :   0.9415 B( 14-C , 16-H ) :   0.9376
B( 14-C , 17-H ) :   0.9409

MP2 TOTAL ENERGY:     -346.540627473 Eh
FINAL SINGLE POINT ENERGY      -346.540627473362

DIPOLE MOMENT
-------------
                                X             Y             Z
Electronic contribution:      0.53475      -2.17102      -0.02539
Nuclear contribution   :      1.11928       3.35874       0.12791
                        -----------------------------------------
Total Dipole Moment    :      1.65404       1.18772       0.10252
                        -----------------------------------------
Magnitude (a.u.)       :      2.03888
Magnitude (Debye)      :      5.18242

Rotational constants in cm-1:     0.138449     0.032952     0.028461
Rotational constants in MHz :  4150.585728   987.873866   853.232498

                             ****ORCA TERMINATED NORMALLY****
TOTAL RUN TIME: 0 days 0 hours 1 minutes 47 seconds 182 msec
