                         Program Version 3.0.3 - RELEASE   -
|  1> ! wB97X-D3 MA-Def2-TZVP def2-TZVP/J RIJCOSX TightSCF Grid4
|  2>
|  3> %pal nprocs 1 end
|  4>
|  5> %scf
|  6>         maxiter 400
|  7> end
|  8>
|  9> %cosmo
| 10>         SMD true
| 11>         solvent "WATER"
| 12> end
| 13>
| 14> * xyz  0  1
| 15> O  3.088185	0.697903	-3.329725
| 16> H  3.625399	0.186353	-2.655801
| 17> H  3.715405	1.234928	-3.837189
| 18> O  -2.502075	-0.204269	-0.438944
| 19> H  -2.130489	-0.745252	0.305512
| 20> H  -3.191723	0.336874	0.016202
| 21> O  -0.450720	-0.568609	-2.309016
| 22> H  -1.325412	-0.353368	-1.922814
| 23> H  0.141670	0.180864	-2.036937
| 24> O  1.563550	-1.436864	-4.081843
| 25> H  0.704778	-1.166566	-3.697210
| 26> H  2.130202	-0.636119	-3.975145
| 27> O  2.469734	-2.896817	-2.020627
| 28> H  2.122972	-2.451133	-2.845745
| 29> H  2.772882	-3.772577	-2.305729
| 30> O  -3.875309	1.302774	1.321869
| 31> H  -4.784812	1.636072	1.272011
| 32> H  -3.317426	2.084967	1.601038
| 33> O  0.392708	0.539488	2.243482
| 34> H  -0.039578	0.881956	3.063522
| 35> H  -0.007442	1.082334	1.515240
| 36> O  -3.277970	-0.388785	3.381895
| 37> H  -2.706902	-1.014023	2.891258
| 38> H  -3.638713	0.185683	2.663533
| 39> O  -1.374369	1.387312	4.069644
| 40> H  -2.100469	0.712273	3.955578
| 41> H  -1.351946	1.608752	5.012893
| 42> O  1.272137	1.313088	-1.460966
| 43> H  1.922482	1.321478	-2.206528
| 44> H  1.710384	0.784236	-0.743068
| 45> O  -2.133501	3.169115	2.090459
| 46> H  -1.524779	2.894749	1.369826
| 47> H  -1.811921	2.673798	2.879255
| 48> O  -1.310990	-1.477618	1.653982
| 49> H  -0.648043	-0.791189	1.931613
| 50> H  -0.768309	-2.087697	1.112015
| 51> O  -0.778060	1.801249	0.176233
| 52> H  -0.087430	1.880152	-0.519064
| 53> H  -1.417622	1.120074	-0.153778
| 54> O  4.157133	-0.805754	-1.446327
| 55> H  3.680658	-0.532903	-0.633034
| 56> H  3.712517	-1.659031	-1.665395
| 57> O  2.229556	-0.333472	0.463623
| 58> H  1.851886	0.033889	1.292667
| 59> H  1.603660	-1.072325	0.235899
| 60> O  0.473556	-2.225684	-0.338022
| 61> H  1.160140	-2.734822	-0.832961
| 62> H  0.057782	-1.697027	-1.066656
| 63> **                         ****END OF INPUT****

CARTESIAN COORDINATES (ANGSTROEM)
---------------------------------
  O      3.088185    0.697903   -3.329725
  H      3.625399    0.186353   -2.655801
  H      3.715405    1.234928   -3.837189
  O     -2.502075   -0.204269   -0.438944
  H     -2.130489   -0.745252    0.305512
  H     -3.191723    0.336874    0.016202
  O     -0.450720   -0.568609   -2.309016
  H     -1.325412   -0.353368   -1.922814
  H      0.141670    0.180864   -2.036937
  O      1.563550   -1.436864   -4.081843
  H      0.704778   -1.166566   -3.697210
  H      2.130202   -0.636119   -3.975145
  O      2.469734   -2.896817   -2.020627
  H      2.122972   -2.451133   -2.845745
  H      2.772882   -3.772577   -2.305729
  O     -3.875309    1.302774    1.321869
  H     -4.784812    1.636072    1.272011
  H     -3.317426    2.084967    1.601038
  O      0.392708    0.539488    2.243482
  H     -0.039578    0.881956    3.063522
  H     -0.007442    1.082334    1.515240
  O     -3.277970   -0.388785    3.381895
  H     -2.706902   -1.014023    2.891258
  H     -3.638713    0.185683    2.663533
  O     -1.374369    1.387312    4.069644
  H     -2.100469    0.712273    3.955578
  H     -1.351946    1.608752    5.012893
  O      1.272137    1.313088   -1.460966
  H      1.922482    1.321478   -2.206528
  H      1.710384    0.784236   -0.743068
  O     -2.133501    3.169115    2.090459
  H     -1.524779    2.894749    1.369826
  H     -1.811921    2.673798    2.879255
  O     -1.310990   -1.477618    1.653982
  H     -0.648043   -0.791189    1.931613
  H     -0.768309   -2.087697    1.112015
  O     -0.778060    1.801249    0.176233
  H     -0.087430    1.880152   -0.519064
  H     -1.417622    1.120074   -0.153778
  O      4.157133   -0.805754   -1.446327
  H      3.680658   -0.532903   -0.633034
  H      3.712517   -1.659031   -1.665395
  O      2.229556   -0.333472    0.463623
  H      1.851886    0.033889    1.292667
  H      1.603660   -1.072325    0.235899
  O      0.473556   -2.225684   -0.338022
  H      1.160140   -2.734822   -0.832961
  H      0.057782   -1.697027   -1.066656

 Total Charge           Charge          ....    0
 Multiplicity           Mult            ....    1
 Number of Electrons    NEL             ....  160
 Basis Dimension        Dim             ....  752
Dispersion correction           -0.032104553
FINAL SINGLE POINT ENERGY     -1223.365678345396
                             ****ORCA TERMINATED NORMALLY****
TOTAL RUN TIME: 0 days 0 hours 33 minutes 32 seconds 672 msec

ORBITAL ENERGIES
----------------

  NO   OCC          E(Eh)            E(eV)
   0   2.0000     -19.243215      -523.6345
   1   2.0000     -19.243194      -523.6339
   2   2.0000     -19.241886      -523.5983
   3   2.0000     -19.241747      -523.5945
   4   2.0000     -19.241292      -523.5822
   5   2.0000     -19.238811      -523.5146
   6   2.0000     -19.238280      -523.5002
   7   2.0000     -19.237733      -523.4853
   8   2.0000     -19.237479      -523.4784
   9   2.0000     -19.235469      -523.4237
  10   2.0000     -19.235264      -523.4181
  11   2.0000     -19.235074      -523.4130
  12   2.0000     -19.233748      -523.3769
  13   2.0000     -19.233389      -523.3671
  14   2.0000     -19.232618      -523.3461
  15   2.0000     -19.231673      -523.3204
  16   2.0000      -1.157851       -31.5067
  17   2.0000      -1.149455       -31.2783
  18   2.0000      -1.140554       -31.0360
  19   2.0000      -1.139681       -31.0123
  20   2.0000      -1.138390       -30.9772
  21   2.0000      -1.133233       -30.8368
  22   2.0000      -1.132081       -30.8055
  23   2.0000      -1.131998       -30.8032
  24   2.0000      -1.122438       -30.5431
  25   2.0000      -1.121471       -30.5168
  26   2.0000      -1.119766       -30.4704
  27   2.0000      -1.116206       -30.3735
  28   2.0000      -1.115525       -30.3550
  29   2.0000      -1.113878       -30.3102
  30   2.0000      -1.106045       -30.0970
  31   2.0000      -1.099569       -29.9208
  32   2.0000      -0.662272       -18.0213
  33   2.0000      -0.654105       -17.7991
  34   2.0000      -0.650507       -17.7012
  35   2.0000      -0.646635       -17.5958
  36   2.0000      -0.643754       -17.5174
  37   2.0000      -0.642842       -17.4926
  38   2.0000      -0.640273       -17.4227
  39   2.0000      -0.639049       -17.3894
  40   2.0000      -0.633742       -17.2450
  41   2.0000      -0.631476       -17.1833
  42   2.0000      -0.630362       -17.1530
  43   2.0000      -0.629978       -17.1426
  44   2.0000      -0.627234       -17.0679
  45   2.0000      -0.622415       -16.9368
  46   2.0000      -0.621072       -16.9002
  47   2.0000      -0.618957       -16.8427
  48   2.0000      -0.580968       -15.8090
  49   2.0000      -0.559060       -15.2128
  50   2.0000      -0.549234       -14.9454
  51   2.0000      -0.543079       -14.7779
  52   2.0000      -0.532340       -14.4857
  53   2.0000      -0.527834       -14.3631
  54   2.0000      -0.521404       -14.1881
  55   2.0000      -0.518414       -14.1068
  56   2.0000      -0.503408       -13.6984
  57   2.0000      -0.502641       -13.6775
  58   2.0000      -0.499303       -13.5867
  59   2.0000      -0.496682       -13.5154
  60   2.0000      -0.482348       -13.1253
  61   2.0000      -0.476615       -12.9694
  62   2.0000      -0.472043       -12.8449
  63   2.0000      -0.456586       -12.4243
  64   2.0000      -0.434322       -11.8185
  65   2.0000      -0.432559       -11.7705
  66   2.0000      -0.432018       -11.7558
  67   2.0000      -0.430250       -11.7077
  68   2.0000      -0.429203       -11.6792
  69   2.0000      -0.427755       -11.6398
  70   2.0000      -0.427271       -11.6266
  71   2.0000      -0.425060       -11.5665
  72   2.0000      -0.424207       -11.5433
  73   2.0000      -0.423083       -11.5127
  74   2.0000      -0.422041       -11.4843
  75   2.0000      -0.420659       -11.4467
  76   2.0000      -0.419942       -11.4272
  77   2.0000      -0.419295       -11.4096
  78   2.0000      -0.418711       -11.3937
  79   2.0000      -0.417804       -11.3690
  80   0.0000       0.061135         1.6636
  81   0.0000       0.074594         2.0298
  82   0.0000       0.092439         2.5154
  83   0.0000       0.092762         2.5242
  84   0.0000       0.101797         2.7700

MULLIKEN ATOMIC CHARGES
-----------------------
   0 O :   -0.840505
   1 H :    0.439929
   2 H :    0.417201
   3 O :   -0.792314
   4 H :    0.427195
   5 H :    0.426080
   6 O :   -0.863224
   7 H :    0.425942
   8 H :    0.412306
   9 O :   -0.822593
  10 H :    0.424098
  11 H :    0.429630
  12 O :   -0.820279
  13 H :    0.417956
  14 H :    0.413938
  15 O :   -0.858840
  16 H :    0.417460
  17 H :    0.423235
  18 O :   -0.804678
  19 H :    0.442148
  20 H :    0.396272
  21 O :   -0.804388
  22 H :    0.423477
  23 H :    0.416289
  24 O :   -0.857687
  25 H :    0.428274
  26 H :    0.418460
  27 O :   -0.873568
  28 H :    0.446849
  29 H :    0.422492
  30 O :   -0.809269
  31 H :    0.420982
  32 H :    0.420150
  33 O :   -0.911818
  34 H :    0.420090
  35 H :    0.439840
  36 O :   -0.947979
  37 H :    0.453455
  38 H :    0.403835
  39 O :   -0.837450
  40 H :    0.427068
  41 H :    0.417103
  42 O :   -0.869205
  43 H :    0.450619
  44 H :    0.423036
  45 O :   -0.900258
  46 H :    0.438097
  47 H :    0.430551
Sum of atomic charges:   -0.0000000

LOEWDIN ATOMIC CHARGES
----------------------
   0 O :   -0.376200
   1 H :    0.193529
   2 H :    0.214856
   3 O :   -0.415851
   4 H :    0.193180
   5 H :    0.197137
   6 O :   -0.409266
   7 H :    0.203984
   8 H :    0.187859
   9 O :   -0.399314
  10 H :    0.201866
  11 H :    0.194683
  12 O :   -0.375609
  13 H :    0.195874
  14 H :    0.215239
  15 O :   -0.373596
  16 H :    0.216962
  17 H :    0.194721
  18 O :   -0.407601
  19 H :    0.198003
  20 H :    0.188445
  21 O :   -0.403690
  22 H :    0.201855
  23 H :    0.192633
  24 O :   -0.376221
  25 H :    0.197519
  26 H :    0.215845
  27 O :   -0.403855
  28 H :    0.198168
  29 H :    0.193138
  30 O :   -0.403176
  31 H :    0.193820
  32 H :    0.194369
  33 O :   -0.410980
  34 H :    0.192361
  35 H :    0.207170
  36 O :   -0.392058
  37 H :    0.200638
  38 H :    0.191058
  39 O :   -0.397411
  40 H :    0.199514
  41 H :    0.196025
  42 O :   -0.404521
  43 H :    0.204110
  44 H :    0.193210
  45 O :   -0.411926
  46 H :    0.199510
  47 H :    0.193992

  Mayer bond orders larger than 0.1
B(  0-O ,  1-H ) :   0.7751 B(  0-O ,  2-H ) :   0.8327 B(  3-O ,  4-H ) :   0.8101
B(  3-O ,  5-H ) :   0.8041 B(  6-O ,  7-H ) :   0.8317 B(  6-O ,  8-H ) :   0.8026
B(  9-O , 10-H ) :   0.8344 B(  9-O , 11-H ) :   0.8119 B( 12-O , 13-H ) :   0.7889
B( 12-O , 14-H ) :   0.8371 B( 15-O , 16-H ) :   0.8346 B( 15-O , 17-H ) :   0.7740
B( 18-O , 19-H ) :   0.7971 B( 18-O , 20-H ) :   0.8153 B( 21-O , 22-H ) :   0.8348
B( 21-O , 23-H ) :   0.8151 B( 24-O , 25-H ) :   0.7839 B( 24-O , 26-H ) :   0.8307
B( 27-O , 28-H ) :   0.7872 B( 27-O , 29-H ) :   0.8072 B( 30-O , 31-H ) :   0.8280
B( 30-O , 32-H ) :   0.8238 B( 33-O , 34-H ) :   0.8004 B( 33-O , 35-H ) :   0.8251
B( 36-O , 37-H ) :   0.7978 B( 36-O , 38-H ) :   0.7932 B( 39-O , 40-H ) :   0.8271
B( 39-O , 41-H ) :   0.8169 B( 42-O , 43-H ) :   0.8069 B( 42-O , 44-H ) :   0.7950
B( 45-O , 46-H ) :   0.8113 B( 45-O , 47-H ) :   0.8156

Dispersion correction           -0.032104553
FINAL SINGLE POINT ENERGY     -1223.365678345396

DIPOLE MOMENT
-------------
                                X             Y             Z
Electronic contribution:      0.11993       0.06905      -0.00624
Nuclear contribution   :      0.14372       0.31570       0.05791
                        -----------------------------------------
Total Dipole Moment    :      0.26366       0.38476       0.05167
                        -----------------------------------------
Magnitude (a.u.)       :      0.46928
Magnitude (Debye)      :      1.19281

                             ****ORCA TERMINATED NORMALLY****
TOTAL RUN TIME: 0 days 0 hours 29 minutes 5 seconds 411 msec
