                         Program Version 3.0.3 - RELEASE   -
|  1> ! B3LYP Def2-TZVP def2-TZVP/J RIJCOSX TightSCF Grid4 D3BJ
|  2>
|  3> %pal nprocs 12 end
|  4>
|  5> %scf
|  6>         maxiter 400
|  7> end
|  8>
|  9> * xyz  0  1
| 10> O  2.998958	0.510510	-3.197062
| 11> H  3.521012	-0.065511	-2.494855
| 12> H  3.678480	0.947449	-3.742386
| 13> O  -2.251660	0.172326	-0.376611
| 14> H  -1.880394	-0.475566	0.313349
| 15> H  -3.109474	0.480148	0.037896
| 16> O  -0.437804	-0.551660	-2.173738
| 17> H  -1.321743	-0.308181	-1.780758
| 18> H  0.156301	0.237316	-1.933861
| 19> O  1.373132	-1.549507	-3.929290
| 20> H  0.529044	-1.239433	-3.501555
| 21> H  1.963961	-0.745730	-3.862571
| 22> O  2.435285	-3.007246	-2.112464
| 23> H  1.997812	-2.481976	-2.906035
| 24> H  2.673789	-3.883090	-2.467134
| 25> O  -4.051709	1.108132	1.331190
| 26> H  -4.972220	1.417837	1.248978
| 27> H  -3.489158	1.943686	1.615868
| 28> O  0.448564	0.664142	2.175015
| 29> H  -0.013520	0.945657	3.017030
| 30> H  0.077972	1.312900	1.486128
| 31> O  -2.992611	-0.517858	3.249225
| 32> H  -2.406331	-1.086770	2.680414
| 33> H  -3.550674	-0.024802	2.583124
| 34> O  -1.411290	1.371059	3.945850
| 35> H  -2.068113	0.578481	3.753848
| 36> H  -1.416395	1.505271	4.911271
| 37> O  1.227243	1.362464	-1.404589
| 38> H  1.891405	1.336765	-2.153204
| 39> H  1.674987	0.802335	-0.683548
| 40> O  -2.517409	3.017098	2.075880
| 41> H  -1.794946	3.007534	1.391781
| 42> H  -2.088528	2.573244	2.862188
| 43> O  -1.123656	-1.354423	1.476893
| 44> H  -0.475124	-0.639391	1.795487
| 45> H  -0.551735	-1.972677	0.943760
| 46> O  -0.650582	2.181502	0.296533
| 47> H  0.043152	2.220533	-0.418387
| 48> H  -1.291454	1.462867	-0.027980
| 49> O  4.100485	-0.965010	-1.419145
| 50> H  3.656898	-0.673909	-0.577144
| 51> H  3.649929	-1.834018	-1.621026
| 52> O  2.244519	-0.258311	0.431339
| 53> H  1.869542	0.085084	1.287474
| 54> H  1.642226	-1.045751	0.205698
| 55> O  0.609625	-2.184374	-0.362869
| 56> H  1.244204	-2.754167	-0.887656
| 57> H  0.161369	-1.626524	-1.085626
| 58> **                         ****END OF INPUT****

CARTESIAN COORDINATES (ANGSTROEM)
---------------------------------
  O      2.998958    0.510510   -3.197062
  H      3.521012   -0.065511   -2.494855
  H      3.678480    0.947449   -3.742386
  O     -2.251660    0.172326   -0.376611
  H     -1.880394   -0.475566    0.313349
  H     -3.109474    0.480148    0.037896
  O     -0.437804   -0.551660   -2.173738
  H     -1.321743   -0.308181   -1.780758
  H      0.156301    0.237316   -1.933861
  O      1.373132   -1.549507   -3.929290
  H      0.529044   -1.239433   -3.501555
  H      1.963961   -0.745730   -3.862571
  O      2.435285   -3.007246   -2.112464
  H      1.997812   -2.481976   -2.906035
  H      2.673789   -3.883090   -2.467134
  O     -4.051709    1.108132    1.331190
  H     -4.972220    1.417837    1.248978
  H     -3.489158    1.943686    1.615868
  O      0.448564    0.664142    2.175015
  H     -0.013520    0.945657    3.017030
  H      0.077972    1.312900    1.486128
  O     -2.992611   -0.517858    3.249225
  H     -2.406331   -1.086770    2.680414
  H     -3.550674   -0.024802    2.583124
  O     -1.411290    1.371059    3.945850
  H     -2.068113    0.578481    3.753848
  H     -1.416395    1.505271    4.911271
  O      1.227243    1.362464   -1.404589
  H      1.891405    1.336765   -2.153204
  H      1.674987    0.802335   -0.683548
  O     -2.517409    3.017098    2.075880
  H     -1.794946    3.007534    1.391781
  H     -2.088528    2.573244    2.862188
  O     -1.123656   -1.354423    1.476893
  H     -0.475124   -0.639391    1.795487
  H     -0.551735   -1.972677    0.943760
  O     -0.650582    2.181502    0.296533
  H      0.043152    2.220533   -0.418387
  H     -1.291454    1.462867   -0.027980
  O      4.100485   -0.965010   -1.419145
  H      3.656898   -0.673909   -0.577144
  H      3.649929   -1.834018   -1.621026
  O      2.244519   -0.258311    0.431339
  H      1.869542    0.085084    1.287474
  H      1.642226   -1.045751    0.205698
  O      0.609625   -2.184374   -0.362869
  H      1.244204   -2.754167   -0.887656
  H      0.161369   -1.626524   -1.085626

 Total Charge           Charge          ....    0
 Multiplicity           Mult            ....    1
 Number of Electrons    NEL             ....  160
 Basis Dimension        Dim             ....  688

ORBITAL ENERGIES
----------------

  NO   OCC          E(Eh)            E(eV)
   0   2.0000     -19.143892      -520.9318
   1   2.0000     -19.143856      -520.9308
   2   2.0000     -19.143499      -520.9211
   3   2.0000     -19.143117      -520.9107
   4   2.0000     -19.131213      -520.5868
   5   2.0000     -19.131162      -520.5854
   6   2.0000     -19.130941      -520.5794
   7   2.0000     -19.130310      -520.5622
   8   2.0000     -19.130042      -520.5549
   9   2.0000     -19.130026      -520.5545
  10   2.0000     -19.129921      -520.5516
  11   2.0000     -19.129810      -520.5486
  12   2.0000     -19.127703      -520.4913
  13   2.0000     -19.127663      -520.4902
  14   2.0000     -19.127535      -520.4867
  15   2.0000     -19.127226      -520.4783
  16   2.0000      -1.043275       -28.3890
  17   2.0000      -1.037087       -28.2206
  18   2.0000      -1.027010       -27.9464
  19   2.0000      -1.024867       -27.8881
  20   2.0000      -1.024691       -27.8833
  21   2.0000      -1.016548       -27.6617
  22   2.0000      -1.016146       -27.6507
  23   2.0000      -1.015932       -27.6449
  24   2.0000      -1.004763       -27.3410
  25   2.0000      -1.004581       -27.3360
  26   2.0000      -1.001092       -27.2411
  27   2.0000      -0.995785       -27.0967
  28   2.0000      -0.995586       -27.0913
  29   2.0000      -0.995380       -27.0857
  30   2.0000      -0.986345       -26.8398
  31   2.0000      -0.976269       -26.5656
  32   2.0000      -0.554559       -15.0903
  33   2.0000      -0.552615       -15.0374
  34   2.0000      -0.552360       -15.0305
  35   2.0000      -0.550790       -14.9878
  36   2.0000      -0.548526       -14.9261
  37   2.0000      -0.542438       -14.7605
  38   2.0000      -0.541697       -14.7403
  39   2.0000      -0.540161       -14.6985
  40   2.0000      -0.531126       -14.4527
  41   2.0000      -0.527634       -14.3577
  42   2.0000      -0.527127       -14.3439
  43   2.0000      -0.523694       -14.2504
  44   2.0000      -0.521611       -14.1937
  45   2.0000      -0.516812       -14.0632
  46   2.0000      -0.516112       -14.0441
  47   2.0000      -0.514885       -14.0107
  48   2.0000      -0.486043       -13.2259
  49   2.0000      -0.466176       -12.6853
  50   2.0000      -0.445126       -12.1125
  51   2.0000      -0.443565       -12.0700
  52   2.0000      -0.437548       -11.9063
  53   2.0000      -0.429444       -11.6858
  54   2.0000      -0.423727       -11.5302
  55   2.0000      -0.419991       -11.4285
  56   2.0000      -0.406983       -11.0746
  57   2.0000      -0.402985       -10.9658
  58   2.0000      -0.401875       -10.9356
  59   2.0000      -0.399383       -10.8678
  60   2.0000      -0.382030       -10.3956
  61   2.0000      -0.378408       -10.2970
  62   2.0000      -0.370064       -10.0700
  63   2.0000      -0.350930        -9.5493
  64   2.0000      -0.338491        -9.2108
  65   2.0000      -0.336168        -9.1476
  66   2.0000      -0.335853        -9.1390
  67   2.0000      -0.333847        -9.0844
  68   2.0000      -0.330677        -8.9982
  69   2.0000      -0.328874        -8.9491
  70   2.0000      -0.326820        -8.8932
  71   2.0000      -0.326424        -8.8824
  72   2.0000      -0.325413        -8.8549
  73   2.0000      -0.324377        -8.8267
  74   2.0000      -0.321747        -8.7552
  75   2.0000      -0.319939        -8.7060
  76   2.0000      -0.319363        -8.6903
  77   2.0000      -0.319032        -8.6813
  78   2.0000      -0.318362        -8.6631
  79   2.0000      -0.317666        -8.6441
  80   0.0000      -0.001164        -0.0317
  81   0.0000       0.010226         0.2783
  82   0.0000       0.028959         0.7880
  83   0.0000       0.029262         0.7963
  84   0.0000       0.048367         1.3161

MULLIKEN ATOMIC CHARGES
-----------------------
   0 O :   -0.742021
   1 H :    0.367188
   2 H :    0.334982
   3 O :   -0.747741
   4 H :    0.360583
   5 H :    0.371847
   6 O :   -0.748537
   7 H :    0.387517
   8 H :    0.355691
   9 O :   -0.678991
  10 H :    0.381805
  11 H :    0.358789
  12 O :   -0.742311
  13 H :    0.368154
  14 H :    0.335059
  15 O :   -0.741606
  16 H :    0.335336
  17 H :    0.367622
  18 O :   -0.746171
  19 H :    0.370796
  20 H :    0.361458
  21 O :   -0.679327
  22 H :    0.380969
  23 H :    0.360119
  24 O :   -0.742852
  25 H :    0.368909
  26 H :    0.335857
  27 O :   -0.746585
  28 H :    0.373340
  29 H :    0.355805
  30 O :   -0.678737
  31 H :    0.380270
  32 H :    0.359370
  33 O :   -0.747535
  34 H :    0.352580
  35 H :    0.387330
  36 O :   -0.747256
  37 H :    0.387293
  38 H :    0.351256
  39 O :   -0.677956
  40 H :    0.381113
  41 H :    0.359717
  42 O :   -0.746633
  43 H :    0.386002
  44 H :    0.356376
  45 O :   -0.746900
  46 H :    0.373087
  47 H :    0.354942
Sum of atomic charges:   -0.0000000

LOEWDIN ATOMIC CHARGES
----------------------
   0 O :   -0.315653
   1 H :    0.143214
   2 H :    0.160461
   3 O :   -0.303503
   4 H :    0.138948
   5 H :    0.146644
   6 O :   -0.299799
   7 H :    0.154868
   8 H :    0.137859
   9 O :   -0.269444
  10 H :    0.155266
  11 H :    0.147506
  12 O :   -0.314834
  13 H :    0.143667
  14 H :    0.160520
  15 O :   -0.313747
  16 H :    0.160811
  17 H :    0.143473
  18 O :   -0.304705
  19 H :    0.147581
  20 H :    0.138870
  21 O :   -0.268656
  22 H :    0.154891
  23 H :    0.147254
  24 O :   -0.314339
  25 H :    0.144192
  26 H :    0.160753
  27 O :   -0.303829
  28 H :    0.148165
  29 H :    0.138466
  30 O :   -0.268713
  31 H :    0.155107
  32 H :    0.146707
  33 O :   -0.298818
  34 H :    0.137882
  35 H :    0.155256
  36 O :   -0.299361
  37 H :    0.155739
  38 H :    0.137851
  39 O :   -0.268137
  40 H :    0.155255
  41 H :    0.147642
  42 O :   -0.298028
  43 H :    0.155759
  44 H :    0.138233
  45 O :   -0.303717
  46 H :    0.147660
  47 H :    0.138786

  Mayer bond orders larger than 0.1
B(  0-O ,  1-H ) :   0.6931 B(  0-O ,  2-H ) :   0.8866 B(  0-O , 11-H ) :   0.1058
B(  0-O , 28-H ) :   0.1091 B(  1-H , 39-O ) :   0.2233 B(  3-O ,  4-H ) :   0.7536
B(  3-O ,  5-H ) :   0.7950 B(  3-O , 38-H ) :   0.1655 B(  4-H , 33-O ) :   0.1616
B(  5-H , 15-O ) :   0.1147 B(  6-O ,  7-H ) :   0.8019 B(  6-O ,  8-H ) :   0.7540
B(  6-O , 47-H ) :   0.1634 B(  8-H , 27-O ) :   0.1651 B(  9-O , 10-H ) :   0.8163
B(  9-O , 11-H ) :   0.8133 B(  9-O , 13-H ) :   0.2227 B( 12-O , 13-H ) :   0.6931
B( 12-O , 14-H ) :   0.8865 B( 12-O , 41-H ) :   0.1042 B( 12-O , 46-H ) :   0.1112
B( 15-O , 16-H ) :   0.8863 B( 15-O , 17-H ) :   0.6935 B( 15-O , 23-H ) :   0.1041
B( 17-H , 30-O ) :   0.2232 B( 18-O , 19-H ) :   0.7987 B( 18-O , 20-H ) :   0.7545
B( 18-O , 34-H ) :   0.1672 B( 19-H , 24-O ) :   0.1113 B( 20-H , 36-O ) :   0.1601
B( 21-O , 22-H ) :   0.8163 B( 21-O , 23-H ) :   0.8137 B( 21-O , 25-H ) :   0.2217
B( 24-O , 25-H ) :   0.6936 B( 24-O , 26-H ) :   0.8859 B( 24-O , 32-H ) :   0.1073
B( 27-O , 28-H ) :   0.7977 B( 27-O , 29-H ) :   0.7542 B( 29-H , 42-O ) :   0.1620
B( 30-O , 31-H ) :   0.8173 B( 30-O , 32-H ) :   0.8122 B( 33-O , 34-H ) :   0.7535
B( 33-O , 35-H ) :   0.8036 B( 36-O , 37-H ) :   0.8037 B( 36-O , 38-H ) :   0.7550
B( 39-O , 40-H ) :   0.8171 B( 39-O , 41-H ) :   0.8136 B( 42-O , 43-H ) :   0.8060
B( 42-O , 44-H ) :   0.7535 B( 44-H , 45-O ) :   0.1649 B( 45-O , 46-H ) :   0.7965
B( 45-O , 47-H ) :   0.7539

Dispersion correction           -0.063305225
FINAL SINGLE POINT ENERGY     -1223.121358548473

DIPOLE MOMENT
-------------
                                X             Y             Z
Electronic contribution:     -0.00272      -0.00108       0.01499
Nuclear contribution   :      0.00008       0.00160      -0.01810
                        -----------------------------------------
Total Dipole Moment    :     -0.00264       0.00052      -0.00311
                        -----------------------------------------
Magnitude (a.u.)       :      0.00411
Magnitude (Debye)      :      0.01045

                             ****ORCA TERMINATED NORMALLY****
TOTAL RUN TIME: 0 days 0 hours 1 minutes 56 seconds 124 msec
