                         Program Version 3.0.3 - RELEASE   -
|  1> ! wB97X-D3 Def2-TZVP def2-TZVP/J RIJCOSX TightSCF Grid4
|  2>
|  3> %pal nprocs 12 end
|  4>
|  5> %scf
|  6>         maxiter 400
|  7> end
|  8>
|  9> * xyz  0  1
| 10> O  2.998958	0.510510	-3.197062
| 11> H  3.521012	-0.065511	-2.494855
| 12> H  3.678480	0.947449	-3.742386
| 13> O  -2.251660	0.172326	-0.376611
| 14> H  -1.880394	-0.475566	0.313349
| 15> H  -3.109474	0.480148	0.037896
| 16> O  -0.437804	-0.551660	-2.173738
| 17> H  -1.321743	-0.308181	-1.780758
| 18> H  0.156301	0.237316	-1.933861
| 19> O  1.373132	-1.549507	-3.929290
| 20> H  0.529044	-1.239433	-3.501555
| 21> H  1.963961	-0.745730	-3.862571
| 22> O  2.435285	-3.007246	-2.112464
| 23> H  1.997812	-2.481976	-2.906035
| 24> H  2.673789	-3.883090	-2.467134
| 25> O  -4.051709	1.108132	1.331190
| 26> H  -4.972220	1.417837	1.248978
| 27> H  -3.489158	1.943686	1.615868
| 28> O  0.448564	0.664142	2.175015
| 29> H  -0.013520	0.945657	3.017030
| 30> H  0.077972	1.312900	1.486128
| 31> O  -2.992611	-0.517858	3.249225
| 32> H  -2.406331	-1.086770	2.680414
| 33> H  -3.550674	-0.024802	2.583124
| 34> O  -1.411290	1.371059	3.945850
| 35> H  -2.068113	0.578481	3.753848
| 36> H  -1.416395	1.505271	4.911271
| 37> O  1.227243	1.362464	-1.404589
| 38> H  1.891405	1.336765	-2.153204
| 39> H  1.674987	0.802335	-0.683548
| 40> O  -2.517409	3.017098	2.075880
| 41> H  -1.794946	3.007534	1.391781
| 42> H  -2.088528	2.573244	2.862188
| 43> O  -1.123656	-1.354423	1.476893
| 44> H  -0.475124	-0.639391	1.795487
| 45> H  -0.551735	-1.972677	0.943760
| 46> O  -0.650582	2.181502	0.296533
| 47> H  0.043152	2.220533	-0.418387
| 48> H  -1.291454	1.462867	-0.027980
| 49> O  4.100485	-0.965010	-1.419145
| 50> H  3.656898	-0.673909	-0.577144
| 51> H  3.649929	-1.834018	-1.621026
| 52> O  2.244519	-0.258311	0.431339
| 53> H  1.869542	0.085084	1.287474
| 54> H  1.642226	-1.045751	0.205698
| 55> O  0.609625	-2.184374	-0.362869
| 56> H  1.244204	-2.754167	-0.887656
| 57> H  0.161369	-1.626524	-1.085626
| 58> **                         ****END OF INPUT****

CARTESIAN COORDINATES (ANGSTROEM)
---------------------------------
  O      2.998958    0.510510   -3.197062
  H      3.521012   -0.065511   -2.494855
  H      3.678480    0.947449   -3.742386
  O     -2.251660    0.172326   -0.376611
  H     -1.880394   -0.475566    0.313349
  H     -3.109474    0.480148    0.037896
  O     -0.437804   -0.551660   -2.173738
  H     -1.321743   -0.308181   -1.780758
  H      0.156301    0.237316   -1.933861
  O      1.373132   -1.549507   -3.929290
  H      0.529044   -1.239433   -3.501555
  H      1.963961   -0.745730   -3.862571
  O      2.435285   -3.007246   -2.112464
  H      1.997812   -2.481976   -2.906035
  H      2.673789   -3.883090   -2.467134
  O     -4.051709    1.108132    1.331190
  H     -4.972220    1.417837    1.248978
  H     -3.489158    1.943686    1.615868
  O      0.448564    0.664142    2.175015
  H     -0.013520    0.945657    3.017030
  H      0.077972    1.312900    1.486128
  O     -2.992611   -0.517858    3.249225
  H     -2.406331   -1.086770    2.680414
  H     -3.550674   -0.024802    2.583124
  O     -1.411290    1.371059    3.945850
  H     -2.068113    0.578481    3.753848
  H     -1.416395    1.505271    4.911271
  O      1.227243    1.362464   -1.404589
  H      1.891405    1.336765   -2.153204
  H      1.674987    0.802335   -0.683548
  O     -2.517409    3.017098    2.075880
  H     -1.794946    3.007534    1.391781
  H     -2.088528    2.573244    2.862188
  O     -1.123656   -1.354423    1.476893
  H     -0.475124   -0.639391    1.795487
  H     -0.551735   -1.972677    0.943760
  O     -0.650582    2.181502    0.296533
  H      0.043152    2.220533   -0.418387
  H     -1.291454    1.462867   -0.027980
  O      4.100485   -0.965010   -1.419145
  H      3.656898   -0.673909   -0.577144
  H      3.649929   -1.834018   -1.621026
  O      2.244519   -0.258311    0.431339
  H      1.869542    0.085084    1.287474
  H      1.642226   -1.045751    0.205698
  O      0.609625   -2.184374   -0.362869
  H      1.244204   -2.754167   -0.887656
  H      0.161369   -1.626524   -1.085626

 Total Charge           Charge          ....    0
 Multiplicity           Mult            ....    1
 Number of Electrons    NEL             ....  160
 Basis Dimension        Dim             ....  688

ORBITAL ENERGIES
----------------

  NO   OCC          E(Eh)            E(eV)
   0   2.0000     -19.251476      -523.8593
   1   2.0000     -19.251428      -523.8580
   2   2.0000     -19.251021      -523.8469
   3   2.0000     -19.250672      -523.8374
   4   2.0000     -19.239715      -523.5393
   5   2.0000     -19.239704      -523.5390
   6   2.0000     -19.239486      -523.5330
   7   2.0000     -19.238814      -523.5147
   8   2.0000     -19.238577      -523.5083
   9   2.0000     -19.238530      -523.5070
  10   2.0000     -19.238468      -523.5053
  11   2.0000     -19.238290      -523.5005
  12   2.0000     -19.235666      -523.4291
  13   2.0000     -19.235589      -523.4270
  14   2.0000     -19.235515      -523.4250
  15   2.0000     -19.235156      -523.4152
  16   2.0000      -1.160391       -31.5758
  17   2.0000      -1.153619       -31.3916
  18   2.0000      -1.143229       -31.1089
  19   2.0000      -1.141063       -31.0499
  20   2.0000      -1.140861       -31.0444
  21   2.0000      -1.132621       -30.8202
  22   2.0000      -1.132282       -30.8110
  23   2.0000      -1.132077       -30.8054
  24   2.0000      -1.120511       -30.4907
  25   2.0000      -1.120321       -30.4855
  26   2.0000      -1.116965       -30.3942
  27   2.0000      -1.111237       -30.2383
  28   2.0000      -1.111144       -30.2358
  29   2.0000      -1.110936       -30.2301
  30   2.0000      -1.101638       -29.9771
  31   2.0000      -1.091519       -29.7017
  32   2.0000      -0.659021       -17.9329
  33   2.0000      -0.658093       -17.9076
  34   2.0000      -0.656966       -17.8770
  35   2.0000      -0.655363       -17.8333
  36   2.0000      -0.653301       -17.7772
  37   2.0000      -0.646587       -17.5945
  38   2.0000      -0.646185       -17.5836
  39   2.0000      -0.644021       -17.5247
  40   2.0000      -0.636211       -17.3122
  41   2.0000      -0.631691       -17.1892
  42   2.0000      -0.631131       -17.1740
  43   2.0000      -0.628341       -17.0980
  44   2.0000      -0.624896       -17.0043
  45   2.0000      -0.620423       -16.8826
  46   2.0000      -0.619477       -16.8568
  47   2.0000      -0.618329       -16.8256
  48   2.0000      -0.593029       -16.1371
  49   2.0000      -0.571272       -15.5451
  50   2.0000      -0.548899       -14.9363
  51   2.0000      -0.547487       -14.8979
  52   2.0000      -0.539458       -14.6794
  53   2.0000      -0.532183       -14.4814
  54   2.0000      -0.525938       -14.3115
  55   2.0000      -0.523628       -14.2486
  56   2.0000      -0.507999       -13.8234
  57   2.0000      -0.502742       -13.6803
  58   2.0000      -0.502722       -13.6798
  59   2.0000      -0.501307       -13.6413
  60   2.0000      -0.481569       -13.1042
  61   2.0000      -0.477520       -12.9940
  62   2.0000      -0.469867       -12.7857
  63   2.0000      -0.449074       -12.2199
  64   2.0000      -0.437029       -11.8922
  65   2.0000      -0.434374       -11.8199
  66   2.0000      -0.434096       -11.8124
  67   2.0000      -0.432024       -11.7560
  68   2.0000      -0.429409       -11.6848
  69   2.0000      -0.427044       -11.6205
  70   2.0000      -0.425180       -11.5697
  71   2.0000      -0.424963       -11.5638
  72   2.0000      -0.423704       -11.5296
  73   2.0000      -0.422783       -11.5045
  74   2.0000      -0.420096       -11.4314
  75   2.0000      -0.418229       -11.3806
  76   2.0000      -0.417717       -11.3667
  77   2.0000      -0.417145       -11.3511
  78   2.0000      -0.416446       -11.3321
  79   2.0000      -0.415537       -11.3073
  80   0.0000       0.079622         2.1666
  81   0.0000       0.095015         2.5855
  82   0.0000       0.117250         3.1905
  83   0.0000       0.117548         3.1987
  84   0.0000       0.132438         3.6038

MULLIKEN ATOMIC CHARGES
-----------------------
   0 O :   -0.771415
   1 H :    0.370404
   2 H :    0.355556
   3 O :   -0.761989
   4 H :    0.359129
   5 H :    0.386796
   6 O :   -0.763744
   7 H :    0.404293
   8 H :    0.354467
   9 O :   -0.690989
  10 H :    0.392751
  11 H :    0.366200
  12 O :   -0.771873
  13 H :    0.371511
  14 H :    0.355657
  15 O :   -0.771426
  16 H :    0.356076
  17 H :    0.371465
  18 O :   -0.760247
  19 H :    0.385433
  20 H :    0.360355
  21 O :   -0.691777
  22 H :    0.392157
  23 H :    0.367619
  24 O :   -0.772693
  25 H :    0.373146
  26 H :    0.356583
  27 O :   -0.761346
  28 H :    0.388474
  29 H :    0.354229
  30 O :   -0.690413
  31 H :    0.391266
  32 H :    0.366197
  33 O :   -0.762836
  34 H :    0.350637
  35 H :    0.404260
  36 O :   -0.762065
  37 H :    0.404194
  38 H :    0.348773
  39 O :   -0.689997
  40 H :    0.392202
  41 H :    0.367156
  42 O :   -0.761980
  43 H :    0.402800
  44 H :    0.354935
  45 O :   -0.761523
  46 H :    0.388256
  47 H :    0.353336
Sum of atomic charges:   -0.0000000

LOEWDIN ATOMIC CHARGES
----------------------
   0 O :   -0.321067
   1 H :    0.144365
   2 H :    0.163782
   3 O :   -0.307180
   4 H :    0.139942
   5 H :    0.149115
   6 O :   -0.303364
   7 H :    0.157463
   8 H :    0.138876
   9 O :   -0.271335
  10 H :    0.156872
  11 H :    0.148875
  12 O :   -0.320253
  13 H :    0.144836
  14 H :    0.163830
  15 O :   -0.319138
  16 H :    0.164157
  17 H :    0.144674
  18 O :   -0.308328
  19 H :    0.150011
  20 H :    0.139853
  21 O :   -0.270547
  22 H :    0.156503
  23 H :    0.148614
  24 O :   -0.319717
  25 H :    0.145435
  26 H :    0.164097
  27 O :   -0.307567
  28 H :    0.150694
  29 H :    0.139413
  30 O :   -0.270540
  31 H :    0.156757
  32 H :    0.147977
  33 O :   -0.302410
  34 H :    0.138851
  35 H :    0.157874
  36 O :   -0.302934
  37 H :    0.158392
  38 H :    0.138775
  39 O :   -0.270026
  40 H :    0.156842
  41 H :    0.149001
  42 O :   -0.301583
  43 H :    0.158373
  44 H :    0.139253
  45 O :   -0.307427
  46 H :    0.150149
  47 H :    0.139767

  Mayer bond orders larger than 0.1
B(  0-O ,  1-H ) :   0.6974 B(  0-O ,  2-H ) :   0.8775 B(  0-O , 28-H ) :   0.1003
B(  1-H , 39-O ) :   0.2172 B(  3-O ,  4-H ) :   0.7581 B(  3-O ,  5-H ) :   0.7912
B(  3-O , 38-H ) :   0.1621 B(  4-H , 33-O ) :   0.1581 B(  5-H , 15-O ) :   0.1058
B(  6-O ,  7-H ) :   0.7970 B(  6-O ,  8-H ) :   0.7587 B(  6-O , 47-H ) :   0.1601
B(  8-H , 27-O ) :   0.1610 B(  9-O , 10-H ) :   0.8145 B(  9-O , 11-H ) :   0.8136
B(  9-O , 13-H ) :   0.2167 B( 12-O , 13-H ) :   0.6975 B( 12-O , 14-H ) :   0.8773
B( 12-O , 46-H ) :   0.1021 B( 15-O , 16-H ) :   0.8771 B( 15-O , 17-H ) :   0.6976
B( 17-H , 30-O ) :   0.2170 B( 18-O , 19-H ) :   0.7951 B( 18-O , 20-H ) :   0.7588
B( 18-O , 34-H ) :   0.1636 B( 19-H , 24-O ) :   0.1026 B( 20-H , 36-O ) :   0.1565
B( 21-O , 22-H ) :   0.8145 B( 21-O , 23-H ) :   0.8138 B( 21-O , 25-H ) :   0.2152
B( 24-O , 25-H ) :   0.6978 B( 24-O , 26-H ) :   0.8767 B( 27-O , 28-H ) :   0.7937
B( 27-O , 29-H ) :   0.7587 B( 29-H , 42-O ) :   0.1587 B( 30-O , 31-H ) :   0.8155
B( 30-O , 32-H ) :   0.8128 B( 33-O , 34-H ) :   0.7584 B( 33-O , 35-H ) :   0.7987
B( 36-O , 37-H ) :   0.7988 B( 36-O , 38-H ) :   0.7601 B( 39-O , 40-H ) :   0.8151
B( 39-O , 41-H ) :   0.8140 B( 42-O , 43-H ) :   0.8011 B( 42-O , 44-H ) :   0.7583
B( 44-H , 45-O ) :   0.1608 B( 45-O , 46-H ) :   0.7927 B( 45-O , 47-H ) :   0.7584

Dispersion correction           -0.033082512
FINAL SINGLE POINT ENERGY     -1223.301562947049

DIPOLE MOMENT
-------------
                                X             Y             Z
Electronic contribution:     -0.00379      -0.00043       0.01555
Nuclear contribution   :      0.00008       0.00160      -0.01810
                        -----------------------------------------
Total Dipole Moment    :     -0.00371       0.00118      -0.00255
                        -----------------------------------------
Magnitude (a.u.)       :      0.00465
Magnitude (Debye)      :      0.01182

                             ****ORCA TERMINATED NORMALLY****
TOTAL RUN TIME: 0 days 0 hours 2 minutes 8 seconds 814 msec
