                         Program Version 3.0.3 - RELEASE   -
|  1> ! B3LYP Def2-TZVP def2-TZVP/J RIJCOSX TightSCF Grid4 D3BJ COSMO
|  2>
|  3> %pal nprocs 12 end
|  4>
|  5> %scf
|  6>         maxiter 400
|  7> end
|  8>
|  9> %cosmo
| 10>         SMD true
| 11>         solvent "WATER"
| 12> end
| 13>
| 14> * xyz  0  1
| 15> O  3.088185	0.697903	-3.329725
| 16> H  3.625399	0.186353	-2.655801
| 17> H  3.715405	1.234928	-3.837189
| 18> O  -2.502075	-0.204269	-0.438944
| 19> H  -2.130489	-0.745252	0.305512
| 20> H  -3.191723	0.336874	0.016202
| 21> O  -0.450720	-0.568609	-2.309016
| 22> H  -1.325412	-0.353368	-1.922814
| 23> H  0.141670	0.180864	-2.036937
| 24> O  1.563550	-1.436864	-4.081843
| 25> H  0.704778	-1.166566	-3.697210
| 26> H  2.130202	-0.636119	-3.975145
| 27> O  2.469734	-2.896817	-2.020627
| 28> H  2.122972	-2.451133	-2.845745
| 29> H  2.772882	-3.772577	-2.305729
| 30> O  -3.875309	1.302774	1.321869
| 31> H  -4.784812	1.636072	1.272011
| 32> H  -3.317426	2.084967	1.601038
| 33> O  0.392708	0.539488	2.243482
| 34> H  -0.039578	0.881956	3.063522
| 35> H  -0.007442	1.082334	1.515240
| 36> O  -3.277970	-0.388785	3.381895
| 37> H  -2.706902	-1.014023	2.891258
| 38> H  -3.638713	0.185683	2.663533
| 39> O  -1.374369	1.387312	4.069644
| 40> H  -2.100469	0.712273	3.955578
| 41> H  -1.351946	1.608752	5.012893
| 42> O  1.272137	1.313088	-1.460966
| 43> H  1.922482	1.321478	-2.206528
| 44> H  1.710384	0.784236	-0.743068
| 45> O  -2.133501	3.169115	2.090459
| 46> H  -1.524779	2.894749	1.369826
| 47> H  -1.811921	2.673798	2.879255
| 48> O  -1.310990	-1.477618	1.653982
| 49> H  -0.648043	-0.791189	1.931613
| 50> H  -0.768309	-2.087697	1.112015
| 51> O  -0.778060	1.801249	0.176233
| 52> H  -0.087430	1.880152	-0.519064
| 53> H  -1.417622	1.120074	-0.153778
| 54> O  4.157133	-0.805754	-1.446327
| 55> H  3.680658	-0.532903	-0.633034
| 56> H  3.712517	-1.659031	-1.665395
| 57> O  2.229556	-0.333472	0.463623
| 58> H  1.851886	0.033889	1.292667
| 59> H  1.603660	-1.072325	0.235899
| 60> O  0.473556	-2.225684	-0.338022
| 61> H  1.160140	-2.734822	-0.832961
| 62> H  0.057782	-1.697027	-1.066656
| 63> **                         ****END OF INPUT****

CARTESIAN COORDINATES (ANGSTROEM)
---------------------------------
  O      3.088185    0.697903   -3.329725
  H      3.625399    0.186353   -2.655801
  H      3.715405    1.234928   -3.837189
  O     -2.502075   -0.204269   -0.438944
  H     -2.130489   -0.745252    0.305512
  H     -3.191723    0.336874    0.016202
  O     -0.450720   -0.568609   -2.309016
  H     -1.325412   -0.353368   -1.922814
  H      0.141670    0.180864   -2.036937
  O      1.563550   -1.436864   -4.081843
  H      0.704778   -1.166566   -3.697210
  H      2.130202   -0.636119   -3.975145
  O      2.469734   -2.896817   -2.020627
  H      2.122972   -2.451133   -2.845745
  H      2.772882   -3.772577   -2.305729
  O     -3.875309    1.302774    1.321869
  H     -4.784812    1.636072    1.272011
  H     -3.317426    2.084967    1.601038
  O      0.392708    0.539488    2.243482
  H     -0.039578    0.881956    3.063522
  H     -0.007442    1.082334    1.515240
  O     -3.277970   -0.388785    3.381895
  H     -2.706902   -1.014023    2.891258
  H     -3.638713    0.185683    2.663533
  O     -1.374369    1.387312    4.069644
  H     -2.100469    0.712273    3.955578
  H     -1.351946    1.608752    5.012893
  O      1.272137    1.313088   -1.460966
  H      1.922482    1.321478   -2.206528
  H      1.710384    0.784236   -0.743068
  O     -2.133501    3.169115    2.090459
  H     -1.524779    2.894749    1.369826
  H     -1.811921    2.673798    2.879255
  O     -1.310990   -1.477618    1.653982
  H     -0.648043   -0.791189    1.931613
  H     -0.768309   -2.087697    1.112015
  O     -0.778060    1.801249    0.176233
  H     -0.087430    1.880152   -0.519064
  H     -1.417622    1.120074   -0.153778
  O      4.157133   -0.805754   -1.446327
  H      3.680658   -0.532903   -0.633034
  H      3.712517   -1.659031   -1.665395
  O      2.229556   -0.333472    0.463623
  H      1.851886    0.033889    1.292667
  H      1.603660   -1.072325    0.235899
  O      0.473556   -2.225684   -0.338022
  H      1.160140   -2.734822   -0.832961
  H      0.057782   -1.697027   -1.066656

 Total Charge           Charge          ....    0
 Multiplicity           Mult            ....    1
 Number of Electrons    NEL             ....  160
 Basis Dimension        Dim             ....  688

ORBITAL ENERGIES
----------------

  NO   OCC          E(Eh)            E(eV)
   0   2.0000     -19.132967      -520.6345
   1   2.0000     -19.132946      -520.6339
   2   2.0000     -19.131867      -520.6046
   3   2.0000     -19.131435      -520.5928
   4   2.0000     -19.130362      -520.5636
   5   2.0000     -19.127837      -520.4949
   6   2.0000     -19.127245      -520.4788
   7   2.0000     -19.126760      -520.4656
   8   2.0000     -19.126486      -520.4582
   9   2.0000     -19.124570      -520.4060
  10   2.0000     -19.124371      -520.4006
  11   2.0000     -19.124086      -520.3928
  12   2.0000     -19.122691      -520.3549
  13   2.0000     -19.122356      -520.3458
  14   2.0000     -19.121414      -520.3201
  15   2.0000     -19.120504      -520.2954
  16   2.0000      -1.038806       -28.2673
  17   2.0000      -1.030942       -28.0533
  18   2.0000      -1.022380       -27.8204
  19   2.0000      -1.021496       -27.7963
  20   2.0000      -1.020248       -27.7624
  21   2.0000      -1.015346       -27.6290
  22   2.0000      -1.014179       -27.5972
  23   2.0000      -1.014010       -27.5926
  24   2.0000      -1.004621       -27.3371
  25   2.0000      -1.003707       -27.3123
  26   2.0000      -1.001913       -27.2634
  27   2.0000      -0.998661       -27.1750
  28   2.0000      -0.997973       -27.1562
  29   2.0000      -0.996325       -27.1114
  30   2.0000      -0.988730       -26.9047
  31   2.0000      -0.982359       -26.7313
  32   2.0000      -0.554907       -15.0998
  33   2.0000      -0.546970       -14.8838
  34   2.0000      -0.543927       -14.8010
  35   2.0000      -0.540801       -14.7159
  36   2.0000      -0.537777       -14.6337
  37   2.0000      -0.537258       -14.6195
  38   2.0000      -0.534897       -14.5553
  39   2.0000      -0.533842       -14.5266
  40   2.0000      -0.527746       -14.3607
  41   2.0000      -0.525954       -14.3119
  42   2.0000      -0.524550       -14.2737
  43   2.0000      -0.524107       -14.2617
  44   2.0000      -0.521320       -14.1858
  45   2.0000      -0.517554       -14.0834
  46   2.0000      -0.516027       -14.0418
  47   2.0000      -0.514041       -13.9878
  48   2.0000      -0.472135       -12.8475
  49   2.0000      -0.451855       -12.2956
  50   2.0000      -0.442782       -12.0487
  51   2.0000      -0.437028       -11.8921
  52   2.0000      -0.427040       -11.6203
  53   2.0000      -0.423180       -11.5153
  54   2.0000      -0.416528       -11.3343
  55   2.0000      -0.413494       -11.2517
  56   2.0000      -0.400201       -10.8900
  57   2.0000      -0.398648       -10.8478
  58   2.0000      -0.396569       -10.7912
  59   2.0000      -0.394635       -10.7386
  60   2.0000      -0.380746       -10.3606
  61   2.0000      -0.375307       -10.2126
  62   2.0000      -0.370349       -10.0777
  63   2.0000      -0.355891        -9.6843
  64   2.0000      -0.332859        -9.0575
  65   2.0000      -0.331398        -9.0178
  66   2.0000      -0.330580        -8.9955
  67   2.0000      -0.329110        -8.9555
  68   2.0000      -0.327902        -8.9227
  69   2.0000      -0.326901        -8.8954
  70   2.0000      -0.326391        -8.8815
  71   2.0000      -0.324207        -8.8221
  72   2.0000      -0.323778        -8.8104
  73   2.0000      -0.322323        -8.7709
  74   2.0000      -0.320894        -8.7320
  75   2.0000      -0.319657        -8.6983
  76   2.0000      -0.319040        -8.6815
  77   2.0000      -0.318370        -8.6633
  78   2.0000      -0.317803        -8.6479
  79   2.0000      -0.317132        -8.6296
  80   0.0000       0.011082         0.3016
  81   0.0000       0.030488         0.8296
  82   0.0000       0.057196         1.5564
  83   0.0000       0.057304         1.5593
  84   0.0000       0.065525         1.7830

MULLIKEN ATOMIC CHARGES
-----------------------
   0 O :   -0.746330
   1 H :    0.384067
   2 H :    0.384351
   3 O :   -0.757575
   4 H :    0.367185
   5 H :    0.380104
   6 O :   -0.757488
   7 H :    0.385352
   8 H :    0.365089
   9 O :   -0.742713
  10 H :    0.379438
  11 H :    0.371466
  12 O :   -0.740803
  13 H :    0.372978
  14 H :    0.384594
  15 O :   -0.742172
  16 H :    0.387199
  17 H :    0.369249
  18 O :   -0.760615
  19 H :    0.383070
  20 H :    0.362101
  21 O :   -0.742416
  22 H :    0.378034
  23 H :    0.367774
  24 O :   -0.744362
  25 H :    0.372617
  26 H :    0.386731
  27 O :   -0.769810
  28 H :    0.385156
  29 H :    0.365666
  30 O :   -0.743773
  31 H :    0.385666
  32 H :    0.368011
  33 O :   -0.754679
  34 H :    0.361687
  35 H :    0.383601
  36 O :   -0.760806
  37 H :    0.399271
  38 H :    0.349837
  39 O :   -0.742456
  40 H :    0.383186
  41 H :    0.364572
  42 O :   -0.759691
  43 H :    0.389326
  44 H :    0.364192
  45 O :   -0.754514
  46 H :    0.380504
  47 H :    0.358131
Sum of atomic charges:   -0.0000000

LOEWDIN ATOMIC CHARGES
----------------------
   0 O :   -0.278739
   1 H :    0.144448
   2 H :    0.183682
   3 O :   -0.313741
   4 H :    0.136825
   5 H :    0.144644
   6 O :   -0.302236
   7 H :    0.152925
   8 H :    0.133098
   9 O :   -0.312930
  10 H :    0.152116
  11 H :    0.142720
  12 O :   -0.278989
  13 H :    0.145722
  14 H :    0.183945
  15 O :   -0.273457
  16 H :    0.185227
  17 H :    0.144081
  18 O :   -0.300737
  19 H :    0.144852
  20 H :    0.132380
  21 O :   -0.318536
  22 H :    0.152222
  23 H :    0.141189
  24 O :   -0.278753
  25 H :    0.147506
  26 H :    0.184918
  27 O :   -0.295795
  28 H :    0.144744
  29 H :    0.137089
  30 O :   -0.317134
  31 H :    0.143100
  32 H :    0.141985
  33 O :   -0.303486
  34 H :    0.136416
  35 H :    0.156202
  36 O :   -0.276957
  37 H :    0.148499
  38 H :    0.135310
  39 O :   -0.309601
  40 H :    0.148990
  41 H :    0.143750
  42 O :   -0.295656
  43 H :    0.152274
  44 H :    0.136871
  45 O :   -0.305216
  46 H :    0.147201
  47 H :    0.137027

  Mayer bond orders larger than 0.1
B(  0-O ,  1-H ) :   0.7556 B(  0-O ,  2-H ) :   0.8520 B(  0-O , 11-H ) :   0.1084
B(  0-O , 28-H ) :   0.1165 B(  1-H , 39-O ) :   0.1358 B(  3-O ,  4-H ) :   0.7865
B(  3-O ,  5-H ) :   0.8021 B(  3-O , 38-H ) :   0.1439 B(  4-H , 33-O ) :   0.1261
B(  6-O ,  7-H ) :   0.8255 B(  6-O ,  8-H ) :   0.7722 B(  6-O , 47-H ) :   0.1266
B(  8-H , 27-O ) :   0.1335 B(  9-O , 10-H ) :   0.8321 B(  9-O , 11-H ) :   0.8029
B(  9-O , 13-H ) :   0.1399 B( 12-O , 13-H ) :   0.7637 B( 12-O , 14-H ) :   0.8538
B( 12-O , 41-H ) :   0.1114 B( 15-O , 16-H ) :   0.8518 B( 15-O , 17-H ) :   0.7568
B( 15-O , 23-H ) :   0.1160 B( 17-H , 30-O ) :   0.1522 B( 18-O , 19-H ) :   0.7956
B( 18-O , 20-H ) :   0.7793 B( 18-O , 34-H ) :   0.1400 B( 19-H , 24-O ) :   0.1035
B( 20-H , 36-O ) :   0.1256 B( 21-O , 22-H ) :   0.8352 B( 21-O , 23-H ) :   0.8024
B( 21-O , 25-H ) :   0.1374 B( 24-O , 25-H ) :   0.7666 B( 24-O , 26-H ) :   0.8516
B( 24-O , 32-H ) :   0.1003 B( 27-O , 28-H ) :   0.7847 B( 27-O , 29-H ) :   0.7760
B( 29-H , 42-O ) :   0.1293 B( 30-O , 31-H ) :   0.8185 B( 30-O , 32-H ) :   0.8128
B( 33-O , 34-H ) :   0.7742 B( 33-O , 35-H ) :   0.8257 B( 36-O , 37-H ) :   0.7969
B( 36-O , 38-H ) :   0.7762 B( 39-O , 40-H ) :   0.8237 B( 39-O , 41-H ) :   0.8079
B( 42-O , 43-H ) :   0.8107 B( 42-O , 44-H ) :   0.7723 B( 44-H , 45-O ) :   0.1429
B( 45-O , 46-H ) :   0.8028 B( 45-O , 47-H ) :   0.7871

Dispersion correction           -0.061173950
FINAL SINGLE POINT ENERGY     -1223.173320328957

DIPOLE MOMENT
-------------
                                X             Y             Z
Electronic contribution:      0.11728       0.06462      -0.01165
Nuclear contribution   :      0.14372       0.31570       0.05791
                        -----------------------------------------
Total Dipole Moment    :      0.26101       0.38033       0.04626
                        -----------------------------------------
Magnitude (a.u.)       :      0.46359
Magnitude (Debye)      :      1.17834

                             ****ORCA TERMINATED NORMALLY****
TOTAL RUN TIME: 0 days 0 hours 2 minutes 7 seconds 117 msec
