                         Program Version 3.0.3 - RELEASE   -
|  1> ! wB97X-D3 MA-Def2-TZVP def2-TZVP/J RIJCOSX TightSCF Grid4
|  2>
|  3> %pal nprocs 1 end
|  4>
|  5> %scf
|  6>         maxiter 400
|  7> end
|  8>
|  9> * xyz  0  1
| 10> O  3.108883	0.699081	-3.260634
| 11> H  3.625333	0.155265	-2.577598
| 12> H  3.753523	1.219737	-3.756929
| 13> O  -2.440673	-0.101930	-0.439589
| 14> H  -2.084205	-0.681150	0.284166
| 15> H  -3.186978	0.366854	-0.003321
| 16> O  -0.488260	-0.676745	-2.300455
| 17> H  -1.376037	-0.453470	-1.950902
| 18> H  0.091847	0.076993	-2.016196
| 19> O  1.533809	-1.436277	-4.037914
| 20> H  0.650151	-1.183865	-3.696878
| 21> H  2.073977	-0.619415	-3.959887
| 22> O  2.486096	-2.908251	-2.101959
| 23> H  2.102955	-2.398789	-2.889896
| 24> H  2.778197	-3.757159	-2.461252
| 25> O  -3.919023	1.310298	1.340665
| 26> H  -4.824414	1.649301	1.313651
| 27> H  -3.343026	2.096960	1.619577
| 28> O  0.385328	0.566417	2.200360
| 29> H  -0.007439	0.907541	3.036306
| 30> H  -0.009876	1.145548	1.495535
| 31> O  -3.133806	-0.393408	3.367855
| 32> H  -2.608956	-1.050352	2.865920
| 33> H  -3.581440	0.126139	2.662823
| 34> O  -1.377063	1.428523	4.059110
| 35> H  -2.062850	0.704105	3.893071
| 36> H  -1.379634	1.596100	5.010680
| 37> O  1.199549	1.212750	-1.429869
| 38> H  1.871037	1.290524	-2.147011
| 39> H  1.655512	0.702360	-0.706138
| 40> O  -2.272820	3.198645	2.080499
| 41> H  -1.623436	3.025336	1.365307
| 42> H  -1.887614	2.756058	2.867742
| 43> O  -1.275380	-1.474135	1.590992
| 44> H  -0.617597	-0.786868	1.877606
| 45> H  -0.726700	-2.111786	1.088806
| 46> O  -0.777373	1.933678	0.197297
| 47> H  -0.075747	1.978733	-0.491101
| 48> H  -1.406429	1.235867	-0.124677
| 49> O  4.161275	-0.811064	-1.439981
| 50> H  3.725573	-0.567165	-0.595222
| 51> H  3.745591	-1.676664	-1.652836
| 52> O  2.240463	-0.352772	0.477742
| 53> H  1.865735	0.007678	1.311586
| 54> H  1.636227	-1.111582	0.257904
| 55> O  0.527459	-2.273482	-0.333623
| 56> H  1.196568	-2.793591	-0.832971
| 57> H  0.075057	-1.772114	-1.061635
| 58> **                         ****END OF INPUT****

CARTESIAN COORDINATES (ANGSTROEM)
---------------------------------
  O      3.108883    0.699081   -3.260634
  H      3.625333    0.155265   -2.577598
  H      3.753523    1.219737   -3.756929
  O     -2.440673   -0.101930   -0.439589
  H     -2.084205   -0.681150    0.284166
  H     -3.186978    0.366854   -0.003321
  O     -0.488260   -0.676745   -2.300455
  H     -1.376037   -0.453470   -1.950902
  H      0.091847    0.076993   -2.016196
  O      1.533809   -1.436277   -4.037914
  H      0.650151   -1.183865   -3.696878
  H      2.073977   -0.619415   -3.959887
  O      2.486096   -2.908251   -2.101959
  H      2.102955   -2.398789   -2.889896
  H      2.778197   -3.757159   -2.461252
  O     -3.919023    1.310298    1.340665
  H     -4.824414    1.649301    1.313651
  H     -3.343026    2.096960    1.619577
  O      0.385328    0.566417    2.200360
  H     -0.007439    0.907541    3.036306
  H     -0.009876    1.145548    1.495535
  O     -3.133806   -0.393408    3.367855
  H     -2.608956   -1.050352    2.865920
  H     -3.581440    0.126139    2.662823
  O     -1.377063    1.428523    4.059110
  H     -2.062850    0.704105    3.893071
  H     -1.379634    1.596100    5.010680
  O      1.199549    1.212750   -1.429869
  H      1.871037    1.290524   -2.147011
  H      1.655512    0.702360   -0.706138
  O     -2.272820    3.198645    2.080499
  H     -1.623436    3.025336    1.365307
  H     -1.887614    2.756058    2.867742
  O     -1.275380   -1.474135    1.590992
  H     -0.617597   -0.786868    1.877606
  H     -0.726700   -2.111786    1.088806
  O     -0.777373    1.933678    0.197297
  H     -0.075747    1.978733   -0.491101
  H     -1.406429    1.235867   -0.124677
  O      4.161275   -0.811064   -1.439981
  H      3.725573   -0.567165   -0.595222
  H      3.745591   -1.676664   -1.652836
  O      2.240463   -0.352772    0.477742
  H      1.865735    0.007678    1.311586
  H      1.636227   -1.111582    0.257904
  O      0.527459   -2.273482   -0.333623
  H      1.196568   -2.793591   -0.832971
  H      0.075057   -1.772114   -1.061635

 Total Charge           Charge          ....    0
 Multiplicity           Mult            ....    1
 Number of Electrons    NEL             ....  160
 Basis Dimension        Dim             ....  752

ORBITAL ENERGIES
----------------

  NO   OCC          E(Eh)            E(eV)
   0   2.0000     -19.255728      -523.9750
   1   2.0000     -19.255220      -523.9612
   2   2.0000     -19.254270      -523.9353
   3   2.0000     -19.253757      -523.9214
   4   2.0000     -19.243149      -523.6327
   5   2.0000     -19.243127      -523.6321
   6   2.0000     -19.241396      -523.5850
   7   2.0000     -19.240900      -523.5715
   8   2.0000     -19.240618      -523.5638
   9   2.0000     -19.239936      -523.5453
  10   2.0000     -19.239389      -523.5304
  11   2.0000     -19.238337      -523.5018
  12   2.0000     -19.235392      -523.4216
  13   2.0000     -19.234926      -523.4089
  14   2.0000     -19.234875      -523.4076
  15   2.0000     -19.233548      -523.3714
  16   2.0000      -1.163057       -31.6484
  17   2.0000      -1.157336       -31.4927
  18   2.0000      -1.148571       -31.2542
  19   2.0000      -1.147569       -31.2269
  20   2.0000      -1.146836       -31.2070
  21   2.0000      -1.138930       -30.9919
  22   2.0000      -1.138260       -30.9736
  23   2.0000      -1.137303       -30.9476
  24   2.0000      -1.127278       -30.6748
  25   2.0000      -1.126923       -30.6651
  26   2.0000      -1.123979       -30.5850
  27   2.0000      -1.119624       -30.4665
  28   2.0000      -1.119190       -30.4547
  29   2.0000      -1.118784       -30.4437
  30   2.0000      -1.111252       -30.2387
  31   2.0000      -1.103696       -30.0331
  32   2.0000      -0.667923       -18.1751
  33   2.0000      -0.662731       -18.0338
  34   2.0000      -0.659214       -17.9381
  35   2.0000      -0.656587       -17.8667
  36   2.0000      -0.654471       -17.8091
  37   2.0000      -0.652088       -17.7442
  38   2.0000      -0.649506       -17.6740
  39   2.0000      -0.648319       -17.6416
  40   2.0000      -0.641332       -17.4515
  41   2.0000      -0.637781       -17.3549
  42   2.0000      -0.635972       -17.3057
  43   2.0000      -0.632993       -17.2246
  44   2.0000      -0.632488       -17.2109
  45   2.0000      -0.629096       -17.1186
  46   2.0000      -0.625418       -17.0185
  47   2.0000      -0.623699       -16.9717
  48   2.0000      -0.586747       -15.9662
  49   2.0000      -0.566171       -15.4063
  50   2.0000      -0.551141       -14.9973
  51   2.0000      -0.548291       -14.9198
  52   2.0000      -0.538330       -14.6487
  53   2.0000      -0.533197       -14.5090
  54   2.0000      -0.525941       -14.3116
  55   2.0000      -0.521476       -14.1901
  56   2.0000      -0.509276       -13.8581
  57   2.0000      -0.506080       -13.7711
  58   2.0000      -0.503708       -13.7066
  59   2.0000      -0.500778       -13.6269
  60   2.0000      -0.484837       -13.1931
  61   2.0000      -0.480795       -13.0831
  62   2.0000      -0.473378       -12.8813
  63   2.0000      -0.455701       -12.4002
  64   2.0000      -0.441987       -12.0271
  65   2.0000      -0.440806       -11.9949
  66   2.0000      -0.439311       -11.9543
  67   2.0000      -0.437667       -11.9095
  68   2.0000      -0.433351       -11.7921
  69   2.0000      -0.433057       -11.7841
  70   2.0000      -0.431358       -11.7378
  71   2.0000      -0.428390       -11.6571
  72   2.0000      -0.427657       -11.6371
  73   2.0000      -0.426494       -11.6055
  74   2.0000      -0.422791       -11.5047
  75   2.0000      -0.421521       -11.4702
  76   2.0000      -0.420019       -11.4293
  77   2.0000      -0.419396       -11.4123
  78   2.0000      -0.419181       -11.4065
  79   2.0000      -0.417717       -11.3667
  80   0.0000       0.051164         1.3922
  81   0.0000       0.059756         1.6260
  82   0.0000       0.074398         2.0245
  83   0.0000       0.075284         2.0486
  84   0.0000       0.090304         2.4573

MULLIKEN ATOMIC CHARGES
-----------------------
   0 O :   -0.818233
   1 H :    0.423613
   2 H :    0.360805
   3 O :   -0.762815
   4 H :    0.420643
   5 H :    0.406127
   6 O :   -0.806761
   7 H :    0.419374
   8 H :    0.390650
   9 O :   -0.752665
  10 H :    0.413822
  11 H :    0.412849
  12 O :   -0.813436
  13 H :    0.408916
  14 H :    0.358158
  15 O :   -0.853836
  16 H :    0.361366
  17 H :    0.409836
  18 O :   -0.788541
  19 H :    0.420762
  20 H :    0.389627
  21 O :   -0.734420
  22 H :    0.412189
  23 H :    0.395908
  24 O :   -0.841006
  25 H :    0.419036
  26 H :    0.361372
  27 O :   -0.861005
  28 H :    0.427527
  29 H :    0.401267
  30 O :   -0.719573
  31 H :    0.407091
  32 H :    0.401900
  33 O :   -0.877167
  34 H :    0.410306
  35 H :    0.421665
  36 O :   -0.905288
  37 H :    0.437410
  38 H :    0.392831
  39 O :   -0.760570
  40 H :    0.412833
  41 H :    0.400083
  42 O :   -0.810700
  43 H :    0.432787
  44 H :    0.409517
  45 O :   -0.868984
  46 H :    0.415869
  47 H :    0.418859
Sum of atomic charges:   -0.0000000

LOEWDIN ATOMIC CHARGES
----------------------
   0 O :   -0.395814
   1 H :    0.188313
   2 H :    0.190797
   3 O :   -0.399731
   4 H :    0.191697
   5 H :    0.193853
   6 O :   -0.399151
   7 H :    0.202488
   8 H :    0.184267
   9 O :   -0.355324
  10 H :    0.200114
  11 H :    0.193292
  12 O :   -0.395735
  13 H :    0.190234
  14 H :    0.191629
  15 O :   -0.396039
  16 H :    0.192622
  17 H :    0.190656
  18 O :   -0.398421
  19 H :    0.196158
  20 H :    0.188129
  21 O :   -0.359594
  22 H :    0.200010
  23 H :    0.190173
  24 O :   -0.397620
  25 H :    0.192295
  26 H :    0.191564
  27 O :   -0.396777
  28 H :    0.195916
  29 H :    0.189253
  30 O :   -0.355976
  31 H :    0.194340
  32 H :    0.192629
  33 O :   -0.399708
  34 H :    0.190024
  35 H :    0.203581
  36 O :   -0.394929
  37 H :    0.198359
  38 H :    0.189118
  39 O :   -0.357430
  40 H :    0.199650
  41 H :    0.193422
  42 O :   -0.393755
  43 H :    0.201643
  44 H :    0.191131
  45 O :   -0.401689
  46 H :    0.196327
  47 H :    0.194010

  Mayer bond orders larger than 0.1
B(  0-O ,  1-H ) :   0.7500 B(  0-O ,  2-H ) :   0.8733 B(  1-H , 39-O ) :   0.1031
B(  3-O ,  4-H ) :   0.8215 B(  3-O ,  5-H ) :   0.8309 B(  3-O , 38-H ) :   0.1028
B(  6-O ,  7-H ) :   0.8384 B(  6-O ,  8-H ) :   0.8178 B(  9-O , 10-H ) :   0.8452
B(  9-O , 11-H ) :   0.8488 B(  9-O , 13-H ) :   0.1276 B( 12-O , 13-H ) :   0.7539
B( 12-O , 14-H ) :   0.8773 B( 15-O , 16-H ) :   0.8741 B( 15-O , 17-H ) :   0.7423
B( 17-H , 30-O ) :   0.1430 B( 18-O , 19-H ) :   0.8204 B( 18-O , 20-H ) :   0.8181
B( 21-O , 22-H ) :   0.8450 B( 21-O , 23-H ) :   0.8519 B( 21-O , 25-H ) :   0.1011
B( 24-O , 25-H ) :   0.7574 B( 24-O , 26-H ) :   0.8724 B( 27-O , 28-H ) :   0.8111
B( 27-O , 29-H ) :   0.8057 B( 30-O , 31-H ) :   0.8474 B( 30-O , 32-H ) :   0.8585
B( 33-O , 34-H ) :   0.8164 B( 33-O , 35-H ) :   0.8367 B( 36-O , 37-H ) :   0.8128
B( 36-O , 38-H ) :   0.8059 B( 39-O , 40-H ) :   0.8436 B( 39-O , 41-H ) :   0.8494
B( 42-O , 43-H ) :   0.8187 B( 42-O , 44-H ) :   0.8100 B( 45-O , 46-H ) :   0.8356
B( 45-O , 47-H ) :   0.8201

Dispersion correction           -0.032061200
FINAL SINGLE POINT ENERGY     -1223.327583158105

DIPOLE MOMENT
-------------
                                X             Y             Z
Electronic contribution:      0.05134      -0.02404      -0.02232
Nuclear contribution   :      0.10652       0.19517       0.07095
                        -----------------------------------------
Total Dipole Moment    :      0.15786       0.17112       0.04863
                        -----------------------------------------
Magnitude (a.u.)       :      0.23784
Magnitude (Debye)      :      0.60455

                             ****ORCA TERMINATED NORMALLY****
TOTAL RUN TIME: 0 days 0 hours 28 minutes 2 seconds 150 msec
