                         Program Version 3.0.3 - RELEASE   -
|  1> ! B3LYP Def2-TZVP def2-TZVP/J RIJCOSX TightSCF Grid4 D3BJ COSMO
|  2>
|  3> %pal nprocs 12 end
|  4>
|  5> %scf
|  6>         maxiter 400
|  7> end
|  8>
|  9> %cosmo
| 10>         SMD true
| 11>         solvent "WATER"
| 12> end
| 13>
| 14> * xyz  0  1
| 15> O  2.977341	0.489693	-3.205878
| 16> H  3.528710	-0.055441	-2.529114
| 17> H  3.629450	0.954601	-3.766431
| 18> O  -2.273188	0.162113	-0.364300
| 19> H  -1.888217	-0.478696	0.321953
| 20> H  -3.107813	0.495344	0.091239
| 21> O  -0.445418	-0.522865	-2.178003
| 22> H  -1.313523	-0.280216	-1.749617
| 23> H  0.164157	0.251138	-1.929342
| 24> O  1.355796	-1.528856	-3.976995
| 25> H  0.533506	-1.225025	-3.507289
| 26> H  1.966421	-0.740173	-3.864601
| 27> O  2.454356	-2.984926	-2.104644
| 28> H  2.025701	-2.503557	-2.906112
| 29> H  2.687614	-3.878778	-2.423986
| 30> O  -4.032152	1.105904	1.353734
| 31> H  -4.963187	1.382413	1.242553
| 32> H  -3.517873	1.952186	1.629813
| 33> O  0.436064	0.684206	2.183569
| 34> H  -0.071243	0.955736	3.009811
| 35> H  0.064816	1.318632	1.485165
| 36> O  -3.041351	-0.562957	3.242450
| 37> H  -2.418265	-1.083965	2.668705
| 38> H  -3.555075	-0.016559	2.575793
| 39> O  -1.431523	1.378627	3.922645
| 40> H  -2.074529	0.588891	3.778455
| 41> H  -1.400133	1.530848	4.887836
| 42> O  1.262323	1.356098	-1.391725
| 43> H  1.919291	1.282775	-2.151295
| 44> H  1.698194	0.792697	-0.668204
| 45> O  -2.485083	3.074032	2.103536
| 46> H  -1.784023	3.001856	1.402701
| 47> H  -2.080531	2.571646	2.872961
| 48> O  -1.107105	-1.363190	1.484579
| 49> H  -0.471806	-0.635935	1.799773
| 50> H  -0.528391	-1.948480	0.920894
| 51> O  -0.666249	2.181643	0.267507
| 52> H  0.048303	2.177409	-0.428142
| 53> H  -1.306953	1.455405	-0.039522
| 54> O  4.135384	-0.992415	-1.396222
| 55> H  3.656733	-0.690059	-0.579304
| 56> H  3.653220	-1.840691	-1.629643
| 57> O  2.247959	-0.281400	0.458334
| 58> H  1.837374	0.063949	1.297571
| 59> H  1.644271	-1.058916	0.205554
| 60> O  0.610160	-2.189593	-0.389214
| 61> H  1.267647	-2.727147	-0.930797
| 62> H  0.162207	-1.619543	-1.100028
| 63> **                         ****END OF INPUT****

CARTESIAN COORDINATES (ANGSTROEM)
---------------------------------
  O      2.977341    0.489693   -3.205878
  H      3.528710   -0.055441   -2.529114
  H      3.629450    0.954601   -3.766431
  O     -2.273188    0.162113   -0.364300
  H     -1.888217   -0.478696    0.321953
  H     -3.107813    0.495344    0.091239
  O     -0.445418   -0.522865   -2.178003
  H     -1.313523   -0.280216   -1.749617
  H      0.164157    0.251138   -1.929342
  O      1.355796   -1.528856   -3.976995
  H      0.533506   -1.225025   -3.507289
  H      1.966421   -0.740173   -3.864601
  O      2.454356   -2.984926   -2.104644
  H      2.025701   -2.503557   -2.906112
  H      2.687614   -3.878778   -2.423986
  O     -4.032152    1.105904    1.353734
  H     -4.963187    1.382413    1.242553
  H     -3.517873    1.952186    1.629813
  O      0.436064    0.684206    2.183569
  H     -0.071243    0.955736    3.009811
  H      0.064816    1.318632    1.485165
  O     -3.041351   -0.562957    3.242450
  H     -2.418265   -1.083965    2.668705
  H     -3.555075   -0.016559    2.575793
  O     -1.431523    1.378627    3.922645
  H     -2.074529    0.588891    3.778455
  H     -1.400133    1.530848    4.887836
  O      1.262323    1.356098   -1.391725
  H      1.919291    1.282775   -2.151295
  H      1.698194    0.792697   -0.668204
  O     -2.485083    3.074032    2.103536
  H     -1.784023    3.001856    1.402701
  H     -2.080531    2.571646    2.872961
  O     -1.107105   -1.363190    1.484579
  H     -0.471806   -0.635935    1.799773
  H     -0.528391   -1.948480    0.920894
  O     -0.666249    2.181643    0.267507
  H      0.048303    2.177409   -0.428142
  H     -1.306953    1.455405   -0.039522
  O      4.135384   -0.992415   -1.396222
  H      3.656733   -0.690059   -0.579304
  H      3.653220   -1.840691   -1.629643
  O      2.247959   -0.281400    0.458334
  H      1.837374    0.063949    1.297571
  H      1.644271   -1.058916    0.205554
  O      0.610160   -2.189593   -0.389214
  H      1.267647   -2.727147   -0.930797
  H      0.162207   -1.619543   -1.100028

 Total Charge           Charge          ....    0
 Multiplicity           Mult            ....    1
 Number of Electrons    NEL             ....  160
 Basis Dimension        Dim             ....  688

ORBITAL ENERGIES
----------------

  NO   OCC          E(Eh)            E(eV)
   0   2.0000     -19.133146      -520.6394
   1   2.0000     -19.133105      -520.6382
   2   2.0000     -19.132770      -520.6291
   3   2.0000     -19.132586      -520.6241
   4   2.0000     -19.127552      -520.4872
   5   2.0000     -19.127496      -520.4856
   6   2.0000     -19.127201      -520.4776
   7   2.0000     -19.126940      -520.4705
   8   2.0000     -19.124689      -520.4092
   9   2.0000     -19.124622      -520.4074
  10   2.0000     -19.124556      -520.4056
  11   2.0000     -19.124402      -520.4014
  12   2.0000     -19.124097      -520.3931
  13   2.0000     -19.124013      -520.3909
  14   2.0000     -19.123727      -520.3831
  15   2.0000     -19.123471      -520.3761
  16   2.0000      -1.037174       -28.2229
  17   2.0000      -1.029308       -28.0089
  18   2.0000      -1.019176       -27.7332
  19   2.0000      -1.017542       -27.6887
  20   2.0000      -1.017052       -27.6754
  21   2.0000      -1.010363       -27.4934
  22   2.0000      -1.009916       -27.4812
  23   2.0000      -1.009632       -27.4735
  24   2.0000      -0.999314       -27.1927
  25   2.0000      -0.998728       -27.1768
  26   2.0000      -0.996020       -27.1031
  27   2.0000      -0.990489       -26.9526
  28   2.0000      -0.990152       -26.9434
  29   2.0000      -0.989888       -26.9362
  30   2.0000      -0.980531       -26.6816
  31   2.0000      -0.971153       -26.4264
  32   2.0000      -0.545924       -14.8554
  33   2.0000      -0.544663       -14.8210
  34   2.0000      -0.543659       -14.7937
  35   2.0000      -0.542245       -14.7552
  36   2.0000      -0.538205       -14.6453
  37   2.0000      -0.532924       -14.5016
  38   2.0000      -0.531534       -14.4638
  39   2.0000      -0.529336       -14.4040
  40   2.0000      -0.523353       -14.2412
  41   2.0000      -0.521139       -14.1809
  42   2.0000      -0.520011       -14.1502
  43   2.0000      -0.516970       -14.0675
  44   2.0000      -0.515427       -14.0255
  45   2.0000      -0.511563       -13.9203
  46   2.0000      -0.511164       -13.9095
  47   2.0000      -0.508963       -13.8496
  48   2.0000      -0.479594       -13.0504
  49   2.0000      -0.458149       -12.4669
  50   2.0000      -0.440807       -11.9950
  51   2.0000      -0.439781       -11.9670
  52   2.0000      -0.429084       -11.6760
  53   2.0000      -0.424905       -11.5623
  54   2.0000      -0.418905       -11.3990
  55   2.0000      -0.418266       -11.3816
  56   2.0000      -0.400295       -10.8926
  57   2.0000      -0.398251       -10.8370
  58   2.0000      -0.396668       -10.7939
  59   2.0000      -0.395053       -10.7499
  60   2.0000      -0.378325       -10.2947
  61   2.0000      -0.373818       -10.1721
  62   2.0000      -0.368761       -10.0345
  63   2.0000      -0.351008        -9.5514
  64   2.0000      -0.330398        -8.9906
  65   2.0000      -0.327740        -8.9183
  66   2.0000      -0.327533        -8.9126
  67   2.0000      -0.327269        -8.9054
  68   2.0000      -0.327121        -8.9014
  69   2.0000      -0.324046        -8.8177
  70   2.0000      -0.322857        -8.7854
  71   2.0000      -0.322623        -8.7790
  72   2.0000      -0.321035        -8.7358
  73   2.0000      -0.320916        -8.7326
  74   2.0000      -0.319112        -8.6835
  75   2.0000      -0.318815        -8.6754
  76   2.0000      -0.317942        -8.6517
  77   2.0000      -0.317144        -8.6299
  78   2.0000      -0.315664        -8.5897
  79   2.0000      -0.315080        -8.5738
  80   0.0000       0.013016         0.3542
  81   0.0000       0.031536         0.8581
  82   0.0000       0.058034         1.5792
  83   0.0000       0.058272         1.5857
  84   0.0000       0.066932         1.8213

MULLIKEN ATOMIC CHARGES
-----------------------
   0 O :   -0.753948
   1 H :    0.377686
   2 H :    0.387424
   3 O :   -0.778383
   4 H :    0.370161
   5 H :    0.387691
   6 O :   -0.774644
   7 H :    0.397974
   8 H :    0.369110
   9 O :   -0.745017
  10 H :    0.388746
  11 H :    0.374498
  12 O :   -0.752964
  13 H :    0.377851
  14 H :    0.387311
  15 O :   -0.752945
  16 H :    0.388159
  17 H :    0.377592
  18 O :   -0.776972
  19 H :    0.386615
  20 H :    0.369845
  21 O :   -0.746375
  22 H :    0.388904
  23 H :    0.375909
  24 O :   -0.753998
  25 H :    0.378827
  26 H :    0.388464
  27 O :   -0.779444
  28 H :    0.388407
  29 H :    0.367671
  30 O :   -0.746859
  31 H :    0.388505
  32 H :    0.375548
  33 O :   -0.773851
  34 H :    0.365678
  35 H :    0.398161
  36 O :   -0.774667
  37 H :    0.397806
  38 H :    0.365357
  39 O :   -0.744329
  40 H :    0.388910
  41 H :    0.375936
  42 O :   -0.772081
  43 H :    0.396459
  44 H :    0.369825
  45 O :   -0.778035
  46 H :    0.388248
  47 H :    0.365233
Sum of atomic charges:   -0.0000000

LOEWDIN ATOMIC CHARGES
----------------------
   0 O :   -0.289201
   1 H :    0.150255
   2 H :    0.187838
   3 O :   -0.315218
   4 H :    0.140932
   5 H :    0.149775
   6 O :   -0.310413
   7 H :    0.155467
   8 H :    0.141281
   9 O :   -0.317830
  10 H :    0.154672
  11 H :    0.149069
  12 O :   -0.287974
  13 H :    0.150826
  14 H :    0.187952
  15 O :   -0.286320
  16 H :    0.188471
  17 H :    0.150970
  18 O :   -0.317222
  19 H :    0.150569
  20 H :    0.141050
  21 O :   -0.317383
  22 H :    0.154112
  23 H :    0.149073
  24 O :   -0.286847
  25 H :    0.151474
  26 H :    0.188376
  27 O :   -0.316564
  28 H :    0.150664
  29 H :    0.140526
  30 O :   -0.318224
  31 H :    0.153867
  32 H :    0.148089
  33 O :   -0.309545
  34 H :    0.140604
  35 H :    0.156336
  36 O :   -0.310807
  37 H :    0.155932
  38 H :    0.140367
  39 O :   -0.315084
  40 H :    0.154812
  41 H :    0.149474
  42 O :   -0.308258
  43 H :    0.157245
  44 H :    0.141181
  45 O :   -0.315567
  46 H :    0.150676
  47 H :    0.140521

  Mayer bond orders larger than 0.1
B(  0-O ,  1-H ) :   0.7275 B(  0-O ,  2-H ) :   0.8488 B(  0-O , 11-H ) :   0.1194
B(  0-O , 28-H ) :   0.1244 B(  1-H , 39-O ) :   0.1743 B(  3-O ,  4-H ) :   0.7537
B(  3-O ,  5-H ) :   0.7695 B(  3-O , 38-H ) :   0.1589 B(  4-H , 33-O ) :   0.1514
B(  5-H , 15-O ) :   0.1297 B(  6-O ,  7-H ) :   0.7930 B(  6-O ,  8-H ) :   0.7494
B(  6-O , 47-H ) :   0.1534 B(  8-H , 27-O ) :   0.1568 B(  9-O , 10-H ) :   0.8126
B(  9-O , 11-H ) :   0.7904 B(  9-O , 13-H ) :   0.1729 B( 12-O , 13-H ) :   0.7289
B( 12-O , 14-H ) :   0.8490 B( 12-O , 41-H ) :   0.1176 B( 12-O , 46-H ) :   0.1260
B( 15-O , 16-H ) :   0.8483 B( 15-O , 17-H ) :   0.7285 B( 15-O , 23-H ) :   0.1180
B( 17-H , 30-O ) :   0.1739 B( 18-O , 19-H ) :   0.7736 B( 18-O , 20-H ) :   0.7554
B( 18-O , 34-H ) :   0.1592 B( 19-H , 24-O ) :   0.1259 B( 20-H , 36-O ) :   0.1500
B( 21-O , 22-H ) :   0.8116 B( 21-O , 23-H ) :   0.7907 B( 21-O , 25-H ) :   0.1728
B( 24-O , 25-H ) :   0.7282 B( 24-O , 26-H ) :   0.8481 B( 24-O , 32-H ) :   0.1211
B( 27-O , 28-H ) :   0.7727 B( 27-O , 29-H ) :   0.7527 B( 29-H , 42-O ) :   0.1521
B( 30-O , 31-H ) :   0.8122 B( 30-O , 32-H ) :   0.7886 B( 33-O , 34-H ) :   0.7491
B( 33-O , 35-H ) :   0.7941 B( 36-O , 37-H ) :   0.7945 B( 36-O , 38-H ) :   0.7490
B( 39-O , 40-H ) :   0.8125 B( 39-O , 41-H ) :   0.7904 B( 42-O , 43-H ) :   0.7981
B( 42-O , 44-H ) :   0.7485 B( 44-H , 45-O ) :   0.1572 B( 45-O , 46-H ) :   0.7718
B( 45-O , 47-H ) :   0.7533

Dispersion correction           -0.063293937
FINAL SINGLE POINT ENERGY     -1223.159636146929

DIPOLE MOMENT
-------------
                                X             Y             Z
Electronic contribution:      0.00325      -0.01769       0.01004
Nuclear contribution   :      0.00951      -0.01655      -0.02613
                        -----------------------------------------
Total Dipole Moment    :      0.01276      -0.03424      -0.01609
                        -----------------------------------------
Magnitude (a.u.)       :      0.03992
Magnitude (Debye)      :      0.10148

                             ****ORCA TERMINATED NORMALLY****
TOTAL RUN TIME: 0 days 0 hours 2 minutes 9 seconds 475 msec
