                         Program Version 3.0.3 - RELEASE   -
|  1> ! wB97X-D3 MA-Def2-TZVP def2-TZVP/J RIJCOSX TightSCF Grid4
|  2>
|  3> %pal nprocs 1 end
|  4>
|  5> %scf
|  6>         maxiter 400
|  7> end
|  8>
|  9> %cosmo
| 10>         SMD true
| 11>         solvent "WATER"
| 12> end
| 13>
| 14> * xyz  0  1
| 15> O  2.977341	0.489693	-3.205878
| 16> H  3.528710	-0.055441	-2.529114
| 17> H  3.629450	0.954601	-3.766431
| 18> O  -2.273188	0.162113	-0.364300
| 19> H  -1.888217	-0.478696	0.321953
| 20> H  -3.107813	0.495344	0.091239
| 21> O  -0.445418	-0.522865	-2.178003
| 22> H  -1.313523	-0.280216	-1.749617
| 23> H  0.164157	0.251138	-1.929342
| 24> O  1.355796	-1.528856	-3.976995
| 25> H  0.533506	-1.225025	-3.507289
| 26> H  1.966421	-0.740173	-3.864601
| 27> O  2.454356	-2.984926	-2.104644
| 28> H  2.025701	-2.503557	-2.906112
| 29> H  2.687614	-3.878778	-2.423986
| 30> O  -4.032152	1.105904	1.353734
| 31> H  -4.963187	1.382413	1.242553
| 32> H  -3.517873	1.952186	1.629813
| 33> O  0.436064	0.684206	2.183569
| 34> H  -0.071243	0.955736	3.009811
| 35> H  0.064816	1.318632	1.485165
| 36> O  -3.041351	-0.562957	3.242450
| 37> H  -2.418265	-1.083965	2.668705
| 38> H  -3.555075	-0.016559	2.575793
| 39> O  -1.431523	1.378627	3.922645
| 40> H  -2.074529	0.588891	3.778455
| 41> H  -1.400133	1.530848	4.887836
| 42> O  1.262323	1.356098	-1.391725
| 43> H  1.919291	1.282775	-2.151295
| 44> H  1.698194	0.792697	-0.668204
| 45> O  -2.485083	3.074032	2.103536
| 46> H  -1.784023	3.001856	1.402701
| 47> H  -2.080531	2.571646	2.872961
| 48> O  -1.107105	-1.363190	1.484579
| 49> H  -0.471806	-0.635935	1.799773
| 50> H  -0.528391	-1.948480	0.920894
| 51> O  -0.666249	2.181643	0.267507
| 52> H  0.048303	2.177409	-0.428142
| 53> H  -1.306953	1.455405	-0.039522
| 54> O  4.135384	-0.992415	-1.396222
| 55> H  3.656733	-0.690059	-0.579304
| 56> H  3.653220	-1.840691	-1.629643
| 57> O  2.247959	-0.281400	0.458334
| 58> H  1.837374	0.063949	1.297571
| 59> H  1.644271	-1.058916	0.205554
| 60> O  0.610160	-2.189593	-0.389214
| 61> H  1.267647	-2.727147	-0.930797
| 62> H  0.162207	-1.619543	-1.100028
| 63> **                         ****END OF INPUT****

CARTESIAN COORDINATES (ANGSTROEM)
---------------------------------
  O      2.977341    0.489693   -3.205878
  H      3.528710   -0.055441   -2.529114
  H      3.629450    0.954601   -3.766431
  O     -2.273188    0.162113   -0.364300
  H     -1.888217   -0.478696    0.321953
  H     -3.107813    0.495344    0.091239
  O     -0.445418   -0.522865   -2.178003
  H     -1.313523   -0.280216   -1.749617
  H      0.164157    0.251138   -1.929342
  O      1.355796   -1.528856   -3.976995
  H      0.533506   -1.225025   -3.507289
  H      1.966421   -0.740173   -3.864601
  O      2.454356   -2.984926   -2.104644
  H      2.025701   -2.503557   -2.906112
  H      2.687614   -3.878778   -2.423986
  O     -4.032152    1.105904    1.353734
  H     -4.963187    1.382413    1.242553
  H     -3.517873    1.952186    1.629813
  O      0.436064    0.684206    2.183569
  H     -0.071243    0.955736    3.009811
  H      0.064816    1.318632    1.485165
  O     -3.041351   -0.562957    3.242450
  H     -2.418265   -1.083965    2.668705
  H     -3.555075   -0.016559    2.575793
  O     -1.431523    1.378627    3.922645
  H     -2.074529    0.588891    3.778455
  H     -1.400133    1.530848    4.887836
  O      1.262323    1.356098   -1.391725
  H      1.919291    1.282775   -2.151295
  H      1.698194    0.792697   -0.668204
  O     -2.485083    3.074032    2.103536
  H     -1.784023    3.001856    1.402701
  H     -2.080531    2.571646    2.872961
  O     -1.107105   -1.363190    1.484579
  H     -0.471806   -0.635935    1.799773
  H     -0.528391   -1.948480    0.920894
  O     -0.666249    2.181643    0.267507
  H      0.048303    2.177409   -0.428142
  H     -1.306953    1.455405   -0.039522
  O      4.135384   -0.992415   -1.396222
  H      3.656733   -0.690059   -0.579304
  H      3.653220   -1.840691   -1.629643
  O      2.247959   -0.281400    0.458334
  H      1.837374    0.063949    1.297571
  H      1.644271   -1.058916    0.205554
  O      0.610160   -2.189593   -0.389214
  H      1.267647   -2.727147   -0.930797
  H      0.162207   -1.619543   -1.100028

 Total Charge           Charge          ....    0
 Multiplicity           Mult            ....    1
 Number of Electrons    NEL             ....  160
 Basis Dimension        Dim             ....  752

ORBITAL ENERGIES
----------------

  NO   OCC          E(Eh)            E(eV)
   0   2.0000     -19.243004      -523.6288
   1   2.0000     -19.242986      -523.6283
   2   2.0000     -19.242571      -523.6170
   3   2.0000     -19.242396      -523.6122
   4   2.0000     -19.238365      -523.5025
   5   2.0000     -19.238343      -523.5019
   6   2.0000     -19.238084      -523.4949
   7   2.0000     -19.237793      -523.4870
   8   2.0000     -19.235522      -523.4252
   9   2.0000     -19.235473      -523.4238
  10   2.0000     -19.235416      -523.4223
  11   2.0000     -19.235242      -523.4175
  12   2.0000     -19.235022      -523.4116
  13   2.0000     -19.234954      -523.4097
  14   2.0000     -19.234678      -523.4022
  15   2.0000     -19.234415      -523.3950
  16   2.0000      -1.156258       -31.4634
  17   2.0000      -1.147839       -31.2343
  18   2.0000      -1.137287       -30.9471
  19   2.0000      -1.135804       -30.9068
  20   2.0000      -1.135262       -30.8921
  21   2.0000      -1.128273       -30.7019
  22   2.0000      -1.127851       -30.6904
  23   2.0000      -1.127599       -30.6835
  24   2.0000      -1.117065       -30.3969
  25   2.0000      -1.116466       -30.3806
  26   2.0000      -1.113867       -30.3099
  27   2.0000      -1.107970       -30.1494
  28   2.0000      -1.107627       -30.1401
  29   2.0000      -1.107369       -30.1330
  30   2.0000      -1.097768       -29.8718
  31   2.0000      -1.088314       -29.6145
  32   2.0000      -0.654107       -17.7991
  33   2.0000      -0.651249       -17.7214
  34   2.0000      -0.650680       -17.7059
  35   2.0000      -0.649244       -17.6668
  36   2.0000      -0.643993       -17.5239
  37   2.0000      -0.639020       -17.3886
  38   2.0000      -0.636589       -17.3225
  39   2.0000      -0.634275       -17.2595
  40   2.0000      -0.630229       -17.1494
  41   2.0000      -0.627205       -17.0671
  42   2.0000      -0.625683       -17.0257
  43   2.0000      -0.623447       -16.9649
  44   2.0000      -0.620658       -16.8890
  45   2.0000      -0.617039       -16.7905
  46   2.0000      -0.616479       -16.7752
  47   2.0000      -0.614286       -16.7156
  48   2.0000      -0.588473       -16.0132
  49   2.0000      -0.565357       -15.3841
  50   2.0000      -0.546591       -14.8735
  51   2.0000      -0.545681       -14.8487
  52   2.0000      -0.533233       -14.5100
  53   2.0000      -0.530095       -14.4246
  54   2.0000      -0.523840       -14.2544
  55   2.0000      -0.523490       -14.2449
  56   2.0000      -0.503066       -13.6891
  57   2.0000      -0.502431       -13.6718
  58   2.0000      -0.499086       -13.5808
  59   2.0000      -0.496265       -13.5040
  60   2.0000      -0.479584       -13.0502
  61   2.0000      -0.474698       -12.9172
  62   2.0000      -0.470389       -12.7999
  63   2.0000      -0.451414       -12.2836
  64   2.0000      -0.431195       -11.7334
  65   2.0000      -0.428349       -11.6560
  66   2.0000      -0.428063       -11.6482
  67   2.0000      -0.427894       -11.6436
  68   2.0000      -0.427359       -11.6290
  69   2.0000      -0.423957       -11.5365
  70   2.0000      -0.423195       -11.5157
  71   2.0000      -0.422555       -11.4983
  72   2.0000      -0.421180       -11.4609
  73   2.0000      -0.421054       -11.4575
  74   2.0000      -0.419520       -11.4157
  75   2.0000      -0.419139       -11.4054
  76   2.0000      -0.418211       -11.3801
  77   2.0000      -0.417264       -11.3543
  78   2.0000      -0.415644       -11.3102
  79   2.0000      -0.415248       -11.2995
  80   0.0000       0.062276         1.6946
  81   0.0000       0.074767         2.0345
  82   0.0000       0.092911         2.5282
  83   0.0000       0.093415         2.5419
  84   0.0000       0.102815         2.7977

MULLIKEN ATOMIC CHARGES
-----------------------
   0 O :   -0.857429
   1 H :    0.435138
   2 H :    0.418794
   3 O :   -0.895242
   4 H :    0.445745
   5 H :    0.448263
   6 O :   -0.930435
   7 H :    0.463696
   8 H :    0.442570
   9 O :   -0.826969
  10 H :    0.443334
  11 H :    0.433321
  12 O :   -0.858466
  13 H :    0.437112
  14 H :    0.418649
  15 O :   -0.875185
  16 H :    0.420079
  17 H :    0.439389
  18 O :   -0.892966
  19 H :    0.446766
  20 H :    0.445551
  21 O :   -0.822553
  22 H :    0.444384
  23 H :    0.433086
  24 O :   -0.877537
  25 H :    0.441701
  26 H :    0.420093
  27 O :   -0.921355
  28 H :    0.455875
  29 H :    0.445833
  30 O :   -0.822163
  31 H :    0.444988
  32 H :    0.431741
  33 O :   -0.943338
  34 H :    0.439908
  35 H :    0.464930
  36 O :   -0.945942
  37 H :    0.464411
  38 H :    0.438013
  39 O :   -0.826058
  40 H :    0.443258
  41 H :    0.434763
  42 O :   -0.928345
  43 H :    0.461284
  44 H :    0.444882
  45 O :   -0.918432
  46 H :    0.455524
  47 H :    0.439335
Sum of atomic charges:   -0.0000000

LOEWDIN ATOMIC CHARGES
----------------------
   0 O :   -0.390203
   1 H :    0.200912
   2 H :    0.220380
   3 O :   -0.425331
   4 H :    0.198276
   5 H :    0.204142
   6 O :   -0.421949
   7 H :    0.209288
   8 H :    0.198186
   9 O :   -0.405750
  10 H :    0.206572
  11 H :    0.202288
  12 O :   -0.389019
  13 H :    0.201542
  14 H :    0.220429
  15 O :   -0.387941
  16 H :    0.220935
  17 H :    0.201792
  18 O :   -0.426682
  19 H :    0.204935
  20 H :    0.198467
  21 O :   -0.405190
  22 H :    0.205969
  23 H :    0.202339
  24 O :   -0.388559
  25 H :    0.202324
  26 H :    0.220854
  27 O :   -0.426962
  28 H :    0.205184
  29 H :    0.198016
  30 O :   -0.405946
  31 H :    0.205735
  32 H :    0.201273
  33 O :   -0.421099
  34 H :    0.197554
  35 H :    0.210076
  36 O :   -0.422345
  37 H :    0.209794
  38 H :    0.197334
  39 O :   -0.403071
  40 H :    0.206623
  41 H :    0.202664
  42 O :   -0.419732
  43 H :    0.210812
  44 H :    0.197975
  45 O :   -0.425997
  46 H :    0.205065
  47 H :    0.198040

  Mayer bond orders larger than 0.1
B(  0-O ,  1-H ) :   0.7450 B(  0-O ,  2-H ) :   0.8289 B(  1-H , 39-O ) :   0.1038
B(  3-O ,  4-H ) :   0.7791 B(  3-O ,  5-H ) :   0.7707 B(  6-O ,  7-H ) :   0.7916
B(  6-O ,  8-H ) :   0.7719 B(  9-O , 10-H ) :   0.8123 B(  9-O , 11-H ) :   0.8017
B( 12-O , 13-H ) :   0.7461 B( 12-O , 14-H ) :   0.8289 B( 15-O , 16-H ) :   0.8270
B( 15-O , 17-H ) :   0.7453 B( 18-O , 19-H ) :   0.7750 B( 18-O , 20-H ) :   0.7811
B( 21-O , 22-H ) :   0.8115 B( 21-O , 23-H ) :   0.8030 B( 24-O , 25-H ) :   0.7453
B( 24-O , 26-H ) :   0.8272 B( 27-O , 28-H ) :   0.7764 B( 27-O , 29-H ) :   0.7775
B( 30-O , 31-H ) :   0.8112 B( 30-O , 32-H ) :   0.8017 B( 33-O , 34-H ) :   0.7711
B( 33-O , 35-H ) :   0.7925 B( 36-O , 37-H ) :   0.7937 B( 36-O , 38-H ) :   0.7720
B( 39-O , 40-H ) :   0.8126 B( 39-O , 41-H ) :   0.8020 B( 42-O , 43-H ) :   0.7952
B( 42-O , 44-H ) :   0.7711 B( 45-O , 46-H ) :   0.7757 B( 45-O , 47-H ) :   0.7789

Dispersion correction           -0.033046988
FINAL SINGLE POINT ENERGY     -1223.346856995463

DIPOLE MOMENT
-------------
                                X             Y             Z
Electronic contribution:      0.00355      -0.01809       0.00939
Nuclear contribution   :      0.00951      -0.01655      -0.02613
                        -----------------------------------------
Total Dipole Moment    :      0.01306      -0.03464      -0.01674
                        -----------------------------------------
Magnitude (a.u.)       :      0.04063
Magnitude (Debye)      :      0.10327

                             ****ORCA TERMINATED NORMALLY****
TOTAL RUN TIME: 0 days 0 hours 32 minutes 12 seconds 577 msec
