                         Program Version 4.2.0 -  RELEASE  -
|  1> # 12meoh.boyd.etal.mol1,3,6
|  2> ! MP2 def2-TZVP EnGrad TightSCF
|  3>
|  4> %pal
|  5>     nprocs 6
|  6> end
|  7>
|  8> %maxcore 8000
|  9>
| 10> %scf
| 11>     ConvForced true
| 12> end
| 13>
| 14> *xyz 0 1
| 15> O   0.666045193  -2.600503172   0.138317521
| 16> H  -0.227115049  -2.712051982  -0.281868004
| 17> C   0.490021232  -1.851247678   1.341189459
| 18> H   1.466500502  -1.466176022   1.645844415
| 19> H   0.097564527  -2.488364683   2.146902740
| 20> H  -0.187588112  -1.000787499   1.200739571
| 21> O  -3.821405976  -2.118091637   0.596795346
| 22> H  -4.342989117  -1.344303030   0.251966383
| 23> C  -3.443883586  -1.809641231   1.934889393
| 24> H  -2.831494349  -2.637429600   2.305201764
| 25> H  -4.325601146  -1.719364371   2.585074667
| 26> H  -2.858527126  -0.882644791   1.996110694
| 27> O   2.622209273  -1.703002590  -1.445859723
| 28> H   1.828551432  -1.986513781  -0.909754968
| 29> C   2.781117675  -2.615822239  -2.525472890
| 30> H   3.691063626  -2.339003544  -3.065143454
| 31> H   1.934727323  -2.559520367  -3.223226661
| 32> H   2.879948338  -3.653846211  -2.177750170
| 33> *
| 34>
| 35>                          ****END OF INPUT****

CARTESIAN COORDINATES (ANGSTROEM)
---------------------------------
  O      0.666045   -2.600503    0.138318
  H     -0.227115   -2.712052   -0.281868
  C      0.490021   -1.851248    1.341189
  H      1.466501   -1.466176    1.645844
  H      0.097565   -2.488365    2.146903
  H     -0.187588   -1.000787    1.200740
  O     -3.821406   -2.118092    0.596795
  H     -4.342989   -1.344303    0.251966
  C     -3.443884   -1.809641    1.934889
  H     -2.831494   -2.637430    2.305202
  H     -4.325601   -1.719364    2.585075
  H     -2.858527   -0.882645    1.996111
  O      2.622209   -1.703003   -1.445860
  H      1.828551   -1.986514   -0.909755
  C      2.781118   -2.615822   -2.525473
  H      3.691064   -2.339004   -3.065143
  H      1.934727   -2.559520   -3.223227
  H      2.879948   -3.653846   -2.177750

 Total Charge           Charge          ....    0
 Multiplicity           Mult            ....    1
 Number of Electrons    NEL             ....   54
 Basis Dimension        Dim             ....  258

ORBITAL ENERGIES
----------------

  NO   OCC          E(Eh)            E(eV)
   0   2.0000     -20.585998      -560.1735
   1   2.0000     -20.572692      -559.8114
   2   2.0000     -20.508992      -558.0781
   3   2.0000     -11.287527      -307.1492
   4   2.0000     -11.285617      -307.0973
   5   2.0000     -11.245397      -306.0028
   6   2.0000      -1.378424       -37.5088
   7   2.0000      -1.361736       -37.0547
   8   2.0000      -1.305216       -35.5167
   9   2.0000      -0.939722       -25.5711
  10   2.0000      -0.933181       -25.3931
  11   2.0000      -0.891748       -24.2657
  12   2.0000      -0.712572       -19.3901
  13   2.0000      -0.695916       -18.9368
  14   2.0000      -0.668507       -18.1910
  15   2.0000      -0.632252       -17.2044
  16   2.0000      -0.631278       -17.1780
  17   2.0000      -0.605757       -16.4835
  18   2.0000      -0.604138       -16.4394
  19   2.0000      -0.586479       -15.9589
  20   2.0000      -0.557381       -15.1671
  21   2.0000      -0.526127       -14.3166
  22   2.0000      -0.515512       -14.0278
  23   2.0000      -0.484257       -13.1773
  24   2.0000      -0.464070       -12.6280
  25   2.0000      -0.452200       -12.3050
  26   2.0000      -0.412109       -11.2141
  27   0.0000       0.108462         2.9514
  28   0.0000       0.141040         3.8379
  29   0.0000       0.148254         4.0342
  30   0.0000       0.179053         4.8723
  31   0.0000       0.183348         4.9892

MULLIKEN ATOMIC CHARGES
-----------------------
   0 O :   -0.519767
   1 H :    0.347598
   2 C :   -0.183475
   3 H :    0.156183
   4 H :    0.119285
   5 H :    0.121820
   6 O :   -0.501586
   7 H :    0.326065
   8 C :   -0.182712
   9 H :    0.128106
  10 H :    0.122722
  11 H :    0.108634
  12 O :   -0.535179
  13 H :    0.343611
  14 C :   -0.164460
  15 H :    0.119441
  16 H :    0.091734
  17 H :    0.101978
Sum of atomic charges:   -0.0000000

LOEWDIN ATOMIC CHARGES
----------------------
   0 O :   -0.076204
   1 H :    0.200254
   2 C :   -0.366725
   3 H :    0.117183
   4 H :    0.102674
   5 H :    0.100763
   6 O :   -0.110874
   7 H :    0.193102
   8 C :   -0.384129
   9 H :    0.109402
  10 H :    0.098998
  11 H :    0.094218
  12 O :   -0.128840
  13 H :    0.159481
  14 C :   -0.396243
  15 H :    0.105183
  16 H :    0.089134
  17 H :    0.092623

  Mayer bond orders larger than 0.100000
B(  0-O ,  1-H ) :   0.8240 B(  0-O ,  2-C ) :   0.8729 B(  2-C ,  3-H ) :   0.9378
B(  2-C ,  4-H ) :   0.9342 B(  2-C ,  5-H ) :   0.9412 B(  6-O ,  7-H ) :   0.8399
B(  6-O ,  8-C ) :   0.9209 B(  8-C ,  9-H ) :   0.9374 B(  8-C , 10-H ) :   0.9374
B(  8-C , 11-H ) :   0.9382 B( 12-O , 13-H ) :   0.7864 B( 12-O , 14-C ) :   0.9449
B( 14-C , 15-H ) :   0.9414 B( 14-C , 16-H ) :   0.9415 B( 14-C , 17-H ) :   0.9371

MP2 TOTAL ENERGY:     -346.530729180 Eh
FINAL SINGLE POINT ENERGY      -346.530729180309

DIPOLE MOMENT
-------------
                                X             Y             Z
Electronic contribution:     -0.41434      -0.24483      -1.47819
Nuclear contribution   :     -1.11746       0.53011       2.29438
                        -----------------------------------------
Total Dipole Moment    :     -1.53180       0.28528       0.81619
                        -----------------------------------------
Magnitude (a.u.)       :      1.75897
Magnitude (Debye)      :      4.47094

Rotational constants in cm-1:     0.171479     0.020016     0.018539
Rotational constants in MHz :  5140.801575   600.076608   555.798839

                             ****ORCA TERMINATED NORMALLY****
TOTAL RUN TIME: 0 days 0 hours 1 minutes 15 seconds 365 msec
