                         Program Version 4.2.0 -  RELEASE  -
|  1> # 12h2o.su.etal.mol4,7,11
|  2> ! MP2 def2-TZVP EnGrad TightSCF
|  3>
|  4> %pal
|  5>     nprocs 6
|  6> end
|  7>
|  8> %maxcore 8000
|  9>
| 10> %scf
| 11>     ConvForced true
| 12> end
| 13>
| 14> *xyz 0 1
| 15> O  -0.885520000   1.737840000   0.052730000
| 16> H  -1.032320000   2.090180000  -0.841890000
| 17> H  -1.284090000   0.839590000   0.017130000
| 18> O  -1.737840000  -0.885520000  -0.052730000
| 19> H  -2.090180000  -1.032320000   0.841890000
| 20> H  -0.839590000  -1.284090000  -0.017130000
| 21> O  -0.741530000   1.752130000   2.896280000
| 22> H  -0.920500000   2.036450000   1.984040000
| 23> H  -1.242140000   0.921210000   2.984230000
| 24> *
| 25>
| 26>                          ****END OF INPUT****

CARTESIAN COORDINATES (ANGSTROEM)
---------------------------------
  O     -0.885520    1.737840    0.052730
  H     -1.032320    2.090180   -0.841890
  H     -1.284090    0.839590    0.017130
  O     -1.737840   -0.885520   -0.052730
  H     -2.090180   -1.032320    0.841890
  H     -0.839590   -1.284090   -0.017130
  O     -0.741530    1.752130    2.896280
  H     -0.920500    2.036450    1.984040
  H     -1.242140    0.921210    2.984230

 Total Charge           Charge          ....    0
 Multiplicity           Mult            ....    1
 Number of Electrons    NEL             ....   30
 Basis Dimension        Dim             ....  129

ORBITAL ENERGIES
----------------

  NO   OCC          E(Eh)            E(eV)
   0   2.0000     -20.611607      -560.8703
   1   2.0000     -20.554406      -559.3138
   2   2.0000     -20.531765      -558.6977
   3   2.0000      -1.392264       -37.8854
   4   2.0000      -1.338408       -36.4199
   5   2.0000      -1.312881       -35.7253
   6   2.0000      -0.749788       -20.4028
   7   2.0000      -0.713103       -19.4045
   8   2.0000      -0.682086       -18.5605
   9   2.0000      -0.632155       -17.2018
  10   2.0000      -0.591721       -16.1015
  11   2.0000      -0.552512       -15.0346
  12   2.0000      -0.536975       -14.6118
  13   2.0000      -0.503024       -13.6880
  14   2.0000      -0.477833       -13.0025
  15   0.0000       0.087336         2.3765
  16   0.0000       0.152222         4.1422
  17   0.0000       0.158853         4.3226
  18   0.0000       0.206322         5.6143
  19   0.0000       0.275679         7.5016

MULLIKEN ATOMIC CHARGES
-----------------------
   0 O :   -0.721713
   1 H :    0.340608
   2 H :    0.349846
   3 O :   -0.677213
   4 H :    0.353844
   5 H :    0.364954
   6 O :   -0.687880
   7 H :    0.375030
   8 H :    0.302524
Sum of atomic charges:    0.0000000

LOEWDIN ATOMIC CHARGES
----------------------
   0 O :   -0.340656
   1 H :    0.164827
   2 H :    0.141634
   3 O :   -0.286679
   4 H :    0.170913
   5 H :    0.183835
   6 O :   -0.338328
   7 H :    0.154557
   8 H :    0.149898

  Mayer bond orders larger than 0.100000
B(  0-O ,  1-H ) :   0.8484 B(  0-O ,  2-H ) :   0.7887 B(  3-O ,  4-H ) :   0.8392
B(  3-O ,  5-H ) :   0.8309 B(  6-O ,  7-H ) :   0.8135 B(  6-O ,  8-H ) :   0.8717

MP2 TOTAL ENERGY:     -228.952709834 Eh
FINAL SINGLE POINT ENERGY      -228.952709834314

DIPOLE MOMENT
-------------
                                X             Y             Z
Electronic contribution:      0.05132      -0.00170      -0.09960
Nuclear contribution   :     -0.56521      -1.36331      -0.68611
                        -----------------------------------------
Total Dipole Moment    :     -0.51389      -1.36500      -0.78571
                        -----------------------------------------
Magnitude (a.u.)       :      1.65670
Magnitude (Debye)      :      4.21100

Rotational constants in cm-1:     0.336512     0.115214     0.086878
Rotational constants in MHz : 10088.389343  3454.043015  2604.537158

                             ****ORCA TERMINATED NORMALLY****
TOTAL RUN TIME: 0 days 0 hours 0 minutes 25 seconds 234 msec
