                         Program Version 4.2.0 -  RELEASE  -
|  1> # 12mecn.remya.etal.2.mol2,6
|  2> ! MP2 def2-TZVP EnGrad TightSCF
|  3>
|  4> %pal
|  5>     nprocs 6
|  6> end
|  7>
|  8> %maxcore 8000
|  9>
| 10> %scf
| 11>     ConvForced true
| 12> end
| 13>
| 14> *xyz 0 1
| 15> C  -4.219070000  -3.477410000  -1.501740000
| 16> H  -3.251530000  -3.803540000  -1.893830000
| 17> H  -4.452920000  -2.481700000  -1.890840000
| 18> H  -4.992170000  -4.178130000  -1.824640000
| 19> C  -4.154550000  -3.418790000  -0.058340000
| 20> N  -4.091140000  -3.354840000   1.104432000
| 21> C   5.300864000  -2.920090000   1.401103000
| 22> H   5.986071000  -2.139770000   1.737487000
| 23> H   5.636642000  -3.888750000   1.778233000
| 24> H   4.307359000  -2.697240000   1.799307000
| 25> C   5.234791000  -2.933140000  -0.043290000
| 26> N   5.170868000  -2.941760000  -1.207750000
| 27> *
| 28>
| 29>                          ****END OF INPUT****

CARTESIAN COORDINATES (ANGSTROEM)
---------------------------------
  C     -4.219070   -3.477410   -1.501740
  H     -3.251530   -3.803540   -1.893830
  H     -4.452920   -2.481700   -1.890840
  H     -4.992170   -4.178130   -1.824640
  C     -4.154550   -3.418790   -0.058340
  N     -4.091140   -3.354840    1.104432
  C      5.300864   -2.920090    1.401103
  H      5.986071   -2.139770    1.737487
  H      5.636642   -3.888750    1.778233
  H      4.307359   -2.697240    1.799307
  C      5.234791   -2.933140   -0.043290
  N      5.170868   -2.941760   -1.207750

 Total Charge           Charge          ....    0
 Multiplicity           Mult            ....    1
 Number of Electrons    NEL             ....   44
 Basis Dimension        Dim             ....  222

ORBITAL ENERGIES
----------------

  NO   OCC          E(Eh)            E(eV)
   0   2.0000     -15.573303      -423.7711
   1   2.0000     -15.573217      -423.7688
   2   2.0000     -11.284794      -307.0749
   3   2.0000     -11.284416      -307.0646
   4   2.0000     -11.280421      -306.9559
   5   2.0000     -11.280340      -306.9536
   6   2.0000      -1.215014       -33.0622
   7   2.0000      -1.214966       -33.0609
   8   2.0000      -1.043623       -28.3984
   9   2.0000      -1.043449       -28.3937
  10   2.0000      -0.701021       -19.0758
  11   2.0000      -0.700320       -19.0567
  12   2.0000      -0.632518       -17.2117
  13   2.0000      -0.631516       -17.1844
  14   2.0000      -0.630855       -17.1664
  15   2.0000      -0.629735       -17.1360
  16   2.0000      -0.556342       -15.1388
  17   2.0000      -0.556231       -15.1358
  18   2.0000      -0.458366       -12.4728
  19   2.0000      -0.458081       -12.4650
  20   2.0000      -0.457910       -12.4604
  21   2.0000      -0.457769       -12.4565
  22   0.0000       0.119635         3.2554
  23   0.0000       0.119707         3.2574
  24   0.0000       0.171372         4.6633
  25   0.0000       0.171410         4.6643
  26   0.0000       0.172020         4.6809

MULLIKEN ATOMIC CHARGES
-----------------------
   0 C :   -0.280314
   1 H :    0.173681
   2 H :    0.172420
   3 H :    0.172072
   4 C :   -0.145639
   5 N :   -0.092220
   6 C :   -0.280656
   7 H :    0.172064
   8 H :    0.172497
   9 H :    0.173693
  10 C :   -0.145571
  11 N :   -0.092027
Sum of atomic charges:    0.0000000

LOEWDIN ATOMIC CHARGES
----------------------
   0 C :   -0.283703
   1 H :    0.153241
   2 H :    0.153246
   3 H :    0.151102
   4 C :   -0.219183
   5 N :    0.045296
   6 C :   -0.283552
   7 H :    0.151610
   8 H :    0.151520
   9 H :    0.153603
  10 C :   -0.218661
  11 N :    0.045479

  Mayer bond orders larger than 0.100000
B(  0-C ,  1-H ) :   0.9160 B(  0-C ,  2-H ) :   0.9164 B(  0-C ,  3-H ) :   0.9165
B(  0-C ,  4-C ) :   0.9021 B(  4-C ,  5-N ) :   2.8381 B(  6-C ,  7-H ) :   0.9168
B(  6-C ,  8-H ) :   0.9160 B(  6-C ,  9-H ) :   0.9164 B(  6-C , 10-C ) :   0.9025
B( 10-C , 11-N ) :   2.8381

MP2 TOTAL ENERGY:     -264.966700594 Eh
FINAL SINGLE POINT ENERGY      -264.966700594029

DIPOLE MOMENT
-------------
                                X             Y             Z
Electronic contribution:      0.00603       0.07680      -0.00766
Nuclear contribution   :     -0.00711      -0.13120       0.01001
                        -----------------------------------------
Total Dipole Moment    :     -0.00108      -0.05440       0.00235
                        -----------------------------------------
Magnitude (a.u.)       :      0.05446
Magnitude (Debye)      :      0.13844

Rotational constants in cm-1:     0.155223     0.009230     0.008742
Rotational constants in MHz :  4653.456910   276.715774   262.065082

                             ****ORCA TERMINATED NORMALLY****
TOTAL RUN TIME: 0 days 0 hours 0 minutes 32 seconds 89 msec
