                         Program Version 4.2.0 -  RELEASE  -
|  1> # 12meoh.boyd.etal.mol5,10,11
|  2> ! MP2 def2-TZVP EnGrad TightSCF
|  3>
|  4> %pal
|  5>     nprocs 6
|  6> end
|  7>
|  8> %maxcore 8000
|  9>
| 10> %scf
| 11>     ConvForced true
| 12> end
| 13>
| 14> *xyz 0 1
| 15> O  -0.662721750   1.449094618  -1.383082065
| 16> H   0.064188300   2.119867608  -1.465650660
| 17> C  -0.353319239   0.341218776  -2.229326771
| 18> H  -1.072358530  -0.454743281  -2.019906495
| 19> H   0.657636746  -0.044472139  -2.042736771
| 20> H  -0.434616607   0.624733901  -3.287793021
| 21> O  -5.201143618   0.064582726  -0.172223772
| 22> H  -4.686891530   0.869258890   0.107806143
| 23> C  -6.513192168   0.171391798   0.359883449
| 24> H  -7.049381312  -0.749234190   0.111361174
| 25> H  -7.057741163   1.017801101  -0.081819420
| 26> H  -6.514770575   0.292264928   1.453058834
| 27> O   3.252955559   0.588596242   1.858934315
| 28> H   3.621209177  -0.251605199   1.476063364
| 29> C   4.040824528   0.944288422   2.989639460
| 30> H   3.670521436   1.902573549   3.363847391
| 31> H   5.103749934   1.055868619   2.734277559
| 32> H   3.948540682   0.200279590   3.792908518
| 33> *
| 34>
| 35>                          ****END OF INPUT****

CARTESIAN COORDINATES (ANGSTROEM)
---------------------------------
  O     -0.662722    1.449095   -1.383082
  H      0.064188    2.119868   -1.465651
  C     -0.353319    0.341219   -2.229327
  H     -1.072359   -0.454743   -2.019906
  H      0.657637   -0.044472   -2.042737
  H     -0.434617    0.624734   -3.287793
  O     -5.201144    0.064583   -0.172224
  H     -4.686892    0.869259    0.107806
  C     -6.513192    0.171392    0.359883
  H     -7.049381   -0.749234    0.111361
  H     -7.057741    1.017801   -0.081819
  H     -6.514771    0.292265    1.453059
  O      3.252956    0.588596    1.858934
  H      3.621209   -0.251605    1.476063
  C      4.040825    0.944288    2.989639
  H      3.670521    1.902574    3.363847
  H      5.103750    1.055869    2.734278
  H      3.948541    0.200280    3.792909

 Total Charge           Charge          ....    0
 Multiplicity           Mult            ....    1
 Number of Electrons    NEL             ....   54
 Basis Dimension        Dim             ....  258

ORBITAL ENERGIES
----------------

  NO   OCC          E(Eh)            E(eV)
   0   2.0000     -20.558233      -559.4180
   1   2.0000     -20.549431      -559.1784
   2   2.0000     -20.548968      -559.1658
   3   2.0000     -11.272346      -306.7361
   4   2.0000     -11.264811      -306.5311
   5   2.0000     -11.264571      -306.5245
   6   2.0000      -1.347499       -36.6673
   7   2.0000      -1.339212       -36.4418
   8   2.0000      -1.337592       -36.3977
   9   2.0000      -0.920449       -25.0467
  10   2.0000      -0.912684       -24.8354
  11   2.0000      -0.912226       -24.8229
  12   2.0000      -0.682440       -18.5701
  13   2.0000      -0.674349       -18.3500
  14   2.0000      -0.673250       -18.3201
  15   2.0000      -0.617753       -16.8099
  16   2.0000      -0.609628       -16.5888
  17   2.0000      -0.609337       -16.5809
  18   2.0000      -0.591704       -16.1011
  19   2.0000      -0.583948       -15.8900
  20   2.0000      -0.582907       -15.8617
  21   2.0000      -0.500889       -13.6299
  22   2.0000      -0.493110       -13.4182
  23   2.0000      -0.492383       -13.3984
  24   2.0000      -0.449982       -12.2446
  25   2.0000      -0.442044       -12.0286
  26   2.0000      -0.440721       -11.9926
  27   0.0000       0.127382         3.4662
  28   0.0000       0.139769         3.8033
  29   0.0000       0.149848         4.0776
  30   0.0000       0.174273         4.7422
  31   0.0000       0.180914         4.9229

MULLIKEN ATOMIC CHARGES
-----------------------
   0 O :   -0.501539
   1 H :    0.322647
   2 C :   -0.173184
   3 H :    0.136254
   4 H :    0.108638
   5 H :    0.107236
   6 O :   -0.497048
   7 H :    0.327869
   8 C :   -0.172388
   9 H :    0.126213
  10 H :    0.107254
  11 H :    0.107904
  12 O :   -0.496946
  13 H :    0.321225
  14 C :   -0.172786
  15 H :    0.129521
  16 H :    0.108805
  17 H :    0.110325
Sum of atomic charges:   -0.0000000

LOEWDIN ATOMIC CHARGES
----------------------
   0 O :   -0.113935
   1 H :    0.189208
   2 C :   -0.376874
   3 H :    0.111586
   4 H :    0.095240
   5 H :    0.094785
   6 O :   -0.106375
   7 H :    0.193948
   8 C :   -0.386297
   9 H :    0.109282
  10 H :    0.094509
  11 H :    0.094843
  12 O :   -0.109222
  13 H :    0.189793
  14 C :   -0.381695
  15 H :    0.110389
  16 H :    0.095114
  17 H :    0.095702

  Mayer bond orders larger than 0.100000
B(  0-O ,  1-H ) :   0.8420 B(  0-O ,  2-C ) :   0.9237 B(  2-C ,  3-H ) :   0.9369
B(  2-C ,  4-H ) :   0.9397 B(  2-C ,  5-H ) :   0.9389 B(  6-O ,  7-H ) :   0.8378
B(  6-O ,  8-C ) :   0.9325 B(  8-C ,  9-H ) :   0.9380 B(  8-C , 10-H ) :   0.9389
B(  8-C , 11-H ) :   0.9385 B( 12-O , 13-H ) :   0.8424 B( 12-O , 14-C ) :   0.9260
B( 14-C , 15-H ) :   0.9376 B( 14-C , 16-H ) :   0.9387 B( 14-C , 17-H ) :   0.9390

MP2 TOTAL ENERGY:     -346.520723980 Eh
FINAL SINGLE POINT ENERGY      -346.520723980413

DIPOLE MOMENT
-------------
                                X             Y             Z
Electronic contribution:      0.06479       0.70771      -1.01346
Nuclear contribution   :      0.87194      -0.58567       1.24585
                        -----------------------------------------
Total Dipole Moment    :      0.93673       0.12204       0.23239
                        -----------------------------------------
Magnitude (a.u.)       :      0.97281
Magnitude (Debye)      :      2.47269

Rotational constants in cm-1:     0.066190     0.010662     0.009404
Rotational constants in MHz :  1984.337646   319.635550   281.910460

                             ****ORCA TERMINATED NORMALLY****
TOTAL RUN TIME: 0 days 0 hours 0 minutes 45 seconds 43 msec
