                         Program Version 4.2.0 -  RELEASE  -
|  1> # 12h2o.su.etal.mol3,4,7,9
|  2> ! MP2 def2-TZVP EnGrad TightSCF
|  3>
|  4> %pal
|  5>     nprocs 6
|  6> end
|  7>
|  8> %maxcore 8000
|  9>
| 10> %scf
| 11>     ConvForced true
| 12> end
| 13>
| 14> *xyz 0 1
| 15> O  -1.752130000  -0.741530000  -2.896280000
| 16> H  -2.036450000  -0.920500000  -1.984040000
| 17> H  -0.921210000  -1.242140000  -2.984230000
| 18> O  -0.885520000   1.737840000   0.052730000
| 19> H  -1.032320000   2.090180000  -0.841890000
| 20> H  -1.284090000   0.839590000   0.017130000
| 21> O  -1.737840000  -0.885520000  -0.052730000
| 22> H  -2.090180000  -1.032320000   0.841890000
| 23> H  -0.839590000  -1.284090000  -0.017130000
| 24> O   0.741530000  -1.752130000   2.896280000
| 25> H   0.920500000  -2.036450000   1.984040000
| 26> H   1.242140000  -0.921210000   2.984230000
| 27> *
| 28>
| 29>                          ****END OF INPUT****

CARTESIAN COORDINATES (ANGSTROEM)
---------------------------------
  O     -1.752130   -0.741530   -2.896280
  H     -2.036450   -0.920500   -1.984040
  H     -0.921210   -1.242140   -2.984230
  O     -0.885520    1.737840    0.052730
  H     -1.032320    2.090180   -0.841890
  H     -1.284090    0.839590    0.017130
  O     -1.737840   -0.885520   -0.052730
  H     -2.090180   -1.032320    0.841890
  H     -0.839590   -1.284090   -0.017130
  O      0.741530   -1.752130    2.896280
  H      0.920500   -2.036450    1.984040
  H      1.242140   -0.921210    2.984230

 Total Charge           Charge          ....    0
 Multiplicity           Mult            ....    1
 Number of Electrons    NEL             ....   40
 Basis Dimension        Dim             ....  172

ORBITAL ENERGIES
----------------

  NO   OCC          E(Eh)            E(eV)
   0   2.0000     -20.623131      -561.1839
   1   2.0000     -20.583876      -560.1157
   2   2.0000     -20.550596      -559.2102
   3   2.0000     -20.532936      -558.7296
   4   2.0000      -1.405838       -38.2548
   5   2.0000      -1.362793       -37.0835
   6   2.0000      -1.332441       -36.2576
   7   2.0000      -1.314304       -35.7640
   8   2.0000      -0.764564       -20.8048
   9   2.0000      -0.725670       -19.7465
  10   2.0000      -0.705391       -19.1947
  11   2.0000      -0.692633       -18.8475
  12   2.0000      -0.641230       -17.4487
  13   2.0000      -0.599937       -16.3251
  14   2.0000      -0.584640       -15.9089
  15   2.0000      -0.563467       -15.3327
  16   2.0000      -0.536588       -14.6013
  17   2.0000      -0.527396       -14.3512
  18   2.0000      -0.496630       -13.5140
  19   2.0000      -0.481142       -13.0925
  20   0.0000       0.072418         1.9706
  21   0.0000       0.130020         3.5380
  22   0.0000       0.149666         4.0726
  23   0.0000       0.163775         4.4565
  24   0.0000       0.182111         4.9555

MULLIKEN ATOMIC CHARGES
-----------------------
   0 O :   -0.687757
   1 H :    0.367665
   2 H :    0.321021
   3 O :   -0.717311
   4 H :    0.337005
   5 H :    0.350777
   6 O :   -0.702427
   7 H :    0.378129
   8 H :    0.348331
   9 O :   -0.670245
  10 H :    0.323944
  11 H :    0.350867
Sum of atomic charges:    0.0000000

LOEWDIN ATOMIC CHARGES
----------------------
   0 O :   -0.334482
   1 H :    0.150606
   2 H :    0.159075
   3 O :   -0.361878
   4 H :    0.162058
   5 H :    0.139018
   6 O :   -0.273950
   7 H :    0.181248
   8 H :    0.174900
   9 O :   -0.327667
  10 H :    0.157879
  11 H :    0.173192

  Mayer bond orders larger than 0.100000
B(  0-O ,  1-H ) :   0.8254 B(  0-O ,  2-H ) :   0.8618 B(  3-O ,  4-H ) :   0.8527
B(  3-O ,  5-H ) :   0.8136 B(  6-O ,  7-H ) :   0.8222 B(  6-O ,  8-H ) :   0.8335
B(  9-O , 10-H ) :   0.8595 B(  9-O , 11-H ) :   0.8444

MP2 TOTAL ENERGY:     -305.264415252 Eh
FINAL SINGLE POINT ENERGY      -305.264415252314

DIPOLE MOMENT
-------------
                                X             Y             Z
Electronic contribution:     -0.25697      -0.03051       0.19660
Nuclear contribution   :      1.02107      -1.01903       0.00000
                        -----------------------------------------
Total Dipole Moment    :      0.76410      -1.04953       0.19660
                        -----------------------------------------
Magnitude (a.u.)       :      1.31302
Magnitude (Debye)      :      3.33743

Rotational constants in cm-1:     0.133347     0.043793     0.035434
Rotational constants in MHz :  3997.649200  1312.880400  1062.292964

                             ****ORCA TERMINATED NORMALLY****
TOTAL RUN TIME: 0 days 0 hours 0 minutes 17 seconds 651 msec
