                         Program Version 4.2.0 -  RELEASE  -
|  1> # 12h2o.su.etal.mol0,2,4,7,9,10,11
|  2> ! MP2 def2-TZVP EnGrad TightSCF
|  3>
|  4> %pal
|  5>     nprocs 6
|  6> end
|  7>
|  8> %maxcore 8000
|  9>
| 10> %scf
| 11>     ConvForced true
| 12> end
| 13>
| 14> *xyz 0 1
| 15> O   1.794470000   0.923410000   2.768350000
| 16> H   2.338250000   1.359750000   3.430940000
| 17> H   0.879480000   1.303000000   2.865760000
| 18> O   0.923410000  -1.794470000  -2.768350000
| 19> H   1.359750000  -2.338250000  -3.430940000
| 20> H   1.303000000  -0.879480000  -2.865760000
| 21> O  -0.885520000   1.737840000   0.052730000
| 22> H  -1.032320000   2.090180000  -0.841890000
| 23> H  -1.284090000   0.839590000   0.017130000
| 24> O  -1.737840000  -0.885520000  -0.052730000
| 25> H  -2.090180000  -1.032320000   0.841890000
| 26> H  -0.839590000  -1.284090000  -0.017130000
| 27> O   0.741530000  -1.752130000   2.896280000
| 28> H   0.920500000  -2.036450000   1.984040000
| 29> H   1.242140000  -0.921210000   2.984230000
| 30> O  -0.923410000   1.794470000  -2.768350000
| 31> H  -1.359750000   2.338250000  -3.430940000
| 32> H  -1.303000000   0.879480000  -2.865760000
| 33> O  -0.741530000   1.752130000   2.896280000
| 34> H  -0.920500000   2.036450000   1.984040000
| 35> H  -1.242140000   0.921210000   2.984230000
| 36> *
| 37>
| 38>                          ****END OF INPUT****

CARTESIAN COORDINATES (ANGSTROEM)
---------------------------------
  O      1.794470    0.923410    2.768350
  H      2.338250    1.359750    3.430940
  H      0.879480    1.303000    2.865760
  O      0.923410   -1.794470   -2.768350
  H      1.359750   -2.338250   -3.430940
  H      1.303000   -0.879480   -2.865760
  O     -0.885520    1.737840    0.052730
  H     -1.032320    2.090180   -0.841890
  H     -1.284090    0.839590    0.017130
  O     -1.737840   -0.885520   -0.052730
  H     -2.090180   -1.032320    0.841890
  H     -0.839590   -1.284090   -0.017130
  O      0.741530   -1.752130    2.896280
  H      0.920500   -2.036450    1.984040
  H      1.242140   -0.921210    2.984230
  O     -0.923410    1.794470   -2.768350
  H     -1.359750    2.338250   -3.430940
  H     -1.303000    0.879480   -2.865760
  O     -0.741530    1.752130    2.896280
  H     -0.920500    2.036450    1.984040
  H     -1.242140    0.921210    2.984230

 Total Charge           Charge          ....    0
 Multiplicity           Mult            ....    1
 Number of Electrons    NEL             ....   70
 Basis Dimension        Dim             ....  301

ORBITAL ENERGIES
----------------

  NO   OCC          E(Eh)            E(eV)
   0   2.0000     -20.595605      -560.4349
   1   2.0000     -20.589940      -560.2808
   2   2.0000     -20.574935      -559.8724
   3   2.0000     -20.560484      -559.4792
   4   2.0000     -20.532810      -558.7262
   5   2.0000     -20.528706      -558.6145
   6   2.0000     -20.528533      -558.6098
   7   2.0000      -1.376387       -37.4534
   8   2.0000      -1.367744       -37.2182
   9   2.0000      -1.351041       -36.7637
  10   2.0000      -1.350201       -36.7408
  11   2.0000      -1.319098       -35.8945
  12   2.0000      -1.313447       -35.7407
  13   2.0000      -1.307368       -35.5753
  14   2.0000      -0.735375       -20.0106
  15   2.0000      -0.733345       -19.9553
  16   2.0000      -0.718276       -19.5453
  17   2.0000      -0.711776       -19.3684
  18   2.0000      -0.697060       -18.9680
  19   2.0000      -0.693471       -18.8703
  20   2.0000      -0.680555       -18.5188
  21   2.0000      -0.623362       -16.9626
  22   2.0000      -0.604822       -16.4581
  23   2.0000      -0.597836       -16.2679
  24   2.0000      -0.587374       -15.9833
  25   2.0000      -0.573243       -15.5987
  26   2.0000      -0.561443       -15.2776
  27   2.0000      -0.542846       -14.7716
  28   2.0000      -0.531299       -14.4574
  29   2.0000      -0.519169       -14.1273
  30   2.0000      -0.517968       -14.0946
  31   2.0000      -0.498278       -13.5588
  32   2.0000      -0.482674       -13.1342
  33   2.0000      -0.479958       -13.0603
  34   2.0000      -0.475890       -12.9496
  35   0.0000       0.088615         2.4113
  36   0.0000       0.113770         3.0958
  37   0.0000       0.130092         3.5400
  38   0.0000       0.156383         4.2554
  39   0.0000       0.164158         4.4670

MULLIKEN ATOMIC CHARGES
-----------------------
   0 O :   -0.739140
   1 H :    0.333928
   2 H :    0.385789
   3 O :   -0.695530
   4 H :    0.344258
   5 H :    0.353717
   6 O :   -0.742403
   7 H :    0.369835
   8 H :    0.338142
   9 O :   -0.684528
  10 H :    0.354995
  11 H :    0.366206
  12 O :   -0.713502
  13 H :    0.319632
  14 H :    0.366679
  15 O :   -0.700718
  16 H :    0.349716
  17 H :    0.363917
  18 O :   -0.701132
  19 H :    0.392457
  20 H :    0.337682
Sum of atomic charges:   -0.0000000

LOEWDIN ATOMIC CHARGES
----------------------
   0 O :   -0.339987
   1 H :    0.152382
   2 H :    0.146608
   3 O :   -0.342817
   4 H :    0.160766
   5 H :    0.184295
   6 O :   -0.348114
   7 H :    0.150154
   8 H :    0.136633
   9 O :   -0.288940
  10 H :    0.170679
  11 H :    0.181332
  12 O :   -0.350470
  13 H :    0.153517
  14 H :    0.149441
  15 O :   -0.312206
  16 H :    0.162577
  17 H :    0.187753
  18 O :   -0.278167
  19 H :    0.160513
  20 H :    0.164049

  Mayer bond orders larger than 0.100000
B(  0-O ,  1-H ) :   0.8522 B(  0-O ,  2-H ) :   0.7540 B(  3-O ,  4-H ) :   0.8497
B(  3-O ,  5-H ) :   0.8363 B(  6-O ,  7-H ) :   0.8159 B(  6-O ,  8-H ) :   0.7926
B(  9-O , 10-H ) :   0.8380 B(  9-O , 11-H ) :   0.8245 B( 12-O , 13-H ) :   0.8618
B( 12-O , 14-H ) :   0.7955 B( 15-O , 16-H ) :   0.8430 B( 15-O , 17-H ) :   0.8262
B( 18-O , 19-H ) :   0.7863 B( 18-O , 20-H ) :   0.8461

MP2 TOTAL ENERGY:     -534.241658016 Eh
FINAL SINGLE POINT ENERGY      -534.241658016347

DIPOLE MOMENT
-------------
                                X             Y             Z
Electronic contribution:     -0.19879       0.14450      -0.12343
Nuclear contribution   :     -0.30853      -0.22919      -2.00481
                        -----------------------------------------
Total Dipole Moment    :     -0.50732      -0.08469      -2.12824
                        -----------------------------------------
Magnitude (a.u.)       :      2.18951
Magnitude (Debye)      :      5.56528

Rotational constants in cm-1:     0.036254     0.019866     0.015927
Rotational constants in MHz :  1086.877324   595.553129   477.482677

                             ****ORCA TERMINATED NORMALLY****
TOTAL RUN TIME: 0 days 0 hours 2 minutes 3 seconds 259 msec
