                         Program Version 4.2.0 -  RELEASE  -
|  1> # 12meoh.boyd.etal.mol1,8,11
|  2> ! MP2 def2-TZVP EnGrad TightSCF
|  3>
|  4> %pal
|  5>     nprocs 6
|  6> end
|  7>
|  8> %maxcore 8000
|  9>
| 10> %scf
| 11>     ConvForced true
| 12> end
| 13>
| 14> *xyz 0 1
| 15> O   0.666045193  -2.600503172   0.138317521
| 16> H  -0.227115049  -2.712051982  -0.281868004
| 17> C   0.490021232  -1.851247678   1.341189459
| 18> H   1.466500502  -1.466176022   1.645844415
| 19> H   0.097564527  -2.488364683   2.146902740
| 20> H  -0.187588112  -1.000787499   1.200739571
| 21> O   3.570084754   2.361662577  -0.202416728
| 22> H   3.393280933   1.755669977   0.560634073
| 23> C   4.368082883   1.644741793  -1.143112807
| 24> H   4.552851717   2.311801738  -1.989632421
| 25> H   3.862427494   0.740851663  -1.508095690
| 26> H   5.333949674   1.357289092  -0.706288100
| 27> O   3.252955559   0.588596242   1.858934315
| 28> H   3.621209177  -0.251605199   1.476063364
| 29> C   4.040824528   0.944288422   2.989639460
| 30> H   3.670521436   1.902573549   3.363847391
| 31> H   5.103749934   1.055868619   2.734277559
| 32> H   3.948540682   0.200279590   3.792908518
| 33> *
| 34>
| 35>                          ****END OF INPUT****

CARTESIAN COORDINATES (ANGSTROEM)
---------------------------------
  O      0.666045   -2.600503    0.138318
  H     -0.227115   -2.712052   -0.281868
  C      0.490021   -1.851248    1.341189
  H      1.466501   -1.466176    1.645844
  H      0.097565   -2.488365    2.146903
  H     -0.187588   -1.000787    1.200740
  O      3.570085    2.361663   -0.202417
  H      3.393281    1.755670    0.560634
  C      4.368083    1.644742   -1.143113
  H      4.552852    2.311802   -1.989632
  H      3.862427    0.740852   -1.508096
  H      5.333950    1.357289   -0.706288
  O      3.252956    0.588596    1.858934
  H      3.621209   -0.251605    1.476063
  C      4.040825    0.944288    2.989639
  H      3.670521    1.902574    3.363847
  H      5.103750    1.055869    2.734278
  H      3.948541    0.200280    3.792909

 Total Charge           Charge          ....    0
 Multiplicity           Mult            ....    1
 Number of Electrons    NEL             ....   54
 Basis Dimension        Dim             ....  258

ORBITAL ENERGIES
----------------

  NO   OCC          E(Eh)            E(eV)
   0   2.0000     -20.591059      -560.3112
   1   2.0000     -20.558210      -559.4173
   2   2.0000     -20.518466      -558.3358
   3   2.0000     -11.290717      -307.2360
   4   2.0000     -11.271245      -306.7062
   5   2.0000     -11.254205      -306.2425
   6   2.0000      -1.383853       -37.6566
   7   2.0000      -1.346395       -36.6373
   8   2.0000      -1.314742       -35.7759
   9   2.0000      -0.942796       -25.6548
  10   2.0000      -0.919825       -25.0297
  11   2.0000      -0.900652       -24.5080
  12   2.0000      -0.713615       -19.4184
  13   2.0000      -0.681766       -18.5518
  14   2.0000      -0.677607       -18.4386
  15   2.0000      -0.634230       -17.2583
  16   2.0000      -0.617075       -16.7915
  17   2.0000      -0.613365       -16.6905
  18   2.0000      -0.595297       -16.1989
  19   2.0000      -0.590260       -16.0618
  20   2.0000      -0.564432       -15.3590
  21   2.0000      -0.527957       -14.3664
  22   2.0000      -0.502718       -13.6797
  23   2.0000      -0.490700       -13.3526
  24   2.0000      -0.460430       -12.5289
  25   2.0000      -0.449670       -12.2361
  26   2.0000      -0.421559       -11.4712
  27   0.0000       0.112036         3.0487
  28   0.0000       0.137696         3.7469
  29   0.0000       0.158940         4.3250
  30   0.0000       0.170212         4.6317
  31   0.0000       0.189490         5.1563

MULLIKEN ATOMIC CHARGES
-----------------------
   0 O :   -0.502146
   1 H :    0.324313
   2 C :   -0.155160
   3 H :    0.095958
   4 H :    0.107371
   5 H :    0.118745
   6 O :   -0.522209
   7 H :    0.358609
   8 C :   -0.194905
   9 H :    0.127054
  10 H :    0.109243
  11 H :    0.093451
  12 O :   -0.515648
  13 H :    0.347517
  14 C :   -0.194731
  15 H :    0.147840
  16 H :    0.129751
  17 H :    0.124949
Sum of atomic charges:    0.0000000

LOEWDIN ATOMIC CHARGES
----------------------
   0 O :   -0.114457
   1 H :    0.190518
   2 C :   -0.378506
   3 H :    0.101219
   4 H :    0.095206
   5 H :    0.099853
   6 O :   -0.120362
   7 H :    0.159363
   8 C :   -0.395455
   9 H :    0.107952
  10 H :    0.092746
  11 H :    0.088630
  12 O :   -0.072838
  13 H :    0.197270
  14 C :   -0.374591
  15 H :    0.117204
  16 H :    0.102831
  17 H :    0.103416

  Mayer bond orders larger than 0.100000
B(  0-O ,  1-H ) :   0.8422 B(  0-O ,  2-C ) :   0.9314 B(  2-C ,  3-H ) :   0.9359
B(  2-C ,  4-H ) :   0.9385 B(  2-C ,  5-H ) :   0.9449 B(  6-O ,  7-H ) :   0.7971
B(  6-O ,  8-C ) :   0.9425 B(  8-C ,  9-H ) :   0.9424 B(  8-C , 10-H ) :   0.9400
B(  8-C , 11-H ) :   0.9342 B( 12-O , 13-H ) :   0.8226 B( 12-O , 14-C ) :   0.8757
B( 14-C , 15-H ) :   0.9396 B( 14-C , 16-H ) :   0.9371 B( 14-C , 17-H ) :   0.9332

MP2 TOTAL ENERGY:     -346.530465175 Eh
FINAL SINGLE POINT ENERGY      -346.530465175235

DIPOLE MOMENT
-------------
                                X             Y             Z
Electronic contribution:     -1.76616      -0.31069      -1.46818
Nuclear contribution   :      1.84457      -0.54281       2.34101
                        -----------------------------------------
Total Dipole Moment    :      0.07841      -0.85349       0.87282
                        -----------------------------------------
Magnitude (a.u.)       :      1.22328
Magnitude (Debye)      :      3.10934

Rotational constants in cm-1:     0.080587     0.030039     0.023245
Rotational constants in MHz :  2415.934119   900.554348   696.866927

                             ****ORCA TERMINATED NORMALLY****
TOTAL RUN TIME: 0 days 0 hours 1 minutes 18 seconds 865 msec
