                         Program Version 4.2.0 -  RELEASE  -
|  1> # 12h2o.su.etal.mol1,2,4,7
|  2> ! MP2 def2-TZVP EnGrad TightSCF
|  3>
|  4> %pal
|  5>     nprocs 6
|  6> end
|  7>
|  8> %maxcore 8000
|  9>
| 10> %scf
| 11>     ConvForced true
| 12> end
| 13>
| 14> *xyz 0 1
| 15> O  -1.794470000  -0.923410000   2.768350000
| 16> H  -2.338250000  -1.359750000   3.430940000
| 17> H  -0.879480000  -1.303000000   2.865760000
| 18> O   0.923410000  -1.794470000  -2.768350000
| 19> H   1.359750000  -2.338250000  -3.430940000
| 20> H   1.303000000  -0.879480000  -2.865760000
| 21> O  -0.885520000   1.737840000   0.052730000
| 22> H  -1.032320000   2.090180000  -0.841890000
| 23> H  -1.284090000   0.839590000   0.017130000
| 24> O  -1.737840000  -0.885520000  -0.052730000
| 25> H  -2.090180000  -1.032320000   0.841890000
| 26> H  -0.839590000  -1.284090000  -0.017130000
| 27> *
| 28>
| 29>                          ****END OF INPUT****

CARTESIAN COORDINATES (ANGSTROEM)
---------------------------------
  O     -1.794470   -0.923410    2.768350
  H     -2.338250   -1.359750    3.430940
  H     -0.879480   -1.303000    2.865760
  O      0.923410   -1.794470   -2.768350
  H      1.359750   -2.338250   -3.430940
  H      1.303000   -0.879480   -2.865760
  O     -0.885520    1.737840    0.052730
  H     -1.032320    2.090180   -0.841890
  H     -1.284090    0.839590    0.017130
  O     -1.737840   -0.885520   -0.052730
  H     -2.090180   -1.032320    0.841890
  H     -0.839590   -1.284090   -0.017130

 Total Charge           Charge          ....    0
 Multiplicity           Mult            ....    1
 Number of Electrons    NEL             ....   40
 Basis Dimension        Dim             ....  172

ORBITAL ENERGIES
----------------

  NO   OCC          E(Eh)            E(eV)
   0   2.0000     -20.591664      -560.3277
   1   2.0000     -20.565683      -559.6207
   2   2.0000     -20.553484      -559.2887
   3   2.0000     -20.509358      -558.0880
   4   2.0000      -1.369829       -37.2749
   5   2.0000      -1.340964       -36.4895
   6   2.0000      -1.336932       -36.3798
   7   2.0000      -1.290156       -35.1069
   8   2.0000      -0.736424       -20.0391
   9   2.0000      -0.709406       -19.3039
  10   2.0000      -0.700454       -19.0603
  11   2.0000      -0.664747       -18.0887
  12   2.0000      -0.610944       -16.6246
  13   2.0000      -0.577888       -15.7251
  14   2.0000      -0.577315       -15.7095
  15   2.0000      -0.541792       -14.7429
  16   2.0000      -0.527652       -14.3581
  17   2.0000      -0.508874       -13.8472
  18   2.0000      -0.488406       -13.2902
  19   2.0000      -0.457883       -12.4596
  20   0.0000       0.102347         2.7850
  21   0.0000       0.120495         3.2788
  22   0.0000       0.165474         4.5028
  23   0.0000       0.175452         4.7743
  24   0.0000       0.204211         5.5569

MULLIKEN ATOMIC CHARGES
-----------------------
   0 O :   -0.688876
   1 H :    0.352233
   2 H :    0.352703
   3 O :   -0.684703
   4 H :    0.339756
   5 H :    0.346623
   6 O :   -0.720494
   7 H :    0.319340
   8 H :    0.360312
   9 O :   -0.695016
  10 H :    0.374396
  11 H :    0.343726
Sum of atomic charges:   -0.0000000

LOEWDIN ATOMIC CHARGES
----------------------
   0 O :   -0.307112
   1 H :    0.163622
   2 H :    0.185156
   3 O :   -0.339330
   4 H :    0.158507
   5 H :    0.182505
   6 O :   -0.366541
   7 H :    0.154150
   8 H :    0.142582
   9 O :   -0.297311
  10 H :    0.151760
  11 H :    0.172012

  Mayer bond orders larger than 0.100000
B(  0-O ,  1-H ) :   0.8417 B(  0-O ,  2-H ) :   0.8357 B(  3-O ,  4-H ) :   0.8523
B(  3-O ,  5-H ) :   0.8426 B(  6-O ,  7-H ) :   0.8630 B(  6-O ,  8-H ) :   0.7925
B(  9-O , 10-H ) :   0.8065 B(  9-O , 11-H ) :   0.8409

MP2 TOTAL ENERGY:     -305.266296692 Eh
FINAL SINGLE POINT ENERGY      -305.266296691805

DIPOLE MOMENT
-------------
                                X             Y             Z
Electronic contribution:     -0.26545      -0.07608       0.20238
Nuclear contribution   :      0.98858      -1.27851       0.00000
                        -----------------------------------------
Total Dipole Moment    :      0.72313      -1.35459       0.20238
                        -----------------------------------------
Magnitude (a.u.)       :      1.54880
Magnitude (Debye)      :      3.93674

Rotational constants in cm-1:     0.125167     0.043519     0.034627
Rotational constants in MHz :  3752.424595  1304.677026  1038.088647

                             ****ORCA TERMINATED NORMALLY****
TOTAL RUN TIME: 0 days 0 hours 0 minutes 16 seconds 49 msec
