                         Program Version 4.2.0 -  RELEASE  -
|  1> # 12h2o.su.etal.mol5,8,9,11
|  2> ! MP2 def2-TZVP EnGrad TightSCF
|  3>
|  4> %pal
|  5>     nprocs 6
|  6> end
|  7>
|  8> %maxcore 8000
|  9>
| 10> %scf
| 11>     ConvForced true
| 12> end
| 13>
| 14> *xyz 0 1
| 15> O   0.885520000  -1.737840000   0.052730000
| 16> H   1.284090000  -0.839590000   0.017130000
| 17> H   1.032320000  -2.090180000  -0.841890000
| 18> O   1.752130000   0.741530000  -2.896280000
| 19> H   2.036450000   0.920500000  -1.984040000
| 20> H   0.921210000   1.242140000  -2.984230000
| 21> O   0.741530000  -1.752130000   2.896280000
| 22> H   0.920500000  -2.036450000   1.984040000
| 23> H   1.242140000  -0.921210000   2.984230000
| 24> O  -0.741530000   1.752130000   2.896280000
| 25> H  -0.920500000   2.036450000   1.984040000
| 26> H  -1.242140000   0.921210000   2.984230000
| 27> *
| 28>
| 29>                          ****END OF INPUT****

CARTESIAN COORDINATES (ANGSTROEM)
---------------------------------
  O      0.885520   -1.737840    0.052730
  H      1.284090   -0.839590    0.017130
  H      1.032320   -2.090180   -0.841890
  O      1.752130    0.741530   -2.896280
  H      2.036450    0.920500   -1.984040
  H      0.921210    1.242140   -2.984230
  O      0.741530   -1.752130    2.896280
  H      0.920500   -2.036450    1.984040
  H      1.242140   -0.921210    2.984230
  O     -0.741530    1.752130    2.896280
  H     -0.920500    2.036450    1.984040
  H     -1.242140    0.921210    2.984230

 Total Charge           Charge          ....    0
 Multiplicity           Mult            ....    1
 Number of Electrons    NEL             ....   40
 Basis Dimension        Dim             ....  172

ORBITAL ENERGIES
----------------

  NO   OCC          E(Eh)            E(eV)
   0   2.0000     -20.595461      -560.4310
   1   2.0000     -20.587478      -560.2137
   2   2.0000     -20.565596      -559.6183
   3   2.0000     -20.535516      -558.7998
   4   2.0000      -1.373713       -37.3806
   5   2.0000      -1.366420       -37.1822
   6   2.0000      -1.344755       -36.5926
   7   2.0000      -1.317235       -35.8438
   8   2.0000      -0.736470       -20.0404
   9   2.0000      -0.729114       -19.8402
  10   2.0000      -0.707399       -19.2493
  11   2.0000      -0.686817       -18.6892
  12   2.0000      -0.614412       -16.7190
  13   2.0000      -0.603300       -16.4166
  14   2.0000      -0.582537       -15.8516
  15   2.0000      -0.555562       -15.1176
  16   2.0000      -0.536272       -14.5927
  17   2.0000      -0.530576       -14.4377
  18   2.0000      -0.510134       -13.8815
  19   2.0000      -0.481473       -13.1016
  20   0.0000       0.073397         1.9972
  21   0.0000       0.122704         3.3390
  22   0.0000       0.141899         3.8613
  23   0.0000       0.162969         4.4346
  24   0.0000       0.178557         4.8588

MULLIKEN ATOMIC CHARGES
-----------------------
   0 O :   -0.687507
   1 H :    0.329713
   2 H :    0.358650
   3 O :   -0.667087
   4 H :    0.327201
   5 H :    0.343416
   6 O :   -0.697777
   7 H :    0.369907
   8 H :    0.324416
   9 O :   -0.681568
  10 H :    0.329653
  11 H :    0.350984
Sum of atomic charges:   -0.0000000

LOEWDIN ATOMIC CHARGES
----------------------
   0 O :   -0.315277
   1 H :    0.167451
   2 H :    0.173801
   3 O :   -0.326484
   4 H :    0.159320
   5 H :    0.169821
   6 O :   -0.338788
   7 H :    0.152760
   8 H :    0.157901
   9 O :   -0.332909
  10 H :    0.161830
  11 H :    0.170575

  Mayer bond orders larger than 0.100000
B(  0-O ,  1-H ) :   0.8479 B(  0-O ,  2-H ) :   0.8367 B(  3-O ,  4-H ) :   0.8574
B(  3-O ,  5-H ) :   0.8489 B(  6-O ,  7-H ) :   0.8216 B(  6-O ,  8-H ) :   0.8573
B(  9-O , 10-H ) :   0.8572 B(  9-O , 11-H ) :   0.8408

MP2 TOTAL ENERGY:     -305.260274499 Eh
FINAL SINGLE POINT ENERGY      -305.260274498586

DIPOLE MOMENT
-------------
                                X             Y             Z
Electronic contribution:     -0.02784      -0.21671       0.02858
Nuclear contribution   :     -0.00102       1.02005      -1.46039
                        -----------------------------------------
Total Dipole Moment    :     -0.02886       0.80334      -1.43181
                        -----------------------------------------
Magnitude (a.u.)       :      1.64203
Magnitude (Debye)      :      4.17370

Rotational constants in cm-1:     0.088691     0.037212     0.026873
Rotational constants in MHz :  2658.898910  1115.602623   805.637497

                             ****ORCA TERMINATED NORMALLY****
TOTAL RUN TIME: 0 days 0 hours 0 minutes 17 seconds 976 msec
