                         Program Version 4.2.0 -  RELEASE  -
|  1> # 12h2o.su.etal.mol2,4,5,6,7,8,10
|  2> ! MP2 def2-TZVP EnGrad TightSCF
|  3>
|  4> %pal
|  5>     nprocs 6
|  6> end
|  7>
|  8> %maxcore 8000
|  9>
| 10> %scf
| 11>     ConvForced true
| 12> end
| 13>
| 14> *xyz 0 1
| 15> O   0.923410000  -1.794470000  -2.768350000
| 16> H   1.359750000  -2.338250000  -3.430940000
| 17> H   1.303000000  -0.879480000  -2.865760000
| 18> O  -0.885520000   1.737840000   0.052730000
| 19> H  -1.032320000   2.090180000  -0.841890000
| 20> H  -1.284090000   0.839590000   0.017130000
| 21> O   0.885520000  -1.737840000   0.052730000
| 22> H   1.284090000  -0.839590000   0.017130000
| 23> H   1.032320000  -2.090180000  -0.841890000
| 24> O   1.737840000   0.885520000  -0.052730000
| 25> H   2.090180000   1.032320000   0.841890000
| 26> H   0.839590000   1.284090000  -0.017130000
| 27> O  -1.737840000  -0.885520000  -0.052730000
| 28> H  -2.090180000  -1.032320000   0.841890000
| 29> H  -0.839590000  -1.284090000  -0.017130000
| 30> O   1.752130000   0.741530000  -2.896280000
| 31> H   2.036450000   0.920500000  -1.984040000
| 32> H   0.921210000   1.242140000  -2.984230000
| 33> O  -0.923410000   1.794470000  -2.768350000
| 34> H  -1.359750000   2.338250000  -3.430940000
| 35> H  -1.303000000   0.879480000  -2.865760000
| 36> *
| 37>
| 38>                          ****END OF INPUT****

CARTESIAN COORDINATES (ANGSTROEM)
---------------------------------
  O      0.923410   -1.794470   -2.768350
  H      1.359750   -2.338250   -3.430940
  H      1.303000   -0.879480   -2.865760
  O     -0.885520    1.737840    0.052730
  H     -1.032320    2.090180   -0.841890
  H     -1.284090    0.839590    0.017130
  O      0.885520   -1.737840    0.052730
  H      1.284090   -0.839590    0.017130
  H      1.032320   -2.090180   -0.841890
  O      1.737840    0.885520   -0.052730
  H      2.090180    1.032320    0.841890
  H      0.839590    1.284090   -0.017130
  O     -1.737840   -0.885520   -0.052730
  H     -2.090180   -1.032320    0.841890
  H     -0.839590   -1.284090   -0.017130
  O      1.752130    0.741530   -2.896280
  H      2.036450    0.920500   -1.984040
  H      0.921210    1.242140   -2.984230
  O     -0.923410    1.794470   -2.768350
  H     -1.359750    2.338250   -3.430940
  H     -1.303000    0.879480   -2.865760

 Total Charge           Charge          ....    0
 Multiplicity           Mult            ....    1
 Number of Electrons    NEL             ....   70
 Basis Dimension        Dim             ....  301

ORBITAL ENERGIES
----------------

  NO   OCC          E(Eh)            E(eV)
   0   2.0000     -20.615909      -560.9874
   1   2.0000     -20.574268      -559.8543
   2   2.0000     -20.556038      -559.3582
   3   2.0000     -20.551886      -559.2453
   4   2.0000     -20.544519      -559.0448
   5   2.0000     -20.538185      -558.8724
   6   2.0000     -20.528121      -558.5986
   7   2.0000      -1.396566       -38.0025
   8   2.0000      -1.367384       -37.2084
   9   2.0000      -1.348848       -36.7040
  10   2.0000      -1.343356       -36.5546
  11   2.0000      -1.328284       -36.1444
  12   2.0000      -1.322094       -35.9760
  13   2.0000      -1.309568       -35.6352
  14   2.0000      -0.761891       -20.7321
  15   2.0000      -0.730057       -19.8658
  16   2.0000      -0.713910       -19.4265
  17   2.0000      -0.707617       -19.2552
  18   2.0000      -0.704401       -19.1677
  19   2.0000      -0.702625       -19.1194
  20   2.0000      -0.690719       -18.7954
  21   2.0000      -0.643506       -17.5107
  22   2.0000      -0.618982       -16.8434
  23   2.0000      -0.603383       -16.4189
  24   2.0000      -0.589414       -16.0388
  25   2.0000      -0.574749       -15.6397
  26   2.0000      -0.573687       -15.6108
  27   2.0000      -0.547086       -14.8870
  28   2.0000      -0.542791       -14.7701
  29   2.0000      -0.513403       -13.9704
  30   2.0000      -0.498736       -13.5713
  31   2.0000      -0.497190       -13.5292
  32   2.0000      -0.492781       -13.4092
  33   2.0000      -0.486944       -13.2504
  34   2.0000      -0.476744       -12.9729
  35   0.0000       0.098594         2.6829
  36   0.0000       0.136538         3.7154
  37   0.0000       0.155532         4.2322
  38   0.0000       0.160270         4.3612
  39   0.0000       0.191670         5.2156

MULLIKEN ATOMIC CHARGES
-----------------------
   0 O :   -0.744701
   1 H :    0.335485
   2 H :    0.370344
   3 O :   -0.728830
   4 H :    0.370669
   5 H :    0.357808
   6 O :   -0.736145
   7 H :    0.352677
   8 H :    0.378567
   9 O :   -0.744201
  10 H :    0.359394
  11 H :    0.370507
  12 O :   -0.726215
  13 H :    0.345892
  14 H :    0.378843
  15 O :   -0.716299
  16 H :    0.386791
  17 H :    0.364196
  18 O :   -0.727390
  19 H :    0.366269
  20 H :    0.386341
Sum of atomic charges:   -0.0000000

LOEWDIN ATOMIC CHARGES
----------------------
   0 O :   -0.345212
   1 H :    0.152874
   2 H :    0.142948
   3 O :   -0.316503
   4 H :    0.146598
   5 H :    0.140006
   6 O :   -0.319681
   7 H :    0.137278
   8 H :    0.150184
   9 O :   -0.300160
  10 H :    0.171679
  11 H :    0.145859
  12 O :   -0.315760
  13 H :    0.165506
  14 H :    0.146766
  15 O :   -0.285260
  16 H :    0.156932
  17 H :    0.148334
  18 O :   -0.289190
  19 H :    0.169077
  20 H :    0.197725

  Mayer bond orders larger than 0.100000
B(  0-O ,  1-H ) :   0.8513 B(  0-O ,  2-H ) :   0.7506 B(  2-H , 15-O ) :   0.1112
B(  3-O ,  4-H ) :   0.8167 B(  3-O ,  5-H ) :   0.7687 B(  3-O , 11-H ) :   0.1278
B(  5-H , 12-O ) :   0.1161 B(  6-O ,  7-H ) :   0.7906 B(  6-O ,  8-H ) :   0.7982
B(  6-O , 14-H ) :   0.1190 B(  9-O , 10-H ) :   0.8350 B(  9-O , 11-H ) :   0.7422
B( 12-O , 13-H ) :   0.8445 B( 12-O , 14-H ) :   0.7510 B( 15-O , 16-H ) :   0.8030
B( 15-O , 17-H ) :   0.8120 B( 18-O , 19-H ) :   0.8308 B( 18-O , 20-H ) :   0.8079

MP2 TOTAL ENERGY:     -534.280059491 Eh
FINAL SINGLE POINT ENERGY      -534.280059491388

DIPOLE MOMENT
-------------
                                X             Y             Z
Electronic contribution:     -0.02119       0.24852      -0.11668
Nuclear contribution   :     -0.45497       0.56566      -0.57908
                        -----------------------------------------
Total Dipole Moment    :     -0.47616       0.81418      -0.69576
                        -----------------------------------------
Magnitude (a.u.)       :      1.17205
Magnitude (Debye)      :      2.97911

Rotational constants in cm-1:     0.038269     0.037324     0.029473
Rotational constants in MHz :  1147.275514  1118.956904   883.565955

                             ****ORCA TERMINATED NORMALLY****
TOTAL RUN TIME: 0 days 0 hours 2 minutes 48 seconds 377 msec
