                         Program Version 4.2.0 -  RELEASE  -
|  1> # 12mecn.remya.etal.2.mol9
|  2> ! MP2 def2-TZVP EnGrad TightSCF
|  3>
|  4> %pal
|  5>     nprocs 6
|  6> end
|  7>
|  8> %maxcore 8000
|  9>
| 10> %scf
| 11>     ConvForced true
| 12> end
| 13>
| 14> *xyz 0 1
| 15> C   0.923766000   4.000693000  -1.575910000
| 16> H   0.011949000   4.478423000  -1.939550000
| 17> H   0.947903000   2.966558000  -1.929960000
| 18> H   1.805950000   4.519548000  -1.956520000
| 19> C   0.942834000   3.994846000  -0.131200000
| 20> N   0.960035000   3.982544000   1.035639000
| 21> *
| 22>
| 23>                          ****END OF INPUT****

CARTESIAN COORDINATES (ANGSTROEM)
---------------------------------
  C      0.923766    4.000693   -1.575910
  H      0.011949    4.478423   -1.939550
  H      0.947903    2.966558   -1.929960
  H      1.805950    4.519548   -1.956520
  C      0.942834    3.994846   -0.131200
  N      0.960035    3.982544    1.035639

 Total Charge           Charge          ....    0
 Multiplicity           Mult            ....    1
 Number of Electrons    NEL             ....   22
 Basis Dimension        Dim             ....  111

ORBITAL ENERGIES
----------------

  NO   OCC          E(Eh)            E(eV)
   0   2.0000     -15.573518      -423.7770
   1   2.0000     -11.285137      -307.0842
   2   2.0000     -11.280452      -306.9567
   3   2.0000      -1.214665       -33.0527
   4   2.0000      -1.044730       -28.4286
   5   2.0000      -0.700872       -19.0717
   6   2.0000      -0.634532       -17.2665
   7   2.0000      -0.630602       -17.1596
   8   2.0000      -0.556131       -15.1331
   9   2.0000      -0.458187       -12.4679
  10   2.0000      -0.457397       -12.4464
  11   0.0000       0.118740         3.2311
  12   0.0000       0.171040         4.6542
  13   0.0000       0.171146         4.6571
  14   0.0000       0.202122         5.5000
  15   0.0000       0.223682         6.0867

MULLIKEN ATOMIC CHARGES
-----------------------
   0 C :   -0.279065
   1 H :    0.172309
   2 H :    0.171904
   3 H :    0.172204
   4 C :   -0.145635
   5 N :   -0.091717
Sum of atomic charges:    0.0000000

LOEWDIN ATOMIC CHARGES
----------------------
   0 C :   -0.283581
   1 H :    0.151565
   2 H :    0.153362
   3 H :    0.151929
   4 C :   -0.219502
   5 N :    0.046226

  Mayer bond orders larger than 0.100000
B(  0-C ,  1-H ) :   0.9163 B(  0-C ,  2-H ) :   0.9171 B(  0-C ,  3-H ) :   0.9165
B(  0-C ,  4-C ) :   0.9017 B(  4-C ,  5-N ) :   2.8366

MP2 TOTAL ENERGY:     -132.483088496 Eh
FINAL SINGLE POINT ENERGY      -132.483088496007

DIPOLE MOMENT
-------------
                                X             Y             Z
Electronic contribution:      0.03516       0.01492       3.11298
Nuclear contribution   :     -0.05521      -0.01044      -4.64472
                        -----------------------------------------
Total Dipole Moment    :     -0.02004       0.00448      -1.53175
                        -----------------------------------------
Magnitude (a.u.)       :      1.53188
Magnitude (Debye)      :      3.89374

Rotational constants in cm-1:     5.263591     0.308621     0.308371
Rotational constants in MHz : 157798.496256  9252.214634  9244.737715

                             ****ORCA TERMINATED NORMALLY****
TOTAL RUN TIME: 0 days 0 hours 0 minutes 11 seconds 683 msec
