                         Program Version 4.2.0 -  RELEASE  -
|  1> # 12h2o.su.etal.mol1,4,6,7,8,9,10,11
|  2> ! MP2 def2-TZVP EnGrad TightSCF
|  3>
|  4> %pal
|  5>     nprocs 6
|  6> end
|  7>
|  8> %maxcore 8000
|  9>
| 10> %scf
| 11>     ConvForced true
| 12> end
| 13>
| 14> *xyz 0 1
| 15> O  -1.794470000  -0.923410000   2.768350000
| 16> H  -2.338250000  -1.359750000   3.430940000
| 17> H  -0.879480000  -1.303000000   2.865760000
| 18> O  -0.885520000   1.737840000   0.052730000
| 19> H  -1.032320000   2.090180000  -0.841890000
| 20> H  -1.284090000   0.839590000   0.017130000
| 21> O   1.737840000   0.885520000  -0.052730000
| 22> H   2.090180000   1.032320000   0.841890000
| 23> H   0.839590000   1.284090000  -0.017130000
| 24> O  -1.737840000  -0.885520000  -0.052730000
| 25> H  -2.090180000  -1.032320000   0.841890000
| 26> H  -0.839590000  -1.284090000  -0.017130000
| 27> O   1.752130000   0.741530000  -2.896280000
| 28> H   2.036450000   0.920500000  -1.984040000
| 29> H   0.921210000   1.242140000  -2.984230000
| 30> O   0.741530000  -1.752130000   2.896280000
| 31> H   0.920500000  -2.036450000   1.984040000
| 32> H   1.242140000  -0.921210000   2.984230000
| 33> O  -0.923410000   1.794470000  -2.768350000
| 34> H  -1.359750000   2.338250000  -3.430940000
| 35> H  -1.303000000   0.879480000  -2.865760000
| 36> O  -0.741530000   1.752130000   2.896280000
| 37> H  -0.920500000   2.036450000   1.984040000
| 38> H  -1.242140000   0.921210000   2.984230000
| 39> *
| 40>
| 41>                          ****END OF INPUT****

CARTESIAN COORDINATES (ANGSTROEM)
---------------------------------
  O     -1.794470   -0.923410    2.768350
  H     -2.338250   -1.359750    3.430940
  H     -0.879480   -1.303000    2.865760
  O     -0.885520    1.737840    0.052730
  H     -1.032320    2.090180   -0.841890
  H     -1.284090    0.839590    0.017130
  O      1.737840    0.885520   -0.052730
  H      2.090180    1.032320    0.841890
  H      0.839590    1.284090   -0.017130
  O     -1.737840   -0.885520   -0.052730
  H     -2.090180   -1.032320    0.841890
  H     -0.839590   -1.284090   -0.017130
  O      1.752130    0.741530   -2.896280
  H      2.036450    0.920500   -1.984040
  H      0.921210    1.242140   -2.984230
  O      0.741530   -1.752130    2.896280
  H      0.920500   -2.036450    1.984040
  H      1.242140   -0.921210    2.984230
  O     -0.923410    1.794470   -2.768350
  H     -1.359750    2.338250   -3.430940
  H     -1.303000    0.879480   -2.865760
  O     -0.741530    1.752130    2.896280
  H     -0.920500    2.036450    1.984040
  H     -1.242140    0.921210    2.984230

 Total Charge           Charge          ....    0
 Multiplicity           Mult            ....    1
 Number of Electrons    NEL             ....   80
 Basis Dimension        Dim             ....  344

ORBITAL ENERGIES
----------------

  NO   OCC          E(Eh)            E(eV)
   0   2.0000     -20.619009      -561.0718
   1   2.0000     -20.610457      -560.8390
   2   2.0000     -20.586101      -560.1763
   3   2.0000     -20.582128      -560.0682
   4   2.0000     -20.558113      -559.4147
   5   2.0000     -20.550164      -559.1984
   6   2.0000     -20.515983      -558.2683
   7   2.0000     -20.504832      -557.9648
   8   2.0000      -1.405559       -38.2472
   9   2.0000      -1.391067       -37.8529
  10   2.0000      -1.375500       -37.4293
  11   2.0000      -1.363757       -37.1097
  12   2.0000      -1.349754       -36.7287
  13   2.0000      -1.330917       -36.2161
  14   2.0000      -1.300983       -35.4015
  15   2.0000      -1.289977       -35.1021
  16   2.0000      -0.761182       -20.7128
  17   2.0000      -0.756377       -20.5821
  18   2.0000      -0.750101       -20.4113
  19   2.0000      -0.732293       -19.9267
  20   2.0000      -0.722556       -19.6618
  21   2.0000      -0.705309       -19.1924
  22   2.0000      -0.679902       -18.5011
  23   2.0000      -0.669994       -18.2315
  24   2.0000      -0.651782       -17.7359
  25   2.0000      -0.635729       -17.2991
  26   2.0000      -0.620130       -16.8746
  27   2.0000      -0.599756       -16.3202
  28   2.0000      -0.595718       -16.2103
  29   2.0000      -0.588075       -16.0023
  30   2.0000      -0.558534       -15.1985
  31   2.0000      -0.551910       -15.0182
  32   2.0000      -0.538730       -14.6596
  33   2.0000      -0.524678       -14.2772
  34   2.0000      -0.521475       -14.1901
  35   2.0000      -0.520285       -14.1577
  36   2.0000      -0.505336       -13.7509
  37   2.0000      -0.496209       -13.5025
  38   2.0000      -0.465982       -12.6800
  39   2.0000      -0.454699       -12.3730
  40   0.0000       0.077509         2.1091
  41   0.0000       0.105822         2.8796
  42   0.0000       0.134952         3.6722
  43   0.0000       0.140986         3.8364
  44   0.0000       0.170669         4.6441

MULLIKEN ATOMIC CHARGES
-----------------------
   0 O :   -0.753022
   1 H :    0.355609
   2 H :    0.381745
   3 O :   -0.747963
   4 H :    0.379332
   5 H :    0.361979
   6 O :   -0.734950
   7 H :    0.332150
   8 H :    0.362538
   9 O :   -0.702081
  10 H :    0.385553
  11 H :    0.340706
  12 O :   -0.725953
  13 H :    0.369302
  14 H :    0.338443
  15 O :   -0.682236
  16 H :    0.358113
  17 H :    0.372940
  18 O :   -0.716525
  19 H :    0.364361
  20 H :    0.376644
  21 O :   -0.734111
  22 H :    0.370855
  23 H :    0.346570
Sum of atomic charges:    0.0000000

LOEWDIN ATOMIC CHARGES
----------------------
   0 O :   -0.312962
   1 H :    0.161716
   2 H :    0.145850
   3 O :   -0.299731
   4 H :    0.150935
   5 H :    0.142041
   6 O :   -0.343168
   7 H :    0.157729
   8 H :    0.143082
   9 O :   -0.297550
  10 H :    0.154817
  11 H :    0.169026
  12 O :   -0.356006
  13 H :    0.150932
  14 H :    0.138349
  15 O :   -0.264530
  16 H :    0.172711
  17 H :    0.180862
  18 O :   -0.287502
  19 H :    0.167993
  20 H :    0.193942
  21 O :   -0.356935
  22 H :    0.148671
  23 H :    0.139730

  Mayer bond orders larger than 0.100000
B(  0-O ,  1-H ) :   0.8376 B(  0-O ,  2-H ) :   0.7487 B(  3-O ,  4-H ) :   0.8052
B(  3-O ,  5-H ) :   0.7665 B(  6-O ,  7-H ) :   0.8509 B(  6-O ,  8-H ) :   0.7665
B(  9-O , 10-H ) :   0.7925 B(  9-O , 11-H ) :   0.8416 B( 12-O , 13-H ) :   0.8214
B( 12-O , 14-H ) :   0.8397 B( 15-O , 16-H ) :   0.8356 B( 15-O , 17-H ) :   0.8222
B( 18-O , 19-H ) :   0.8321 B( 18-O , 20-H ) :   0.8162 B( 21-O , 22-H ) :   0.8200
B( 21-O , 23-H ) :   0.8272

MP2 TOTAL ENERGY:     -610.581620356 Eh
FINAL SINGLE POINT ENERGY      -610.581620356479

DIPOLE MOMENT
-------------
                                X             Y             Z
Electronic contribution:     -0.06941      -0.17217       0.05117
Nuclear contribution   :     -1.27908      -0.87687       0.08817
                        -----------------------------------------
Total Dipole Moment    :     -1.34849      -1.04903       0.13935
                        -----------------------------------------
Magnitude (a.u.)       :      1.71415
Magnitude (Debye)      :      4.35703

Rotational constants in cm-1:     0.040203     0.017171     0.015908
Rotational constants in MHz :  1205.244467   514.782676   476.898434

                             ****ORCA TERMINATED NORMALLY****
TOTAL RUN TIME: 0 days 0 hours 3 minutes 11 seconds 450 msec
