                         Program Version 4.2.0 -  RELEASE  -
|  1> ! MP2 def2-TZVP EnGrad TightSCF FrozenCore
|  2>
|  3> %pal
|  4>     nprocs 12
|  5> end
|  6>
|  7> %maxcore 8000
|  8>
|  9> %scf
| 10>     ConvForced true
| 11> end
| 12>
| 13> *xyz 0 1
| 14> C    -0.579689     0.000589     2.179920
| 15> H    -0.132725     0.000287     1.180088
| 16> H    -0.250597    -0.898477     2.707829
| 17> H    -0.250307     0.899787     2.707423
| 18> C    -2.033193     0.000806     2.050586
| 19> N    -3.189440     0.000973     1.931121
| 20> C     0.711835     2.660249    -1.792294
| 21> H     1.296715     3.486335    -2.204857
| 22> H    -0.329527     2.752677    -2.109665
| 23> H     1.109160     1.708524    -2.155397
| 24> C     0.788923     2.676739    -0.334221
| 25> N     0.864892     2.693797     0.825370
| 26> C     0.712347    -2.661186    -1.790892
| 27> H     1.297532    -3.487305    -2.202957
| 28> H     1.109413    -1.709528    -2.154454
| 29> H    -0.328952    -2.754114    -2.108325
| 30> C     0.789285    -2.676885    -0.332802
| 31> N     0.865133    -2.693308     0.826806
| 32> C    -3.786226    -0.000854    -1.167017
| 33> H    -4.124576    -0.881866    -0.616703
| 34> H    -4.213051    -0.001053    -2.173180
| 35> H    -4.124795     0.880214    -0.616932
| 36> C    -2.326957    -0.000683    -1.242343
| 37> N    -1.166576    -0.000557    -1.311714
| 38> C     2.900969     0.000580     1.561898
| 39> H     2.414007     0.896438     1.960042
| 40> H     3.955098     0.000621     1.850783
| 41> H     2.413943    -0.895020     1.960548
| 42> C     2.780803     0.000174     0.106612
| 43> N     2.684573    -0.000146    -1.051715
| 44> *
| 45>
| 46>                          ****END OF INPUT****

CARTESIAN COORDINATES (ANGSTROEM)
---------------------------------
  C     -0.579689    0.000589    2.179920
  H     -0.132725    0.000287    1.180088
  H     -0.250597   -0.898477    2.707829
  H     -0.250307    0.899787    2.707423
  C     -2.033193    0.000806    2.050586
  N     -3.189440    0.000973    1.931121
  C      0.711835    2.660249   -1.792294
  H      1.296715    3.486335   -2.204857
  H     -0.329527    2.752677   -2.109665
  H      1.109160    1.708524   -2.155397
  C      0.788923    2.676739   -0.334221
  N      0.864892    2.693797    0.825370
  C      0.712347   -2.661186   -1.790892
  H      1.297532   -3.487305   -2.202957
  H      1.109413   -1.709528   -2.154454
  H     -0.328952   -2.754114   -2.108325
  C      0.789285   -2.676885   -0.332802
  N      0.865133   -2.693308    0.826806
  C     -3.786226   -0.000854   -1.167017
  H     -4.124576   -0.881866   -0.616703
  H     -4.213051   -0.001053   -2.173180
  H     -4.124795    0.880214   -0.616932
  C     -2.326957   -0.000683   -1.242343
  N     -1.166576   -0.000557   -1.311714
  C      2.900969    0.000580    1.561898
  H      2.414007    0.896438    1.960042
  H      3.955098    0.000621    1.850783
  H      2.413943   -0.895020    1.960548
  C      2.780803    0.000174    0.106612
  N      2.684573   -0.000146   -1.051715

 Total Charge           Charge          ....    0
 Multiplicity           Mult            ....    1
 Number of Electrons    NEL             ....  110
 Basis Dimension        Dim             ....  555

ORBITAL ENERGIES
----------------

  NO   OCC          E(Eh)            E(eV)
   0   2.0000     -15.576936      -423.8700
   1   2.0000     -15.566195      -423.5777
   2   2.0000     -15.564484      -423.5311
   3   2.0000     -15.564483      -423.5311
   4   2.0000     -15.558729      -423.3745
   5   2.0000     -11.291352      -307.2533
   6   2.0000     -11.280765      -306.9652
   7   2.0000     -11.278660      -306.9080
   8   2.0000     -11.278660      -306.9079
   9   2.0000     -11.277812      -306.8849
  10   2.0000     -11.271988      -306.7264
  11   2.0000     -11.267223      -306.5967
  12   2.0000     -11.265684      -306.5548
  13   2.0000     -11.265684      -306.5548
  14   2.0000     -11.254354      -306.2465
  15   2.0000      -1.226607       -33.3777
  16   2.0000      -1.217320       -33.1250
  17   2.0000      -1.213409       -33.0185
  18   2.0000      -1.211642       -32.9704
  19   2.0000      -1.207171       -32.8488
  20   2.0000      -1.036070       -28.1929
  21   2.0000      -1.028028       -27.9741
  22   2.0000      -1.024326       -27.8733
  23   2.0000      -1.023545       -27.8521
  24   2.0000      -1.014406       -27.6034
  25   2.0000      -0.696882       -18.9631
  26   2.0000      -0.688453       -18.7338
  27   2.0000      -0.684012       -18.6129
  28   2.0000      -0.682331       -18.5672
  29   2.0000      -0.676085       -18.3972
  30   2.0000      -0.629918       -17.1409
  31   2.0000      -0.623763       -16.9735
  32   2.0000      -0.623693       -16.9716
  33   2.0000      -0.622531       -16.9399
  34   2.0000      -0.616340       -16.7715
  35   2.0000      -0.613629       -16.6977
  36   2.0000      -0.609993       -16.5987
  37   2.0000      -0.607355       -16.5270
  38   2.0000      -0.602524       -16.3955
  39   2.0000      -0.598417       -16.2838
  40   2.0000      -0.563599       -15.3363
  41   2.0000      -0.557249       -15.1635
  42   2.0000      -0.552925       -15.0459
  43   2.0000      -0.552128       -15.0242
  44   2.0000      -0.546969       -14.8838
  45   2.0000      -0.470045       -12.7906
  46   2.0000      -0.468123       -12.7383
  47   2.0000      -0.461185       -12.5495
  48   2.0000      -0.460908       -12.5419
  49   2.0000      -0.457544       -12.4504
  50   2.0000      -0.456360       -12.4182
  51   2.0000      -0.453518       -12.3408
  52   2.0000      -0.451513       -12.2863
  53   2.0000      -0.447583       -12.1793
  54   2.0000      -0.445563       -12.1244
  55   0.0000       0.116613         3.1732
  56   0.0000       0.144535         3.9330
  57   0.0000       0.148531         4.0417
  58   0.0000       0.154447         4.2027
  59   0.0000       0.162502         4.4219

MULLIKEN ATOMIC CHARGES
-----------------------
   0 C :   -0.272646
   1 H :    0.169422
   2 H :    0.181249
   3 H :    0.181240
   4 C :   -0.127736
   5 N :   -0.136068
   6 C :   -0.269345
   7 H :    0.169389
   8 H :    0.158984
   9 H :    0.200998
  10 C :   -0.098018
  11 N :   -0.163056
  12 C :   -0.269344
  13 H :    0.169388
  14 H :    0.201003
  15 H :    0.158979
  16 C :   -0.098027
  17 N :   -0.163051
  18 C :   -0.265463
  19 H :    0.183419
  20 H :    0.171105
  21 H :    0.183466
  22 C :   -0.059796
  23 N :   -0.206727
  24 C :   -0.303921
  25 H :    0.193828
  26 H :    0.175083
  27 H :    0.193828
  28 C :   -0.083427
  29 N :   -0.174755
Sum of atomic charges:    0.0000000

LOEWDIN ATOMIC CHARGES
----------------------
   0 C :   -0.288229
   1 H :    0.152486
   2 H :    0.151063
   3 H :    0.151063
   4 C :   -0.201038
   5 N :    0.027422
   6 C :   -0.285193
   7 H :    0.147870
   8 H :    0.148173
   9 H :    0.155442
  10 C :   -0.202421
  11 N :    0.026651
  12 C :   -0.285195
  13 H :    0.147871
  14 H :    0.155442
  15 H :    0.148172
  16 C :   -0.202426
  17 N :    0.026648
  18 C :   -0.281845
  19 H :    0.157036
  20 H :    0.146829
  21 H :    0.157039
  22 C :   -0.197458
  23 N :    0.041644
  24 C :   -0.283007
  25 H :    0.153591
  26 H :    0.149016
  27 H :    0.153591
  28 C :   -0.200473
  29 N :    0.030233

  Mayer bond orders larger than 0.100000
B(  0-C ,  1-H ) :   0.9050 B(  0-C ,  2-H ) :   0.8985 B(  0-C ,  3-H ) :   0.8985
B(  0-C ,  4-C ) :   0.9467 B(  4-C ,  5-N ) :   2.8152 B(  6-C ,  7-H ) :   0.9110
B(  6-C ,  8-H ) :   0.9191 B(  6-C ,  9-H ) :   0.9045 B(  6-C , 10-C ) :   0.9040
B( 10-C , 11-N ) :   2.7625 B( 12-C , 13-H ) :   0.9110 B( 12-C , 14-H ) :   0.9045
B( 12-C , 15-H ) :   0.9191 B( 12-C , 16-C ) :   0.9040 B( 16-C , 17-N ) :   2.7625
B( 18-C , 19-H ) :   0.9159 B( 18-C , 20-H ) :   0.9110 B( 18-C , 21-H ) :   0.9158
B( 18-C , 22-C ) :   0.8909 B( 22-C , 23-N ) :   2.6703 B( 24-C , 25-H ) :   0.9074
B( 24-C , 26-H ) :   0.9085 B( 24-C , 27-H ) :   0.9074 B( 24-C , 28-C ) :   0.8993
B( 28-C , 29-N ) :   2.7323

MP2 TOTAL ENERGY:     -662.456769343 Eh
FINAL SINGLE POINT ENERGY      -662.456769343468

DIPOLE MOMENT
-------------
                                X             Y             Z
Electronic contribution:      0.08124       0.00170       2.61760
Nuclear contribution   :     -0.15934      -0.00249      -3.99418
                        -----------------------------------------
Total Dipole Moment    :     -0.07810      -0.00079      -1.37658
                        -----------------------------------------
Magnitude (a.u.)       :      1.37879
Magnitude (Debye)      :      3.50461

Rotational constants in cm-1:     0.016549     0.012918     0.011404
Rotational constants in MHz :   496.135743   387.263634   341.881768

                             ****ORCA TERMINATED NORMALLY****
TOTAL RUN TIME: 0 days 0 hours 19 minutes 19 seconds 266 msec
