                         Program Version 4.2.0 -  RELEASE  -
|  1> # 12meoh.boyd.etal.mol2,5,11
|  2> ! MP2 def2-TZVP EnGrad TightSCF
|  3>
|  4> %pal
|  5>     nprocs 6
|  6> end
|  7>
|  8> %maxcore 8000
|  9>
| 10> %scf
| 11>     ConvForced true
| 12> end
| 13>
| 14> *xyz 0 1
| 15> O  -3.839777402   2.233595098   0.660436763
| 16> H  -2.958345897   1.907036203   0.973588449
| 17> C  -3.600368059   3.168790682  -0.390480452
| 18> H  -4.551709193   3.344148967  -0.901254863
| 19> H  -2.868237594   2.789240199  -1.113617525
| 20> H  -3.243594915   4.128998607   0.009549480
| 21> O  -0.662721750   1.449094618  -1.383082065
| 22> H   0.064188300   2.119867608  -1.465650660
| 23> C  -0.353319239   0.341218776  -2.229326771
| 24> H  -1.072358530  -0.454743281  -2.019906495
| 25> H   0.657636746  -0.044472139  -2.042736771
| 26> H  -0.434616607   0.624733901  -3.287793021
| 27> O   3.252955559   0.588596242   1.858934315
| 28> H   3.621209177  -0.251605199   1.476063364
| 29> C   4.040824528   0.944288422   2.989639460
| 30> H   3.670521436   1.902573549   3.363847391
| 31> H   5.103749934   1.055868619   2.734277559
| 32> H   3.948540682   0.200279590   3.792908518
| 33> *
| 34>
| 35>                          ****END OF INPUT****

CARTESIAN COORDINATES (ANGSTROEM)
---------------------------------
  O     -3.839777    2.233595    0.660437
  H     -2.958346    1.907036    0.973588
  C     -3.600368    3.168791   -0.390480
  H     -4.551709    3.344149   -0.901255
  H     -2.868238    2.789240   -1.113618
  H     -3.243595    4.128999    0.009549
  O     -0.662722    1.449095   -1.383082
  H      0.064188    2.119868   -1.465651
  C     -0.353319    0.341219   -2.229327
  H     -1.072359   -0.454743   -2.019906
  H      0.657637   -0.044472   -2.042737
  H     -0.434617    0.624734   -3.287793
  O      3.252956    0.588596    1.858934
  H      3.621209   -0.251605    1.476063
  C      4.040825    0.944288    2.989639
  H      3.670521    1.902574    3.363847
  H      5.103750    1.055869    2.734278
  H      3.948541    0.200280    3.792909

 Total Charge           Charge          ....    0
 Multiplicity           Mult            ....    1
 Number of Electrons    NEL             ....   54
 Basis Dimension        Dim             ....  258

ORBITAL ENERGIES
----------------

  NO   OCC          E(Eh)            E(eV)
   0   2.0000     -20.562056      -559.5220
   1   2.0000     -20.561740      -559.5134
   2   2.0000     -20.537153      -558.8443
   3   2.0000     -11.275157      -306.8126
   4   2.0000     -11.274950      -306.8070
   5   2.0000     -11.250424      -306.1396
   6   2.0000      -1.350978       -36.7620
   7   2.0000      -1.350341       -36.7446
   8   2.0000      -1.326426       -36.0939
   9   2.0000      -0.923613       -25.1328
  10   2.0000      -0.923391       -25.1268
  11   2.0000      -0.899562       -24.4783
  12   2.0000      -0.685742       -18.6600
  13   2.0000      -0.685394       -18.6505
  14   2.0000      -0.661574       -18.0023
  15   2.0000      -0.620787       -16.8925
  16   2.0000      -0.620593       -16.8872
  17   2.0000      -0.599859       -16.3230
  18   2.0000      -0.594957       -16.1896
  19   2.0000      -0.591776       -16.1030
  20   2.0000      -0.570501       -15.5241
  21   2.0000      -0.505504       -13.7555
  22   2.0000      -0.504111       -13.7176
  23   2.0000      -0.481346       -13.0981
  24   2.0000      -0.453751       -12.3472
  25   2.0000      -0.453270       -12.3341
  26   2.0000      -0.428863       -11.6700
  27   0.0000       0.120784         3.2867
  28   0.0000       0.135122         3.6769
  29   0.0000       0.164591         4.4788
  30   0.0000       0.174254         4.7417
  31   0.0000       0.177244         4.8230

MULLIKEN ATOMIC CHARGES
-----------------------
   0 O :   -0.508652
   1 H :    0.326412
   2 C :   -0.176703
   3 H :    0.119357
   4 H :    0.127246
   5 H :    0.098432
   6 O :   -0.501392
   7 H :    0.326827
   8 C :   -0.170574
   9 H :    0.133847
  10 H :    0.113231
  11 H :    0.111821
  12 O :   -0.499320
  13 H :    0.321440
  14 C :   -0.172882
  15 H :    0.130002
  16 H :    0.109659
  17 H :    0.111250
Sum of atomic charges:    0.0000000

LOEWDIN ATOMIC CHARGES
----------------------
   0 O :   -0.114508
   1 H :    0.189385
   2 C :   -0.383888
   3 H :    0.105543
   4 H :    0.097044
   5 H :    0.092328
   6 O :   -0.107971
   7 H :    0.190881
   8 C :   -0.374676
   9 H :    0.111357
  10 H :    0.097913
  11 H :    0.096507
  12 O :   -0.110425
  13 H :    0.189741
  14 C :   -0.381279
  15 H :    0.110566
  16 H :    0.095446
  17 H :    0.096036

  Mayer bond orders larger than 0.100000
B(  0-O ,  1-H ) :   0.8404 B(  0-O ,  2-C ) :   0.9247 B(  2-C ,  3-H ) :   0.9387
B(  2-C ,  4-H ) :   0.9329 B(  2-C ,  5-H ) :   0.9400 B(  6-O ,  7-H ) :   0.8380
B(  6-O ,  8-C ) :   0.9114 B(  8-C ,  9-H ) :   0.9388 B(  8-C , 10-H ) :   0.9357
B(  8-C , 11-H ) :   0.9394 B( 12-O , 13-H ) :   0.8424 B( 12-O , 14-C ) :   0.9241
B( 14-C , 15-H ) :   0.9375 B( 14-C , 16-H ) :   0.9388 B( 14-C , 17-H ) :   0.9391

MP2 TOTAL ENERGY:     -346.523609588 Eh
FINAL SINGLE POINT ENERGY      -346.523609587872

DIPOLE MOMENT
-------------
                                X             Y             Z
Electronic contribution:     -1.90449      -0.26300       0.94847
Nuclear contribution   :      3.79671      -0.06438      -1.39775
                        -----------------------------------------
Total Dipole Moment    :      1.89223      -0.32738      -0.44928
                        -----------------------------------------
Magnitude (a.u.)       :      1.97219
Magnitude (Debye)      :      5.01292

Rotational constants in cm-1:     0.070069     0.015615     0.013229
Rotational constants in MHz :  2100.621506   468.136272   396.608940

                             ****ORCA TERMINATED NORMALLY****
TOTAL RUN TIME: 0 days 0 hours 0 minutes 56 seconds 381 msec
