                         Program Version 4.2.0 -  RELEASE  -
|  1> # 12mecn.remya.etal.2.mol2,6,7
|  2> ! MP2 def2-TZVP EnGrad TightSCF
|  3>
|  4> %pal
|  5>     nprocs 6
|  6> end
|  7>
|  8> %maxcore 8000
|  9>
| 10> %scf
| 11>     ConvForced true
| 12> end
| 13>
| 14> *xyz 0 1
| 15> C  -4.219070000  -3.477410000  -1.501740000
| 16> H  -3.251530000  -3.803540000  -1.893830000
| 17> H  -4.452920000  -2.481700000  -1.890840000
| 18> H  -4.992170000  -4.178130000  -1.824640000
| 19> C  -4.154550000  -3.418790000  -0.058340000
| 20> N  -4.091140000  -3.354840000   1.104432000
| 21> C   5.300864000  -2.920090000   1.401103000
| 22> H   5.986071000  -2.139770000   1.737487000
| 23> H   5.636642000  -3.888750000   1.778233000
| 24> H   4.307359000  -2.697240000   1.799307000
| 25> C   5.234791000  -2.933140000  -0.043290000
| 26> N   5.170868000  -2.941760000  -1.207750000
| 27> C   1.502241000   0.651296000   1.710523000
| 28> H   1.309219000   1.637164000   2.143202000
| 29> H   2.493408000   0.297996000   2.009069000
| 30> H   0.746597000  -0.059850000   2.055508000
| 31> C   1.447974000   0.738517000   0.269805000
| 32> N   1.405612000   0.808047000  -0.894380000
| 33> *
| 34>
| 35>                          ****END OF INPUT****

CARTESIAN COORDINATES (ANGSTROEM)
---------------------------------
  C     -4.219070   -3.477410   -1.501740
  H     -3.251530   -3.803540   -1.893830
  H     -4.452920   -2.481700   -1.890840
  H     -4.992170   -4.178130   -1.824640
  C     -4.154550   -3.418790   -0.058340
  N     -4.091140   -3.354840    1.104432
  C      5.300864   -2.920090    1.401103
  H      5.986071   -2.139770    1.737487
  H      5.636642   -3.888750    1.778233
  H      4.307359   -2.697240    1.799307
  C      5.234791   -2.933140   -0.043290
  N      5.170868   -2.941760   -1.207750
  C      1.502241    0.651296    1.710523
  H      1.309219    1.637164    2.143202
  H      2.493408    0.297996    2.009069
  H      0.746597   -0.059850    2.055508
  C      1.447974    0.738517    0.269805
  N      1.405612    0.808047   -0.894380

 Total Charge           Charge          ....    0
 Multiplicity           Mult            ....    1
 Number of Electrons    NEL             ....   66
 Basis Dimension        Dim             ....  333

ORBITAL ENERGIES
----------------

  NO   OCC          E(Eh)            E(eV)
   0   2.0000     -15.573701      -423.7820
   1   2.0000     -15.573181      -423.7678
   2   2.0000     -15.572920      -423.7607
   3   2.0000     -11.287838      -307.1577
   4   2.0000     -11.286854      -307.1309
   5   2.0000     -11.283472      -307.0389
   6   2.0000     -11.280704      -306.9636
   7   2.0000     -11.279944      -306.9429
   8   2.0000     -11.279376      -306.9274
   9   2.0000      -1.215169       -33.0664
  10   2.0000      -1.214852       -33.0578
  11   2.0000      -1.213912       -33.0322
  12   2.0000      -1.046212       -28.4689
  13   2.0000      -1.045537       -28.4505
  14   2.0000      -1.042473       -28.3671
  15   2.0000      -0.703355       -19.1393
  16   2.0000      -0.699988       -19.0476
  17   2.0000      -0.699452       -19.0331
  18   2.0000      -0.636200       -17.3119
  19   2.0000      -0.634666       -17.2701
  20   2.0000      -0.633335       -17.2339
  21   2.0000      -0.632732       -17.2175
  22   2.0000      -0.630261       -17.1503
  23   2.0000      -0.629661       -17.1339
  24   2.0000      -0.556687       -15.1482
  25   2.0000      -0.555790       -15.1238
  26   2.0000      -0.555038       -15.1034
  27   2.0000      -0.458450       -12.4751
  28   2.0000      -0.458258       -12.4698
  29   2.0000      -0.458040       -12.4639
  30   2.0000      -0.457925       -12.4608
  31   2.0000      -0.456990       -12.4353
  32   2.0000      -0.456718       -12.4279
  33   0.0000       0.093415         2.5420
  34   0.0000       0.121023         3.2932
  35   0.0000       0.134405         3.6573
  36   0.0000       0.165342         4.4992
  37   0.0000       0.168425         4.5831

MULLIKEN ATOMIC CHARGES
-----------------------
   0 C :   -0.279051
   1 H :    0.175308
   2 H :    0.173895
   3 H :    0.171484
   4 C :   -0.145418
   5 N :   -0.096210
   6 C :   -0.284913
   7 H :    0.172574
   8 H :    0.175532
   9 H :    0.165047
  10 C :   -0.143610
  11 N :   -0.084664
  12 C :   -0.280505
  13 H :    0.174469
  14 H :    0.161319
  15 H :    0.178216
  16 C :   -0.144890
  17 N :   -0.088582
Sum of atomic charges:    0.0000000

LOEWDIN ATOMIC CHARGES
----------------------
   0 C :   -0.282824
   1 H :    0.154017
   2 H :    0.153987
   3 H :    0.151035
   4 C :   -0.218473
   5 N :    0.042262
   6 C :   -0.285293
   7 H :    0.151075
   8 H :    0.151899
   9 H :    0.150170
  10 C :   -0.219756
  11 N :    0.051892
  12 C :   -0.284421
  13 H :    0.153139
  14 H :    0.149292
  15 H :    0.154187
  16 C :   -0.221380
  17 N :    0.049193

  Mayer bond orders larger than 0.100000
B(  0-C ,  1-H ) :   0.9152 B(  0-C ,  2-H ) :   0.9156 B(  0-C ,  3-H ) :   0.9165
B(  0-C ,  4-C ) :   0.9025 B(  4-C ,  5-N ) :   2.8406 B(  6-C ,  7-H ) :   0.9179
B(  6-C ,  8-H ) :   0.9157 B(  6-C ,  9-H ) :   0.9192 B(  6-C , 10-C ) :   0.9014
B( 10-C , 11-N ) :   2.8319 B( 12-C , 13-H ) :   0.9160 B( 12-C , 14-H ) :   0.9193
B( 12-C , 15-H ) :   0.9162 B( 12-C , 16-C ) :   0.8993 B( 16-C , 17-N ) :   2.8333

MP2 TOTAL ENERGY:     -397.449203440 Eh
FINAL SINGLE POINT ENERGY      -397.449203439617

DIPOLE MOMENT
-------------
                                X             Y             Z
Electronic contribution:     -0.12004       0.27350      -3.18512
Nuclear contribution   :      0.16704      -0.42140       4.62589
                        -----------------------------------------
Total Dipole Moment    :      0.04699      -0.14790       1.44077
                        -----------------------------------------
Magnitude (a.u.)       :      1.44911
Magnitude (Debye)      :      3.68333

Rotational constants in cm-1:     0.029904     0.008324     0.007397
Rotational constants in MHz :   896.490078   249.542951   221.756691

                             ****ORCA TERMINATED NORMALLY****
TOTAL RUN TIME: 0 days 0 hours 2 minutes 3 seconds 142 msec
