                         Program Version 4.2.0 -  RELEASE  -
|  1> # 12h2o.su.etal.mol0,1,5,6,8
|  2> ! MP2 def2-TZVP EnGrad TightSCF
|  3>
|  4> %pal
|  5>     nprocs 6
|  6> end
|  7>
|  8> %maxcore 8000
|  9>
| 10> %scf
| 11>     ConvForced true
| 12> end
| 13>
| 14> *xyz 0 1
| 15> O   1.794470000   0.923410000   2.768350000
| 16> H   2.338250000   1.359750000   3.430940000
| 17> H   0.879480000   1.303000000   2.865760000
| 18> O  -1.794470000  -0.923410000   2.768350000
| 19> H  -2.338250000  -1.359750000   3.430940000
| 20> H  -0.879480000  -1.303000000   2.865760000
| 21> O   0.885520000  -1.737840000   0.052730000
| 22> H   1.284090000  -0.839590000   0.017130000
| 23> H   1.032320000  -2.090180000  -0.841890000
| 24> O   1.737840000   0.885520000  -0.052730000
| 25> H   2.090180000   1.032320000   0.841890000
| 26> H   0.839590000   1.284090000  -0.017130000
| 27> O   1.752130000   0.741530000  -2.896280000
| 28> H   2.036450000   0.920500000  -1.984040000
| 29> H   0.921210000   1.242140000  -2.984230000
| 30> *
| 31>
| 32>                          ****END OF INPUT****

CARTESIAN COORDINATES (ANGSTROEM)
---------------------------------
  O      1.794470    0.923410    2.768350
  H      2.338250    1.359750    3.430940
  H      0.879480    1.303000    2.865760
  O     -1.794470   -0.923410    2.768350
  H     -2.338250   -1.359750    3.430940
  H     -0.879480   -1.303000    2.865760
  O      0.885520   -1.737840    0.052730
  H      1.284090   -0.839590    0.017130
  H      1.032320   -2.090180   -0.841890
  O      1.737840    0.885520   -0.052730
  H      2.090180    1.032320    0.841890
  H      0.839590    1.284090   -0.017130
  O      1.752130    0.741530   -2.896280
  H      2.036450    0.920500   -1.984040
  H      0.921210    1.242140   -2.984230

 Total Charge           Charge          ....    0
 Multiplicity           Mult            ....    1
 Number of Electrons    NEL             ....   50
 Basis Dimension        Dim             ....  215

ORBITAL ENERGIES
----------------

  NO   OCC          E(Eh)            E(eV)
   0   2.0000     -20.605357      -560.7003
   1   2.0000     -20.588094      -560.2305
   2   2.0000     -20.558337      -559.4208
   3   2.0000     -20.536192      -558.8182
   4   2.0000     -20.516651      -558.2865
   5   2.0000      -1.385403       -37.6987
   6   2.0000      -1.371621       -37.3237
   7   2.0000      -1.333692       -36.2916
   8   2.0000      -1.318068       -35.8665
   9   2.0000      -1.297827       -35.3157
  10   2.0000      -0.750854       -20.4318
  11   2.0000      -0.736746       -20.0479
  12   2.0000      -0.701753       -19.0957
  13   2.0000      -0.688435       -18.7333
  14   2.0000      -0.674600       -18.3568
  15   2.0000      -0.631236       -17.1768
  16   2.0000      -0.605550       -16.4778
  17   2.0000      -0.570601       -15.5268
  18   2.0000      -0.563478       -15.3330
  19   2.0000      -0.553285       -15.0556
  20   2.0000      -0.540316       -14.7027
  21   2.0000      -0.513750       -13.9799
  22   2.0000      -0.501645       -13.6504
  23   2.0000      -0.482541       -13.1306
  24   2.0000      -0.464878       -12.6500
  25   0.0000       0.087760         2.3881
  26   0.0000       0.130579         3.5532
  27   0.0000       0.138524         3.7694
  28   0.0000       0.170666         4.6441
  29   0.0000       0.186957         5.0874

MULLIKEN ATOMIC CHARGES
-----------------------
   0 O :   -0.698887
   1 H :    0.356722
   2 H :    0.360900
   3 O :   -0.694203
   4 H :    0.336564
   5 H :    0.356948
   6 O :   -0.720605
   7 H :    0.358465
   8 H :    0.332516
   9 O :   -0.719440
  10 H :    0.388430
  11 H :    0.346261
  12 O :   -0.693509
  13 H :    0.369188
  14 H :    0.320651
Sum of atomic charges:   -0.0000000

LOEWDIN ATOMIC CHARGES
----------------------
   0 O :   -0.309003
   1 H :    0.165989
   2 H :    0.187598
   3 O :   -0.343096
   4 H :    0.157196
   5 H :    0.184706
   6 O :   -0.363006
   7 H :    0.140789
   8 H :    0.160243
   9 O :   -0.283355
  10 H :    0.157546
  11 H :    0.173911
  12 O :   -0.338418
  13 H :    0.150237
  14 H :    0.158661

  Mayer bond orders larger than 0.100000
B(  0-O ,  1-H ) :   0.8392 B(  0-O ,  2-H ) :   0.8279 B(  3-O ,  4-H ) :   0.8540
B(  3-O ,  5-H ) :   0.8331 B(  6-O ,  7-H ) :   0.8051 B(  6-O ,  8-H ) :   0.8549
B(  9-O , 10-H ) :   0.7914 B(  9-O , 11-H ) :   0.8376 B( 12-O , 13-H ) :   0.8212
B( 12-O , 14-H ) :   0.8620

MP2 TOTAL ENERGY:     -381.588008846 Eh
FINAL SINGLE POINT ENERGY      -381.588008845880

DIPOLE MOMENT
-------------
                                X             Y             Z
Electronic contribution:      0.20639      -0.04646       0.06584
Nuclear contribution   :     -0.45542       1.47399       1.95129
                        -----------------------------------------
Total Dipole Moment    :     -0.24903       1.42753       2.01714
                        -----------------------------------------
Magnitude (a.u.)       :      2.48369
Magnitude (Debye)      :      6.31303

Rotational constants in cm-1:     0.079461     0.032177     0.026071
Rotational constants in MHz :  2382.166009   964.651773   781.585166

                             ****ORCA TERMINATED NORMALLY****
TOTAL RUN TIME: 0 days 0 hours 0 minutes 28 seconds 610 msec
