                         Program Version 4.2.0 -  RELEASE  -
|  1> # 12meoh.boyd.etal.mol0,5,7
|  2> ! MP2 def2-TZVP EnGrad TightSCF
|  3>
|  4> %pal
|  5>     nprocs 6
|  6> end
|  7>
|  8> %maxcore 8000
|  9>
| 10> %scf
| 11>     ConvForced true
| 12> end
| 13>
| 14> *xyz 0 1
| 15> O  -1.776108874  -2.741384797  -1.019308298
| 16> H  -2.520094035  -2.452295987  -0.420778302
| 17> C  -2.174025166  -3.952700964  -1.647004581
| 18> H  -1.359803895  -4.272673416  -2.304149236
| 19> H  -3.075973971  -3.808692420  -2.256751112
| 20> H  -2.370225393  -4.752784761  -0.918966137
| 21> O  -0.662721750   1.449094618  -1.383082065
| 22> H   0.064188300   2.119867608  -1.465650660
| 23> C  -0.353319239   0.341218776  -2.229326771
| 24> H  -1.072358530  -0.454743281  -2.019906495
| 25> H   0.657636746  -0.044472139  -2.042736771
| 26> H  -0.434616607   0.624733901  -3.287793021
| 27> O   4.310535586  -1.588322800   0.656128299
| 28> H   3.804372199  -1.630404735  -0.196849819
| 29> C   4.312298137  -2.894980854   1.222112691
| 30> H   4.713177833  -2.819907076   2.237066773
| 31> H   4.957796734  -3.574699304   0.648211180
| 32> H   3.302735989  -3.324433205   1.269756773
| 33> *
| 34>
| 35>                          ****END OF INPUT****

CARTESIAN COORDINATES (ANGSTROEM)
---------------------------------
  O     -1.776109   -2.741385   -1.019308
  H     -2.520094   -2.452296   -0.420778
  C     -2.174025   -3.952701   -1.647005
  H     -1.359804   -4.272673   -2.304149
  H     -3.075974   -3.808692   -2.256751
  H     -2.370225   -4.752785   -0.918966
  O     -0.662722    1.449095   -1.383082
  H      0.064188    2.119868   -1.465651
  C     -0.353319    0.341219   -2.229327
  H     -1.072359   -0.454743   -2.019906
  H      0.657637   -0.044472   -2.042737
  H     -0.434617    0.624734   -3.287793
  O      4.310536   -1.588323    0.656128
  H      3.804372   -1.630405   -0.196850
  C      4.312298   -2.894981    1.222113
  H      4.713178   -2.819907    2.237067
  H      4.957797   -3.574699    0.648211
  H      3.302736   -3.324433    1.269757

 Total Charge           Charge          ....    0
 Multiplicity           Mult            ....    1
 Number of Electrons    NEL             ....   54
 Basis Dimension        Dim             ....  258

ORBITAL ENERGIES
----------------

  NO   OCC          E(Eh)            E(eV)
   0   2.0000     -20.564177      -559.5797
   1   2.0000     -20.554555      -559.3179
   2   2.0000     -20.547310      -559.1207
   3   2.0000     -11.276762      -306.8563
   4   2.0000     -11.268907      -306.6425
   5   2.0000     -11.258491      -306.3591
   6   2.0000      -1.353498       -36.8305
   7   2.0000      -1.344219       -36.5781
   8   2.0000      -1.335347       -36.3367
   9   2.0000      -0.924702       -25.1624
  10   2.0000      -0.916831       -24.9482
  11   2.0000      -0.907942       -24.7063
  12   2.0000      -0.687595       -18.7104
  13   2.0000      -0.679039       -18.4776
  14   2.0000      -0.670648       -18.2493
  15   2.0000      -0.623266       -16.9599
  16   2.0000      -0.614156       -16.7120
  17   2.0000      -0.606152       -16.4942
  18   2.0000      -0.598543       -16.2872
  19   2.0000      -0.588113       -16.0034
  20   2.0000      -0.577202       -15.7065
  21   2.0000      -0.507211       -13.8019
  22   2.0000      -0.498182       -13.5562
  23   2.0000      -0.488207       -13.2848
  24   2.0000      -0.454214       -12.3598
  25   2.0000      -0.446287       -12.1441
  26   2.0000      -0.439214       -11.9516
  27   0.0000       0.118252         3.2178
  28   0.0000       0.132614         3.6086
  29   0.0000       0.150073         4.0837
  30   0.0000       0.170412         4.6372
  31   0.0000       0.173266         4.7148

MULLIKEN ATOMIC CHARGES
-----------------------
   0 O :   -0.493797
   1 H :    0.328663
   2 C :   -0.174089
   3 H :    0.127650
   4 H :    0.112881
   5 H :    0.111668
   6 O :   -0.503587
   7 H :    0.319618
   8 C :   -0.170522
   9 H :    0.145066
  10 H :    0.096219
  11 H :    0.100200
  12 O :   -0.496683
  13 H :    0.321797
  14 C :   -0.175110
  15 H :    0.128244
  16 H :    0.107542
  17 H :    0.114239
Sum of atomic charges:   -0.0000000

LOEWDIN ATOMIC CHARGES
----------------------
   0 O :   -0.102547
   1 H :    0.195521
   2 C :   -0.384087
   3 H :    0.109922
   4 H :    0.096337
   5 H :    0.097175
   6 O :   -0.115178
   7 H :    0.186986
   8 C :   -0.380511
   9 H :    0.110388
  10 H :    0.093518
  11 H :    0.092503
  12 O :   -0.109431
  13 H :    0.189473
  14 C :   -0.381310
  15 H :    0.109714
  16 H :    0.094763
  17 H :    0.096764

  Mayer bond orders larger than 0.100000
B(  0-O ,  1-H ) :   0.8363 B(  0-O ,  2-C ) :   0.9176 B(  2-C ,  3-H ) :   0.9394
B(  2-C ,  4-H ) :   0.9400 B(  2-C ,  5-H ) :   0.9339 B(  6-O ,  7-H ) :   0.8440
B(  6-O ,  8-C ) :   0.9249 B(  8-C ,  9-H ) :   0.9302 B(  8-C , 10-H ) :   0.9432
B(  8-C , 11-H ) :   0.9382 B( 12-O , 13-H ) :   0.8429 B( 12-O , 14-C ) :   0.9267
B( 14-C , 15-H ) :   0.9377 B( 14-C , 16-H ) :   0.9383 B( 14-C , 17-H ) :   0.9399

MP2 TOTAL ENERGY:     -346.521987299 Eh
FINAL SINGLE POINT ENERGY      -346.521987299228

DIPOLE MOMENT
-------------
                                X             Y             Z
Electronic contribution:      0.12652       4.42008       1.27760
Nuclear contribution   :     -0.54959      -5.42676      -1.81071
                        -----------------------------------------
Total Dipole Moment    :     -0.42307      -1.00668      -0.53310
                        -----------------------------------------
Magnitude (a.u.)       :      1.21515
Magnitude (Debye)      :      3.08866

Rotational constants in cm-1:     0.043838     0.019989     0.014215
Rotational constants in MHz :  1314.218975   599.248874   426.155074

                             ****ORCA TERMINATED NORMALLY****
TOTAL RUN TIME: 0 days 0 hours 0 minutes 55 seconds 222 msec
