                         Program Version 4.2.0 -  RELEASE  -
|  1> # 12mecn.remya.etal.2.mol0,1,6
|  2> ! MP2 def2-TZVP EnGrad TightSCF
|  3>
|  4> %pal
|  5>     nprocs 6
|  6> end
|  7>
|  8> %maxcore 8000
|  9>
| 10> %scf
| 11>     ConvForced true
| 12> end
| 13>
| 14> *xyz 0 1
| 15> C  -0.869520000  -3.929380000   1.700199000
| 16> H  -0.057420000  -3.268850000   2.015352000
| 17> H  -0.697530000  -4.930670000   2.101524000
| 18> H  -1.821490000  -3.546590000   2.077146000
| 19> C  -0.916080000  -3.969960000   0.256749000
| 20> N  -0.955390000  -3.995980000  -0.909290000
| 21> C  -4.697980000  -0.249690000   1.746215000
| 22> H  -4.927570000   0.755530000   2.111799000
| 23> H  -3.709180000  -0.561560000   2.093253000
| 24> H  -5.432280000  -0.961520000   2.128066000
| 25> C  -4.714100000  -0.247110000   0.301670000
| 26> N  -4.729750000  -0.234960000  -0.865260000
| 27> C   5.300864000  -2.920090000   1.401103000
| 28> H   5.986071000  -2.139770000   1.737487000
| 29> H   5.636642000  -3.888750000   1.778233000
| 30> H   4.307359000  -2.697240000   1.799307000
| 31> C   5.234791000  -2.933140000  -0.043290000
| 32> N   5.170868000  -2.941760000  -1.207750000
| 33> *
| 34>
| 35>                          ****END OF INPUT****

CARTESIAN COORDINATES (ANGSTROEM)
---------------------------------
  C     -0.869520   -3.929380    1.700199
  H     -0.057420   -3.268850    2.015352
  H     -0.697530   -4.930670    2.101524
  H     -1.821490   -3.546590    2.077146
  C     -0.916080   -3.969960    0.256749
  N     -0.955390   -3.995980   -0.909290
  C     -4.697980   -0.249690    1.746215
  H     -4.927570    0.755530    2.111799
  H     -3.709180   -0.561560    2.093253
  H     -5.432280   -0.961520    2.128066
  C     -4.714100   -0.247110    0.301670
  N     -4.729750   -0.234960   -0.865260
  C      5.300864   -2.920090    1.401103
  H      5.986071   -2.139770    1.737487
  H      5.636642   -3.888750    1.778233
  H      4.307359   -2.697240    1.799307
  C      5.234791   -2.933140   -0.043290
  N      5.170868   -2.941760   -1.207750

 Total Charge           Charge          ....    0
 Multiplicity           Mult            ....    1
 Number of Electrons    NEL             ....   66
 Basis Dimension        Dim             ....  333

ORBITAL ENERGIES
----------------

  NO   OCC          E(Eh)            E(eV)
   0   2.0000     -15.573941      -423.7885
   1   2.0000     -15.573817      -423.7851
   2   2.0000     -15.573564      -423.7782
   3   2.0000     -11.290538      -307.2312
   4   2.0000     -11.288963      -307.1883
   5   2.0000     -11.287548      -307.1498
   6   2.0000     -11.279844      -306.9402
   7   2.0000     -11.279738      -306.9373
   8   2.0000     -11.279404      -306.9282
   9   2.0000      -1.214760       -33.0553
  10   2.0000      -1.214327       -33.0435
  11   2.0000      -1.214249       -33.0414
  12   2.0000      -1.048484       -28.5307
  13   2.0000      -1.047318       -28.4990
  14   2.0000      -1.045928       -28.4611
  15   2.0000      -0.703995       -19.1567
  16   2.0000      -0.703120       -19.1329
  17   2.0000      -0.702964       -19.1286
  18   2.0000      -0.638643       -17.3784
  19   2.0000      -0.637421       -17.3451
  20   2.0000      -0.636640       -17.3239
  21   2.0000      -0.635256       -17.2862
  22   2.0000      -0.633775       -17.2459
  23   2.0000      -0.632678       -17.2161
  24   2.0000      -0.555626       -15.1194
  25   2.0000      -0.555320       -15.1110
  26   2.0000      -0.554951       -15.1010
  27   2.0000      -0.458222       -12.4689
  28   2.0000      -0.458171       -12.4675
  29   2.0000      -0.457692       -12.4544
  30   2.0000      -0.457551       -12.4506
  31   2.0000      -0.457450       -12.4478
  32   2.0000      -0.456861       -12.4318
  33   0.0000       0.087855         2.3906
  34   0.0000       0.108433         2.9506
  35   0.0000       0.132488         3.6052
  36   0.0000       0.154908         4.2152
  37   0.0000       0.163848         4.4585

MULLIKEN ATOMIC CHARGES
-----------------------
   0 C :   -0.280772
   1 H :    0.167141
   2 H :    0.174595
   3 H :    0.163004
   4 C :   -0.144367
   5 N :   -0.079587
   6 C :   -0.281645
   7 H :    0.175064
   8 H :    0.161656
   9 H :    0.172816
  10 C :   -0.144323
  11 N :   -0.083587
  12 C :   -0.280217
  13 H :    0.172964
  14 H :    0.172679
  15 H :    0.164544
  16 C :   -0.145700
  17 N :   -0.084266
Sum of atomic charges:   -0.0000000

LOEWDIN ATOMIC CHARGES
----------------------
   0 C :   -0.286123
   1 H :    0.150540
   2 H :    0.151546
   3 H :    0.149388
   4 C :   -0.221811
   5 N :    0.056466
   6 C :   -0.285549
   7 H :    0.153314
   8 H :    0.148996
   9 H :    0.151147
  10 C :   -0.221203
  11 N :    0.053288
  12 C :   -0.285043
  13 H :    0.151523
  14 H :    0.151073
  15 H :    0.150598
  16 C :   -0.219829
  17 N :    0.051680

  Mayer bond orders larger than 0.100000
B(  0-C ,  1-H ) :   0.9190 B(  0-C ,  2-H ) :   0.9173 B(  0-C ,  3-H ) :   0.9195
B(  0-C ,  4-C ) :   0.9005 B(  4-C ,  5-N ) :   2.8267 B(  6-C ,  7-H ) :   0.9160
B(  6-C ,  8-H ) :   0.9197 B(  6-C ,  9-H ) :   0.9179 B(  6-C , 10-C ) :   0.9006
B( 10-C , 11-N ) :   2.8296 B( 12-C , 13-H ) :   0.9171 B( 12-C , 14-H ) :   0.9166
B( 12-C , 15-H ) :   0.9188 B( 12-C , 16-C ) :   0.9028 B( 16-C , 17-N ) :   2.8327

MP2 TOTAL ENERGY:     -397.446383403 Eh
FINAL SINGLE POINT ENERGY      -397.446383402935

DIPOLE MOMENT
-------------
                                X             Y             Z
Electronic contribution:     -0.27698      -0.12408      -9.49663
Nuclear contribution   :      0.41657       0.16292      13.93221
                        -----------------------------------------
Total Dipole Moment    :      0.13959       0.03884       4.43558
                        -----------------------------------------
Magnitude (a.u.)       :      4.43795
Magnitude (Debye)      :     11.28036

Rotational constants in cm-1:     0.048368     0.007160     0.007066
Rotational constants in MHz :  1450.040791   214.652584   211.821436

                             ****ORCA TERMINATED NORMALLY****
TOTAL RUN TIME: 0 days 0 hours 2 minutes 5 seconds 105 msec
