                         Program Version 4.2.0 -  RELEASE  -
|  1> # 12meoh.boyd.etal.mol9,10
|  2> ! MP2 def2-TZVP EnGrad TightSCF
|  3>
|  4> %pal
|  5>     nprocs 6
|  6> end
|  7>
|  8> %maxcore 8000
|  9>
| 10> %scf
| 11>     ConvForced true
| 12> end
| 13>
| 14> *xyz 0 1
| 15> O   1.390610024   3.194080770  -1.536658882
| 16> H   2.162932299   2.881562730  -0.993525056
| 17> C   1.202977189   4.580367182  -1.302880219
| 18> H   0.374773115   4.915764831  -1.934164643
| 19> H   2.098649340   5.157710875  -1.570472348
| 20> H   0.950320401   4.800436015  -0.254328827
| 21> O  -5.201143618   0.064582726  -0.172223772
| 22> H  -4.686891530   0.869258890   0.107806143
| 23> C  -6.513192168   0.171391798   0.359883449
| 24> H  -7.049381312  -0.749234190   0.111361174
| 25> H  -7.057741163   1.017801101  -0.081819420
| 26> H  -6.514770575   0.292264928   1.453058834
| 27> *
| 28>
| 29>                          ****END OF INPUT****

CARTESIAN COORDINATES (ANGSTROEM)
---------------------------------
  O      1.390610    3.194081   -1.536659
  H      2.162932    2.881563   -0.993525
  C      1.202977    4.580367   -1.302880
  H      0.374773    4.915765   -1.934165
  H      2.098649    5.157711   -1.570472
  H      0.950320    4.800436   -0.254329
  O     -5.201144    0.064583   -0.172224
  H     -4.686892    0.869259    0.107806
  C     -6.513192    0.171392    0.359883
  H     -7.049381   -0.749234    0.111361
  H     -7.057741    1.017801   -0.081819
  H     -6.514771    0.292265    1.453059

 Total Charge           Charge          ....    0
 Multiplicity           Mult            ....    1
 Number of Electrons    NEL             ....   36
 Basis Dimension        Dim             ....  172

ORBITAL ENERGIES
----------------

  NO   OCC          E(Eh)            E(eV)
   0   2.0000     -20.558065      -559.4134
   1   2.0000     -20.555408      -559.3411
   2   2.0000     -11.272338      -306.7359
   3   2.0000     -11.269701      -306.6641
   4   2.0000      -1.348758       -36.7016
   5   2.0000      -1.345515       -36.6133
   6   2.0000      -0.920260       -25.0415
   7   2.0000      -0.917417       -24.9642
   8   2.0000      -0.683440       -18.5973
   9   2.0000      -0.680267       -18.5110
  10   2.0000      -0.617804       -16.8113
  11   2.0000      -0.614977       -16.7344
  12   2.0000      -0.592967       -16.1354
  13   2.0000      -0.589509       -16.0413
  14   2.0000      -0.499933       -13.6039
  15   2.0000      -0.497911       -13.5489
  16   2.0000      -0.449231       -12.2242
  17   2.0000      -0.446572       -12.1519
  18   0.0000       0.134404         3.6573
  19   0.0000       0.137262         3.7351
  20   0.0000       0.174818         4.7570
  21   0.0000       0.177653         4.8342
  22   0.0000       0.228881         6.2282

MULLIKEN ATOMIC CHARGES
-----------------------
   0 O :   -0.496341
   1 H :    0.322200
   2 C :   -0.171355
   3 H :    0.129189
   4 H :    0.109191
   5 H :    0.107116
   6 O :   -0.495107
   7 H :    0.322373
   8 C :   -0.172479
   9 H :    0.128910
  10 H :    0.108224
  11 H :    0.108077
Sum of atomic charges:    0.0000000

LOEWDIN ATOMIC CHARGES
----------------------
   0 O :   -0.105341
   1 H :    0.190791
   2 C :   -0.386021
   3 H :    0.110480
   4 H :    0.095318
   5 H :    0.094772
   6 O :   -0.106269
   7 H :    0.191425
   8 C :   -0.385372
   9 H :    0.110298
  10 H :    0.094925
  11 H :    0.094994

  Mayer bond orders larger than 0.100000
B(  0-O ,  1-H ) :   0.8415 B(  0-O ,  2-C ) :   0.9282 B(  2-C ,  3-H ) :   0.9375
B(  2-C ,  4-H ) :   0.9402 B(  2-C ,  5-H ) :   0.9373 B(  6-O ,  7-H ) :   0.8415
B(  6-O ,  8-C ) :   0.9288 B(  8-C ,  9-H ) :   0.9377 B(  8-C , 10-H ) :   0.9389
B(  8-C , 11-H ) :   0.9385

MP2 TOTAL ENERGY:     -231.013112058 Eh
FINAL SINGLE POINT ENERGY      -231.013112057760

DIPOLE MOMENT
-------------
                                X             Y             Z
Electronic contribution:      1.75078      -2.03057      -1.11940
Nuclear contribution   :     -1.55411       2.93300       1.92934
                        -----------------------------------------
Total Dipole Moment    :      0.19667       0.90244       0.80993
                        -----------------------------------------
Magnitude (a.u.)       :      1.22844
Magnitude (Debye)      :      3.12245

Rotational constants in cm-1:     0.606679     0.015308     0.015037
Rotational constants in MHz : 18187.784791   458.920254   450.812004

                             ****ORCA TERMINATED NORMALLY****
TOTAL RUN TIME: 0 days 0 hours 0 minutes 15 seconds 254 msec
