                         Program Version 4.2.0 -  RELEASE  -
|  1> # 12mecn.remya.etal.2.mol2,4
|  2> ! MP2 def2-TZVP EnGrad TightSCF
|  3>
|  4> %pal
|  5>     nprocs 6
|  6> end
|  7>
|  8> %maxcore 8000
|  9>
| 10> %scf
| 11>     ConvForced true
| 12> end
| 13>
| 14> *xyz 0 1
| 15> C  -4.219070000  -3.477410000  -1.501740000
| 16> H  -3.251530000  -3.803540000  -1.893830000
| 17> H  -4.452920000  -2.481700000  -1.890840000
| 18> H  -4.992170000  -4.178130000  -1.824640000
| 19> C  -4.154550000  -3.418790000  -0.058340000
| 20> N  -4.091140000  -3.354840000   1.104432000
| 21> C  -1.509690000  -0.693960000  -1.610140000
| 22> H  -1.327010000  -1.692700000  -2.017370000
| 23> H  -0.742170000  -0.000650000  -1.964400000
| 24> H  -2.491920000  -0.334310000  -1.929350000
| 25> C  -1.473570000  -0.748120000  -0.167200000
| 26> N  -1.447490000  -0.793720000   0.998938000
| 27> *
| 28>
| 29>                          ****END OF INPUT****

CARTESIAN COORDINATES (ANGSTROEM)
---------------------------------
  C     -4.219070   -3.477410   -1.501740
  H     -3.251530   -3.803540   -1.893830
  H     -4.452920   -2.481700   -1.890840
  H     -4.992170   -4.178130   -1.824640
  C     -4.154550   -3.418790   -0.058340
  N     -4.091140   -3.354840    1.104432
  C     -1.509690   -0.693960   -1.610140
  H     -1.327010   -1.692700   -2.017370
  H     -0.742170   -0.000650   -1.964400
  H     -2.491920   -0.334310   -1.929350
  C     -1.473570   -0.748120   -0.167200
  N     -1.447490   -0.793720    0.998938

 Total Charge           Charge          ....    0
 Multiplicity           Mult            ....    1
 Number of Electrons    NEL             ....   44
 Basis Dimension        Dim             ....  222

ORBITAL ENERGIES
----------------

  NO   OCC          E(Eh)            E(eV)
   0   2.0000     -15.571725      -423.7282
   1   2.0000     -15.571637      -423.7258
   2   2.0000     -11.290061      -307.2182
   3   2.0000     -11.289976      -307.2159
   4   2.0000     -11.276504      -306.8493
   5   2.0000     -11.276405      -306.8466
   6   2.0000      -1.212627       -32.9973
   7   2.0000      -1.211138       -32.9567
   8   2.0000      -1.048680       -28.5360
   9   2.0000      -1.045957       -28.4619
  10   2.0000      -0.704018       -19.1573
  11   2.0000      -0.701042       -19.0763
  12   2.0000      -0.642656       -17.4876
  13   2.0000      -0.639840       -17.4109
  14   2.0000      -0.634191       -17.2572
  15   2.0000      -0.629870       -17.1396
  16   2.0000      -0.553872       -15.0716
  17   2.0000      -0.551027       -14.9942
  18   2.0000      -0.463019       -12.5994
  19   2.0000      -0.456981       -12.4351
  20   2.0000      -0.453846       -12.3498
  21   2.0000      -0.446836       -12.1590
  22   0.0000       0.095029         2.5859
  23   0.0000       0.142581         3.8798
  24   0.0000       0.147057         4.0016
  25   0.0000       0.155732         4.2377
  26   0.0000       0.184910         5.0317

MULLIKEN ATOMIC CHARGES
-----------------------
   0 C :   -0.286220
   1 H :    0.165687
   2 H :    0.163613
   3 H :    0.182347
   4 C :   -0.154514
   5 N :   -0.070860
   6 C :   -0.283213
   7 H :    0.162646
   8 H :    0.182054
   9 H :    0.166461
  10 C :   -0.155128
  11 N :   -0.072873
Sum of atomic charges:   -0.0000000

LOEWDIN ATOMIC CHARGES
----------------------
   0 C :   -0.288369
   1 H :    0.149490
   2 H :    0.149310
   3 H :    0.152016
   4 C :   -0.224480
   5 N :    0.062084
   6 C :   -0.288121
   7 H :    0.148644
   8 H :    0.153647
   9 H :    0.150126
  10 C :   -0.225535
  11 N :    0.061187

  Mayer bond orders larger than 0.100000
B(  0-C ,  1-H ) :   0.9228 B(  0-C ,  2-H ) :   0.9207 B(  0-C ,  3-H ) :   0.9113
B(  0-C ,  4-C ) :   0.8985 B(  4-C ,  5-N ) :   2.8254 B(  6-C ,  7-H ) :   0.9207
B(  6-C ,  8-H ) :   0.9115 B(  6-C ,  9-H ) :   0.9229 B(  6-C , 10-C ) :   0.8960
B( 10-C , 11-N ) :   2.8259

MP2 TOTAL ENERGY:     -264.963952423 Eh
FINAL SINGLE POINT ENERGY      -264.963952422685

DIPOLE MOMENT
-------------
                                X             Y             Z
Electronic contribution:      0.22121      -0.00365       6.39401
Nuclear contribution   :     -0.32700      -0.00545      -9.26913
                        -----------------------------------------
Total Dipole Moment    :     -0.10579      -0.00910      -2.87513
                        -----------------------------------------
Magnitude (a.u.)       :      2.87709
Magnitude (Debye)      :      7.31297

Rotational constants in cm-1:     0.154463     0.055963     0.041745
Rotational constants in MHz :  4630.693465  1677.714103  1251.479551

                             ****ORCA TERMINATED NORMALLY****
TOTAL RUN TIME: 0 days 0 hours 1 minutes 10 seconds 413 msec
