                         Program Version 3.0.3 - RELEASE   -
|  1> ! B3LYP Def2-TZVP def2-TZVP/J RIJCOSX TightSCF Grid4 D3BJ
|  2>
|  3> %pal nprocs 12 end
|  4>
|  5> %scf
|  6>         maxiter 400
|  7> end
|  8>
|  9> * xyz  0  1
| 10> O  3.084683	0.756382	-3.061294
| 11> H  3.536733	0.020464	-2.468944
| 12> H  3.812349	1.214655	-3.519933
| 13> O  -2.194196	0.548609	-0.356430
| 14> H  -3.039331	0.794436	0.122366
| 15> H  -1.524631	1.221951	0.006602
| 16> O  -0.459872	-0.147735	-2.253042
| 17> H  -1.323486	0.107610	-1.824772
| 18> H  0.199598	0.531687	-1.883310
| 19> O  1.294272	-0.992706	-4.139846
| 20> H  0.469356	-0.679440	-3.678412
| 21> H  1.954097	-0.270853	-3.931851
| 22> O  2.172081	-2.837351	-2.596128
| 23> H  2.340385	-3.655971	-3.097731
| 24> H  1.804314	-2.143380	-3.288590
| 25> O  -3.956491	1.205522	1.520677
| 26> H  -4.847837	1.599230	1.494335
| 27> H  -3.328932	1.935773	1.934072
| 28> O  0.445317	0.147025	2.271694
| 29> H  0.035033	0.402637	3.148176
| 30> H  -0.221479	-0.526295	1.901440
| 31> O  -3.025701	-0.756180	3.165271
| 32> H  -2.498555	-1.280333	2.502281
| 33> H  -3.553056	-0.133130	2.588069
| 34> O  -1.311744	0.878548	4.136134
| 35> H  -2.023013	0.179241	3.815324
| 36> H  -1.317861	0.841127	5.110307
| 37> O  1.357466	1.448834	-1.164662
| 38> H  2.036383	1.490874	-1.899876
| 39> H  1.739398	0.733100	-0.550173
| 40> O  -2.276098	2.850520	2.525043
| 41> H  -1.546783	2.879513	1.847357
| 42> H  -1.885508	2.283280	3.250067
| 43> O  -1.344848	-1.455489	1.157808
| 44> H  -0.805409	-2.033646	0.550532
| 45> H  -1.722817	-0.743950	0.538235
| 46> O  -0.377068	2.144687	0.730053
| 47> H  0.010081	1.435768	1.347024
| 48> H  0.306692	2.235494	0.009251
| 49> O  4.003823	-1.102063	-1.562254
| 50> H  3.573165	-0.920406	-0.683174
| 51> H  3.483032	-1.881310	-1.909191
| 52> O  2.186953	-0.538761	0.370240
| 53> H  1.829638	-0.305024	1.271061
| 54> H  1.519008	-1.217367	0.012569
| 55> O  0.395829	-2.146199	-0.740483
| 56> H  0.979111	-2.682437	-1.353135
| 57> H  0.015919	-1.436939	-1.362756
| 58> **                         ****END OF INPUT****

CARTESIAN COORDINATES (ANGSTROEM)
---------------------------------
  O      3.084683    0.756382   -3.061294
  H      3.536733    0.020464   -2.468944
  H      3.812349    1.214655   -3.519933
  O     -2.194196    0.548609   -0.356430
  H     -3.039331    0.794436    0.122366
  H     -1.524631    1.221951    0.006602
  O     -0.459872   -0.147735   -2.253042
  H     -1.323486    0.107610   -1.824772
  H      0.199598    0.531687   -1.883310
  O      1.294272   -0.992706   -4.139846
  H      0.469356   -0.679440   -3.678412
  H      1.954097   -0.270853   -3.931851
  O      2.172081   -2.837351   -2.596128
  H      2.340385   -3.655971   -3.097731
  H      1.804314   -2.143380   -3.288590
  O     -3.956491    1.205522    1.520677
  H     -4.847837    1.599230    1.494335
  H     -3.328932    1.935773    1.934072
  O      0.445317    0.147025    2.271694
  H      0.035033    0.402637    3.148176
  H     -0.221479   -0.526295    1.901440
  O     -3.025701   -0.756180    3.165271
  H     -2.498555   -1.280333    2.502281
  H     -3.553056   -0.133130    2.588069
  O     -1.311744    0.878548    4.136134
  H     -2.023013    0.179241    3.815324
  H     -1.317861    0.841127    5.110307
  O      1.357466    1.448834   -1.164662
  H      2.036383    1.490874   -1.899876
  H      1.739398    0.733100   -0.550173
  O     -2.276098    2.850520    2.525043
  H     -1.546783    2.879513    1.847357
  H     -1.885508    2.283280    3.250067
  O     -1.344848   -1.455489    1.157808
  H     -0.805409   -2.033646    0.550532
  H     -1.722817   -0.743950    0.538235
  O     -0.377068    2.144687    0.730053
  H      0.010081    1.435768    1.347024
  H      0.306692    2.235494    0.009251
  O      4.003823   -1.102063   -1.562254
  H      3.573165   -0.920406   -0.683174
  H      3.483032   -1.881310   -1.909191
  O      2.186953   -0.538761    0.370240
  H      1.829638   -0.305024    1.271061
  H      1.519008   -1.217367    0.012569
  O      0.395829   -2.146199   -0.740483
  H      0.979111   -2.682437   -1.353135
  H      0.015919   -1.436939   -1.362756

 Total Charge           Charge          ....    0
 Multiplicity           Mult            ....    1
 Number of Electrons    NEL             ....  160
 Basis Dimension        Dim             ....  688

ORBITAL ENERGIES
----------------

  NO   OCC          E(Eh)            E(eV)
   0   2.0000     -19.143335      -520.9166
   1   2.0000     -19.143217      -520.9134
   2   2.0000     -19.143147      -520.9115
   3   2.0000     -19.142961      -520.9065
   4   2.0000     -19.131440      -520.5929
   5   2.0000     -19.131028      -520.5817
   6   2.0000     -19.130946      -520.5795
   7   2.0000     -19.130652      -520.5715
   8   2.0000     -19.129860      -520.5499
   9   2.0000     -19.129814      -520.5487
  10   2.0000     -19.129678      -520.5450
  11   2.0000     -19.129644      -520.5441
  12   2.0000     -19.127806      -520.4941
  13   2.0000     -19.127570      -520.4876
  14   2.0000     -19.127463      -520.4847
  15   2.0000     -19.127376      -520.4824
  16   2.0000      -1.043232       -28.3878
  17   2.0000      -1.036871       -28.2147
  18   2.0000      -1.026814       -27.9410
  19   2.0000      -1.024727       -27.8842
  20   2.0000      -1.024444       -27.8765
  21   2.0000      -1.016459       -27.6592
  22   2.0000      -1.015969       -27.6459
  23   2.0000      -1.015937       -27.6450
  24   2.0000      -1.004495       -27.3337
  25   2.0000      -1.004391       -27.3309
  26   2.0000      -1.001034       -27.2395
  27   2.0000      -0.995556       -27.0905
  28   2.0000      -0.995386       -27.0858
  29   2.0000      -0.995242       -27.0819
  30   2.0000      -0.986125       -26.8338
  31   2.0000      -0.975871       -26.5548
  32   2.0000      -0.554416       -15.0864
  33   2.0000      -0.550827       -14.9888
  34   2.0000      -0.550672       -14.9845
  35   2.0000      -0.550284       -14.9740
  36   2.0000      -0.546631       -14.8746
  37   2.0000      -0.541169       -14.7260
  38   2.0000      -0.541063       -14.7231
  39   2.0000      -0.540626       -14.7112
  40   2.0000      -0.530084       -14.4243
  41   2.0000      -0.529541       -14.4096
  42   2.0000      -0.525729       -14.3058
  43   2.0000      -0.524291       -14.2667
  44   2.0000      -0.524155       -14.2630
  45   2.0000      -0.523045       -14.2328
  46   2.0000      -0.517211       -14.0740
  47   2.0000      -0.517067       -14.0701
  48   2.0000      -0.475339       -12.9346
  49   2.0000      -0.466200       -12.6859
  50   2.0000      -0.440131       -11.9766
  51   2.0000      -0.439702       -11.9649
  52   2.0000      -0.438355       -11.9282
  53   2.0000      -0.426191       -11.5973
  54   2.0000      -0.426100       -11.5948
  55   2.0000      -0.419773       -11.4226
  56   2.0000      -0.407232       -11.0813
  57   2.0000      -0.405882       -11.0446
  58   2.0000      -0.405686       -11.0393
  59   2.0000      -0.399580       -10.8731
  60   2.0000      -0.383684       -10.4406
  61   2.0000      -0.383433       -10.4337
  62   2.0000      -0.370166       -10.0727
  63   2.0000      -0.351400        -9.5621
  64   2.0000      -0.336731        -9.1629
  65   2.0000      -0.336512        -9.1570
  66   2.0000      -0.334848        -9.1117
  67   2.0000      -0.333836        -9.0841
  68   2.0000      -0.331425        -9.0185
  69   2.0000      -0.328539        -8.9400
  70   2.0000      -0.328463        -8.9379
  71   2.0000      -0.324943        -8.8422
  72   2.0000      -0.324912        -8.8413
  73   2.0000      -0.324478        -8.8295
  74   2.0000      -0.320920        -8.7327
  75   2.0000      -0.319635        -8.6977
  76   2.0000      -0.318628        -8.6703
  77   2.0000      -0.318390        -8.6638
  78   2.0000      -0.316571        -8.6143
  79   2.0000      -0.316362        -8.6087
  80   0.0000      -0.000963        -0.0262
  81   0.0000       0.010461         0.2846
  82   0.0000       0.029202         0.7946
  83   0.0000       0.029409         0.8003
  84   0.0000       0.048533         1.3207

MULLIKEN ATOMIC CHARGES
-----------------------
   0 O :   -0.741422
   1 H :    0.368217
   2 H :    0.334706
   3 O :   -0.747771
   4 H :    0.372919
   5 H :    0.354335
   6 O :   -0.747144
   7 H :    0.387586
   8 H :    0.356719
   9 O :   -0.679229
  10 H :    0.381234
  11 H :    0.358805
  12 O :   -0.742059
  13 H :    0.334868
  14 H :    0.368604
  15 O :   -0.741948
  16 H :    0.334978
  17 H :    0.368352
  18 O :   -0.746705
  19 H :    0.371720
  20 H :    0.354536
  21 O :   -0.679187
  22 H :    0.381223
  23 H :    0.359983
  24 O :   -0.742464
  25 H :    0.368180
  26 H :    0.335078
  27 O :   -0.747215
  28 H :    0.372997
  29 H :    0.353930
  30 O :   -0.680162
  31 H :    0.382332
  32 H :    0.360017
  33 O :   -0.746784
  34 H :    0.387579
  35 H :    0.356033
  36 O :   -0.748249
  37 H :    0.357242
  38 H :    0.388249
  39 O :   -0.678771
  40 H :    0.381402
  41 H :    0.359461
  42 O :   -0.747685
  43 H :    0.387973
  44 H :    0.357458
  45 O :   -0.746796
  46 H :    0.372285
  47 H :    0.354590
Sum of atomic charges:    0.0000000

LOEWDIN ATOMIC CHARGES
----------------------
   0 O :   -0.314880
   1 H :    0.143074
   2 H :    0.160398
   3 O :   -0.304649
   4 H :    0.147466
   5 H :    0.137824
   6 O :   -0.298642
   7 H :    0.155893
   8 H :    0.138688
   9 O :   -0.269620
  10 H :    0.155596
  11 H :    0.147545
  12 O :   -0.315426
  13 H :    0.160497
  14 H :    0.143613
  15 O :   -0.314799
  16 H :    0.160543
  17 H :    0.143019
  18 O :   -0.305699
  19 H :    0.148374
  20 H :    0.137906
  21 O :   -0.269103
  22 H :    0.155554
  23 H :    0.147924
  24 O :   -0.316531
  25 H :    0.143512
  26 H :    0.160484
  27 O :   -0.305324
  28 H :    0.148185
  29 H :    0.137358
  30 O :   -0.268723
  31 H :    0.155342
  32 H :    0.147944
  33 O :   -0.297860
  34 H :    0.156152
  35 H :    0.138387
  36 O :   -0.298684
  37 H :    0.138940
  38 H :    0.155917
  39 O :   -0.268415
  40 H :    0.155507
  41 H :    0.147872
  42 O :   -0.297363
  43 H :    0.156062
  44 H :    0.139072
  45 O :   -0.304985
  46 H :    0.148129
  47 H :    0.137927

  Mayer bond orders larger than 0.1
B(  0-O ,  1-H ) :   0.6934 B(  0-O ,  2-H ) :   0.8868 B(  0-O , 11-H ) :   0.1060
B(  0-O , 28-H ) :   0.1098 B(  1-H , 39-O ) :   0.2220 B(  3-O ,  4-H ) :   0.7951
B(  3-O ,  5-H ) :   0.7534 B(  3-O , 35-H ) :   0.1654 B(  4-H , 15-O ) :   0.1134
B(  5-H , 36-O ) :   0.1641 B(  6-O ,  7-H ) :   0.8033 B(  6-O ,  8-H ) :   0.7542
B(  6-O , 47-H ) :   0.1641 B(  8-H , 27-O ) :   0.1639 B(  9-O , 10-H ) :   0.8166
B(  9-O , 11-H ) :   0.8132 B(  9-O , 14-H ) :   0.2211 B( 12-O , 13-H ) :   0.8866
B( 12-O , 14-H ) :   0.6939 B( 12-O , 41-H ) :   0.1043 B( 12-O , 46-H ) :   0.1103
B( 15-O , 16-H ) :   0.8865 B( 15-O , 17-H ) :   0.6923 B( 15-O , 23-H ) :   0.1044
B( 17-H , 30-O ) :   0.2230 B( 18-O , 19-H ) :   0.7986 B( 18-O , 20-H ) :   0.7533
B( 18-O , 37-H ) :   0.1623 B( 19-H , 24-O ) :   0.1096 B( 20-H , 33-O ) :   0.1636
B( 21-O , 22-H ) :   0.8162 B( 21-O , 23-H ) :   0.8132 B( 21-O , 25-H ) :   0.2215
B( 24-O , 25-H ) :   0.6937 B( 24-O , 26-H ) :   0.8865 B( 24-O , 32-H ) :   0.1051
B( 27-O , 28-H ) :   0.7970 B( 27-O , 29-H ) :   0.7524 B( 29-H , 42-O ) :   0.1646
B( 30-O , 31-H ) :   0.8152 B( 30-O , 32-H ) :   0.8126 B( 33-O , 34-H ) :   0.8037
B( 33-O , 35-H ) :   0.7532 B( 36-O , 37-H ) :   0.7547 B( 36-O , 38-H ) :   0.8018
B( 39-O , 40-H ) :   0.8165 B( 39-O , 41-H ) :   0.8137 B( 42-O , 43-H ) :   0.8033
B( 42-O , 44-H ) :   0.7533 B( 44-H , 45-O ) :   0.1636 B( 45-O , 46-H ) :   0.7975
B( 45-O , 47-H ) :   0.7532

Dispersion correction           -0.063288667
FINAL SINGLE POINT ENERGY     -1223.119780856775

DIPOLE MOMENT
-------------
                                X             Y             Z
Electronic contribution:     -0.00002      -0.00010       0.00141
Nuclear contribution   :      0.01397      -0.00910      -0.00694
                        -----------------------------------------
Total Dipole Moment    :      0.01395      -0.00920      -0.00553
                        -----------------------------------------
Magnitude (a.u.)       :      0.01760
Magnitude (Debye)      :      0.04473

                             ****ORCA TERMINATED NORMALLY****
TOTAL RUN TIME: 0 days 0 hours 1 minutes 57 seconds 42 msec
