                         Program Version 3.0.3 - RELEASE   -
|  1> ! wB97X-D3 MA-Def2-TZVP def2-TZVP/J RIJCOSX TightSCF Grid4
|  2>
|  3> %pal nprocs 1 end
|  4>
|  5> %scf
|  6>         maxiter 400
|  7> end
|  8>
|  9> %cosmo
| 10>         SMD true
| 11>         solvent "WATER"
| 12> end
| 13>
| 14> * xyz  0  1
| 15> O  3.109552	0.953240	-3.328626
| 16> H  3.634486	0.328336	-2.750980
| 17> H  3.751446	1.535890	-3.761837
| 18> O  -2.258295	0.474717	-0.313835
| 19> H  -3.060448	0.814192	0.153407
| 20> H  -1.539671	1.068411	0.033189
| 21> O  -0.467200	-0.282340	-2.239765
| 22> H  -1.315662	0.014623	-1.847065
| 23> H  0.202733	0.365720	-1.890461
| 24> O  1.345679	-0.902546	-4.269569
| 25> H  0.547453	-0.637984	-3.765820
| 26> H  1.988443	-0.174837	-4.096976
| 27> O  2.279723	-2.693707	-2.531180
| 28> H  2.575706	-3.498239	-2.984683
| 29> H  1.914594	-2.102082	-3.250831
| 30> O  -3.965022	1.388032	1.539464
| 31> H  -4.836638	1.808939	1.477051
| 32> H  -3.350296	2.090504	1.899599
| 33> O  0.405221	-0.097556	2.392621
| 34> H  -0.039892	0.272910	3.193408
| 35> H  -0.280041	-0.719774	2.031693
| 36> O  -3.359231	-0.661592	3.239378
| 37> H  -2.828794	-1.210980	2.627090
| 38> H  -3.739973	0.034670	2.652002
| 39> O  -1.391969	0.919787	4.155589
| 40> H  -2.143179	0.298405	3.938451
| 41> H  -1.369843	0.978405	5.123127
| 42> O  1.453640	1.281792	-1.227669
| 43> H  2.082056	1.399161	-1.980266
| 44> H  1.862488	0.599789	-0.633572
| 45> O  -2.086736	3.024938	2.512412
| 46> H  -1.397121	2.874662	1.829950
| 47> H  -1.819790	2.399263	3.227293
| 48> O  -1.561364	-1.576477	1.268620
| 49> H  -1.033953	-2.176473	0.703236
| 50> H  -1.883371	-0.875518	0.637465
| 51> O  -0.273312	1.917940	0.767398
| 52> H  0.080375	1.212141	1.373990
| 53> H  0.387773	1.989706	0.044367
| 54> O  4.115400	-0.863727	-1.678057
| 55> H  3.714388	-0.698714	-0.800633
| 56> H  3.578513	-1.626623	-2.005876
| 57> O  2.247535	-0.714891	0.395689
| 58> H  1.887545	-0.430621	1.261941
| 59> H  1.573375	-1.369786	0.070679
| 60> O  0.333097	-2.329296	-0.663235
| 61> H  0.978546	-2.768013	-1.265217
| 62> H  -0.047965	-1.634392	-1.262957
| 63> **                         ****END OF INPUT****

CARTESIAN COORDINATES (ANGSTROEM)
---------------------------------
  O      3.109552    0.953240   -3.328626
  H      3.634486    0.328336   -2.750980
  H      3.751446    1.535890   -3.761837
  O     -2.258295    0.474717   -0.313835
  H     -3.060448    0.814192    0.153407
  H     -1.539671    1.068411    0.033189
  O     -0.467200   -0.282340   -2.239765
  H     -1.315662    0.014623   -1.847065
  H      0.202733    0.365720   -1.890461
  O      1.345679   -0.902546   -4.269569
  H      0.547453   -0.637984   -3.765820
  H      1.988443   -0.174837   -4.096976
  O      2.279723   -2.693707   -2.531180
  H      2.575706   -3.498239   -2.984683
  H      1.914594   -2.102082   -3.250831
  O     -3.965022    1.388032    1.539464
  H     -4.836638    1.808939    1.477051
  H     -3.350296    2.090504    1.899599
  O      0.405221   -0.097556    2.392621
  H     -0.039892    0.272910    3.193408
  H     -0.280041   -0.719774    2.031693
  O     -3.359231   -0.661592    3.239378
  H     -2.828794   -1.210980    2.627090
  H     -3.739973    0.034670    2.652002
  O     -1.391969    0.919787    4.155589
  H     -2.143179    0.298405    3.938451
  H     -1.369843    0.978405    5.123127
  O      1.453640    1.281792   -1.227669
  H      2.082056    1.399161   -1.980266
  H      1.862488    0.599789   -0.633572
  O     -2.086736    3.024938    2.512412
  H     -1.397121    2.874662    1.829950
  H     -1.819790    2.399263    3.227293
  O     -1.561364   -1.576477    1.268620
  H     -1.033953   -2.176473    0.703236
  H     -1.883371   -0.875518    0.637465
  O     -0.273312    1.917940    0.767398
  H      0.080375    1.212141    1.373990
  H      0.387773    1.989706    0.044367
  O      4.115400   -0.863727   -1.678057
  H      3.714388   -0.698714   -0.800633
  H      3.578513   -1.626623   -2.005876
  O      2.247535   -0.714891    0.395689
  H      1.887545   -0.430621    1.261941
  H      1.573375   -1.369786    0.070679
  O      0.333097   -2.329296   -0.663235
  H      0.978546   -2.768013   -1.265217
  H     -0.047965   -1.634392   -1.262957

 Total Charge           Charge          ....    0
 Multiplicity           Mult            ....    1
 Number of Electrons    NEL             ....  160
 Basis Dimension        Dim             ....  752
Dispersion correction           -0.031831513
FINAL SINGLE POINT ENERGY     -1223.366398145446
                             ****ORCA TERMINATED NORMALLY****
TOTAL RUN TIME: 0 days 0 hours 33 minutes 4 seconds 506 msec

ORBITAL ENERGIES
----------------

  NO   OCC          E(Eh)            E(eV)
   0   2.0000     -19.242329      -523.6104
   1   2.0000     -19.242011      -523.6017
   2   2.0000     -19.242009      -523.6017
   3   2.0000     -19.240686      -523.5657
   4   2.0000     -19.240537      -523.5616
   5   2.0000     -19.238877      -523.5165
   6   2.0000     -19.237994      -523.4924
   7   2.0000     -19.237501      -523.4790
   8   2.0000     -19.236887      -523.4623
   9   2.0000     -19.235259      -523.4180
  10   2.0000     -19.233699      -523.3756
  11   2.0000     -19.233156      -523.3608
  12   2.0000     -19.233065      -523.3583
  13   2.0000     -19.232920      -523.3544
  14   2.0000     -19.232870      -523.3530
  15   2.0000     -19.231345      -523.3115
  16   2.0000      -1.156580       -31.4721
  17   2.0000      -1.148999       -31.2658
  18   2.0000      -1.139694       -31.0127
  19   2.0000      -1.138104       -30.9694
  20   2.0000      -1.137847       -30.9624
  21   2.0000      -1.133618       -30.8473
  22   2.0000      -1.131510       -30.7900
  23   2.0000      -1.131440       -30.7881
  24   2.0000      -1.121402       -30.5149
  25   2.0000      -1.121055       -30.5055
  26   2.0000      -1.118747       -30.4427
  27   2.0000      -1.115556       -30.3558
  28   2.0000      -1.115367       -30.3507
  29   2.0000      -1.113290       -30.2942
  30   2.0000      -1.105298       -30.0767
  31   2.0000      -1.098433       -29.8899
  32   2.0000      -0.658715       -17.9245
  33   2.0000      -0.650918       -17.7124
  34   2.0000      -0.647730       -17.6256
  35   2.0000      -0.645180       -17.5562
  36   2.0000      -0.644677       -17.5426
  37   2.0000      -0.640917       -17.4402
  38   2.0000      -0.638987       -17.3877
  39   2.0000      -0.637066       -17.3355
  40   2.0000      -0.635866       -17.3028
  41   2.0000      -0.632510       -17.2115
  42   2.0000      -0.628721       -17.1084
  43   2.0000      -0.627679       -17.0800
  44   2.0000      -0.626653       -17.0521
  45   2.0000      -0.625295       -17.0151
  46   2.0000      -0.622630       -16.9426
  47   2.0000      -0.621859       -16.9216
  48   2.0000      -0.571238       -15.5442
  49   2.0000      -0.558628       -15.2010
  50   2.0000      -0.539979       -14.6936
  51   2.0000      -0.537480       -14.6256
  52   2.0000      -0.531589       -14.4653
  53   2.0000      -0.527028       -14.3412
  54   2.0000      -0.524121       -14.2621
  55   2.0000      -0.517582       -14.0841
  56   2.0000      -0.506006       -13.7691
  57   2.0000      -0.502711       -13.6795
  58   2.0000      -0.501624       -13.6499
  59   2.0000      -0.498884       -13.5753
  60   2.0000      -0.483822       -13.1655
  61   2.0000      -0.483264       -13.1503
  62   2.0000      -0.471946       -12.8423
  63   2.0000      -0.456541       -12.4231
  64   2.0000      -0.434895       -11.8341
  65   2.0000      -0.431229       -11.7343
  66   2.0000      -0.430747       -11.7212
  67   2.0000      -0.429312       -11.6822
  68   2.0000      -0.426969       -11.6184
  69   2.0000      -0.426539       -11.6067
  70   2.0000      -0.425302       -11.5730
  71   2.0000      -0.424596       -11.5538
  72   2.0000      -0.423712       -11.5298
  73   2.0000      -0.422357       -11.4929
  74   2.0000      -0.420885       -11.4529
  75   2.0000      -0.419966       -11.4279
  76   2.0000      -0.419316       -11.4102
  77   2.0000      -0.418877       -11.3982
  78   2.0000      -0.416992       -11.3469
  79   2.0000      -0.415857       -11.3161
  80   0.0000       0.061176         1.6647
  81   0.0000       0.074221         2.0196
  82   0.0000       0.092196         2.5088
  83   0.0000       0.093181         2.5356
  84   0.0000       0.101458         2.7608

MULLIKEN ATOMIC CHARGES
-----------------------
   0 O :   -0.828694
   1 H :    0.436118
   2 H :    0.417502
   3 O :   -0.842771
   4 H :    0.437752
   5 H :    0.409226
   6 O :   -0.881109
   7 H :    0.442053
   8 H :    0.426086
   9 O :   -0.820155
  10 H :    0.417431
  11 H :    0.433599
  12 O :   -0.831558
  13 H :    0.413833
  14 H :    0.416934
  15 O :   -0.849815
  16 H :    0.415559
  17 H :    0.428122
  18 O :   -0.857216
  19 H :    0.436706
  20 H :    0.433488
  21 O :   -0.810170
  22 H :    0.422714
  23 H :    0.422316
  24 O :   -0.850804
  25 H :    0.422923
  26 H :    0.415428
  27 O :   -0.871598
  28 H :    0.436644
  29 H :    0.405250
  30 O :   -0.806237
  31 H :    0.429288
  32 H :    0.416336
  33 O :   -0.900728
  34 H :    0.439897
  35 H :    0.434767
  36 O :   -0.931055
  37 H :    0.429684
  38 H :    0.445625
  39 O :   -0.841413
  40 H :    0.416305
  41 H :    0.418853
  42 O :   -0.863293
  43 H :    0.440627
  44 H :    0.432156
  45 O :   -0.866209
  46 H :    0.430683
  47 H :    0.428921
Sum of atomic charges:   -0.0000000

LOEWDIN ATOMIC CHARGES
----------------------
   0 O :   -0.377109
   1 H :    0.195129
   2 H :    0.214949
   3 O :   -0.411232
   4 H :    0.197906
   5 H :    0.188626
   6 O :   -0.405160
   7 H :    0.204952
   8 H :    0.189507
   9 O :   -0.397707
  10 H :    0.199637
  11 H :    0.194968
  12 O :   -0.377933
  13 H :    0.214876
  14 H :    0.193286
  15 O :   -0.373739
  16 H :    0.215910
  17 H :    0.195898
  18 O :   -0.411937
  19 H :    0.200338
  20 H :    0.192116
  21 O :   -0.401995
  22 H :    0.200493
  23 H :    0.193960
  24 O :   -0.377391
  25 H :    0.195973
  26 H :    0.215408
  27 O :   -0.401177
  28 H :    0.197480
  29 H :    0.189358
  30 O :   -0.404751
  31 H :    0.197728
  32 H :    0.195564
  33 O :   -0.405737
  34 H :    0.207569
  35 H :    0.191997
  36 O :   -0.398184
  37 H :    0.190078
  38 H :    0.202405
  39 O :   -0.400989
  40 H :    0.200820
  41 H :    0.194464
  42 O :   -0.402545
  43 H :    0.206573
  44 H :    0.195690
  45 O :   -0.419078
  46 H :    0.200672
  47 H :    0.192332

  Mayer bond orders larger than 0.1
B(  0-O ,  1-H ) :   0.7800 B(  0-O ,  2-H ) :   0.8324 B(  3-O ,  4-H ) :   0.7996
B(  3-O ,  5-H ) :   0.8067 B(  6-O ,  7-H ) :   0.8148 B(  6-O ,  8-H ) :   0.8038
B(  9-O , 10-H ) :   0.8327 B(  9-O , 11-H ) :   0.8150 B( 12-O , 13-H ) :   0.8379
B( 12-O , 14-H ) :   0.7853 B( 15-O , 16-H ) :   0.8331 B( 15-O , 17-H ) :   0.7804
B( 18-O , 19-H ) :   0.8054 B( 18-O , 20-H ) :   0.8050 B( 21-O , 22-H ) :   0.8330
B( 21-O , 23-H ) :   0.8180 B( 24-O , 25-H ) :   0.7866 B( 24-O , 26-H ) :   0.8352
B( 27-O , 28-H ) :   0.7907 B( 27-O , 29-H ) :   0.8103 B( 30-O , 31-H ) :   0.8246
B( 30-O , 32-H ) :   0.8235 B( 33-O , 34-H ) :   0.8216 B( 33-O , 35-H ) :   0.7942
B( 36-O , 37-H ) :   0.7933 B( 36-O , 38-H ) :   0.8084 B( 39-O , 40-H ) :   0.8381
B( 39-O , 41-H ) :   0.8106 B( 42-O , 43-H ) :   0.8212 B( 42-O , 44-H ) :   0.7961
B( 45-O , 46-H ) :   0.8169 B( 45-O , 47-H ) :   0.8077

Dispersion correction           -0.031831513
FINAL SINGLE POINT ENERGY     -1223.366398145446

DIPOLE MOMENT
-------------
                                X             Y             Z
Electronic contribution:      0.04079       0.09483      -0.02408
Nuclear contribution   :      0.18299       0.40375      -0.04803
                        -----------------------------------------
Total Dipole Moment    :      0.22378       0.49858      -0.07211
                        -----------------------------------------
Magnitude (a.u.)       :      0.55123
Magnitude (Debye)      :      1.40112

                             ****ORCA TERMINATED NORMALLY****
TOTAL RUN TIME: 0 days 0 hours 29 minutes 5 seconds 655 msec
