                         Program Version 3.0.3 - RELEASE   -
|  1> ! B3LYP Def2-TZVP def2-TZVP/J RIJCOSX TightSCF Grid4 D3BJ COSMO
|  2>
|  3> %pal nprocs 12 end
|  4>
|  5> %scf
|  6>         maxiter 400
|  7> end
|  8>
|  9> %cosmo
| 10>         SMD true
| 11>         solvent "WATER"
| 12> end
| 13>
| 14> * xyz  0  1
| 15> O  3.065492	0.742446	-3.078391
| 16> H  3.550443	0.040492	-2.502765
| 17> H  3.769557	1.246851	-3.531491
| 18> O  -2.212572	0.568530	-0.347203
| 19> H  -3.038757	0.812096	0.175961
| 20> H  -1.527557	1.224894	0.013636
| 21> O  -0.467049	-0.128134	-2.256780
| 22> H  -1.317167	0.123450	-1.801020
| 23> H  0.207064	0.534957	-1.881274
| 24> O  1.291606	-0.966466	-4.185133
| 25> H  0.484642	-0.673028	-3.684164
| 26> H  1.965916	-0.265589	-3.935699
| 27> O  2.200648	-2.817336	-2.579393
| 28> H  2.366064	-3.660190	-3.046269
| 29> H  1.838480	-2.168835	-3.291046
| 30> O  -3.940835	1.183623	1.547669
| 31> H  -4.847845	1.544018	1.490254
| 32> H  -3.363690	1.938244	1.943440
| 33> O  0.417195	0.128413	2.281294
| 34> H  -0.030366	0.403483	3.140313
| 35> H  -0.246433	-0.537200	1.895767
| 36> O  -3.062107	-0.782133	3.175964
| 37> H  -2.505639	-1.275209	2.515692
| 38> H  -3.549078	-0.122290	2.596748
| 39> O  -1.316381	0.913796	4.115687
| 40> H  -2.019645	0.209747	3.851906
| 41> H  -1.272659	0.896053	5.092289
| 42> O  1.380101	1.432247	-1.166276
| 43> H  2.053535	1.437598	-1.915317
| 44> H  1.750315	0.717270	-0.546429
| 45> O  -2.258660	2.906383	2.554273
| 46> H  -1.548856	2.878562	1.858238
| 47> H  -1.893419	2.291751	3.258968
| 48> O  -1.370543	-1.469444	1.130064
| 49> H  -0.805746	-2.014051	0.514993
| 50> H  -1.744739	-0.744638	0.523066
| 51> O  -0.359322	2.143651	0.739079
| 52> H  0.007066	1.421390	1.354910
| 53> H  0.322611	2.197967	0.013166
| 54> O  4.042056	-1.130713	-1.546385
| 55> H  3.573297	-0.927944	-0.693411
| 56> H  3.491242	-1.880740	-1.922269
| 57> O  2.183224	-0.566956	0.385484
| 58> H  1.792893	-0.330312	1.271421
| 59> H  1.515658	-1.234341	0.004795
| 60> O  0.398739	-2.153847	-0.767860
| 61> H  1.011142	-2.655151	-1.391101
| 62> H  0.020080	-1.433365	-1.375397
| 63> **                         ****END OF INPUT****

CARTESIAN COORDINATES (ANGSTROEM)
---------------------------------
  O      3.065492    0.742446   -3.078391
  H      3.550443    0.040492   -2.502765
  H      3.769557    1.246851   -3.531491
  O     -2.212572    0.568530   -0.347203
  H     -3.038757    0.812096    0.175961
  H     -1.527557    1.224894    0.013636
  O     -0.467049   -0.128134   -2.256780
  H     -1.317167    0.123450   -1.801020
  H      0.207064    0.534957   -1.881274
  O      1.291606   -0.966466   -4.185133
  H      0.484642   -0.673028   -3.684164
  H      1.965916   -0.265589   -3.935699
  O      2.200648   -2.817336   -2.579393
  H      2.366064   -3.660190   -3.046269
  H      1.838480   -2.168835   -3.291046
  O     -3.940835    1.183623    1.547669
  H     -4.847845    1.544018    1.490254
  H     -3.363690    1.938244    1.943440
  O      0.417195    0.128413    2.281294
  H     -0.030366    0.403483    3.140313
  H     -0.246433   -0.537200    1.895767
  O     -3.062107   -0.782133    3.175964
  H     -2.505639   -1.275209    2.515692
  H     -3.549078   -0.122290    2.596748
  O     -1.316381    0.913796    4.115687
  H     -2.019645    0.209747    3.851906
  H     -1.272659    0.896053    5.092289
  O      1.380101    1.432247   -1.166276
  H      2.053535    1.437598   -1.915317
  H      1.750315    0.717270   -0.546429
  O     -2.258660    2.906383    2.554273
  H     -1.548856    2.878562    1.858238
  H     -1.893419    2.291751    3.258968
  O     -1.370543   -1.469444    1.130064
  H     -0.805746   -2.014051    0.514993
  H     -1.744739   -0.744638    0.523066
  O     -0.359322    2.143651    0.739079
  H      0.007066    1.421390    1.354910
  H      0.322611    2.197967    0.013166
  O      4.042056   -1.130713   -1.546385
  H      3.573297   -0.927944   -0.693411
  H      3.491242   -1.880740   -1.922269
  O      2.183224   -0.566956    0.385484
  H      1.792893   -0.330312    1.271421
  H      1.515658   -1.234341    0.004795
  O      0.398739   -2.153847   -0.767860
  H      1.011142   -2.655151   -1.391101
  H      0.020080   -1.433365   -1.375397

 Total Charge           Charge          ....    0
 Multiplicity           Mult            ....    1
 Number of Electrons    NEL             ....  160
 Basis Dimension        Dim             ....  688

ORBITAL ENERGIES
----------------

  NO   OCC          E(Eh)            E(eV)
   0   2.0000     -19.132909      -520.6329
   1   2.0000     -19.132752      -520.6286
   2   2.0000     -19.132542      -520.6229
   3   2.0000     -19.132450      -520.6204
   4   2.0000     -19.127393      -520.4828
   5   2.0000     -19.127263      -520.4793
   6   2.0000     -19.127154      -520.4763
   7   2.0000     -19.127104      -520.4750
   8   2.0000     -19.124317      -520.3991
   9   2.0000     -19.124121      -520.3938
  10   2.0000     -19.124111      -520.3935
  11   2.0000     -19.124074      -520.3925
  12   2.0000     -19.124068      -520.3924
  13   2.0000     -19.124028      -520.3913
  14   2.0000     -19.123904      -520.3879
  15   2.0000     -19.123886      -520.3874
  16   2.0000      -1.036998       -28.2181
  17   2.0000      -1.029277       -28.0080
  18   2.0000      -1.019111       -27.7314
  19   2.0000      -1.017055       -27.6755
  20   2.0000      -1.017024       -27.6746
  21   2.0000      -1.010322       -27.4922
  22   2.0000      -1.009735       -27.4763
  23   2.0000      -1.009674       -27.4746
  24   2.0000      -0.998837       -27.1797
  25   2.0000      -0.998824       -27.1794
  26   2.0000      -0.995761       -27.0960
  27   2.0000      -0.990028       -26.9400
  28   2.0000      -0.989913       -26.9369
  29   2.0000      -0.989892       -26.9363
  30   2.0000      -0.980272       -26.6746
  31   2.0000      -0.970519       -26.4092
  32   2.0000      -0.544559       -14.8182
  33   2.0000      -0.541896       -14.7457
  34   2.0000      -0.541499       -14.7349
  35   2.0000      -0.541350       -14.7309
  36   2.0000      -0.538165       -14.6442
  37   2.0000      -0.531979       -14.4759
  38   2.0000      -0.530569       -14.4375
  39   2.0000      -0.530415       -14.4333
  40   2.0000      -0.523182       -14.2365
  41   2.0000      -0.522075       -14.2064
  42   2.0000      -0.519292       -14.1307
  43   2.0000      -0.517122       -14.0716
  44   2.0000      -0.517020       -14.0688
  45   2.0000      -0.516527       -14.0554
  46   2.0000      -0.511975       -13.9316
  47   2.0000      -0.511881       -13.9290
  48   2.0000      -0.468896       -12.7593
  49   2.0000      -0.458285       -12.4706
  50   2.0000      -0.435007       -11.8371
  51   2.0000      -0.434737       -11.8298
  52   2.0000      -0.430432       -11.7127
  53   2.0000      -0.422086       -11.4855
  54   2.0000      -0.421729       -11.4758
  55   2.0000      -0.417718       -11.3667
  56   2.0000      -0.400527       -10.8989
  57   2.0000      -0.400130       -10.8881
  58   2.0000      -0.399904       -10.8819
  59   2.0000      -0.397770       -10.8239
  60   2.0000      -0.379855       -10.3364
  61   2.0000      -0.379551       -10.3281
  62   2.0000      -0.368698       -10.0328
  63   2.0000      -0.351277        -9.5587
  64   2.0000      -0.330018        -8.9802
  65   2.0000      -0.329486        -8.9658
  66   2.0000      -0.329415        -8.9638
  67   2.0000      -0.326160        -8.8753
  68   2.0000      -0.324163        -8.8209
  69   2.0000      -0.324105        -8.8193
  70   2.0000      -0.322533        -8.7766
  71   2.0000      -0.322041        -8.7632
  72   2.0000      -0.321975        -8.7614
  73   2.0000      -0.319953        -8.7064
  74   2.0000      -0.319605        -8.6969
  75   2.0000      -0.317312        -8.6345
  76   2.0000      -0.316931        -8.6241
  77   2.0000      -0.316821        -8.6211
  78   2.0000      -0.313507        -8.5310
  79   2.0000      -0.312747        -8.5103
  80   0.0000       0.013115         0.3569
  81   0.0000       0.031597         0.8598
  82   0.0000       0.058069         1.5801
  83   0.0000       0.058142         1.5821
  84   0.0000       0.066947         1.8217

MULLIKEN ATOMIC CHARGES
-----------------------
   0 O :   -0.753352
   1 H :    0.378288
   2 H :    0.387113
   3 O :   -0.778697
   4 H :    0.386859
   5 H :    0.364793
   6 O :   -0.772921
   7 H :    0.397403
   8 H :    0.369276
   9 O :   -0.745012
  10 H :    0.388233
  11 H :    0.375101
  12 O :   -0.752768
  13 H :    0.387164
  14 H :    0.378356
  15 O :   -0.752415
  16 H :    0.387499
  17 H :    0.378131
  18 O :   -0.778182
  19 H :    0.386797
  20 H :    0.365097
  21 O :   -0.744542
  22 H :    0.388707
  23 H :    0.375797
  24 O :   -0.753847
  25 H :    0.378630
  26 H :    0.387413
  27 O :   -0.778272
  28 H :    0.387568
  29 H :    0.366294
  30 O :   -0.745743
  31 H :    0.389424
  32 H :    0.375297
  33 O :   -0.772905
  34 H :    0.397583
  35 H :    0.369444
  36 O :   -0.773982
  37 H :    0.369911
  38 H :    0.397865
  39 O :   -0.744629
  40 H :    0.388957
  41 H :    0.375298
  42 O :   -0.772648
  43 H :    0.397372
  44 H :    0.369522
  45 O :   -0.777541
  46 H :    0.387244
  47 H :    0.365022
Sum of atomic charges:   -0.0000000

LOEWDIN ATOMIC CHARGES
----------------------
   0 O :   -0.288877
   1 H :    0.150300
   2 H :    0.187730
   3 O :   -0.317944
   4 H :    0.149895
   5 H :    0.140168
   6 O :   -0.310123
   7 H :    0.156930
   8 H :    0.141258
   9 O :   -0.317054
  10 H :    0.155025
  11 H :    0.149294
  12 O :   -0.288318
  13 H :    0.187937
  14 H :    0.150916
  15 O :   -0.286973
  16 H :    0.188089
  17 H :    0.150640
  18 O :   -0.317775
  19 H :    0.150568
  20 H :    0.140222
  21 O :   -0.315768
  22 H :    0.155566
  23 H :    0.149435
  24 O :   -0.289482
  25 H :    0.150474
  26 H :    0.187805
  27 O :   -0.316629
  28 H :    0.150815
  29 H :    0.140041
  30 O :   -0.316791
  31 H :    0.154485
  32 H :    0.149308
  33 O :   -0.309860
  34 H :    0.157015
  35 H :    0.141274
  36 O :   -0.310452
  37 H :    0.141543
  38 H :    0.156701
  39 O :   -0.315599
  40 H :    0.154887
  41 H :    0.149602
  42 O :   -0.308507
  43 H :    0.157093
  44 H :    0.141626
  45 O :   -0.317187
  46 H :    0.150696
  47 H :    0.140000

  Mayer bond orders larger than 0.1
B(  0-O ,  1-H ) :   0.7275 B(  0-O ,  2-H ) :   0.8490 B(  0-O , 11-H ) :   0.1195
B(  0-O , 28-H ) :   0.1252 B(  1-H , 39-O ) :   0.1740 B(  3-O ,  4-H ) :   0.7708
B(  3-O ,  5-H ) :   0.7525 B(  3-O , 35-H ) :   0.1588 B(  4-H , 15-O ) :   0.1289
B(  5-H , 36-O ) :   0.1546 B(  6-O ,  7-H ) :   0.7959 B(  6-O ,  8-H ) :   0.7472
B(  6-O , 47-H ) :   0.1546 B(  8-H , 27-O ) :   0.1593 B(  9-O , 10-H ) :   0.8131
B(  9-O , 11-H ) :   0.7897 B(  9-O , 14-H ) :   0.1723 B( 12-O , 13-H ) :   0.8490
B( 12-O , 14-H ) :   0.7289 B( 12-O , 41-H ) :   0.1187 B( 12-O , 46-H ) :   0.1256
B( 15-O , 16-H ) :   0.8488 B( 15-O , 17-H ) :   0.7273 B( 15-O , 23-H ) :   0.1188
B( 17-H , 30-O ) :   0.1745 B( 18-O , 19-H ) :   0.7729 B( 18-O , 20-H ) :   0.7522
B( 18-O , 37-H ) :   0.1580 B( 19-H , 24-O ) :   0.1260 B( 20-H , 33-O ) :   0.1540
B( 21-O , 22-H ) :   0.8132 B( 21-O , 23-H ) :   0.7896 B( 21-O , 25-H ) :   0.1730
B( 24-O , 25-H ) :   0.7277 B( 24-O , 26-H ) :   0.8488 B( 24-O , 32-H ) :   0.1192
B( 27-O , 28-H ) :   0.7724 B( 27-O , 29-H ) :   0.7510 B( 29-H , 42-O ) :   0.1539
B( 30-O , 31-H ) :   0.8115 B( 30-O , 32-H ) :   0.7898 B( 33-O , 34-H ) :   0.7960
B( 33-O , 35-H ) :   0.7479 B( 36-O , 37-H ) :   0.7478 B( 36-O , 38-H ) :   0.7942
B( 39-O , 40-H ) :   0.8123 B( 39-O , 41-H ) :   0.7902 B( 42-O , 43-H ) :   0.7963
B( 42-O , 44-H ) :   0.7471 B( 44-H , 45-O ) :   0.1591 B( 45-O , 46-H ) :   0.7727
B( 45-O , 47-H ) :   0.7521

Dispersion correction           -0.063216579
FINAL SINGLE POINT ENERGY     -1223.157781721912

DIPOLE MOMENT
-------------
                                X             Y             Z
Electronic contribution:      0.00256      -0.00508       0.00615
Nuclear contribution   :      0.02100      -0.01014      -0.00522
                        -----------------------------------------
Total Dipole Moment    :      0.02356      -0.01522       0.00093
                        -----------------------------------------
Magnitude (a.u.)       :      0.02806
Magnitude (Debye)      :      0.07133

                             ****ORCA TERMINATED NORMALLY****
TOTAL RUN TIME: 0 days 0 hours 2 minutes 5 seconds 878 msec
