                         Program Version 3.0.3 - RELEASE   -
|  1> ! wB97X-D3 Def2-TZVP def2-TZVP/J RIJCOSX TightSCF Grid4
|  2>
|  3> %pal nprocs 12 end
|  4>
|  5> %scf
|  6>         maxiter 400
|  7> end
|  8>
|  9> * xyz  0  1
| 10> O  3.192744	0.887794	-3.244137
| 11> H  3.647666	0.220409	-2.632527
| 12> H  3.888669	1.403565	-3.671310
| 13> O  -2.262092	0.490625	-0.367378
| 14> H  -3.086287	0.800034	0.072300
| 15> H  -1.571718	1.114075	-0.014109
| 16> O  -0.489901	-0.230935	-2.335032
| 17> H  -1.345472	0.053380	-1.949200
| 18> H  0.169718	0.414626	-1.966297
| 19> O  1.394033	-0.947096	-4.261378
| 20> H  0.554878	-0.648595	-3.852360
| 21> H  2.021383	-0.208991	-4.096763
| 22> O  2.214818	-2.742108	-2.550546
| 23> H  2.462305	-3.548398	-3.023471
| 24> H  1.877675	-2.103904	-3.260107
| 25> O  -4.002360	1.328304	1.539694
| 26> H  -4.859312	1.775881	1.517461
| 27> H  -3.348723	2.000262	1.924460
| 28> O  0.425118	-0.011626	2.334563
| 29> H  0.043749	0.301804	3.186340
| 30> H  -0.266164	-0.642969	1.995790
| 31> O  -3.194656	-0.669646	3.278389
| 32> H  -2.712033	-1.243334	2.647111
| 33> H  -3.682588	-0.045435	2.696271
| 34> O  -1.322623	0.874808	4.220036
| 35> H  -2.066813	0.246291	3.940385
| 36> H  -1.344451	0.908652	5.185572
| 37> O  1.413808	1.312894	-1.245691
| 38> H  2.077440	1.432743	-1.962555
| 39> H  1.808448	0.641563	-0.627497
| 40> O  -2.165359	2.893313	2.531807
| 41> H  -1.459329	2.864526	1.851771
| 42> H  -1.810421	2.334267	3.258668
| 43> O  -1.524216	-1.515610	1.254676
| 44> H  -0.999461	-2.119032	0.688156
| 45> H  -1.865462	-0.833779	0.613644
| 46> O  -0.322396	1.986404	0.712870
| 47> H  0.047037	1.292309	1.322332
| 48> H  0.343709	2.079862	-0.002577
| 49> O  4.062726	-0.919824	-1.608319
| 50> H  3.676849	-0.765586	-0.720279
| 51> H  3.559385	-1.703896	-1.925292
| 52> O  2.229662	-0.635953	0.406958
| 53> H  1.890355	-0.386049	1.293696
| 54> H  1.549870	-1.281600	0.075265
| 55> O  0.305338	-2.201911	-0.671463
| 56> H  0.912921	-2.714473	-1.248969
| 57> H  -0.068465	-1.537634	-1.310959
| 58> **                         ****END OF INPUT****

CARTESIAN COORDINATES (ANGSTROEM)
---------------------------------
  O      3.192744    0.887794   -3.244137
  H      3.647666    0.220409   -2.632527
  H      3.888669    1.403565   -3.671310
  O     -2.262092    0.490625   -0.367378
  H     -3.086287    0.800034    0.072300
  H     -1.571718    1.114075   -0.014109
  O     -0.489901   -0.230935   -2.335032
  H     -1.345472    0.053380   -1.949200
  H      0.169718    0.414626   -1.966297
  O      1.394033   -0.947096   -4.261378
  H      0.554878   -0.648595   -3.852360
  H      2.021383   -0.208991   -4.096763
  O      2.214818   -2.742108   -2.550546
  H      2.462305   -3.548398   -3.023471
  H      1.877675   -2.103904   -3.260107
  O     -4.002360    1.328304    1.539694
  H     -4.859312    1.775881    1.517461
  H     -3.348723    2.000262    1.924460
  O      0.425118   -0.011626    2.334563
  H      0.043749    0.301804    3.186340
  H     -0.266164   -0.642969    1.995790
  O     -3.194656   -0.669646    3.278389
  H     -2.712033   -1.243334    2.647111
  H     -3.682588   -0.045435    2.696271
  O     -1.322623    0.874808    4.220036
  H     -2.066813    0.246291    3.940385
  H     -1.344451    0.908652    5.185572
  O      1.413808    1.312894   -1.245691
  H      2.077440    1.432743   -1.962555
  H      1.808448    0.641563   -0.627497
  O     -2.165359    2.893313    2.531807
  H     -1.459329    2.864526    1.851771
  H     -1.810421    2.334267    3.258668
  O     -1.524216   -1.515610    1.254676
  H     -0.999461   -2.119032    0.688156
  H     -1.865462   -0.833779    0.613644
  O     -0.322396    1.986404    0.712870
  H      0.047037    1.292309    1.322332
  H      0.343709    2.079862   -0.002577
  O      4.062726   -0.919824   -1.608319
  H      3.676849   -0.765586   -0.720279
  H      3.559385   -1.703896   -1.925292
  O      2.229662   -0.635953    0.406958
  H      1.890355   -0.386049    1.293696
  H      1.549870   -1.281600    0.075265
  O      0.305338   -2.201911   -0.671463
  H      0.912921   -2.714473   -1.248969
  H     -0.068465   -1.537634   -1.310959

 Total Charge           Charge          ....    0
 Multiplicity           Mult            ....    1
 Number of Electrons    NEL             ....  160
 Basis Dimension        Dim             ....  688

ORBITAL ENERGIES
----------------

  NO   OCC          E(Eh)            E(eV)
   0   2.0000     -19.250612      -523.8358
   1   2.0000     -19.250110      -523.8221
   2   2.0000     -19.249931      -523.8172
   3   2.0000     -19.249736      -523.8119
   4   2.0000     -19.240028      -523.5478
   5   2.0000     -19.239230      -523.5261
   6   2.0000     -19.238831      -523.5152
   7   2.0000     -19.238161      -523.4970
   8   2.0000     -19.237802      -523.4872
   9   2.0000     -19.237146      -523.4693
  10   2.0000     -19.236700      -523.4572
  11   2.0000     -19.235876      -523.4348
  12   2.0000     -19.232200      -523.3348
  13   2.0000     -19.231511      -523.3160
  14   2.0000     -19.231120      -523.3054
  15   2.0000     -19.229636      -523.2650
  16   2.0000      -1.160250       -31.5720
  17   2.0000      -1.154229       -31.4082
  18   2.0000      -1.145510       -31.1709
  19   2.0000      -1.144332       -31.1389
  20   2.0000      -1.143448       -31.1148
  21   2.0000      -1.136949       -30.9380
  22   2.0000      -1.135508       -30.8987
  23   2.0000      -1.135146       -30.8889
  24   2.0000      -1.124415       -30.5969
  25   2.0000      -1.124182       -30.5906
  26   2.0000      -1.121235       -30.5104
  27   2.0000      -1.117208       -30.4008
  28   2.0000      -1.116563       -30.3832
  29   2.0000      -1.115653       -30.3585
  30   2.0000      -1.108237       -30.1567
  31   2.0000      -1.100683       -29.9511
  32   2.0000      -0.665722       -18.1152
  33   2.0000      -0.656994       -17.8777
  34   2.0000      -0.655148       -17.8275
  35   2.0000      -0.653673       -17.7874
  36   2.0000      -0.652141       -17.7457
  37   2.0000      -0.648287       -17.6408
  38   2.0000      -0.646843       -17.6015
  39   2.0000      -0.644500       -17.5377
  40   2.0000      -0.639708       -17.4073
  41   2.0000      -0.637852       -17.3568
  42   2.0000      -0.633509       -17.2387
  43   2.0000      -0.631027       -17.1711
  44   2.0000      -0.630198       -17.1486
  45   2.0000      -0.629130       -17.1195
  46   2.0000      -0.624673       -16.9982
  47   2.0000      -0.623178       -16.9575
  48   2.0000      -0.574837       -15.6421
  49   2.0000      -0.563436       -15.3319
  50   2.0000      -0.541908       -14.7461
  51   2.0000      -0.540401       -14.7051
  52   2.0000      -0.537053       -14.6140
  53   2.0000      -0.526730       -14.3331
  54   2.0000      -0.526061       -14.3148
  55   2.0000      -0.518663       -14.1135
  56   2.0000      -0.509527       -13.8649
  57   2.0000      -0.505759       -13.7624
  58   2.0000      -0.505380       -13.7521
  59   2.0000      -0.498286       -13.5591
  60   2.0000      -0.484537       -13.1849
  61   2.0000      -0.483770       -13.1640
  62   2.0000      -0.470268       -12.7966
  63   2.0000      -0.452724       -12.3193
  64   2.0000      -0.437286       -11.8992
  65   2.0000      -0.436247       -11.8709
  66   2.0000      -0.435418       -11.8483
  67   2.0000      -0.435261       -11.8441
  68   2.0000      -0.432803       -11.7772
  69   2.0000      -0.428791       -11.6680
  70   2.0000      -0.427489       -11.6326
  71   2.0000      -0.425490       -11.5782
  72   2.0000      -0.424649       -11.5553
  73   2.0000      -0.424026       -11.5383
  74   2.0000      -0.419953       -11.4275
  75   2.0000      -0.418708       -11.3936
  76   2.0000      -0.416903       -11.3445
  77   2.0000      -0.416619       -11.3368
  78   2.0000      -0.415622       -11.3097
  79   2.0000      -0.414980       -11.2922
  80   0.0000       0.079672         2.1680
  81   0.0000       0.095675         2.6034
  82   0.0000       0.117834         3.2064
  83   0.0000       0.118363         3.2208
  84   0.0000       0.131217         3.5706

MULLIKEN ATOMIC CHARGES
-----------------------
   0 O :   -0.754894
   1 H :    0.379275
   2 H :    0.352128
   3 O :   -0.742347
   4 H :    0.377285
   5 H :    0.346722
   6 O :   -0.739322
   7 H :    0.387993
   8 H :    0.349459
   9 O :   -0.689739
  10 H :    0.377783
  11 H :    0.364092
  12 O :   -0.753173
  13 H :    0.353953
  14 H :    0.367744
  15 O :   -0.753050
  16 H :    0.352722
  17 H :    0.367794
  18 O :   -0.747485
  19 H :    0.381219
  20 H :    0.354673
  21 O :   -0.691136
  22 H :    0.382689
  23 H :    0.360140
  24 O :   -0.755471
  25 H :    0.369879
  26 H :    0.353916
  27 O :   -0.751271
  28 H :    0.380646
  29 H :    0.343925
  30 O :   -0.692605
  31 H :    0.382919
  32 H :    0.358150
  33 O :   -0.745457
  34 H :    0.389113
  35 H :    0.354655
  36 O :   -0.750680
  37 H :    0.347559
  38 H :    0.395973
  39 O :   -0.696470
  40 H :    0.383216
  41 H :    0.356540
  42 O :   -0.745520
  43 H :    0.395101
  44 H :    0.355421
  45 O :   -0.742136
  46 H :    0.374563
  47 H :    0.353510
Sum of atomic charges:    0.0000000

LOEWDIN ATOMIC CHARGES
----------------------
   0 O :   -0.303165
   1 H :    0.138539
   2 H :    0.160343
   3 O :   -0.296494
   4 H :    0.145573
   5 H :    0.131161
   6 O :   -0.292164
   7 H :    0.153961
   8 H :    0.131755
   9 O :   -0.270243
  10 H :    0.152460
  11 H :    0.143165
  12 O :   -0.302787
  13 H :    0.160876
  14 H :    0.139243
  15 O :   -0.304401
  16 H :    0.160810
  17 H :    0.139342
  18 O :   -0.293674
  19 H :    0.146818
  20 H :    0.135157
  21 O :   -0.270531
  22 H :    0.151043
  23 H :    0.143049
  24 O :   -0.303349
  25 H :    0.139254
  26 H :    0.160641
  27 O :   -0.290469
  28 H :    0.143947
  29 H :    0.131374
  30 O :   -0.274101
  31 H :    0.148837
  32 H :    0.141285
  33 O :   -0.289279
  34 H :    0.154874
  35 H :    0.135065
  36 O :   -0.286722
  37 H :    0.132293
  38 H :    0.150409
  39 O :   -0.273083
  40 H :    0.150563
  41 H :    0.142125
  42 O :   -0.288341
  43 H :    0.153680
  44 H :    0.137066
  45 O :   -0.298798
  46 H :    0.146929
  47 H :    0.135962

  Mayer bond orders larger than 0.1
B(  0-O ,  1-H ) :   0.7378 B(  0-O ,  2-H ) :   0.8810 B(  1-H , 39-O ) :   0.1628
B(  3-O ,  4-H ) :   0.8179 B(  3-O ,  5-H ) :   0.7814 B(  3-O , 35-H ) :   0.1431
B(  5-H , 36-O ) :   0.1396 B(  6-O ,  7-H ) :   0.8251 B(  6-O ,  8-H ) :   0.7858
B(  6-O , 47-H ) :   0.1386 B(  8-H , 27-O ) :   0.1319 B(  9-O , 10-H ) :   0.8352
B(  9-O , 11-H ) :   0.8287 B(  9-O , 14-H ) :   0.1799 B( 12-O , 13-H ) :   0.8814
B( 12-O , 14-H ) :   0.7360 B( 15-O , 16-H ) :   0.8815 B( 15-O , 17-H ) :   0.7361
B( 17-H , 30-O ) :   0.1782 B( 18-O , 19-H ) :   0.8155 B( 18-O , 20-H ) :   0.7802
B( 18-O , 37-H ) :   0.1450 B( 20-H , 33-O ) :   0.1403 B( 21-O , 22-H ) :   0.8314
B( 21-O , 23-H ) :   0.8304 B( 21-O , 25-H ) :   0.1785 B( 24-O , 25-H ) :   0.7347
B( 24-O , 26-H ) :   0.8806 B( 27-O , 28-H ) :   0.8060 B( 27-O , 29-H ) :   0.7797
B( 29-H , 42-O ) :   0.1419 B( 30-O , 31-H ) :   0.8296 B( 30-O , 32-H ) :   0.8296
B( 33-O , 34-H ) :   0.8258 B( 33-O , 35-H ) :   0.7780 B( 36-O , 37-H ) :   0.7784
B( 36-O , 38-H ) :   0.8116 B( 39-O , 40-H ) :   0.8308 B( 39-O , 41-H ) :   0.8281
B( 42-O , 43-H ) :   0.8181 B( 42-O , 44-H ) :   0.7840 B( 44-H , 45-O ) :   0.1404
B( 45-O , 46-H ) :   0.8263 B( 45-O , 47-H ) :   0.7828

Dispersion correction           -0.031924747
FINAL SINGLE POINT ENERGY     -1223.321149464432

DIPOLE MOMENT
-------------
                                X             Y             Z
Electronic contribution:      0.01314      -0.06669      -0.00984
Nuclear contribution   :      0.11326       0.25113       0.01236
                        -----------------------------------------
Total Dipole Moment    :      0.12640       0.18444       0.00252
                        -----------------------------------------
Magnitude (a.u.)       :      0.22361
Magnitude (Debye)      :      0.56838

                             ****ORCA TERMINATED NORMALLY****
TOTAL RUN TIME: 0 days 0 hours 2 minutes 6 seconds 874 msec
