                         Program Version 4.2.0 -  RELEASE  -
|  1> # 12h2o.su.etal.mol3,10,11
|  2> ! MP2 def2-TZVP EnGrad TightSCF
|  3>
|  4> %pal
|  5>     nprocs 6
|  6> end
|  7>
|  8> %maxcore 8000
|  9>
| 10> %scf
| 11>     ConvForced true
| 12> end
| 13>
| 14> *xyz 0 1
| 15> O  -1.752130000  -0.741530000  -2.896280000
| 16> H  -2.036450000  -0.920500000  -1.984040000
| 17> H  -0.921210000  -1.242140000  -2.984230000
| 18> O  -0.923410000   1.794470000  -2.768350000
| 19> H  -1.359750000   2.338250000  -3.430940000
| 20> H  -1.303000000   0.879480000  -2.865760000
| 21> O  -0.741530000   1.752130000   2.896280000
| 22> H  -0.920500000   2.036450000   1.984040000
| 23> H  -1.242140000   0.921210000   2.984230000
| 24> *
| 25>
| 26>                          ****END OF INPUT****

CARTESIAN COORDINATES (ANGSTROEM)
---------------------------------
  O     -1.752130   -0.741530   -2.896280
  H     -2.036450   -0.920500   -1.984040
  H     -0.921210   -1.242140   -2.984230
  O     -0.923410    1.794470   -2.768350
  H     -1.359750    2.338250   -3.430940
  H     -1.303000    0.879480   -2.865760
  O     -0.741530    1.752130    2.896280
  H     -0.920500    2.036450    1.984040
  H     -1.242140    0.921210    2.984230

 Total Charge           Charge          ....    0
 Multiplicity           Mult            ....    1
 Number of Electrons    NEL             ....   30
 Basis Dimension        Dim             ....  129

ORBITAL ENERGIES
----------------

  NO   OCC          E(Eh)            E(eV)
   0   2.0000     -20.604895      -560.6877
   1   2.0000     -20.559647      -559.4564
   2   2.0000     -20.523037      -558.4602
   3   2.0000      -1.390143       -37.8277
   4   2.0000      -1.338944       -36.4345
   5   2.0000      -1.305461       -35.5234
   6   2.0000      -0.747691       -20.3457
   7   2.0000      -0.701645       -19.0927
   8   2.0000      -0.696949       -18.9649
   9   2.0000      -0.624476       -16.9929
  10   2.0000      -0.576364       -15.6837
  11   2.0000      -0.564375       -15.3574
  12   2.0000      -0.520559       -14.1651
  13   2.0000      -0.503782       -13.7086
  14   2.0000      -0.473396       -12.8818
  15   0.0000       0.101923         2.7735
  16   0.0000       0.129536         3.5249
  17   0.0000       0.171139         4.6569
  18   0.0000       0.177496         4.8299
  19   0.0000       0.201221         5.4755

MULLIKEN ATOMIC CHARGES
-----------------------
   0 O :   -0.675353
   1 H :    0.356623
   2 H :    0.361363
   3 O :   -0.731969
   4 H :    0.327058
   5 H :    0.362477
   6 O :   -0.674768
   7 H :    0.342218
   8 H :    0.332351
Sum of atomic charges:    0.0000000

LOEWDIN ATOMIC CHARGES
----------------------
   0 O :   -0.269928
   1 H :    0.174282
   2 H :    0.177813
   3 O :   -0.372340
   4 H :    0.149338
   5 H :    0.140954
   6 O :   -0.332112
   7 H :    0.167499
   8 H :    0.164495

  Mayer bond orders larger than 0.100000
B(  0-O ,  1-H ) :   0.8382 B(  0-O ,  2-H ) :   0.8349 B(  3-O ,  4-H ) :   0.8598
B(  3-O ,  5-H ) :   0.7909 B(  6-O ,  7-H ) :   0.8502 B(  6-O ,  8-H ) :   0.8558

MP2 TOTAL ENERGY:     -228.945666615 Eh
FINAL SINGLE POINT ENERGY      -228.945666614731

DIPOLE MOMENT
-------------
                                X             Y             Z
Electronic contribution:      0.05142      -0.08476       0.07861
Nuclear contribution   :     -0.78984      -1.32960      -0.63259
                        -----------------------------------------
Total Dipole Moment    :     -0.73842      -1.41436      -0.55398
                        -----------------------------------------
Magnitude (a.u.)       :      1.68895
Magnitude (Debye)      :      4.29298

Rotational constants in cm-1:     0.266537     0.040442     0.035308
Rotational constants in MHz :  7990.563907  1212.433974  1058.520720

                             ****ORCA TERMINATED NORMALLY****
TOTAL RUN TIME: 0 days 0 hours 0 minutes 25 seconds 190 msec
