                         Program Version 4.2.0 -  RELEASE  -
|  1> # 12h2o.su.etal.mol1,2,4,5,7,10,11
|  2> ! MP2 def2-TZVP EnGrad TightSCF
|  3>
|  4> %pal
|  5>     nprocs 6
|  6> end
|  7>
|  8> %maxcore 8000
|  9>
| 10> %scf
| 11>     ConvForced true
| 12> end
| 13>
| 14> *xyz 0 1
| 15> O  -1.794470000  -0.923410000   2.768350000
| 16> H  -2.338250000  -1.359750000   3.430940000
| 17> H  -0.879480000  -1.303000000   2.865760000
| 18> O   0.923410000  -1.794470000  -2.768350000
| 19> H   1.359750000  -2.338250000  -3.430940000
| 20> H   1.303000000  -0.879480000  -2.865760000
| 21> O  -0.885520000   1.737840000   0.052730000
| 22> H  -1.032320000   2.090180000  -0.841890000
| 23> H  -1.284090000   0.839590000   0.017130000
| 24> O   0.885520000  -1.737840000   0.052730000
| 25> H   1.284090000  -0.839590000   0.017130000
| 26> H   1.032320000  -2.090180000  -0.841890000
| 27> O  -1.737840000  -0.885520000  -0.052730000
| 28> H  -2.090180000  -1.032320000   0.841890000
| 29> H  -0.839590000  -1.284090000  -0.017130000
| 30> O  -0.923410000   1.794470000  -2.768350000
| 31> H  -1.359750000   2.338250000  -3.430940000
| 32> H  -1.303000000   0.879480000  -2.865760000
| 33> O  -0.741530000   1.752130000   2.896280000
| 34> H  -0.920500000   2.036450000   1.984040000
| 35> H  -1.242140000   0.921210000   2.984230000
| 36> *
| 37>
| 38>                          ****END OF INPUT****

CARTESIAN COORDINATES (ANGSTROEM)
---------------------------------
  O     -1.794470   -0.923410    2.768350
  H     -2.338250   -1.359750    3.430940
  H     -0.879480   -1.303000    2.865760
  O      0.923410   -1.794470   -2.768350
  H      1.359750   -2.338250   -3.430940
  H      1.303000   -0.879480   -2.865760
  O     -0.885520    1.737840    0.052730
  H     -1.032320    2.090180   -0.841890
  H     -1.284090    0.839590    0.017130
  O      0.885520   -1.737840    0.052730
  H      1.284090   -0.839590    0.017130
  H      1.032320   -2.090180   -0.841890
  O     -1.737840   -0.885520   -0.052730
  H     -2.090180   -1.032320    0.841890
  H     -0.839590   -1.284090   -0.017130
  O     -0.923410    1.794470   -2.768350
  H     -1.359750    2.338250   -3.430940
  H     -1.303000    0.879480   -2.865760
  O     -0.741530    1.752130    2.896280
  H     -0.920500    2.036450    1.984040
  H     -1.242140    0.921210    2.984230

 Total Charge           Charge          ....    0
 Multiplicity           Mult            ....    1
 Number of Electrons    NEL             ....   70
 Basis Dimension        Dim             ....  301

ORBITAL ENERGIES
----------------

  NO   OCC          E(Eh)            E(eV)
   0   2.0000     -20.603443      -560.6482
   1   2.0000     -20.596150      -560.4497
   2   2.0000     -20.583559      -560.1071
   3   2.0000     -20.569960      -559.7371
   4   2.0000     -20.528891      -558.6195
   5   2.0000     -20.503826      -557.9375
   6   2.0000     -20.486019      -557.4529
   7   2.0000      -1.381848       -37.6020
   8   2.0000      -1.376524       -37.4571
   9   2.0000      -1.361444       -37.0468
  10   2.0000      -1.353717       -36.8365
  11   2.0000      -1.318164       -35.8691
  12   2.0000      -1.290243       -35.1093
  13   2.0000      -1.270436       -34.5703
  14   2.0000      -0.748270       -20.3615
  15   2.0000      -0.741874       -20.1874
  16   2.0000      -0.728059       -19.8115
  17   2.0000      -0.716781       -19.5046
  18   2.0000      -0.693160       -18.8618
  19   2.0000      -0.671318       -18.2675
  20   2.0000      -0.650401       -17.6983
  21   2.0000      -0.625743       -17.0273
  22   2.0000      -0.617724       -16.8091
  23   2.0000      -0.599725       -16.3193
  24   2.0000      -0.592246       -16.1158
  25   2.0000      -0.567771       -15.4498
  26   2.0000      -0.558975       -15.2105
  27   2.0000      -0.542928       -14.7738
  28   2.0000      -0.532446       -14.4886
  29   2.0000      -0.517458       -14.0807
  30   2.0000      -0.505556       -13.7569
  31   2.0000      -0.498593       -13.5674
  32   2.0000      -0.472914       -12.8687
  33   2.0000      -0.455488       -12.3945
  34   2.0000      -0.435948       -11.8627
  35   0.0000       0.089461         2.4344
  36   0.0000       0.116473         3.1694
  37   0.0000       0.127743         3.4761
  38   0.0000       0.159194         4.3319
  39   0.0000       0.184750         5.0273

MULLIKEN ATOMIC CHARGES
-----------------------
   0 O :   -0.712056
   1 H :    0.358802
   2 H :    0.374928
   3 O :   -0.701278
   4 H :    0.355863
   5 H :    0.361177
   6 O :   -0.748306
   7 H :    0.359427
   8 H :    0.342056
   9 O :   -0.709774
  10 H :    0.353127
  11 H :    0.379886
  12 O :   -0.730530
  13 H :    0.369419
  14 H :    0.361948
  15 O :   -0.702688
  16 H :    0.348208
  17 H :    0.364380
  18 O :   -0.731200
  19 H :    0.371431
  20 H :    0.335182
Sum of atomic charges:    0.0000000

LOEWDIN ATOMIC CHARGES
----------------------
   0 O :   -0.286771
   1 H :    0.165214
   2 H :    0.193208
   3 O :   -0.310770
   4 H :    0.165359
   5 H :    0.187557
   6 O :   -0.352831
   7 H :    0.144803
   8 H :    0.136396
   9 O :   -0.300990
  10 H :    0.175661
  11 H :    0.153845
  12 O :   -0.320258
  13 H :    0.146730
  14 H :    0.140258
  15 O :   -0.314213
  16 H :    0.161644
  17 H :    0.187551
  18 O :   -0.360197
  19 H :    0.150885
  20 H :    0.136918

  Mayer bond orders larger than 0.100000
B(  0-O ,  1-H ) :   0.8351 B(  0-O ,  2-H ) :   0.8172 B(  3-O ,  4-H ) :   0.8395
B(  3-O ,  5-H ) :   0.8278 B(  6-O ,  7-H ) :   0.8242 B(  6-O ,  8-H ) :   0.7762
B(  8-H , 12-O ) :   0.1047 B(  9-O , 10-H ) :   0.8339 B(  9-O , 11-H ) :   0.8027
B( 12-O , 13-H ) :   0.8167 B( 12-O , 14-H ) :   0.7836 B( 15-O , 16-H ) :   0.8437
B( 15-O , 17-H ) :   0.8258 B( 18-O , 19-H ) :   0.8143 B( 18-O , 20-H ) :   0.8425

MP2 TOTAL ENERGY:     -534.246398590 Eh
FINAL SINGLE POINT ENERGY      -534.246398590362

DIPOLE MOMENT
-------------
                                X             Y             Z
Electronic contribution:      0.10057      -0.23622      -0.08095
Nuclear contribution   :      0.19772      -1.58806      -2.09298
                        -----------------------------------------
Total Dipole Moment    :      0.29829      -1.82428      -2.17393
                        -----------------------------------------
Magnitude (a.u.)       :      2.85358
Magnitude (Debye)      :      7.25323

Rotational constants in cm-1:     0.041881     0.023842     0.017831
Rotational constants in MHz :  1255.560506   714.779513   534.551059

                             ****ORCA TERMINATED NORMALLY****
TOTAL RUN TIME: 0 days 0 hours 1 minutes 54 seconds 797 msec
