                         Program Version 4.2.0 -  RELEASE  -
|  1> # 12h2o.su.etal.mol1,8,10
|  2> ! MP2 def2-TZVP EnGrad TightSCF
|  3>
|  4> %pal
|  5>     nprocs 6
|  6> end
|  7>
|  8> %maxcore 8000
|  9>
| 10> %scf
| 11>     ConvForced true
| 12> end
| 13>
| 14> *xyz 0 1
| 15> O  -1.794470000  -0.923410000   2.768350000
| 16> H  -2.338250000  -1.359750000   3.430940000
| 17> H  -0.879480000  -1.303000000   2.865760000
| 18> O   1.752130000   0.741530000  -2.896280000
| 19> H   2.036450000   0.920500000  -1.984040000
| 20> H   0.921210000   1.242140000  -2.984230000
| 21> O  -0.923410000   1.794470000  -2.768350000
| 22> H  -1.359750000   2.338250000  -3.430940000
| 23> H  -1.303000000   0.879480000  -2.865760000
| 24> *
| 25>
| 26>                          ****END OF INPUT****

CARTESIAN COORDINATES (ANGSTROEM)
---------------------------------
  O     -1.794470   -0.923410    2.768350
  H     -2.338250   -1.359750    3.430940
  H     -0.879480   -1.303000    2.865760
  O      1.752130    0.741530   -2.896280
  H      2.036450    0.920500   -1.984040
  H      0.921210    1.242140   -2.984230
  O     -0.923410    1.794470   -2.768350
  H     -1.359750    2.338250   -3.430940
  H     -1.303000    0.879480   -2.865760

 Total Charge           Charge          ....    0
 Multiplicity           Mult            ....    1
 Number of Electrons    NEL             ....   30
 Basis Dimension        Dim             ....  129

ORBITAL ENERGIES
----------------

  NO   OCC          E(Eh)            E(eV)
   0   2.0000     -20.586841      -560.1964
   1   2.0000     -20.563758      -559.5683
   2   2.0000     -20.528261      -558.6024
   3   2.0000      -1.364488       -37.1296
   4   2.0000      -1.339099       -36.4387
   5   2.0000      -1.310685       -35.6656
   6   2.0000      -0.731657       -19.9094
   7   2.0000      -0.707527       -19.2528
   8   2.0000      -0.680143       -18.5076
   9   2.0000      -0.603511       -16.4224
  10   2.0000      -0.574974       -15.6458
  11   2.0000      -0.554072       -15.0771
  12   2.0000      -0.522620       -14.2212
  13   2.0000      -0.506926       -13.7942
  14   2.0000      -0.476010       -12.9529
  15   0.0000       0.113955         3.1009
  16   0.0000       0.124770         3.3952
  17   0.0000       0.173013         4.7079
  18   0.0000       0.189567         5.1584
  19   0.0000       0.194454         5.2914

MULLIKEN ATOMIC CHARGES
-----------------------
   0 O :   -0.681554
   1 H :    0.338687
   2 H :    0.342868
   3 O :   -0.706064
   4 H :    0.329505
   5 H :    0.355792
   6 O :   -0.692711
   7 H :    0.352355
   8 H :    0.361123
Sum of atomic charges:    0.0000000

LOEWDIN ATOMIC CHARGES
----------------------
   0 O :   -0.338705
   1 H :    0.157736
   2 H :    0.180969
   3 O :   -0.349523
   4 H :    0.160523
   5 H :    0.146492
   6 O :   -0.309755
   7 H :    0.163489
   8 H :    0.188773

  Mayer bond orders larger than 0.100000
B(  0-O ,  1-H ) :   0.8532 B(  0-O ,  2-H ) :   0.8458 B(  3-O ,  4-H ) :   0.8582
B(  3-O ,  5-H ) :   0.8193 B(  6-O ,  7-H ) :   0.8418 B(  6-O ,  8-H ) :   0.8305

MP2 TOTAL ENERGY:     -228.945634736 Eh
FINAL SINGLE POINT ENERGY      -228.945634736326

DIPOLE MOMENT
-------------
                                X             Y             Z
Electronic contribution:     -0.07635       0.13675      -0.11053
Nuclear contribution   :     -0.82514      -0.42247       0.68611
                        -----------------------------------------
Total Dipole Moment    :     -0.90149      -0.28572       0.57558
                        -----------------------------------------
Magnitude (a.u.)       :      1.10707
Magnitude (Debye)      :      2.81396

Rotational constants in cm-1:     0.226699     0.033389     0.029232
Rotational constants in MHz :  6796.276428  1000.984585   876.358979

                             ****ORCA TERMINATED NORMALLY****
TOTAL RUN TIME: 0 days 0 hours 0 minutes 21 seconds 240 msec
