                         Program Version 4.2.0 -  RELEASE  -
|  1> # 12mecn.remya.etal.2.mol1,5,11
|  2> ! MP2 def2-TZVP EnGrad TightSCF
|  3>
|  4> %pal
|  5>     nprocs 6
|  6> end
|  7>
|  8> %maxcore 8000
|  9>
| 10> %scf
| 11>     ConvForced true
| 12> end
| 13>
| 14> *xyz 0 1
| 15> C  -4.697980000  -0.249690000   1.746215000
| 16> H  -4.927570000   0.755530000   2.111799000
| 17> H  -3.709180000  -0.561560000   2.093253000
| 18> H  -5.432280000  -0.961520000   2.128066000
| 19> C  -4.714100000  -0.247110000   0.301670000
| 20> N  -4.729750000  -0.234960000  -0.865260000
| 21> C  -1.955700000   2.515080000   1.698463000
| 22> H  -2.923830000   2.883163000   2.049269000
| 23> H  -1.154850000   3.171830000   2.050990000
| 24> H  -1.790380000   1.506115000   2.087896000
| 25> C  -1.948230000   2.482156000   0.253672000
| 26> N  -1.937550000   2.462523000  -0.913150000
| 27> C   4.214163000   3.378139000   1.593627000
| 28> H   3.242643000   3.657109000   2.012358000
| 29> H   4.969258000   4.086643000   1.941290000
| 30> H   4.482966000   2.372549000   1.931698000
| 31> C   4.130759000   3.388436000   0.150192000
| 32> N   4.050180000   3.381449000  -1.013420000
| 33> *
| 34>
| 35>                          ****END OF INPUT****

CARTESIAN COORDINATES (ANGSTROEM)
---------------------------------
  C     -4.697980   -0.249690    1.746215
  H     -4.927570    0.755530    2.111799
  H     -3.709180   -0.561560    2.093253
  H     -5.432280   -0.961520    2.128066
  C     -4.714100   -0.247110    0.301670
  N     -4.729750   -0.234960   -0.865260
  C     -1.955700    2.515080    1.698463
  H     -2.923830    2.883163    2.049269
  H     -1.154850    3.171830    2.050990
  H     -1.790380    1.506115    2.087896
  C     -1.948230    2.482156    0.253672
  N     -1.937550    2.462523   -0.913150
  C      4.214163    3.378139    1.593627
  H      3.242643    3.657109    2.012358
  H      4.969258    4.086643    1.941290
  H      4.482966    2.372549    1.931698
  C      4.130759    3.388436    0.150192
  N      4.050180    3.381449   -1.013420

 Total Charge           Charge          ....    0
 Multiplicity           Mult            ....    1
 Number of Electrons    NEL             ....   66
 Basis Dimension        Dim             ....  333

ORBITAL ENERGIES
----------------

  NO   OCC          E(Eh)            E(eV)
   0   2.0000     -15.573416      -423.7742
   1   2.0000     -15.572958      -423.7617
   2   2.0000     -15.572364      -423.7456
   3   2.0000     -11.292320      -307.2796
   4   2.0000     -11.291024      -307.2444
   5   2.0000     -11.287913      -307.1597
   6   2.0000     -11.279624      -306.9342
   7   2.0000     -11.277775      -306.8838
   8   2.0000     -11.276786      -306.8569
   9   2.0000      -1.214492       -33.0480
  10   2.0000      -1.213113       -33.0105
  11   2.0000      -1.211858       -32.9763
  12   2.0000      -1.050166       -28.5765
  13   2.0000      -1.047554       -28.5054
  14   2.0000      -1.045666       -28.4540
  15   2.0000      -0.705382       -19.1944
  16   2.0000      -0.702733       -19.1223
  17   2.0000      -0.702387       -19.1129
  18   2.0000      -0.644343       -17.5335
  19   2.0000      -0.641296       -17.4505
  20   2.0000      -0.636444       -17.3185
  21   2.0000      -0.634485       -17.2652
  22   2.0000      -0.633364       -17.2347
  23   2.0000      -0.631005       -17.1705
  24   2.0000      -0.555334       -15.1114
  25   2.0000      -0.554098       -15.0778
  26   2.0000      -0.552013       -15.0210
  27   2.0000      -0.462025       -12.5723
  28   2.0000      -0.457673       -12.4539
  29   2.0000      -0.457620       -12.4525
  30   2.0000      -0.457414       -12.4469
  31   2.0000      -0.454752       -12.3744
  32   2.0000      -0.449115       -12.2210
  33   0.0000       0.089881         2.4458
  34   0.0000       0.109921         2.9911
  35   0.0000       0.140524         3.8239
  36   0.0000       0.143530         3.9056
  37   0.0000       0.152653         4.1539

MULLIKEN ATOMIC CHARGES
-----------------------
   0 C :   -0.284983
   1 H :    0.164143
   2 H :    0.164351
   3 H :    0.182617
   4 C :   -0.153060
   5 N :   -0.073064
   6 C :   -0.283099
   7 H :    0.167233
   8 H :    0.176963
   9 H :    0.161650
  10 C :   -0.152930
  11 N :   -0.069823
  12 C :   -0.280416
  13 H :    0.164863
  14 H :    0.173154
  15 H :    0.172314
  16 C :   -0.145731
  17 N :   -0.084185
Sum of atomic charges:   -0.0000000

LOEWDIN ATOMIC CHARGES
----------------------
   0 C :   -0.288239
   1 H :    0.149372
   2 H :    0.149164
   3 H :    0.152628
   4 C :   -0.224163
   5 N :    0.061291
   6 C :   -0.289065
   7 H :    0.149871
   8 H :    0.151874
   9 H :    0.147910
  10 C :   -0.224776
  11 N :    0.064131
  12 C :   -0.285418
  13 H :    0.150463
  14 H :    0.151092
  15 H :    0.152596
  16 C :   -0.220543
  17 N :    0.051812

  Mayer bond orders larger than 0.100000
B(  0-C ,  1-H ) :   0.9202 B(  0-C ,  2-H ) :   0.9231 B(  0-C ,  3-H ) :   0.9112
B(  0-C ,  4-C ) :   0.8984 B(  4-C ,  5-N ) :   2.8256 B(  6-C ,  7-H ) :   0.9221
B(  6-C ,  8-H ) :   0.9129 B(  6-C ,  9-H ) :   0.9214 B(  6-C , 10-C ) :   0.8982
B( 10-C , 11-N ) :   2.8231 B( 12-C , 13-H ) :   0.9185 B( 12-C , 14-H ) :   0.9167
B( 12-C , 15-H ) :   0.9170 B( 12-C , 16-C ) :   0.9023 B( 16-C , 17-N ) :   2.8320

MP2 TOTAL ENERGY:     -397.445797864 Eh
FINAL SINGLE POINT ENERGY      -397.445797864381

DIPOLE MOMENT
-------------
                                X             Y             Z
Electronic contribution:     -0.20831      -0.02255      -9.57816
Nuclear contribution   :      0.31131       0.03155      13.92595
                        -----------------------------------------
Total Dipole Moment    :      0.10300       0.00900       4.34779
                        -----------------------------------------
Magnitude (a.u.)       :      4.34902
Magnitude (Debye)      :     11.05433

Rotational constants in cm-1:     0.075748     0.008490     0.008101
Rotational constants in MHz :  2270.878727   254.527998   242.855317

                             ****ORCA TERMINATED NORMALLY****
TOTAL RUN TIME: 0 days 0 hours 2 minutes 31 seconds 632 msec
