                         Program Version 4.2.0 -  RELEASE  -
|  1> # 12h2o.su.etal.mol0,1,2,3,4,5,8,9,10,11
|  2> ! MP2 def2-TZVP EnGrad TightSCF
|  3>
|  4> %pal
|  5>     nprocs 6
|  6> end
|  7>
|  8> %maxcore 8000
|  9>
| 10> %scf
| 11>     ConvForced true
| 12> end
| 13>
| 14> *xyz 0 1
| 15> O   1.794470000   0.923410000   2.768350000
| 16> H   2.338250000   1.359750000   3.430940000
| 17> H   0.879480000   1.303000000   2.865760000
| 18> O  -1.794470000  -0.923410000   2.768350000
| 19> H  -2.338250000  -1.359750000   3.430940000
| 20> H  -0.879480000  -1.303000000   2.865760000
| 21> O   0.923410000  -1.794470000  -2.768350000
| 22> H   1.359750000  -2.338250000  -3.430940000
| 23> H   1.303000000  -0.879480000  -2.865760000
| 24> O  -1.752130000  -0.741530000  -2.896280000
| 25> H  -2.036450000  -0.920500000  -1.984040000
| 26> H  -0.921210000  -1.242140000  -2.984230000
| 27> O  -0.885520000   1.737840000   0.052730000
| 28> H  -1.032320000   2.090180000  -0.841890000
| 29> H  -1.284090000   0.839590000   0.017130000
| 30> O   0.885520000  -1.737840000   0.052730000
| 31> H   1.284090000  -0.839590000   0.017130000
| 32> H   1.032320000  -2.090180000  -0.841890000
| 33> O   1.752130000   0.741530000  -2.896280000
| 34> H   2.036450000   0.920500000  -1.984040000
| 35> H   0.921210000   1.242140000  -2.984230000
| 36> O   0.741530000  -1.752130000   2.896280000
| 37> H   0.920500000  -2.036450000   1.984040000
| 38> H   1.242140000  -0.921210000   2.984230000
| 39> O  -0.923410000   1.794470000  -2.768350000
| 40> H  -1.359750000   2.338250000  -3.430940000
| 41> H  -1.303000000   0.879480000  -2.865760000
| 42> O  -0.741530000   1.752130000   2.896280000
| 43> H  -0.920500000   2.036450000   1.984040000
| 44> H  -1.242140000   0.921210000   2.984230000
| 45> *
| 46>
| 47>                          ****END OF INPUT****

CARTESIAN COORDINATES (ANGSTROEM)
---------------------------------
  O      1.794470    0.923410    2.768350
  H      2.338250    1.359750    3.430940
  H      0.879480    1.303000    2.865760
  O     -1.794470   -0.923410    2.768350
  H     -2.338250   -1.359750    3.430940
  H     -0.879480   -1.303000    2.865760
  O      0.923410   -1.794470   -2.768350
  H      1.359750   -2.338250   -3.430940
  H      1.303000   -0.879480   -2.865760
  O     -1.752130   -0.741530   -2.896280
  H     -2.036450   -0.920500   -1.984040
  H     -0.921210   -1.242140   -2.984230
  O     -0.885520    1.737840    0.052730
  H     -1.032320    2.090180   -0.841890
  H     -1.284090    0.839590    0.017130
  O      0.885520   -1.737840    0.052730
  H      1.284090   -0.839590    0.017130
  H      1.032320   -2.090180   -0.841890
  O      1.752130    0.741530   -2.896280
  H      2.036450    0.920500   -1.984040
  H      0.921210    1.242140   -2.984230
  O      0.741530   -1.752130    2.896280
  H      0.920500   -2.036450    1.984040
  H      1.242140   -0.921210    2.984230
  O     -0.923410    1.794470   -2.768350
  H     -1.359750    2.338250   -3.430940
  H     -1.303000    0.879480   -2.865760
  O     -0.741530    1.752130    2.896280
  H     -0.920500    2.036450    1.984040
  H     -1.242140    0.921210    2.984230

 Total Charge           Charge          ....    0
 Multiplicity           Mult            ....    1
 Number of Electrons    NEL             ....  100
 Basis Dimension        Dim             ....  430

ORBITAL ENERGIES
----------------

  NO   OCC          E(Eh)            E(eV)
   0   2.0000     -20.593166      -560.3685
   1   2.0000     -20.593166      -560.3685
   2   2.0000     -20.586530      -560.1880
   3   2.0000     -20.586530      -560.1880
   4   2.0000     -20.563854      -559.5709
   5   2.0000     -20.563854      -559.5709
   6   2.0000     -20.531397      -558.6877
   7   2.0000     -20.531397      -558.6877
   8   2.0000     -20.531298      -558.6850
   9   2.0000     -20.531297      -558.6850
  10   2.0000      -1.393335       -37.9146
  11   2.0000      -1.382771       -37.6271
  12   2.0000      -1.372417       -37.3454
  13   2.0000      -1.362494       -37.0754
  14   2.0000      -1.345988       -36.6262
  15   2.0000      -1.345009       -36.5996
  16   2.0000      -1.333546       -36.2876
  17   2.0000      -1.323357       -36.0104
  18   2.0000      -1.313895       -35.7529
  19   2.0000      -1.303460       -35.4689
  20   2.0000      -0.754780       -20.5386
  21   2.0000      -0.754194       -20.5227
  22   2.0000      -0.743230       -20.2243
  23   2.0000      -0.737503       -20.0685
  24   2.0000      -0.716523       -19.4976
  25   2.0000      -0.713823       -19.4241
  26   2.0000      -0.698744       -19.0138
  27   2.0000      -0.697692       -18.9852
  28   2.0000      -0.687115       -18.6974
  29   2.0000      -0.682306       -18.5665
  30   2.0000      -0.652852       -17.7650
  31   2.0000      -0.627837       -17.0843
  32   2.0000      -0.615690       -16.7538
  33   2.0000      -0.609091       -16.5742
  34   2.0000      -0.593902       -16.1609
  35   2.0000      -0.593188       -16.1415
  36   2.0000      -0.574898       -15.6438
  37   2.0000      -0.566210       -15.4074
  38   2.0000      -0.555781       -15.1236
  39   2.0000      -0.538074       -14.6417
  40   2.0000      -0.534937       -14.5564
  41   2.0000      -0.534779       -14.5521
  42   2.0000      -0.532325       -14.4853
  43   2.0000      -0.527497       -14.3539
  44   2.0000      -0.511655       -13.9229
  45   2.0000      -0.508066       -13.8252
  46   2.0000      -0.482351       -13.1255
  47   2.0000      -0.480886       -13.0856
  48   2.0000      -0.476766       -12.9735
  49   2.0000      -0.476423       -12.9641
  50   0.0000       0.086825         2.3626
  51   0.0000       0.126864         3.4522
  52   0.0000       0.135998         3.7007
  53   0.0000       0.137719         3.7475
  54   0.0000       0.158341         4.3087

MULLIKEN ATOMIC CHARGES
-----------------------
   0 O :   -0.749534
   1 H :    0.335713
   2 H :    0.384287
   3 O :   -0.749534
   4 H :    0.335713
   5 H :    0.384287
   6 O :   -0.759709
   7 H :    0.357296
   8 H :    0.382874
   9 O :   -0.706503
  10 H :    0.358794
  11 H :    0.383737
  12 O :   -0.719338
  13 H :    0.374839
  14 H :    0.337524
  15 O :   -0.719338
  16 H :    0.337524
  17 H :    0.374839
  18 O :   -0.706503
  19 H :    0.358794
  20 H :    0.383737
  21 O :   -0.727872
  22 H :    0.382564
  23 H :    0.365328
  24 O :   -0.759709
  25 H :    0.357296
  26 H :    0.382874
  27 O :   -0.727872
  28 H :    0.382564
  29 H :    0.365328
Sum of atomic charges:   -0.0000000

LOEWDIN ATOMIC CHARGES
----------------------
   0 O :   -0.345977
   1 H :    0.152931
   2 H :    0.145863
   3 O :   -0.345977
   4 H :    0.152931
   5 H :    0.145863
   6 O :   -0.315156
   7 H :    0.162468
   8 H :    0.145545
   9 O :   -0.277857
  10 H :    0.171608
  11 H :    0.155807
  12 O :   -0.325886
  13 H :    0.151495
  14 H :    0.166812
  15 O :   -0.325886
  16 H :    0.166812
  17 H :    0.151495
  18 O :   -0.277857
  19 H :    0.171608
  20 H :    0.155807
  21 O :   -0.291679
  22 H :    0.155324
  23 H :    0.148702
  24 O :   -0.315156
  25 H :    0.162468
  26 H :    0.145545
  27 O :   -0.291679
  28 H :    0.155324
  29 H :    0.148702

  Mayer bond orders larger than 0.100000
B(  0-O ,  1-H ) :   0.8513 B(  0-O ,  2-H ) :   0.7382 B(  2-H , 27-O ) :   0.1197
B(  3-O ,  4-H ) :   0.8513 B(  3-O ,  5-H ) :   0.7382 B(  5-H , 21-O ) :   0.1197
B(  6-O ,  7-H ) :   0.8366 B(  6-O ,  8-H ) :   0.7331 B(  8-H , 18-O ) :   0.1135
B(  9-O , 10-H ) :   0.8356 B(  9-O , 11-H ) :   0.7850 B(  9-O , 26-H ) :   0.1135
B( 12-O , 13-H ) :   0.8050 B( 12-O , 14-H ) :   0.8395 B( 15-O , 16-H ) :   0.8395
B( 15-O , 17-H ) :   0.8050 B( 18-O , 19-H ) :   0.8356 B( 18-O , 20-H ) :   0.7850
B( 21-O , 22-H ) :   0.8059 B( 21-O , 23-H ) :   0.7932 B( 24-O , 25-H ) :   0.8366
B( 24-O , 26-H ) :   0.7331 B( 27-O , 28-H ) :   0.8059 B( 27-O , 29-H ) :   0.7932

MP2 TOTAL ENERGY:     -763.257942686 Eh
FINAL SINGLE POINT ENERGY      -763.257942685921

DIPOLE MOMENT
-------------
                                X             Y             Z
Electronic contribution:      0.00000      -0.00000      -0.51770
Nuclear contribution   :     -0.00000      -0.00000      -1.54856
                        -----------------------------------------
Total Dipole Moment    :      0.00000      -0.00000      -2.06625
                        -----------------------------------------
Magnitude (a.u.)       :      2.06625
Magnitude (Debye)      :      5.25200

Rotational constants in cm-1:     0.024118     0.011682     0.010682
Rotational constants in MHz :   723.033514   350.211716   320.224988

                             ****ORCA TERMINATED NORMALLY****
TOTAL RUN TIME: 0 days 0 hours 6 minutes 14 seconds 807 msec
