                         Program Version 4.2.0 -  RELEASE  -
|  1> # 12h2o.su.etal.mol0,1,2,3,5,6,10
|  2> ! MP2 def2-TZVP EnGrad TightSCF
|  3>
|  4> %pal
|  5>     nprocs 6
|  6> end
|  7>
|  8> %maxcore 8000
|  9>
| 10> %scf
| 11>     ConvForced true
| 12> end
| 13>
| 14> *xyz 0 1
| 15> O   1.794470000   0.923410000   2.768350000
| 16> H   2.338250000   1.359750000   3.430940000
| 17> H   0.879480000   1.303000000   2.865760000
| 18> O  -1.794470000  -0.923410000   2.768350000
| 19> H  -2.338250000  -1.359750000   3.430940000
| 20> H  -0.879480000  -1.303000000   2.865760000
| 21> O   0.923410000  -1.794470000  -2.768350000
| 22> H   1.359750000  -2.338250000  -3.430940000
| 23> H   1.303000000  -0.879480000  -2.865760000
| 24> O  -1.752130000  -0.741530000  -2.896280000
| 25> H  -2.036450000  -0.920500000  -1.984040000
| 26> H  -0.921210000  -1.242140000  -2.984230000
| 27> O   0.885520000  -1.737840000   0.052730000
| 28> H   1.284090000  -0.839590000   0.017130000
| 29> H   1.032320000  -2.090180000  -0.841890000
| 30> O   1.737840000   0.885520000  -0.052730000
| 31> H   2.090180000   1.032320000   0.841890000
| 32> H   0.839590000   1.284090000  -0.017130000
| 33> O  -0.923410000   1.794470000  -2.768350000
| 34> H  -1.359750000   2.338250000  -3.430940000
| 35> H  -1.303000000   0.879480000  -2.865760000
| 36> *
| 37>
| 38>                          ****END OF INPUT****

CARTESIAN COORDINATES (ANGSTROEM)
---------------------------------
  O      1.794470    0.923410    2.768350
  H      2.338250    1.359750    3.430940
  H      0.879480    1.303000    2.865760
  O     -1.794470   -0.923410    2.768350
  H     -2.338250   -1.359750    3.430940
  H     -0.879480   -1.303000    2.865760
  O      0.923410   -1.794470   -2.768350
  H      1.359750   -2.338250   -3.430940
  H      1.303000   -0.879480   -2.865760
  O     -1.752130   -0.741530   -2.896280
  H     -2.036450   -0.920500   -1.984040
  H     -0.921210   -1.242140   -2.984230
  O      0.885520   -1.737840    0.052730
  H      1.284090   -0.839590    0.017130
  H      1.032320   -2.090180   -0.841890
  O      1.737840    0.885520   -0.052730
  H      2.090180    1.032320    0.841890
  H      0.839590    1.284090   -0.017130
  O     -0.923410    1.794470   -2.768350
  H     -1.359750    2.338250   -3.430940
  H     -1.303000    0.879480   -2.865760

 Total Charge           Charge          ....    0
 Multiplicity           Mult            ....    1
 Number of Electrons    NEL             ....   70
 Basis Dimension        Dim             ....  301

ORBITAL ENERGIES
----------------

  NO   OCC          E(Eh)            E(eV)
   0   2.0000     -20.600348      -560.5640
   1   2.0000     -20.591244      -560.3162
   2   2.0000     -20.560241      -559.4726
   3   2.0000     -20.553160      -559.2799
   4   2.0000     -20.552299      -559.2565
   5   2.0000     -20.513411      -558.1983
   6   2.0000     -20.495221      -557.7033
   7   2.0000      -1.380973       -37.5782
   8   2.0000      -1.369456       -37.2648
   9   2.0000      -1.348839       -36.7038
  10   2.0000      -1.335720       -36.3468
  11   2.0000      -1.328520       -36.1509
  12   2.0000      -1.295101       -35.2415
  13   2.0000      -1.279391       -34.8140
  14   2.0000      -0.746486       -20.3129
  15   2.0000      -0.735921       -20.0254
  16   2.0000      -0.711067       -19.3491
  17   2.0000      -0.699635       -19.0380
  18   2.0000      -0.696406       -18.9502
  19   2.0000      -0.682204       -18.5637
  20   2.0000      -0.664729       -18.0882
  21   2.0000      -0.620187       -16.8761
  22   2.0000      -0.610711       -16.6183
  23   2.0000      -0.591393       -16.0926
  24   2.0000      -0.576170       -15.6784
  25   2.0000      -0.565313       -15.3829
  26   2.0000      -0.554300       -15.0833
  27   2.0000      -0.539455       -14.6793
  28   2.0000      -0.530406       -14.4331
  29   2.0000      -0.517801       -14.0901
  30   2.0000      -0.496594       -13.5130
  31   2.0000      -0.493983       -13.4420
  32   2.0000      -0.484180       -13.1752
  33   2.0000      -0.464171       -12.6307
  34   2.0000      -0.446031       -12.1371
  35   0.0000       0.100346         2.7306
  36   0.0000       0.114029         3.1029
  37   0.0000       0.143408         3.9023
  38   0.0000       0.155032         4.2186
  39   0.0000       0.180009         4.8983

MULLIKEN ATOMIC CHARGES
-----------------------
   0 O :   -0.697414
   1 H :    0.351844
   2 H :    0.360343
   3 O :   -0.694161
   4 H :    0.334380
   5 H :    0.358667
   6 O :   -0.719484
   7 H :    0.359410
   8 H :    0.383297
   9 O :   -0.705689
  10 H :    0.362110
  11 H :    0.372886
  12 O :   -0.736849
  13 H :    0.347607
  14 H :    0.349041
  15 O :   -0.704852
  16 H :    0.374880
  17 H :    0.352723
  18 O :   -0.738272
  19 H :    0.323729
  20 H :    0.365802
Sum of atomic charges:   -0.0000000

LOEWDIN ATOMIC CHARGES
----------------------
   0 O :   -0.309616
   1 H :    0.163451
   2 H :    0.187227
   3 O :   -0.343117
   4 H :    0.156147
   5 H :    0.185377
   6 O :   -0.287527
   7 H :    0.165745
   8 H :    0.196217
   9 O :   -0.283944
  10 H :    0.174688
  11 H :    0.152515
  12 O :   -0.372171
  13 H :    0.137071
  14 H :    0.139176
  15 O :   -0.301849
  16 H :    0.151960
  17 H :    0.175584
  18 O :   -0.376330
  19 H :    0.148094
  20 H :    0.141301

  Mayer bond orders larger than 0.100000
B(  0-O ,  1-H ) :   0.8418 B(  0-O ,  2-H ) :   0.8283 B(  3-O ,  4-H ) :   0.8551
B(  3-O ,  5-H ) :   0.8317 B(  6-O ,  7-H ) :   0.8344 B(  6-O ,  8-H ) :   0.8101
B(  9-O , 10-H ) :   0.8335 B(  9-O , 11-H ) :   0.8034 B( 12-O , 13-H ) :   0.7986
B( 12-O , 14-H ) :   0.8387 B( 15-O , 16-H ) :   0.8067 B( 15-O , 17-H ) :   0.8343
B( 18-O , 19-H ) :   0.8610 B( 18-O , 20-H ) :   0.7735

MP2 TOTAL ENERGY:     -534.235362951 Eh
FINAL SINGLE POINT ENERGY      -534.235362950897

DIPOLE MOMENT
-------------
                                X             Y             Z
Electronic contribution:      0.12868      -0.20918      -0.02684
Nuclear contribution   :      0.45452       0.34268       0.68611
                        -----------------------------------------
Total Dipole Moment    :      0.58320       0.13350       0.65927
                        -----------------------------------------
Magnitude (a.u.)       :      0.89026
Magnitude (Debye)      :      2.26287

Rotational constants in cm-1:     0.035710     0.018094     0.017154
Rotational constants in MHz :  1070.566889   542.441535   514.255915

                             ****ORCA TERMINATED NORMALLY****
TOTAL RUN TIME: 0 days 0 hours 1 minutes 57 seconds 889 msec
