                         Program Version 4.2.0 -  RELEASE  -
|  1> # 12mecn.remya.etal.2.mol0,3,5
|  2> ! MP2 def2-TZVP EnGrad TightSCF
|  3>
|  4> %pal
|  5>     nprocs 6
|  6> end
|  7>
|  8> %maxcore 8000
|  9>
| 10> %scf
| 11>     ConvForced true
| 12> end
| 13>
| 14> *xyz 0 1
| 15> C  -0.869520000  -3.929380000   1.700199000
| 16> H  -0.057420000  -3.268850000   2.015352000
| 17> H  -0.697530000  -4.930670000   2.101524000
| 18> H  -1.821490000  -3.546590000   2.077146000
| 19> C  -0.916080000  -3.969960000   0.256749000
| 20> N  -0.955390000  -3.995980000  -0.909290000
| 21> C  -5.181310000   2.853865000  -1.626100000
| 22> H  -5.488260000   3.811434000  -2.053310000
| 23> H  -5.857590000   2.068112000  -1.968630000
| 24> H  -4.170750000   2.611402000  -1.966640000
| 25> C  -5.187260000   2.919160000  -0.181450000
| 26> N  -5.181700000   2.970641000   0.983640000
| 27> C  -1.955700000   2.515080000   1.698463000
| 28> H  -2.923830000   2.883163000   2.049269000
| 29> H  -1.154850000   3.171830000   2.050990000
| 30> H  -1.790380000   1.506115000   2.087896000
| 31> C  -1.948230000   2.482156000   0.253672000
| 32> N  -1.937550000   2.462523000  -0.913150000
| 33> *
| 34>
| 35>                          ****END OF INPUT****

CARTESIAN COORDINATES (ANGSTROEM)
---------------------------------
  C     -0.869520   -3.929380    1.700199
  H     -0.057420   -3.268850    2.015352
  H     -0.697530   -4.930670    2.101524
  H     -1.821490   -3.546590    2.077146
  C     -0.916080   -3.969960    0.256749
  N     -0.955390   -3.995980   -0.909290
  C     -5.181310    2.853865   -1.626100
  H     -5.488260    3.811434   -2.053310
  H     -5.857590    2.068112   -1.968630
  H     -4.170750    2.611402   -1.966640
  C     -5.187260    2.919160   -0.181450
  N     -5.181700    2.970641    0.983640
  C     -1.955700    2.515080    1.698463
  H     -2.923830    2.883163    2.049269
  H     -1.154850    3.171830    2.050990
  H     -1.790380    1.506115    2.087896
  C     -1.948230    2.482156    0.253672
  N     -1.937550    2.462523   -0.913150

 Total Charge           Charge          ....    0
 Multiplicity           Mult            ....    1
 Number of Electrons    NEL             ....   66
 Basis Dimension        Dim             ....  333

ORBITAL ENERGIES
----------------

  NO   OCC          E(Eh)            E(eV)
   0   2.0000     -15.573455      -423.7752
   1   2.0000     -15.571593      -423.7246
   2   2.0000     -15.571369      -423.7185
   3   2.0000     -11.286123      -307.1110
   4   2.0000     -11.283508      -307.0399
   5   2.0000     -11.283132      -307.0296
   6   2.0000     -11.280161      -306.9488
   7   2.0000     -11.273888      -306.7781
   8   2.0000     -11.270520      -306.6864
   9   2.0000      -1.218533       -33.1580
  10   2.0000      -1.214511       -33.0485
  11   2.0000      -1.214250       -33.0414
  12   2.0000      -1.045226       -28.4421
  13   2.0000      -1.037202       -28.2237
  14   2.0000      -1.033507       -28.1231
  15   2.0000      -0.701033       -19.0761
  16   2.0000      -0.695792       -18.9335
  17   2.0000      -0.691310       -18.8115
  18   2.0000      -0.633732       -17.2447
  19   2.0000      -0.632928       -17.2228
  20   2.0000      -0.631462       -17.1829
  21   2.0000      -0.623906       -16.9773
  22   2.0000      -0.621518       -16.9124
  23   2.0000      -0.614010       -16.7081
  24   2.0000      -0.559530       -15.2256
  25   2.0000      -0.556108       -15.1325
  26   2.0000      -0.555834       -15.1250
  27   2.0000      -0.460618       -12.5341
  28   2.0000      -0.459260       -12.4971
  29   2.0000      -0.457669       -12.4538
  30   2.0000      -0.457635       -12.4529
  31   2.0000      -0.457166       -12.4401
  32   2.0000      -0.456126       -12.4118
  33   0.0000       0.110928         3.0185
  34   0.0000       0.130301         3.5457
  35   0.0000       0.142870         3.8877
  36   0.0000       0.169035         4.5997
  37   0.0000       0.170292         4.6339

MULLIKEN ATOMIC CHARGES
-----------------------
   0 C :   -0.280705
   1 H :    0.170862
   2 H :    0.172805
   3 H :    0.171850
   4 C :   -0.145028
   5 N :   -0.089787
   6 C :   -0.286765
   7 H :    0.166405
   8 H :    0.166974
   9 H :    0.207771
  10 C :   -0.101975
  11 N :   -0.152145
  12 C :   -0.284073
  13 H :    0.205802
  14 H :    0.167519
  15 H :    0.160700
  16 C :   -0.101563
  17 N :   -0.148647
Sum of atomic charges:    0.0000000

LOEWDIN ATOMIC CHARGES
----------------------
   0 C :   -0.284288
   1 H :    0.152200
   2 H :    0.151786
   3 H :    0.152573
   4 C :   -0.220078
   5 N :    0.047806
   6 C :   -0.281765
   7 H :    0.151304
   8 H :    0.150998
   9 H :    0.157884
  10 C :   -0.206470
  11 N :    0.028481
  12 C :   -0.283227
  13 H :    0.156840
  14 H :    0.151188
  15 H :    0.151079
  16 C :   -0.208491
  17 N :    0.032180

  Mayer bond orders larger than 0.100000
B(  0-C ,  1-H ) :   0.9172 B(  0-C ,  2-H ) :   0.9165 B(  0-C ,  3-H ) :   0.9170
B(  0-C ,  4-C ) :   0.9009 B(  4-C ,  5-N ) :   2.8353 B(  6-C ,  7-H ) :   0.9145
B(  6-C ,  8-H ) :   0.9157 B(  6-C ,  9-H ) :   0.9008 B(  6-C , 10-C ) :   0.9025
B( 10-C , 11-N ) :   2.7728 B( 12-C , 13-H ) :   0.9013 B( 12-C , 14-H ) :   0.9167
B( 12-C , 15-H ) :   0.9162 B( 12-C , 16-C ) :   0.9012 B( 16-C , 17-N ) :   2.7664

MP2 TOTAL ENERGY:     -397.458916897 Eh
FINAL SINGLE POINT ENERGY      -397.458916897143

DIPOLE MOMENT
-------------
                                X             Y             Z
Electronic contribution:     -0.10974       0.00025      -3.14237
Nuclear contribution   :      0.15227      -0.00203       4.62417
                        -----------------------------------------
Total Dipole Moment    :      0.04254      -0.00178       1.48180
                        -----------------------------------------
Magnitude (a.u.)       :      1.48241
Magnitude (Debye)      :      3.76798

Rotational constants in cm-1:     0.050781     0.010507     0.010009
Rotational constants in MHz :  1522.373703   314.984002   300.056779

                             ****ORCA TERMINATED NORMALLY****
TOTAL RUN TIME: 0 days 0 hours 2 minutes 52 seconds 803 msec
