                         Program Version 4.2.0 -  RELEASE  -
|  1> # 12h2o.su.etal.mol0,2,5,8,9,11
|  2> ! MP2 def2-TZVP EnGrad TightSCF
|  3>
|  4> %pal
|  5>     nprocs 6
|  6> end
|  7>
|  8> %maxcore 8000
|  9>
| 10> %scf
| 11>     ConvForced true
| 12> end
| 13>
| 14> *xyz 0 1
| 15> O   1.794470000   0.923410000   2.768350000
| 16> H   2.338250000   1.359750000   3.430940000
| 17> H   0.879480000   1.303000000   2.865760000
| 18> O   0.923410000  -1.794470000  -2.768350000
| 19> H   1.359750000  -2.338250000  -3.430940000
| 20> H   1.303000000  -0.879480000  -2.865760000
| 21> O   0.885520000  -1.737840000   0.052730000
| 22> H   1.284090000  -0.839590000   0.017130000
| 23> H   1.032320000  -2.090180000  -0.841890000
| 24> O   1.752130000   0.741530000  -2.896280000
| 25> H   2.036450000   0.920500000  -1.984040000
| 26> H   0.921210000   1.242140000  -2.984230000
| 27> O   0.741530000  -1.752130000   2.896280000
| 28> H   0.920500000  -2.036450000   1.984040000
| 29> H   1.242140000  -0.921210000   2.984230000
| 30> O  -0.741530000   1.752130000   2.896280000
| 31> H  -0.920500000   2.036450000   1.984040000
| 32> H  -1.242140000   0.921210000   2.984230000
| 33> *
| 34>
| 35>                          ****END OF INPUT****

CARTESIAN COORDINATES (ANGSTROEM)
---------------------------------
  O      1.794470    0.923410    2.768350
  H      2.338250    1.359750    3.430940
  H      0.879480    1.303000    2.865760
  O      0.923410   -1.794470   -2.768350
  H      1.359750   -2.338250   -3.430940
  H      1.303000   -0.879480   -2.865760
  O      0.885520   -1.737840    0.052730
  H      1.284090   -0.839590    0.017130
  H      1.032320   -2.090180   -0.841890
  O      1.752130    0.741530   -2.896280
  H      2.036450    0.920500   -1.984040
  H      0.921210    1.242140   -2.984230
  O      0.741530   -1.752130    2.896280
  H      0.920500   -2.036450    1.984040
  H      1.242140   -0.921210    2.984230
  O     -0.741530    1.752130    2.896280
  H     -0.920500    2.036450    1.984040
  H     -1.242140    0.921210    2.984230

 Total Charge           Charge          ....    0
 Multiplicity           Mult            ....    1
 Number of Electrons    NEL             ....   60
 Basis Dimension        Dim             ....  258

ORBITAL ENERGIES
----------------

  NO   OCC          E(Eh)            E(eV)
   0   2.0000     -20.619496      -561.0850
   1   2.0000     -20.601571      -560.5973
   2   2.0000     -20.552843      -559.2713
   3   2.0000     -20.546629      -559.1022
   4   2.0000     -20.546132      -559.0887
   5   2.0000     -20.491822      -557.6108
   6   2.0000      -1.404900       -38.2293
   7   2.0000      -1.387294       -37.7502
   8   2.0000      -1.339573       -36.4516
   9   2.0000      -1.330775       -36.2122
  10   2.0000      -1.325166       -36.0596
  11   2.0000      -1.276915       -34.7466
  12   2.0000      -0.761977       -20.7344
  13   2.0000      -0.743960       -20.2442
  14   2.0000      -0.724275       -19.7085
  15   2.0000      -0.716086       -19.4857
  16   2.0000      -0.695788       -18.9334
  17   2.0000      -0.653910       -17.7938
  18   2.0000      -0.641889       -17.4667
  19   2.0000      -0.625461       -17.0197
  20   2.0000      -0.592742       -16.1293
  21   2.0000      -0.581548       -15.8247
  22   2.0000      -0.568801       -15.4779
  23   2.0000      -0.542633       -14.7658
  24   2.0000      -0.532966       -14.5027
  25   2.0000      -0.519338       -14.1319
  26   2.0000      -0.500317       -13.6143
  27   2.0000      -0.493312       -13.4237
  28   2.0000      -0.486636       -13.2420
  29   2.0000      -0.442142       -12.0313
  30   0.0000       0.079147         2.1537
  31   0.0000       0.112108         3.0506
  32   0.0000       0.150580         4.0975
  33   0.0000       0.154176         4.1953
  34   0.0000       0.164064         4.4644

MULLIKEN ATOMIC CHARGES
-----------------------
   0 O :   -0.739668
   1 H :    0.339846
   2 H :    0.376018
   3 O :   -0.733477
   4 H :    0.339700
   5 H :    0.367349
   6 O :   -0.704460
   7 H :    0.312183
   8 H :    0.376384
   9 O :   -0.674023
  10 H :    0.357168
  11 H :    0.365053
  12 O :   -0.738977
  13 H :    0.368898
  14 H :    0.343467
  15 O :   -0.685012
  16 H :    0.353594
  17 H :    0.375957
Sum of atomic charges:    0.0000000

LOEWDIN ATOMIC CHARGES
----------------------
   0 O :   -0.342370
   1 H :    0.154927
   2 H :    0.144222
   3 O :   -0.338476
   4 H :    0.155295
   5 H :    0.142603
   6 O :   -0.325623
   7 H :    0.157525
   8 H :    0.153076
   9 O :   -0.265859
  10 H :    0.172794
  11 H :    0.179681
  12 O :   -0.361725
  13 H :    0.149506
  14 H :    0.139013
  15 O :   -0.270173
  16 H :    0.172792
  17 H :    0.182791

  Mayer bond orders larger than 0.100000
B(  0-O ,  1-H ) :   0.8493 B(  0-O ,  2-H ) :   0.7674 B(  3-O ,  4-H ) :   0.8492
B(  3-O ,  5-H ) :   0.7738 B(  6-O ,  7-H ) :   0.8571 B(  6-O ,  8-H ) :   0.8001
B(  9-O , 10-H ) :   0.8369 B(  9-O , 11-H ) :   0.8324 B( 12-O , 13-H ) :   0.8214
B( 12-O , 14-H ) :   0.8245 B( 15-O , 16-H ) :   0.8402 B( 15-O , 17-H ) :   0.8211

MP2 TOTAL ENERGY:     -457.918804745 Eh
FINAL SINGLE POINT ENERGY      -457.918804745283

DIPOLE MOMENT
-------------
                                X             Y             Z
Electronic contribution:     -0.26000       0.15854      -0.14991
Nuclear contribution   :      0.36914       2.00818      -1.46039
                        -----------------------------------------
Total Dipole Moment    :      0.10914       2.16672      -1.61029
                        -----------------------------------------
Magnitude (a.u.)       :      2.70178
Magnitude (Debye)      :      6.86738

Rotational constants in cm-1:     0.060605     0.020811     0.017628
Rotational constants in MHz :  1816.882065   623.906648   528.474183

                             ****ORCA TERMINATED NORMALLY****
TOTAL RUN TIME: 0 days 0 hours 0 minutes 51 seconds 176 msec
