                         Program Version 4.2.0 -  RELEASE  -
|  1> # 12h2o.su.etal.mol3,4,5,6,7,8,9,11
|  2> ! MP2 def2-TZVP EnGrad TightSCF
|  3>
|  4> %pal
|  5>     nprocs 6
|  6> end
|  7>
|  8> %maxcore 8000
|  9>
| 10> %scf
| 11>     ConvForced true
| 12> end
| 13>
| 14> *xyz 0 1
| 15> O  -1.752130000  -0.741530000  -2.896280000
| 16> H  -2.036450000  -0.920500000  -1.984040000
| 17> H  -0.921210000  -1.242140000  -2.984230000
| 18> O  -0.885520000   1.737840000   0.052730000
| 19> H  -1.032320000   2.090180000  -0.841890000
| 20> H  -1.284090000   0.839590000   0.017130000
| 21> O   0.885520000  -1.737840000   0.052730000
| 22> H   1.284090000  -0.839590000   0.017130000
| 23> H   1.032320000  -2.090180000  -0.841890000
| 24> O   1.737840000   0.885520000  -0.052730000
| 25> H   2.090180000   1.032320000   0.841890000
| 26> H   0.839590000   1.284090000  -0.017130000
| 27> O  -1.737840000  -0.885520000  -0.052730000
| 28> H  -2.090180000  -1.032320000   0.841890000
| 29> H  -0.839590000  -1.284090000  -0.017130000
| 30> O   1.752130000   0.741530000  -2.896280000
| 31> H   2.036450000   0.920500000  -1.984040000
| 32> H   0.921210000   1.242140000  -2.984230000
| 33> O   0.741530000  -1.752130000   2.896280000
| 34> H   0.920500000  -2.036450000   1.984040000
| 35> H   1.242140000  -0.921210000   2.984230000
| 36> O  -0.741530000   1.752130000   2.896280000
| 37> H  -0.920500000   2.036450000   1.984040000
| 38> H  -1.242140000   0.921210000   2.984230000
| 39> *
| 40>
| 41>                          ****END OF INPUT****

CARTESIAN COORDINATES (ANGSTROEM)
---------------------------------
  O     -1.752130   -0.741530   -2.896280
  H     -2.036450   -0.920500   -1.984040
  H     -0.921210   -1.242140   -2.984230
  O     -0.885520    1.737840    0.052730
  H     -1.032320    2.090180   -0.841890
  H     -1.284090    0.839590    0.017130
  O      0.885520   -1.737840    0.052730
  H      1.284090   -0.839590    0.017130
  H      1.032320   -2.090180   -0.841890
  O      1.737840    0.885520   -0.052730
  H      2.090180    1.032320    0.841890
  H      0.839590    1.284090   -0.017130
  O     -1.737840   -0.885520   -0.052730
  H     -2.090180   -1.032320    0.841890
  H     -0.839590   -1.284090   -0.017130
  O      1.752130    0.741530   -2.896280
  H      2.036450    0.920500   -1.984040
  H      0.921210    1.242140   -2.984230
  O      0.741530   -1.752130    2.896280
  H      0.920500   -2.036450    1.984040
  H      1.242140   -0.921210    2.984230
  O     -0.741530    1.752130    2.896280
  H     -0.920500    2.036450    1.984040
  H     -1.242140    0.921210    2.984230

 Total Charge           Charge          ....    0
 Multiplicity           Mult            ....    1
 Number of Electrons    NEL             ....   80
 Basis Dimension        Dim             ....  344

ORBITAL ENERGIES
----------------

  NO   OCC          E(Eh)            E(eV)
   0   2.0000     -20.608232      -560.7785
   1   2.0000     -20.608222      -560.7782
   2   2.0000     -20.608222      -560.7782
   3   2.0000     -20.608212      -560.7780
   4   2.0000     -20.557235      -559.3908
   5   2.0000     -20.557235      -559.3908
   6   2.0000     -20.557235      -559.3908
   7   2.0000     -20.557235      -559.3908
   8   2.0000      -1.412413       -38.4337
   9   2.0000      -1.396072       -37.9891
  10   2.0000      -1.396072       -37.9891
  11   2.0000      -1.380053       -37.5531
  12   2.0000      -1.339279       -36.4436
  13   2.0000      -1.339194       -36.4413
  14   2.0000      -1.338478       -36.4218
  15   2.0000      -1.338478       -36.4218
  16   2.0000      -0.765727       -20.8365
  17   2.0000      -0.763650       -20.7800
  18   2.0000      -0.760851       -20.7038
  19   2.0000      -0.760851       -20.7038
  20   2.0000      -0.715487       -19.4694
  21   2.0000      -0.708977       -19.2922
  22   2.0000      -0.708413       -19.2769
  23   2.0000      -0.708413       -19.2769
  24   2.0000      -0.663558       -18.0563
  25   2.0000      -0.641199       -17.4479
  26   2.0000      -0.641199       -17.4479
  27   2.0000      -0.622374       -16.9357
  28   2.0000      -0.578407       -15.7392
  29   2.0000      -0.577767       -15.7218
  30   2.0000      -0.577767       -15.7218
  31   2.0000      -0.571104       -15.5405
  32   2.0000      -0.556818       -15.1518
  33   2.0000      -0.551708       -15.0127
  34   2.0000      -0.551708       -15.0127
  35   2.0000      -0.545204       -14.8357
  36   2.0000      -0.506737       -13.7890
  37   2.0000      -0.506359       -13.7787
  38   2.0000      -0.500271       -13.6131
  39   2.0000      -0.500271       -13.6131
  40   0.0000       0.071419         1.9434
  41   0.0000       0.113536         3.0895
  42   0.0000       0.117816         3.2059
  43   0.0000       0.117816         3.2059
  44   0.0000       0.186641         5.0788

MULLIKEN ATOMIC CHARGES
-----------------------
   0 O :   -0.695839
   1 H :    0.371751
   2 H :    0.325877
   3 O :   -0.740704
   4 H :    0.366379
   5 H :    0.372536
   6 O :   -0.740704
   7 H :    0.372536
   8 H :    0.366379
   9 O :   -0.740704
  10 H :    0.366379
  11 H :    0.372536
  12 O :   -0.740704
  13 H :    0.366379
  14 H :    0.372536
  15 O :   -0.695839
  16 H :    0.371751
  17 H :    0.325877
  18 O :   -0.695839
  19 H :    0.371751
  20 H :    0.325877
  21 O :   -0.695839
  22 H :    0.371751
  23 H :    0.325877
Sum of atomic charges:   -0.0000000

LOEWDIN ATOMIC CHARGES
----------------------
   0 O :   -0.335995
   1 H :    0.150778
   2 H :    0.158479
   3 O :   -0.292124
   4 H :    0.172986
   5 H :    0.145876
   6 O :   -0.292124
   7 H :    0.145876
   8 H :    0.172986
   9 O :   -0.292124
  10 H :    0.172986
  11 H :    0.145876
  12 O :   -0.292124
  13 H :    0.172986
  14 H :    0.145876
  15 O :   -0.335995
  16 H :    0.150778
  17 H :    0.158479
  18 O :   -0.335995
  19 H :    0.150778
  20 H :    0.158479
  21 O :   -0.335995
  22 H :    0.150778
  23 H :    0.158479

  Mayer bond orders larger than 0.100000
B(  0-O ,  1-H ) :   0.8214 B(  0-O ,  2-H ) :   0.8552 B(  3-O ,  4-H ) :   0.8287
B(  3-O ,  5-H ) :   0.7543 B(  6-O ,  7-H ) :   0.7543 B(  6-O ,  8-H ) :   0.8287
B(  9-O , 10-H ) :   0.8287 B(  9-O , 11-H ) :   0.7543 B( 12-O , 13-H ) :   0.8287
B( 12-O , 14-H ) :   0.7543 B( 15-O , 16-H ) :   0.8214 B( 15-O , 17-H ) :   0.8552
B( 18-O , 19-H ) :   0.8214 B( 18-O , 20-H ) :   0.8552 B( 21-O , 22-H ) :   0.8214
B( 21-O , 23-H ) :   0.8552

MP2 TOTAL ENERGY:     -610.580012415 Eh
FINAL SINGLE POINT ENERGY      -610.580012415024

DIPOLE MOMENT
-------------
                                X             Y             Z
Electronic contribution:     -0.00000      -0.00000      -0.00000
Nuclear contribution   :     -0.00000       0.00000       0.00000
                        -----------------------------------------
Total Dipole Moment    :     -0.00000      -0.00000      -0.00000
                        -----------------------------------------
Magnitude (a.u.)       :      0.00000
Magnitude (Debye)      :      0.00000

Rotational constants in cm-1:     0.031434     0.019607     0.019607
Rotational constants in MHz :   942.357021   587.794768   587.794768

                             ****ORCA TERMINATED NORMALLY****
TOTAL RUN TIME: 0 days 0 hours 3 minutes 22 seconds 410 msec
