                         Program Version 4.2.0 -  RELEASE  -
|  1> # 12h2o.su.etal.mol0,5,7,9,10,11
|  2> ! MP2 def2-TZVP EnGrad TightSCF
|  3>
|  4> %pal
|  5>     nprocs 6
|  6> end
|  7>
|  8> %maxcore 8000
|  9>
| 10> %scf
| 11>     ConvForced true
| 12> end
| 13>
| 14> *xyz 0 1
| 15> O   1.794470000   0.923410000   2.768350000
| 16> H   2.338250000   1.359750000   3.430940000
| 17> H   0.879480000   1.303000000   2.865760000
| 18> O   0.885520000  -1.737840000   0.052730000
| 19> H   1.284090000  -0.839590000   0.017130000
| 20> H   1.032320000  -2.090180000  -0.841890000
| 21> O  -1.737840000  -0.885520000  -0.052730000
| 22> H  -2.090180000  -1.032320000   0.841890000
| 23> H  -0.839590000  -1.284090000  -0.017130000
| 24> O   0.741530000  -1.752130000   2.896280000
| 25> H   0.920500000  -2.036450000   1.984040000
| 26> H   1.242140000  -0.921210000   2.984230000
| 27> O  -0.923410000   1.794470000  -2.768350000
| 28> H  -1.359750000   2.338250000  -3.430940000
| 29> H  -1.303000000   0.879480000  -2.865760000
| 30> O  -0.741530000   1.752130000   2.896280000
| 31> H  -0.920500000   2.036450000   1.984040000
| 32> H  -1.242140000   0.921210000   2.984230000
| 33> *
| 34>
| 35>                          ****END OF INPUT****

CARTESIAN COORDINATES (ANGSTROEM)
---------------------------------
  O      1.794470    0.923410    2.768350
  H      2.338250    1.359750    3.430940
  H      0.879480    1.303000    2.865760
  O      0.885520   -1.737840    0.052730
  H      1.284090   -0.839590    0.017130
  H      1.032320   -2.090180   -0.841890
  O     -1.737840   -0.885520   -0.052730
  H     -2.090180   -1.032320    0.841890
  H     -0.839590   -1.284090   -0.017130
  O      0.741530   -1.752130    2.896280
  H      0.920500   -2.036450    1.984040
  H      1.242140   -0.921210    2.984230
  O     -0.923410    1.794470   -2.768350
  H     -1.359750    2.338250   -3.430940
  H     -1.303000    0.879480   -2.865760
  O     -0.741530    1.752130    2.896280
  H     -0.920500    2.036450    1.984040
  H     -1.242140    0.921210    2.984230

 Total Charge           Charge          ....    0
 Multiplicity           Mult            ....    1
 Number of Electrons    NEL             ....   60
 Basis Dimension        Dim             ....  258

ORBITAL ENERGIES
----------------

  NO   OCC          E(Eh)            E(eV)
   0   2.0000     -20.609372      -560.8095
   1   2.0000     -20.596461      -560.4582
   2   2.0000     -20.561749      -559.5136
   3   2.0000     -20.546700      -559.1041
   4   2.0000     -20.540506      -558.9356
   5   2.0000     -20.513334      -558.1962
   6   2.0000      -1.392297       -37.8863
   7   2.0000      -1.382339       -37.6154
   8   2.0000      -1.337139       -36.3854
   9   2.0000      -1.330860       -36.2145
  10   2.0000      -1.321362       -35.9561
  11   2.0000      -1.298115       -35.3235
  12   2.0000      -0.750032       -20.4094
  13   2.0000      -0.738814       -20.1041
  14   2.0000      -0.715617       -19.4729
  15   2.0000      -0.705465       -19.1967
  16   2.0000      -0.698552       -19.0086
  17   2.0000      -0.678104       -18.4521
  18   2.0000      -0.630531       -17.1576
  19   2.0000      -0.619508       -16.8577
  20   2.0000      -0.583143       -15.8681
  21   2.0000      -0.574829       -15.6419
  22   2.0000      -0.573771       -15.6131
  23   2.0000      -0.541289       -14.7292
  24   2.0000      -0.532504       -14.4902
  25   2.0000      -0.524455       -14.2712
  26   2.0000      -0.505143       -13.7456
  27   2.0000      -0.493426       -13.4268
  28   2.0000      -0.488319       -13.2878
  29   2.0000      -0.463210       -12.6046
  30   0.0000       0.091567         2.4917
  31   0.0000       0.122501         3.3334
  32   0.0000       0.134550         3.6613
  33   0.0000       0.154445         4.2027
  34   0.0000       0.175930         4.7873

MULLIKEN ATOMIC CHARGES
-----------------------
   0 O :   -0.741709
   1 H :    0.341572
   2 H :    0.379793
   3 O :   -0.710385
   4 H :    0.377307
   5 H :    0.364077
   6 O :   -0.715938
   7 H :    0.329133
   8 H :    0.356091
   9 O :   -0.733081
  10 H :    0.360730
  11 H :    0.351020
  12 O :   -0.689950
  13 H :    0.337729
  14 H :    0.350456
  15 O :   -0.688030
  16 H :    0.367698
  17 H :    0.363487
Sum of atomic charges:    0.0000000

LOEWDIN ATOMIC CHARGES
----------------------
   0 O :   -0.341931
   1 H :    0.156024
   2 H :    0.145241
   3 O :   -0.276166
   4 H :    0.187240
   5 H :    0.175612
   6 O :   -0.360158
   7 H :    0.157522
   8 H :    0.141219
   9 O :   -0.355887
  10 H :    0.146022
  11 H :    0.142499
  12 O :   -0.342307
  13 H :    0.157403
  14 H :    0.183018
  15 O :   -0.269717
  16 H :    0.178123
  17 H :    0.176242

  Mayer bond orders larger than 0.100000
B(  0-O ,  1-H ) :   0.8484 B(  0-O ,  2-H ) :   0.7633 B(  3-O ,  4-H ) :   0.8171
B(  3-O ,  5-H ) :   0.8310 B(  6-O ,  7-H ) :   0.8564 B(  6-O ,  8-H ) :   0.8015
B(  9-O , 10-H ) :   0.8336 B(  9-O , 11-H ) :   0.8139 B( 12-O , 13-H ) :   0.8537
B( 12-O , 14-H ) :   0.8391 B( 15-O , 16-H ) :   0.8299 B( 15-O , 17-H ) :   0.8289

MP2 TOTAL ENERGY:     -457.915403434 Eh
FINAL SINGLE POINT ENERGY      -457.915403433571

DIPOLE MOMENT
-------------
                                X             Y             Z
Electronic contribution:      0.01865       0.13425       0.10930
Nuclear contribution   :     -0.07979       0.37062      -1.37221
                        -----------------------------------------
Total Dipole Moment    :     -0.06114       0.50487      -1.26292
                        -----------------------------------------
Magnitude (a.u.)       :      1.36147
Magnitude (Debye)      :      3.46057

Rotational constants in cm-1:     0.047477     0.025758     0.021222
Rotational constants in MHz :  1423.331355   772.208546   636.234249

                             ****ORCA TERMINATED NORMALLY****
TOTAL RUN TIME: 0 days 0 hours 0 minutes 58 seconds 949 msec
