                         Program Version 4.2.0 -  RELEASE  -
|  1> # 12meoh.boyd.etal.mol1,2,11
|  2> ! MP2 def2-TZVP EnGrad TightSCF
|  3>
|  4> %pal
|  5>     nprocs 6
|  6> end
|  7>
|  8> %maxcore 8000
|  9>
| 10> %scf
| 11>     ConvForced true
| 12> end
| 13>
| 14> *xyz 0 1
| 15> O   0.666045193  -2.600503172   0.138317521
| 16> H  -0.227115049  -2.712051982  -0.281868004
| 17> C   0.490021232  -1.851247678   1.341189459
| 18> H   1.466500502  -1.466176022   1.645844415
| 19> H   0.097564527  -2.488364683   2.146902740
| 20> H  -0.187588112  -1.000787499   1.200739571
| 21> O  -3.839777402   2.233595098   0.660436763
| 22> H  -2.958345897   1.907036203   0.973588449
| 23> C  -3.600368059   3.168790682  -0.390480452
| 24> H  -4.551709193   3.344148967  -0.901254863
| 25> H  -2.868237594   2.789240199  -1.113617525
| 26> H  -3.243594915   4.128998607   0.009549480
| 27> O   3.252955559   0.588596242   1.858934315
| 28> H   3.621209177  -0.251605199   1.476063364
| 29> C   4.040824528   0.944288422   2.989639460
| 30> H   3.670521436   1.902573549   3.363847391
| 31> H   5.103749934   1.055868619   2.734277559
| 32> H   3.948540682   0.200279590   3.792908518
| 33> *
| 34>
| 35>                          ****END OF INPUT****

CARTESIAN COORDINATES (ANGSTROEM)
---------------------------------
  O      0.666045   -2.600503    0.138318
  H     -0.227115   -2.712052   -0.281868
  C      0.490021   -1.851248    1.341189
  H      1.466501   -1.466176    1.645844
  H      0.097565   -2.488365    2.146903
  H     -0.187588   -1.000787    1.200740
  O     -3.839777    2.233595    0.660437
  H     -2.958346    1.907036    0.973588
  C     -3.600368    3.168791   -0.390480
  H     -4.551709    3.344149   -0.901255
  H     -2.868238    2.789240   -1.113618
  H     -3.243595    4.128999    0.009549
  O      3.252956    0.588596    1.858934
  H      3.621209   -0.251605    1.476063
  C      4.040825    0.944288    2.989639
  H      3.670521    1.902574    3.363847
  H      5.103750    1.055869    2.734278
  H      3.948541    0.200280    3.792909

 Total Charge           Charge          ....    0
 Multiplicity           Mult            ....    1
 Number of Electrons    NEL             ....   54
 Basis Dimension        Dim             ....  258

ORBITAL ENERGIES
----------------

  NO   OCC          E(Eh)            E(eV)
   0   2.0000     -20.562615      -559.5372
   1   2.0000     -20.556881      -559.3812
   2   2.0000     -20.556091      -559.3597
   3   2.0000     -11.275479      -306.8214
   4   2.0000     -11.271390      -306.7101
   5   2.0000     -11.268686      -306.6365
   6   2.0000      -1.351808       -36.7846
   7   2.0000      -1.346325       -36.6354
   8   2.0000      -1.344219       -36.5781
   9   2.0000      -0.924127       -25.1468
  10   2.0000      -0.919303       -25.0155
  11   2.0000      -0.917138       -24.9566
  12   2.0000      -0.686557       -18.6822
  13   2.0000      -0.681440       -18.5429
  14   2.0000      -0.679517       -18.4906
  15   2.0000      -0.621968       -16.9246
  16   2.0000      -0.616412       -16.7734
  17   2.0000      -0.614414       -16.7190
  18   2.0000      -0.596720       -16.2376
  19   2.0000      -0.589753       -16.0480
  20   2.0000      -0.586491       -15.9592
  21   2.0000      -0.504701       -13.7336
  22   2.0000      -0.501408       -13.6440
  23   2.0000      -0.499569       -13.5940
  24   2.0000      -0.454008       -12.3542
  25   2.0000      -0.449034       -12.2188
  26   2.0000      -0.446977       -12.1628
  27   0.0000       0.112499         3.0613
  28   0.0000       0.132703         3.6110
  29   0.0000       0.146971         3.9993
  30   0.0000       0.170614         4.6426
  31   0.0000       0.172639         4.6977

MULLIKEN ATOMIC CHARGES
-----------------------
   0 O :   -0.501684
   1 H :    0.322887
   2 C :   -0.149689
   3 H :    0.101297
   4 H :    0.107243
   5 H :    0.103876
   6 O :   -0.497599
   7 H :    0.321306
   8 C :   -0.175370
   9 H :    0.128679
  10 H :    0.112176
  11 H :    0.110821
  12 O :   -0.489248
  13 H :    0.329181
  14 C :   -0.178751
  15 H :    0.129395
  16 H :    0.114554
  17 H :    0.110926
Sum of atomic charges:    0.0000000

LOEWDIN ATOMIC CHARGES
----------------------
   0 O :   -0.114355
   1 H :    0.189701
   2 C :   -0.378112
   3 H :    0.103581
   4 H :    0.095173
   5 H :    0.096061
   6 O :   -0.111506
   7 H :    0.187880
   8 C :   -0.378349
   9 H :    0.109596
  10 H :    0.096183
  11 H :    0.096171
  12 O :   -0.104477
  13 H :    0.190410
  14 C :   -0.381091
  15 H :    0.110337
  16 H :    0.097089
  17 H :    0.095708

  Mayer bond orders larger than 0.100000
B(  0-O ,  1-H ) :   0.8429 B(  0-O ,  2-C ) :   0.9305 B(  2-C ,  3-H ) :   0.9330
B(  2-C ,  4-H ) :   0.9388 B(  2-C ,  5-H ) :   0.9455 B(  6-O ,  7-H ) :   0.8440
B(  6-O ,  8-C ) :   0.9252 B(  8-C ,  9-H ) :   0.9378 B(  8-C , 10-H ) :   0.9410
B(  8-C , 11-H ) :   0.9380 B( 12-O , 13-H ) :   0.8362 B( 12-O , 14-C ) :   0.9294
B( 14-C , 15-H ) :   0.9379 B( 14-C , 16-H ) :   0.9395 B( 14-C , 17-H ) :   0.9370

MP2 TOTAL ENERGY:     -346.521745165 Eh
FINAL SINGLE POINT ENERGY      -346.521745164692

DIPOLE MOMENT
-------------
                                X             Y             Z
Electronic contribution:     -1.10226      -2.36086      -1.59139
Nuclear contribution   :      1.71136       2.46493       1.80835
                        -----------------------------------------
Total Dipole Moment    :      0.60910       0.10407       0.21696
                        -----------------------------------------
Magnitude (a.u.)       :      0.65491
Magnitude (Debye)      :      1.66465

Rotational constants in cm-1:     0.048576     0.015242     0.012109
Rotational constants in MHz :  1456.265584   456.946083   363.021195

                             ****ORCA TERMINATED NORMALLY****
TOTAL RUN TIME: 0 days 0 hours 0 minutes 52 seconds 182 msec
