                         Program Version 3.0.3 - RELEASE   -
|  1> ! B3LYP Def2-TZVP def2-TZVP/J RIJCOSX TightSCF Grid4 D3BJ COSMO
|  2>
|  3> %pal nprocs 12 end
|  4>
|  5> %scf
|  6>         maxiter 400
|  7> end
|  8>
|  9> %cosmo
| 10>         SMD true
| 11>         solvent "WATER"
| 12> end
| 13>
| 14> * xyz  0  1
| 15> O  3.109552	0.953240	-3.328626
| 16> H  3.634486	0.328336	-2.750980
| 17> H  3.751446	1.535890	-3.761837
| 18> O  -2.258295	0.474717	-0.313835
| 19> H  -3.060448	0.814192	0.153407
| 20> H  -1.539671	1.068411	0.033189
| 21> O  -0.467200	-0.282340	-2.239765
| 22> H  -1.315662	0.014623	-1.847065
| 23> H  0.202733	0.365720	-1.890461
| 24> O  1.345679	-0.902546	-4.269569
| 25> H  0.547453	-0.637984	-3.765820
| 26> H  1.988443	-0.174837	-4.096976
| 27> O  2.279723	-2.693707	-2.531180
| 28> H  2.575706	-3.498239	-2.984683
| 29> H  1.914594	-2.102082	-3.250831
| 30> O  -3.965022	1.388032	1.539464
| 31> H  -4.836638	1.808939	1.477051
| 32> H  -3.350296	2.090504	1.899599
| 33> O  0.405221	-0.097556	2.392621
| 34> H  -0.039892	0.272910	3.193408
| 35> H  -0.280041	-0.719774	2.031693
| 36> O  -3.359231	-0.661592	3.239378
| 37> H  -2.828794	-1.210980	2.627090
| 38> H  -3.739973	0.034670	2.652002
| 39> O  -1.391969	0.919787	4.155589
| 40> H  -2.143179	0.298405	3.938451
| 41> H  -1.369843	0.978405	5.123127
| 42> O  1.453640	1.281792	-1.227669
| 43> H  2.082056	1.399161	-1.980266
| 44> H  1.862488	0.599789	-0.633572
| 45> O  -2.086736	3.024938	2.512412
| 46> H  -1.397121	2.874662	1.829950
| 47> H  -1.819790	2.399263	3.227293
| 48> O  -1.561364	-1.576477	1.268620
| 49> H  -1.033953	-2.176473	0.703236
| 50> H  -1.883371	-0.875518	0.637465
| 51> O  -0.273312	1.917940	0.767398
| 52> H  0.080375	1.212141	1.373990
| 53> H  0.387773	1.989706	0.044367
| 54> O  4.115400	-0.863727	-1.678057
| 55> H  3.714388	-0.698714	-0.800633
| 56> H  3.578513	-1.626623	-2.005876
| 57> O  2.247535	-0.714891	0.395689
| 58> H  1.887545	-0.430621	1.261941
| 59> H  1.573375	-1.369786	0.070679
| 60> O  0.333097	-2.329296	-0.663235
| 61> H  0.978546	-2.768013	-1.265217
| 62> H  -0.047965	-1.634392	-1.262957
| 63> **                         ****END OF INPUT****

CARTESIAN COORDINATES (ANGSTROEM)
---------------------------------
  O      3.109552    0.953240   -3.328626
  H      3.634486    0.328336   -2.750980
  H      3.751446    1.535890   -3.761837
  O     -2.258295    0.474717   -0.313835
  H     -3.060448    0.814192    0.153407
  H     -1.539671    1.068411    0.033189
  O     -0.467200   -0.282340   -2.239765
  H     -1.315662    0.014623   -1.847065
  H      0.202733    0.365720   -1.890461
  O      1.345679   -0.902546   -4.269569
  H      0.547453   -0.637984   -3.765820
  H      1.988443   -0.174837   -4.096976
  O      2.279723   -2.693707   -2.531180
  H      2.575706   -3.498239   -2.984683
  H      1.914594   -2.102082   -3.250831
  O     -3.965022    1.388032    1.539464
  H     -4.836638    1.808939    1.477051
  H     -3.350296    2.090504    1.899599
  O      0.405221   -0.097556    2.392621
  H     -0.039892    0.272910    3.193408
  H     -0.280041   -0.719774    2.031693
  O     -3.359231   -0.661592    3.239378
  H     -2.828794   -1.210980    2.627090
  H     -3.739973    0.034670    2.652002
  O     -1.391969    0.919787    4.155589
  H     -2.143179    0.298405    3.938451
  H     -1.369843    0.978405    5.123127
  O      1.453640    1.281792   -1.227669
  H      2.082056    1.399161   -1.980266
  H      1.862488    0.599789   -0.633572
  O     -2.086736    3.024938    2.512412
  H     -1.397121    2.874662    1.829950
  H     -1.819790    2.399263    3.227293
  O     -1.561364   -1.576477    1.268620
  H     -1.033953   -2.176473    0.703236
  H     -1.883371   -0.875518    0.637465
  O     -0.273312    1.917940    0.767398
  H      0.080375    1.212141    1.373990
  H      0.387773    1.989706    0.044367
  O      4.115400   -0.863727   -1.678057
  H      3.714388   -0.698714   -0.800633
  H      3.578513   -1.626623   -2.005876
  O      2.247535   -0.714891    0.395689
  H      1.887545   -0.430621    1.261941
  H      1.573375   -1.369786    0.070679
  O      0.333097   -2.329296   -0.663235
  H      0.978546   -2.768013   -1.265217
  H     -0.047965   -1.634392   -1.262957

 Total Charge           Charge          ....    0
 Multiplicity           Mult            ....    1
 Number of Electrons    NEL             ....  160
 Basis Dimension        Dim             ....  688

ORBITAL ENERGIES
----------------

  NO   OCC          E(Eh)            E(eV)
   0   2.0000     -19.132255      -520.6151
   1   2.0000     -19.132115      -520.6113
   2   2.0000     -19.131796      -520.6026
   3   2.0000     -19.130582      -520.5696
   4   2.0000     -19.129416      -520.5379
   5   2.0000     -19.128003      -520.4994
   6   2.0000     -19.126869      -520.4686
   7   2.0000     -19.126415      -520.4562
   8   2.0000     -19.125972      -520.4442
   9   2.0000     -19.124263      -520.3976
  10   2.0000     -19.122804      -520.3580
  11   2.0000     -19.122220      -520.3421
  12   2.0000     -19.122044      -520.3373
  13   2.0000     -19.121805      -520.3308
  14   2.0000     -19.121636      -520.3262
  15   2.0000     -19.120202      -520.2871
  16   2.0000      -1.037570       -28.2337
  17   2.0000      -1.030478       -28.0407
  18   2.0000      -1.021607       -27.7993
  19   2.0000      -1.019916       -27.7533
  20   2.0000      -1.019647       -27.7460
  21   2.0000      -1.015712       -27.6389
  22   2.0000      -1.013581       -27.5810
  23   2.0000      -1.013508       -27.5789
  24   2.0000      -1.003595       -27.3092
  25   2.0000      -1.003278       -27.3006
  26   2.0000      -1.000876       -27.2352
  27   2.0000      -0.997998       -27.1569
  28   2.0000      -0.997805       -27.1517
  29   2.0000      -0.995728       -27.0951
  30   2.0000      -0.987991       -26.8846
  31   2.0000      -0.981226       -26.7005
  32   2.0000      -0.551979       -15.0201
  33   2.0000      -0.543900       -14.8003
  34   2.0000      -0.541183       -14.7263
  35   2.0000      -0.539295       -14.6750
  36   2.0000      -0.538682       -14.6583
  37   2.0000      -0.535062       -14.5598
  38   2.0000      -0.533893       -14.5280
  39   2.0000      -0.532219       -14.4824
  40   2.0000      -0.529506       -14.4086
  41   2.0000      -0.526248       -14.3199
  42   2.0000      -0.523101       -14.2343
  43   2.0000      -0.521959       -14.2032
  44   2.0000      -0.520908       -14.1746
  45   2.0000      -0.519712       -14.1421
  46   2.0000      -0.517326       -14.0771
  47   2.0000      -0.516693       -14.0599
  48   2.0000      -0.463296       -12.6069
  49   2.0000      -0.451359       -12.2821
  50   2.0000      -0.433977       -11.8091
  51   2.0000      -0.431548       -11.7430
  52   2.0000      -0.426965       -11.6183
  53   2.0000      -0.421746       -11.4763
  54   2.0000      -0.419021       -11.4022
  55   2.0000      -0.412282       -11.2188
  56   2.0000      -0.403605       -10.9827
  57   2.0000      -0.399554       -10.8724
  58   2.0000      -0.398590       -10.8462
  59   2.0000      -0.395018       -10.7490
  60   2.0000      -0.382066       -10.3966
  61   2.0000      -0.381709       -10.3868
  62   2.0000      -0.370126       -10.0716
  63   2.0000      -0.355938        -9.6856
  64   2.0000      -0.333243        -9.0680
  65   2.0000      -0.329918        -8.9775
  66   2.0000      -0.329373        -8.9627
  67   2.0000      -0.328255        -8.9323
  68   2.0000      -0.326196        -8.8762
  69   2.0000      -0.325891        -8.8680
  70   2.0000      -0.324798        -8.8382
  71   2.0000      -0.323714        -8.8087
  72   2.0000      -0.322716        -8.7815
  73   2.0000      -0.321582        -8.7507
  74   2.0000      -0.320188        -8.7128
  75   2.0000      -0.318858        -8.6766
  76   2.0000      -0.318397        -8.6640
  77   2.0000      -0.318007        -8.6534
  78   2.0000      -0.316302        -8.6070
  79   2.0000      -0.315130        -8.5751
  80   0.0000       0.011315         0.3079
  81   0.0000       0.030571         0.8319
  82   0.0000       0.057034         1.5520
  83   0.0000       0.057787         1.5725
  84   0.0000       0.064850         1.7647

MULLIKEN ATOMIC CHARGES
-----------------------
   0 O :   -0.743923
   1 H :    0.384775
   2 H :    0.384118
   3 O :   -0.761502
   4 H :    0.379352
   5 H :    0.361116
   6 O :   -0.754435
   7 H :    0.384936
   8 H :    0.364389
   9 O :   -0.742515
  10 H :    0.377570
  11 H :    0.373709
  12 O :   -0.742512
  13 H :    0.383915
  14 H :    0.371667
  15 O :   -0.741506
  16 H :    0.385145
  17 H :    0.372653
  18 O :   -0.762762
  19 H :    0.380470
  20 H :    0.364783
  21 O :   -0.743538
  22 H :    0.379424
  23 H :    0.371371
  24 O :   -0.742522
  25 H :    0.371573
  26 H :    0.385237
  27 O :   -0.762253
  28 H :    0.379746
  29 H :    0.360916
  30 O :   -0.743953
  31 H :    0.383640
  32 H :    0.367169
  33 O :   -0.755241
  34 H :    0.384221
  35 H :    0.367023
  36 O :   -0.760737
  37 H :    0.363246
  38 H :    0.392190
  39 O :   -0.742676
  40 H :    0.379204
  41 H :    0.365231
  42 O :   -0.754829
  43 H :    0.388890
  44 H :    0.364509
  45 O :   -0.756904
  46 H :    0.375823
  47 H :    0.363792
Sum of atomic charges:    0.0000000

LOEWDIN ATOMIC CHARGES
----------------------
   0 O :   -0.280624
   1 H :    0.146226
   2 H :    0.184087
   3 O :   -0.304859
   4 H :    0.144866
   5 H :    0.132878
   6 O :   -0.296802
   7 H :    0.153236
   8 H :    0.133943
   9 O :   -0.310831
  10 H :    0.149303
  11 H :    0.142877
  12 O :   -0.280762
  13 H :    0.183144
  14 H :    0.142991
  15 O :   -0.275430
  16 H :    0.184577
  17 H :    0.146099
  18 O :   -0.306263
  19 H :    0.147395
  20 H :    0.136100
  21 O :   -0.316325
  22 H :    0.150622
  23 H :    0.142449
  24 O :   -0.280235
  25 H :    0.146106
  26 H :    0.184208
  27 O :   -0.291493
  28 H :    0.143907
  29 H :    0.134056
  30 O :   -0.318905
  31 H :    0.146956
  32 H :    0.143501
  33 O :   -0.298051
  34 H :    0.157032
  35 H :    0.136546
  36 O :   -0.286886
  37 H :    0.134690
  38 H :    0.150034
  39 O :   -0.312977
  40 H :    0.151069
  41 H :    0.141917
  42 O :   -0.295169
  43 H :    0.155671
  44 H :    0.139501
  45 O :   -0.314631
  46 H :    0.148257
  47 H :    0.136000

  Mayer bond orders larger than 0.1
B(  0-O ,  1-H ) :   0.7629 B(  0-O ,  2-H ) :   0.8523 B(  0-O , 11-H ) :   0.1040
B(  0-O , 28-H ) :   0.1175 B(  1-H , 39-O ) :   0.1260 B(  3-O ,  4-H ) :   0.7968
B(  3-O ,  5-H ) :   0.7722 B(  3-O , 35-H ) :   0.1419 B(  4-H , 15-O ) :   0.1069
B(  5-H , 36-O ) :   0.1365 B(  6-O ,  7-H ) :   0.8171 B(  6-O ,  8-H ) :   0.7696
B(  6-O , 47-H ) :   0.1310 B(  8-H , 27-O ) :   0.1360 B(  9-O , 10-H ) :   0.8259
B(  9-O , 11-H ) :   0.8042 B(  9-O , 14-H ) :   0.1471 B( 12-O , 13-H ) :   0.8545
B( 12-O , 14-H ) :   0.7591 B( 12-O , 41-H ) :   0.1194 B( 15-O , 16-H ) :   0.8526
B( 15-O , 17-H ) :   0.7601 B( 15-O , 23-H ) :   0.1082 B( 17-H , 30-O ) :   0.1449
B( 18-O , 19-H ) :   0.8008 B( 18-O , 20-H ) :   0.7779 B( 18-O , 37-H ) :   0.1419
B( 19-H , 24-O ) :   0.1018 B( 20-H , 33-O ) :   0.1335 B( 21-O , 22-H ) :   0.8313
B( 21-O , 23-H ) :   0.8042 B( 21-O , 25-H ) :   0.1402 B( 24-O , 25-H ) :   0.7644
B( 24-O , 26-H ) :   0.8530 B( 24-O , 32-H ) :   0.1041 B( 27-O , 28-H ) :   0.7889
B( 27-O , 29-H ) :   0.7775 B( 29-H , 42-O ) :   0.1267 B( 30-O , 31-H ) :   0.8212
B( 30-O , 32-H ) :   0.8113 B( 33-O , 34-H ) :   0.8267 B( 33-O , 35-H ) :   0.7671
B( 36-O , 37-H ) :   0.7675 B( 36-O , 38-H ) :   0.8065 B( 39-O , 40-H ) :   0.8341
B( 39-O , 41-H ) :   0.8014 B( 42-O , 43-H ) :   0.8225 B( 42-O , 44-H ) :   0.7754
B( 44-H , 45-O ) :   0.1414 B( 45-O , 46-H ) :   0.8120 B( 45-O , 47-H ) :   0.7795

Dispersion correction           -0.060646835
FINAL SINGLE POINT ENERGY     -1223.174366425123

DIPOLE MOMENT
-------------
                                X             Y             Z
Electronic contribution:      0.03671       0.08817      -0.02460
Nuclear contribution   :      0.18299       0.40375      -0.04803
                        -----------------------------------------
Total Dipole Moment    :      0.21970       0.49192      -0.07263
                        -----------------------------------------
Magnitude (a.u.)       :      0.54363
Magnitude (Debye)      :      1.38179

                             ****ORCA TERMINATED NORMALLY****
TOTAL RUN TIME: 0 days 0 hours 2 minutes 4 seconds 618 msec
