                         Program Version 3.0.3 - RELEASE   -
|  1> ! wB97X-D3 Def2-TZVP def2-TZVP/J RIJCOSX TightSCF Grid4
|  2>
|  3> %pal nprocs 12 end
|  4>
|  5> %scf
|  6>         maxiter 400
|  7> end
|  8>
|  9> * xyz  0  1
| 10> O  3.084683	0.756382	-3.061294
| 11> H  3.536733	0.020464	-2.468944
| 12> H  3.812349	1.214655	-3.519933
| 13> O  -2.194196	0.548609	-0.356430
| 14> H  -3.039331	0.794436	0.122366
| 15> H  -1.524631	1.221951	0.006602
| 16> O  -0.459872	-0.147735	-2.253042
| 17> H  -1.323486	0.107610	-1.824772
| 18> H  0.199598	0.531687	-1.883310
| 19> O  1.294272	-0.992706	-4.139846
| 20> H  0.469356	-0.679440	-3.678412
| 21> H  1.954097	-0.270853	-3.931851
| 22> O  2.172081	-2.837351	-2.596128
| 23> H  2.340385	-3.655971	-3.097731
| 24> H  1.804314	-2.143380	-3.288590
| 25> O  -3.956491	1.205522	1.520677
| 26> H  -4.847837	1.599230	1.494335
| 27> H  -3.328932	1.935773	1.934072
| 28> O  0.445317	0.147025	2.271694
| 29> H  0.035033	0.402637	3.148176
| 30> H  -0.221479	-0.526295	1.901440
| 31> O  -3.025701	-0.756180	3.165271
| 32> H  -2.498555	-1.280333	2.502281
| 33> H  -3.553056	-0.133130	2.588069
| 34> O  -1.311744	0.878548	4.136134
| 35> H  -2.023013	0.179241	3.815324
| 36> H  -1.317861	0.841127	5.110307
| 37> O  1.357466	1.448834	-1.164662
| 38> H  2.036383	1.490874	-1.899876
| 39> H  1.739398	0.733100	-0.550173
| 40> O  -2.276098	2.850520	2.525043
| 41> H  -1.546783	2.879513	1.847357
| 42> H  -1.885508	2.283280	3.250067
| 43> O  -1.344848	-1.455489	1.157808
| 44> H  -0.805409	-2.033646	0.550532
| 45> H  -1.722817	-0.743950	0.538235
| 46> O  -0.377068	2.144687	0.730053
| 47> H  0.010081	1.435768	1.347024
| 48> H  0.306692	2.235494	0.009251
| 49> O  4.003823	-1.102063	-1.562254
| 50> H  3.573165	-0.920406	-0.683174
| 51> H  3.483032	-1.881310	-1.909191
| 52> O  2.186953	-0.538761	0.370240
| 53> H  1.829638	-0.305024	1.271061
| 54> H  1.519008	-1.217367	0.012569
| 55> O  0.395829	-2.146199	-0.740483
| 56> H  0.979111	-2.682437	-1.353135
| 57> H  0.015919	-1.436939	-1.362756
| 58> **                         ****END OF INPUT****

CARTESIAN COORDINATES (ANGSTROEM)
---------------------------------
  O      3.084683    0.756382   -3.061294
  H      3.536733    0.020464   -2.468944
  H      3.812349    1.214655   -3.519933
  O     -2.194196    0.548609   -0.356430
  H     -3.039331    0.794436    0.122366
  H     -1.524631    1.221951    0.006602
  O     -0.459872   -0.147735   -2.253042
  H     -1.323486    0.107610   -1.824772
  H      0.199598    0.531687   -1.883310
  O      1.294272   -0.992706   -4.139846
  H      0.469356   -0.679440   -3.678412
  H      1.954097   -0.270853   -3.931851
  O      2.172081   -2.837351   -2.596128
  H      2.340385   -3.655971   -3.097731
  H      1.804314   -2.143380   -3.288590
  O     -3.956491    1.205522    1.520677
  H     -4.847837    1.599230    1.494335
  H     -3.328932    1.935773    1.934072
  O      0.445317    0.147025    2.271694
  H      0.035033    0.402637    3.148176
  H     -0.221479   -0.526295    1.901440
  O     -3.025701   -0.756180    3.165271
  H     -2.498555   -1.280333    2.502281
  H     -3.553056   -0.133130    2.588069
  O     -1.311744    0.878548    4.136134
  H     -2.023013    0.179241    3.815324
  H     -1.317861    0.841127    5.110307
  O      1.357466    1.448834   -1.164662
  H      2.036383    1.490874   -1.899876
  H      1.739398    0.733100   -0.550173
  O     -2.276098    2.850520    2.525043
  H     -1.546783    2.879513    1.847357
  H     -1.885508    2.283280    3.250067
  O     -1.344848   -1.455489    1.157808
  H     -0.805409   -2.033646    0.550532
  H     -1.722817   -0.743950    0.538235
  O     -0.377068    2.144687    0.730053
  H      0.010081    1.435768    1.347024
  H      0.306692    2.235494    0.009251
  O      4.003823   -1.102063   -1.562254
  H      3.573165   -0.920406   -0.683174
  H      3.483032   -1.881310   -1.909191
  O      2.186953   -0.538761    0.370240
  H      1.829638   -0.305024    1.271061
  H      1.519008   -1.217367    0.012569
  O      0.395829   -2.146199   -0.740483
  H      0.979111   -2.682437   -1.353135
  H      0.015919   -1.436939   -1.362756

 Total Charge           Charge          ....    0
 Multiplicity           Mult            ....    1
 Number of Electrons    NEL             ....  160
 Basis Dimension        Dim             ....  688

ORBITAL ENERGIES
----------------

  NO   OCC          E(Eh)            E(eV)
   0   2.0000     -19.250878      -523.8430
   1   2.0000     -19.250761      -523.8398
   2   2.0000     -19.250685      -523.8378
   3   2.0000     -19.250551      -523.8341
   4   2.0000     -19.239981      -523.5465
   5   2.0000     -19.239602      -523.5362
   6   2.0000     -19.239488      -523.5331
   7   2.0000     -19.239183      -523.5248
   8   2.0000     -19.238372      -523.5027
   9   2.0000     -19.238326      -523.5015
  10   2.0000     -19.238176      -523.4974
  11   2.0000     -19.238171      -523.4973
  12   2.0000     -19.235731      -523.4308
  13   2.0000     -19.235584      -523.4268
  14   2.0000     -19.235413      -523.4222
  15   2.0000     -19.235309      -523.4194
  16   2.0000      -1.160359       -31.5750
  17   2.0000      -1.153412       -31.3859
  18   2.0000      -1.143030       -31.1034
  19   2.0000      -1.140914       -31.0459
  20   2.0000      -1.140664       -31.0390
  21   2.0000      -1.132523       -30.8175
  22   2.0000      -1.132119       -30.8065
  23   2.0000      -1.132067       -30.8051
  24   2.0000      -1.120227       -30.4829
  25   2.0000      -1.120139       -30.4805
  26   2.0000      -1.116923       -30.3930
  27   2.0000      -1.111010       -30.2321
  28   2.0000      -1.110945       -30.2303
  29   2.0000      -1.110808       -30.2266
  30   2.0000      -1.101418       -29.9711
  31   2.0000      -1.091112       -29.6907
  32   2.0000      -0.658896       -17.9295
  33   2.0000      -0.655268       -17.8307
  34   2.0000      -0.655139       -17.8272
  35   2.0000      -0.654574       -17.8119
  36   2.0000      -0.652471       -17.7546
  37   2.0000      -0.645472       -17.5642
  38   2.0000      -0.645123       -17.5547
  39   2.0000      -0.644863       -17.5476
  40   2.0000      -0.635109       -17.2822
  41   2.0000      -0.634905       -17.2766
  42   2.0000      -0.629728       -17.1358
  43   2.0000      -0.628077       -17.0908
  44   2.0000      -0.627940       -17.0871
  45   2.0000      -0.627446       -17.0737
  46   2.0000      -0.620628       -16.8881
  47   2.0000      -0.620501       -16.8847
  48   2.0000      -0.581036       -15.8108
  49   2.0000      -0.571368       -15.5477
  50   2.0000      -0.543693       -14.7946
  51   2.0000      -0.543265       -14.7830
  52   2.0000      -0.540350       -14.7037
  53   2.0000      -0.528771       -14.3886
  54   2.0000      -0.528659       -14.3855
  55   2.0000      -0.523489       -14.2449
  56   2.0000      -0.506904       -13.7936
  57   2.0000      -0.506815       -13.7911
  58   2.0000      -0.506584       -13.7848
  59   2.0000      -0.502004       -13.6602
  60   2.0000      -0.483079       -13.1453
  61   2.0000      -0.482840       -13.1387
  62   2.0000      -0.469948       -12.7879
  63   2.0000      -0.449279       -12.2255
  64   2.0000      -0.435241       -11.8435
  65   2.0000      -0.435039       -11.8380
  66   2.0000      -0.433030       -11.7833
  67   2.0000      -0.432849       -11.7784
  68   2.0000      -0.429103       -11.6765
  69   2.0000      -0.426844       -11.6150
  70   2.0000      -0.426763       -11.6128
  71   2.0000      -0.423509       -11.5243
  72   2.0000      -0.423469       -11.5232
  73   2.0000      -0.422860       -11.5066
  74   2.0000      -0.419145       -11.4055
  75   2.0000      -0.417745       -11.3674
  76   2.0000      -0.416751       -11.3404
  77   2.0000      -0.416532       -11.3344
  78   2.0000      -0.414782       -11.2868
  79   2.0000      -0.414054       -11.2670
  80   0.0000       0.079819         2.1720
  81   0.0000       0.095255         2.5920
  82   0.0000       0.117487         3.1970
  83   0.0000       0.117665         3.2018
  84   0.0000       0.132600         3.6082

MULLIKEN ATOMIC CHARGES
-----------------------
   0 O :   -0.770957
   1 H :    0.371301
   2 H :    0.355307
   3 O :   -0.761918
   4 H :    0.387883
   5 H :    0.352243
   6 O :   -0.762180
   7 H :    0.404298
   8 H :    0.355773
   9 O :   -0.691223
  10 H :    0.392175
  11 H :    0.366317
  12 O :   -0.771671
  13 H :    0.355505
  14 H :    0.371848
  15 O :   -0.771515
  16 H :    0.355584
  17 H :    0.371620
  18 O :   -0.761105
  19 H :    0.386849
  20 H :    0.352351
  21 O :   -0.691559
  22 H :    0.392656
  23 H :    0.367691
  24 O :   -0.772011
  25 H :    0.371432
  26 H :    0.355750
  27 O :   -0.761753
  28 H :    0.388205
  29 H :    0.351458
  30 O :   -0.692017
  31 H :    0.393319
  32 H :    0.367480
  33 O :   -0.762338
  34 H :    0.404790
  35 H :    0.354548
  36 O :   -0.763438
  37 H :    0.356438
  38 H :    0.405110
  39 O :   -0.690549
  40 H :    0.392251
  41 H :    0.366928
  42 O :   -0.762679
  43 H :    0.404823
  44 H :    0.356402
  45 O :   -0.761670
  46 H :    0.387585
  47 H :    0.352661
Sum of atomic charges:    0.0000000

LOEWDIN ATOMIC CHARGES
----------------------
   0 O :   -0.320319
   1 H :    0.144201
   2 H :    0.163708
   3 O :   -0.308333
   4 H :    0.149946
   5 H :    0.138771
   6 O :   -0.302173
   7 H :    0.158522
   8 H :    0.139719
   9 O :   -0.271507
  10 H :    0.157219
  11 H :    0.148906
  12 O :   -0.320866
  13 H :    0.163815
  14 H :    0.144760
  15 O :   -0.320231
  16 H :    0.163863
  17 H :    0.144167
  18 O :   -0.309386
  19 H :    0.150905
  20 H :    0.138842
  21 O :   -0.270978
  22 H :    0.157229
  23 H :    0.149310
  24 O :   -0.321950
  25 H :    0.144660
  26 H :    0.163814
  27 O :   -0.309113
  28 H :    0.150723
  29 H :    0.138302
  30 O :   -0.270585
  31 H :    0.156965
  32 H :    0.149305
  33 O :   -0.301463
  34 H :    0.158788
  35 H :    0.139404
  36 O :   -0.302246
  37 H :    0.139994
  38 H :    0.158567
  39 O :   -0.270256
  40 H :    0.157098
  41 H :    0.149248
  42 O :   -0.300923
  43 H :    0.158676
  44 H :    0.140111
  45 O :   -0.308732
  46 H :    0.150635
  47 H :    0.138887

  Mayer bond orders larger than 0.1
B(  0-O ,  1-H ) :   0.6978 B(  0-O ,  2-H ) :   0.8777 B(  0-O , 28-H ) :   0.1009
B(  1-H , 39-O ) :   0.2160 B(  3-O ,  4-H ) :   0.7912 B(  3-O ,  5-H ) :   0.7583
B(  3-O , 35-H ) :   0.1612 B(  4-H , 15-O ) :   0.1046 B(  5-H , 36-O ) :   0.1605
B(  6-O ,  7-H ) :   0.7984 B(  6-O ,  8-H ) :   0.7589 B(  6-O , 47-H ) :   0.1606
B(  8-H , 27-O ) :   0.1593 B(  9-O , 10-H ) :   0.8148 B(  9-O , 11-H ) :   0.8135
B(  9-O , 14-H ) :   0.2150 B( 12-O , 13-H ) :   0.8775 B( 12-O , 14-H ) :   0.6984
B( 12-O , 46-H ) :   0.1013 B( 15-O , 16-H ) :   0.8774 B( 15-O , 17-H ) :   0.6967
B( 17-H , 30-O ) :   0.2170 B( 18-O , 19-H ) :   0.7948 B( 18-O , 20-H ) :   0.7583
B( 18-O , 37-H ) :   0.1578 B( 19-H , 24-O ) :   0.1007 B( 20-H , 33-O ) :   0.1600
B( 21-O , 22-H ) :   0.8143 B( 21-O , 23-H ) :   0.8133 B( 21-O , 25-H ) :   0.2154
B( 24-O , 25-H ) :   0.6981 B( 24-O , 26-H ) :   0.8774 B( 27-O , 28-H ) :   0.7931
B( 27-O , 29-H ) :   0.7574 B( 29-H , 42-O ) :   0.1613 B( 30-O , 31-H ) :   0.8135
B( 30-O , 32-H ) :   0.8128 B( 33-O , 34-H ) :   0.7987 B( 33-O , 35-H ) :   0.7580
B( 36-O , 37-H ) :   0.7595 B( 36-O , 38-H ) :   0.7970 B( 39-O , 40-H ) :   0.8147
B( 39-O , 41-H ) :   0.8140 B( 42-O , 43-H ) :   0.7983 B( 42-O , 44-H ) :   0.7582
B( 44-H , 45-O ) :   0.1592 B( 45-O , 46-H ) :   0.7936 B( 45-O , 47-H ) :   0.7579

Dispersion correction           -0.033062382
FINAL SINGLE POINT ENERGY     -1223.300058959489

DIPOLE MOMENT
-------------
                                X             Y             Z
Electronic contribution:     -0.00064      -0.00016       0.00230
Nuclear contribution   :      0.01397      -0.00910      -0.00694
                        -----------------------------------------
Total Dipole Moment    :      0.01333      -0.00926      -0.00465
                        -----------------------------------------
Magnitude (a.u.)       :      0.01688
Magnitude (Debye)      :      0.04291

                             ****ORCA TERMINATED NORMALLY****
TOTAL RUN TIME: 0 days 0 hours 2 minutes 9 seconds 73 msec
