                         Program Version 3.0.3 - RELEASE   -
|  1> ! wB97X-D3 Def2-TZVP def2-TZVP/J RIJCOSX TightSCF Grid4 COSMO
|  2>
|  3> %pal nprocs 12 end
|  4>
|  5> %scf
|  6>         maxiter 400
|  7> end
|  8>
|  9> %cosmo
| 10>         SMD true
| 11>         solvent "WATER"
| 12> end
| 13>
| 14> * xyz  0  1
| 15> O  3.065492	0.742446	-3.078391
| 16> H  3.550443	0.040492	-2.502765
| 17> H  3.769557	1.246851	-3.531491
| 18> O  -2.212572	0.568530	-0.347203
| 19> H  -3.038757	0.812096	0.175961
| 20> H  -1.527557	1.224894	0.013636
| 21> O  -0.467049	-0.128134	-2.256780
| 22> H  -1.317167	0.123450	-1.801020
| 23> H  0.207064	0.534957	-1.881274
| 24> O  1.291606	-0.966466	-4.185133
| 25> H  0.484642	-0.673028	-3.684164
| 26> H  1.965916	-0.265589	-3.935699
| 27> O  2.200648	-2.817336	-2.579393
| 28> H  2.366064	-3.660190	-3.046269
| 29> H  1.838480	-2.168835	-3.291046
| 30> O  -3.940835	1.183623	1.547669
| 31> H  -4.847845	1.544018	1.490254
| 32> H  -3.363690	1.938244	1.943440
| 33> O  0.417195	0.128413	2.281294
| 34> H  -0.030366	0.403483	3.140313
| 35> H  -0.246433	-0.537200	1.895767
| 36> O  -3.062107	-0.782133	3.175964
| 37> H  -2.505639	-1.275209	2.515692
| 38> H  -3.549078	-0.122290	2.596748
| 39> O  -1.316381	0.913796	4.115687
| 40> H  -2.019645	0.209747	3.851906
| 41> H  -1.272659	0.896053	5.092289
| 42> O  1.380101	1.432247	-1.166276
| 43> H  2.053535	1.437598	-1.915317
| 44> H  1.750315	0.717270	-0.546429
| 45> O  -2.258660	2.906383	2.554273
| 46> H  -1.548856	2.878562	1.858238
| 47> H  -1.893419	2.291751	3.258968
| 48> O  -1.370543	-1.469444	1.130064
| 49> H  -0.805746	-2.014051	0.514993
| 50> H  -1.744739	-0.744638	0.523066
| 51> O  -0.359322	2.143651	0.739079
| 52> H  0.007066	1.421390	1.354910
| 53> H  0.322611	2.197967	0.013166
| 54> O  4.042056	-1.130713	-1.546385
| 55> H  3.573297	-0.927944	-0.693411
| 56> H  3.491242	-1.880740	-1.922269
| 57> O  2.183224	-0.566956	0.385484
| 58> H  1.792893	-0.330312	1.271421
| 59> H  1.515658	-1.234341	0.004795
| 60> O  0.398739	-2.153847	-0.767860
| 61> H  1.011142	-2.655151	-1.391101
| 62> H  0.020080	-1.433365	-1.375397
| 63> **                         ****END OF INPUT****

CARTESIAN COORDINATES (ANGSTROEM)
---------------------------------
  O      3.065492    0.742446   -3.078391
  H      3.550443    0.040492   -2.502765
  H      3.769557    1.246851   -3.531491
  O     -2.212572    0.568530   -0.347203
  H     -3.038757    0.812096    0.175961
  H     -1.527557    1.224894    0.013636
  O     -0.467049   -0.128134   -2.256780
  H     -1.317167    0.123450   -1.801020
  H      0.207064    0.534957   -1.881274
  O      1.291606   -0.966466   -4.185133
  H      0.484642   -0.673028   -3.684164
  H      1.965916   -0.265589   -3.935699
  O      2.200648   -2.817336   -2.579393
  H      2.366064   -3.660190   -3.046269
  H      1.838480   -2.168835   -3.291046
  O     -3.940835    1.183623    1.547669
  H     -4.847845    1.544018    1.490254
  H     -3.363690    1.938244    1.943440
  O      0.417195    0.128413    2.281294
  H     -0.030366    0.403483    3.140313
  H     -0.246433   -0.537200    1.895767
  O     -3.062107   -0.782133    3.175964
  H     -2.505639   -1.275209    2.515692
  H     -3.549078   -0.122290    2.596748
  O     -1.316381    0.913796    4.115687
  H     -2.019645    0.209747    3.851906
  H     -1.272659    0.896053    5.092289
  O      1.380101    1.432247   -1.166276
  H      2.053535    1.437598   -1.915317
  H      1.750315    0.717270   -0.546429
  O     -2.258660    2.906383    2.554273
  H     -1.548856    2.878562    1.858238
  H     -1.893419    2.291751    3.258968
  O     -1.370543   -1.469444    1.130064
  H     -0.805746   -2.014051    0.514993
  H     -1.744739   -0.744638    0.523066
  O     -0.359322    2.143651    0.739079
  H      0.007066    1.421390    1.354910
  H      0.322611    2.197967    0.013166
  O      4.042056   -1.130713   -1.546385
  H      3.573297   -0.927944   -0.693411
  H      3.491242   -1.880740   -1.922269
  O      2.183224   -0.566956    0.385484
  H      1.792893   -0.330312    1.271421
  H      1.515658   -1.234341    0.004795
  O      0.398739   -2.153847   -0.767860
  H      1.011142   -2.655151   -1.391101
  H      0.020080   -1.433365   -1.375397

 Total Charge           Charge          ....    0
 Multiplicity           Mult            ....    1
 Number of Electrons    NEL             ....  160
 Basis Dimension        Dim             ....  688

ORBITAL ENERGIES
----------------

  NO   OCC          E(Eh)            E(eV)
   0   2.0000     -19.241117      -523.5774
   1   2.0000     -19.240969      -523.5734
   2   2.0000     -19.240778      -523.5682
   3   2.0000     -19.240668      -523.5652
   4   2.0000     -19.237140      -523.4692
   5   2.0000     -19.237031      -523.4662
   6   2.0000     -19.236890      -523.4624
   7   2.0000     -19.236846      -523.4612
   8   2.0000     -19.233802      -523.3784
   9   2.0000     -19.233792      -523.3781
  10   2.0000     -19.233763      -523.3773
  11   2.0000     -19.233604      -523.3730
  12   2.0000     -19.233429      -523.3682
  13   2.0000     -19.233130      -523.3601
  14   2.0000     -19.233124      -523.3599
  15   2.0000     -19.232953      -523.3553
  16   2.0000      -1.155286       -31.4369
  17   2.0000      -1.146841       -31.2071
  18   2.0000      -1.136250       -30.9189
  19   2.0000      -1.134470       -30.8705
  20   2.0000      -1.134436       -30.8696
  21   2.0000      -1.127439       -30.6792
  22   2.0000      -1.126750       -30.6604
  23   2.0000      -1.126694       -30.6589
  24   2.0000      -1.115565       -30.3561
  25   2.0000      -1.115555       -30.3558
  26   2.0000      -1.112760       -30.2797
  27   2.0000      -1.106601       -30.1122
  28   2.0000      -1.106557       -30.1110
  29   2.0000      -1.106445       -30.1079
  30   2.0000      -1.096543       -29.8384
  31   2.0000      -1.086860       -29.5750
  32   2.0000      -0.650245       -17.6941
  33   2.0000      -0.649108       -17.6631
  34   2.0000      -0.647726       -17.6255
  35   2.0000      -0.647605       -17.6222
  36   2.0000      -0.642909       -17.4944
  37   2.0000      -0.637211       -17.3394
  38   2.0000      -0.634715       -17.2715
  39   2.0000      -0.634548       -17.2669
  40   2.0000      -0.629689       -17.1347
  41   2.0000      -0.628118       -17.0920
  42   2.0000      -0.624276       -16.9874
  43   2.0000      -0.621921       -16.9233
  44   2.0000      -0.621846       -16.9213
  45   2.0000      -0.621749       -16.9186
  46   2.0000      -0.616653       -16.7800
  47   2.0000      -0.616519       -16.7763
  48   2.0000      -0.575710       -15.6659
  49   2.0000      -0.564566       -15.3626
  50   2.0000      -0.539873       -14.6907
  51   2.0000      -0.539604       -14.6834
  52   2.0000      -0.533688       -14.5224
  53   2.0000      -0.526150       -14.3173
  54   2.0000      -0.525761       -14.3067
  55   2.0000      -0.522660       -14.2223
  56   2.0000      -0.501869       -13.6565
  57   2.0000      -0.501694       -13.6518
  58   2.0000      -0.501061       -13.6346
  59   2.0000      -0.501047       -13.6342
  60   2.0000      -0.480139       -13.0652
  61   2.0000      -0.479829       -13.0568
  62   2.0000      -0.469241       -12.7687
  63   2.0000      -0.450500       -12.2587
  64   2.0000      -0.429996       -11.7008
  65   2.0000      -0.429545       -11.6885
  66   2.0000      -0.429482       -11.6868
  67   2.0000      -0.425326       -11.5737
  68   2.0000      -0.423323       -11.5192
  69   2.0000      -0.423279       -11.5180
  70   2.0000      -0.421361       -11.4658
  71   2.0000      -0.421316       -11.4646
  72   2.0000      -0.421132       -11.4596
  73   2.0000      -0.419698       -11.4206
  74   2.0000      -0.418670       -11.3926
  75   2.0000      -0.416420       -11.3314
  76   2.0000      -0.416240       -11.3265
  77   2.0000      -0.416113       -11.3230
  78   2.0000      -0.412336       -11.2202
  79   2.0000      -0.412097       -11.2137
  80   0.0000       0.091165         2.4807
  81   0.0000       0.114367         3.1121
  82   0.0000       0.145031         3.9465
  83   0.0000       0.145092         3.9482
  84   0.0000       0.151213         4.1147

MULLIKEN ATOMIC CHARGES
-----------------------
   0 O :   -0.783844
   1 H :    0.381605
   2 H :    0.408635
   3 O :   -0.792752
   4 H :    0.401904
   5 H :    0.362223
   6 O :   -0.787578
   7 H :    0.414624
   8 H :    0.367951
   9 O :   -0.756855
  10 H :    0.398912
  11 H :    0.382289
  12 O :   -0.783386
  13 H :    0.408707
  14 H :    0.381720
  15 O :   -0.782903
  16 H :    0.408991
  17 H :    0.381746
  18 O :   -0.792350
  19 H :    0.402030
  20 H :    0.362428
  21 O :   -0.756786
  22 H :    0.399999
  23 H :    0.382936
  24 O :   -0.784402
  25 H :    0.382167
  26 H :    0.408966
  27 O :   -0.792920
  28 H :    0.402951
  29 H :    0.363785
  30 O :   -0.757433
  31 H :    0.400062
  32 H :    0.382382
  33 O :   -0.788217
  34 H :    0.415226
  35 H :    0.368049
  36 O :   -0.788821
  37 H :    0.368609
  38 H :    0.415297
  39 O :   -0.756358
  40 H :    0.399536
  41 H :    0.382547
  42 O :   -0.787463
  43 H :    0.414722
  44 H :    0.368064
  45 O :   -0.792244
  46 H :    0.402762
  47 H :    0.362486
Sum of atomic charges:   -0.0000000

LOEWDIN ATOMIC CHARGES
----------------------
   0 O :   -0.294428
   1 H :    0.151219
   2 H :    0.191066
   3 O :   -0.321454
   4 H :    0.152368
   5 H :    0.140993
   6 O :   -0.313411
   7 H :    0.159599
   8 H :    0.142214
   9 O :   -0.318655
  10 H :    0.156537
  11 H :    0.150563
  12 O :   -0.293902
  13 H :    0.191283
  14 H :    0.151836
  15 O :   -0.292522
  16 H :    0.191434
  17 H :    0.151617
  18 O :   -0.321308
  19 H :    0.153079
  20 H :    0.141043
  21 O :   -0.317389
  22 H :    0.157148
  23 H :    0.150703
  24 O :   -0.295033
  25 H :    0.151413
  26 H :    0.191155
  27 O :   -0.320275
  28 H :    0.153359
  29 H :    0.140884
  30 O :   -0.318386
  31 H :    0.155976
  32 H :    0.150570
  33 O :   -0.313192
  34 H :    0.159675
  35 H :    0.142236
  36 O :   -0.313779
  37 H :    0.142521
  38 H :    0.159402
  39 O :   -0.317187
  40 H :    0.156373
  41 H :    0.150901
  42 O :   -0.311838
  43 H :    0.159755
  44 H :    0.142589
  45 O :   -0.320788
  46 H :    0.153203
  47 H :    0.140834

  Mayer bond orders larger than 0.1
B(  0-O ,  1-H ) :   0.7324 B(  0-O ,  2-H ) :   0.8362 B(  0-O , 11-H ) :   0.1105
B(  0-O , 28-H ) :   0.1161 B(  1-H , 39-O ) :   0.1666 B(  3-O ,  4-H ) :   0.7666
B(  3-O ,  5-H ) :   0.7575 B(  3-O , 35-H ) :   0.1544 B(  4-H , 15-O ) :   0.1198
B(  5-H , 36-O ) :   0.1511 B(  6-O ,  7-H ) :   0.7904 B(  6-O ,  8-H ) :   0.7521
B(  6-O , 47-H ) :   0.1513 B(  8-H , 27-O ) :   0.1547 B(  9-O , 10-H ) :   0.8110
B(  9-O , 11-H ) :   0.7899 B(  9-O , 14-H ) :   0.1650 B( 12-O , 13-H ) :   0.8362
B( 12-O , 14-H ) :   0.7339 B( 12-O , 41-H ) :   0.1096 B( 12-O , 46-H ) :   0.1163
B( 15-O , 16-H ) :   0.8359 B( 15-O , 17-H ) :   0.7323 B( 15-O , 23-H ) :   0.1097
B( 17-H , 30-O ) :   0.1670 B( 18-O , 19-H ) :   0.7687 B( 18-O , 20-H ) :   0.7572
B( 18-O , 37-H ) :   0.1535 B( 19-H , 24-O ) :   0.1168 B( 20-H , 33-O ) :   0.1506
B( 21-O , 22-H ) :   0.8110 B( 21-O , 23-H ) :   0.7898 B( 21-O , 25-H ) :   0.1656
B( 24-O , 25-H ) :   0.7327 B( 24-O , 26-H ) :   0.8360 B( 24-O , 32-H ) :   0.1103
B( 27-O , 28-H ) :   0.7680 B( 27-O , 29-H ) :   0.7559 B( 29-H , 42-O ) :   0.1506
B( 30-O , 31-H ) :   0.8097 B( 30-O , 32-H ) :   0.7901 B( 33-O , 34-H ) :   0.7904
B( 33-O , 35-H ) :   0.7527 B( 36-O , 37-H ) :   0.7527 B( 36-O , 38-H ) :   0.7888
B( 39-O , 40-H ) :   0.8103 B( 39-O , 41-H ) :   0.7904 B( 42-O , 43-H ) :   0.7907
B( 42-O , 44-H ) :   0.7521 B( 44-H , 45-O ) :   0.1546 B( 45-O , 46-H ) :   0.7683
B( 45-O , 47-H ) :   0.7570

Dispersion correction           -0.033008988
FINAL SINGLE POINT ENERGY     -1223.338947582241

DIPOLE MOMENT
-------------
                                X             Y             Z
Electronic contribution:      0.00202      -0.00498       0.00699
Nuclear contribution   :      0.02100      -0.01014      -0.00522
                        -----------------------------------------
Total Dipole Moment    :      0.02302      -0.01512       0.00177
                        -----------------------------------------
Magnitude (a.u.)       :      0.02760
Magnitude (Debye)      :      0.07015

                             ****ORCA TERMINATED NORMALLY****
TOTAL RUN TIME: 0 days 0 hours 2 minutes 19 seconds 444 msec
