                         Program Version 3.0.3 - RELEASE   -
|  1> ! wB97X-D3 MA-Def2-TZVP def2-TZVP/J RIJCOSX TightSCF Grid4
|  2>
|  3> %pal nprocs 1 end
|  4>
|  5> %scf
|  6>         maxiter 400
|  7> end
|  8>
|  9> %cosmo
| 10>         SMD true
| 11>         solvent "WATER"
| 12> end
| 13>
| 14> * xyz  0  1
| 15> O  3.065492	0.742446	-3.078391
| 16> H  3.550443	0.040492	-2.502765
| 17> H  3.769557	1.246851	-3.531491
| 18> O  -2.212572	0.568530	-0.347203
| 19> H  -3.038757	0.812096	0.175961
| 20> H  -1.527557	1.224894	0.013636
| 21> O  -0.467049	-0.128134	-2.256780
| 22> H  -1.317167	0.123450	-1.801020
| 23> H  0.207064	0.534957	-1.881274
| 24> O  1.291606	-0.966466	-4.185133
| 25> H  0.484642	-0.673028	-3.684164
| 26> H  1.965916	-0.265589	-3.935699
| 27> O  2.200648	-2.817336	-2.579393
| 28> H  2.366064	-3.660190	-3.046269
| 29> H  1.838480	-2.168835	-3.291046
| 30> O  -3.940835	1.183623	1.547669
| 31> H  -4.847845	1.544018	1.490254
| 32> H  -3.363690	1.938244	1.943440
| 33> O  0.417195	0.128413	2.281294
| 34> H  -0.030366	0.403483	3.140313
| 35> H  -0.246433	-0.537200	1.895767
| 36> O  -3.062107	-0.782133	3.175964
| 37> H  -2.505639	-1.275209	2.515692
| 38> H  -3.549078	-0.122290	2.596748
| 39> O  -1.316381	0.913796	4.115687
| 40> H  -2.019645	0.209747	3.851906
| 41> H  -1.272659	0.896053	5.092289
| 42> O  1.380101	1.432247	-1.166276
| 43> H  2.053535	1.437598	-1.915317
| 44> H  1.750315	0.717270	-0.546429
| 45> O  -2.258660	2.906383	2.554273
| 46> H  -1.548856	2.878562	1.858238
| 47> H  -1.893419	2.291751	3.258968
| 48> O  -1.370543	-1.469444	1.130064
| 49> H  -0.805746	-2.014051	0.514993
| 50> H  -1.744739	-0.744638	0.523066
| 51> O  -0.359322	2.143651	0.739079
| 52> H  0.007066	1.421390	1.354910
| 53> H  0.322611	2.197967	0.013166
| 54> O  4.042056	-1.130713	-1.546385
| 55> H  3.573297	-0.927944	-0.693411
| 56> H  3.491242	-1.880740	-1.922269
| 57> O  2.183224	-0.566956	0.385484
| 58> H  1.792893	-0.330312	1.271421
| 59> H  1.515658	-1.234341	0.004795
| 60> O  0.398739	-2.153847	-0.767860
| 61> H  1.011142	-2.655151	-1.391101
| 62> H  0.020080	-1.433365	-1.375397
| 63> **                         ****END OF INPUT****

CARTESIAN COORDINATES (ANGSTROEM)
---------------------------------
  O      3.065492    0.742446   -3.078391
  H      3.550443    0.040492   -2.502765
  H      3.769557    1.246851   -3.531491
  O     -2.212572    0.568530   -0.347203
  H     -3.038757    0.812096    0.175961
  H     -1.527557    1.224894    0.013636
  O     -0.467049   -0.128134   -2.256780
  H     -1.317167    0.123450   -1.801020
  H      0.207064    0.534957   -1.881274
  O      1.291606   -0.966466   -4.185133
  H      0.484642   -0.673028   -3.684164
  H      1.965916   -0.265589   -3.935699
  O      2.200648   -2.817336   -2.579393
  H      2.366064   -3.660190   -3.046269
  H      1.838480   -2.168835   -3.291046
  O     -3.940835    1.183623    1.547669
  H     -4.847845    1.544018    1.490254
  H     -3.363690    1.938244    1.943440
  O      0.417195    0.128413    2.281294
  H     -0.030366    0.403483    3.140313
  H     -0.246433   -0.537200    1.895767
  O     -3.062107   -0.782133    3.175964
  H     -2.505639   -1.275209    2.515692
  H     -3.549078   -0.122290    2.596748
  O     -1.316381    0.913796    4.115687
  H     -2.019645    0.209747    3.851906
  H     -1.272659    0.896053    5.092289
  O      1.380101    1.432247   -1.166276
  H      2.053535    1.437598   -1.915317
  H      1.750315    0.717270   -0.546429
  O     -2.258660    2.906383    2.554273
  H     -1.548856    2.878562    1.858238
  H     -1.893419    2.291751    3.258968
  O     -1.370543   -1.469444    1.130064
  H     -0.805746   -2.014051    0.514993
  H     -1.744739   -0.744638    0.523066
  O     -0.359322    2.143651    0.739079
  H      0.007066    1.421390    1.354910
  H      0.322611    2.197967    0.013166
  O      4.042056   -1.130713   -1.546385
  H      3.573297   -0.927944   -0.693411
  H      3.491242   -1.880740   -1.922269
  O      2.183224   -0.566956    0.385484
  H      1.792893   -0.330312    1.271421
  H      1.515658   -1.234341    0.004795
  O      0.398739   -2.153847   -0.767860
  H      1.011142   -2.655151   -1.391101
  H      0.020080   -1.433365   -1.375397

 Total Charge           Charge          ....    0
 Multiplicity           Mult            ....    1
 Number of Electrons    NEL             ....  160
 Basis Dimension        Dim             ....  752

ORBITAL ENERGIES
----------------

  NO   OCC          E(Eh)            E(eV)
   0   2.0000     -19.242689      -523.6202
   1   2.0000     -19.242561      -523.6167
   2   2.0000     -19.242350      -523.6110
   3   2.0000     -19.242259      -523.6085
   4   2.0000     -19.238233      -523.4989
   5   2.0000     -19.238134      -523.4962
   6   2.0000     -19.237978      -523.4920
   7   2.0000     -19.237950      -523.4912
   8   2.0000     -19.235279      -523.4185
   9   2.0000     -19.234997      -523.4109
  10   2.0000     -19.234987      -523.4106
  11   2.0000     -19.234965      -523.4100
  12   2.0000     -19.234949      -523.4096
  13   2.0000     -19.234934      -523.4092
  14   2.0000     -19.234813      -523.4059
  15   2.0000     -19.234760      -523.4044
  16   2.0000      -1.156076       -31.4584
  17   2.0000      -1.147803       -31.2333
  18   2.0000      -1.137220       -30.9453
  19   2.0000      -1.135286       -30.8927
  20   2.0000      -1.135253       -30.8918
  21   2.0000      -1.128241       -30.7010
  22   2.0000      -1.127674       -30.6856
  23   2.0000      -1.127624       -30.6842
  24   2.0000      -1.116571       -30.3834
  25   2.0000      -1.116563       -30.3832
  26   2.0000      -1.113609       -30.3028
  27   2.0000      -1.107492       -30.1364
  28   2.0000      -1.107382       -30.1334
  29   2.0000      -1.107368       -30.1330
  30   2.0000      -1.097505       -29.8646
  31   2.0000      -1.087663       -29.5968
  32   2.0000      -0.651013       -17.7150
  33   2.0000      -0.649876       -17.6840
  34   2.0000      -0.648458       -17.6454
  35   2.0000      -0.648340       -17.6422
  36   2.0000      -0.643864       -17.5204
  37   2.0000      -0.638071       -17.3628
  38   2.0000      -0.635592       -17.2953
  39   2.0000      -0.635421       -17.2907
  40   2.0000      -0.630329       -17.1521
  41   2.0000      -0.628888       -17.1129
  42   2.0000      -0.625263       -17.0143
  43   2.0000      -0.622798       -16.9472
  44   2.0000      -0.622623       -16.9424
  45   2.0000      -0.622515       -16.9395
  46   2.0000      -0.617442       -16.8015
  47   2.0000      -0.617313       -16.7979
  48   2.0000      -0.576515       -15.6878
  49   2.0000      -0.565552       -15.3895
  50   2.0000      -0.540603       -14.7105
  51   2.0000      -0.540328       -14.7031
  52   2.0000      -0.534668       -14.5491
  53   2.0000      -0.527054       -14.3419
  54   2.0000      -0.526657       -14.3311
  55   2.0000      -0.523419       -14.2430
  56   2.0000      -0.502848       -13.6832
  57   2.0000      -0.502667       -13.6783
  58   2.0000      -0.501947       -13.6587
  59   2.0000      -0.501901       -13.6574
  60   2.0000      -0.481031       -13.0895
  61   2.0000      -0.480726       -13.0812
  62   2.0000      -0.470291       -12.7973
  63   2.0000      -0.451529       -12.2867
  64   2.0000      -0.430894       -11.7252
  65   2.0000      -0.430357       -11.7106
  66   2.0000      -0.430298       -11.7090
  67   2.0000      -0.426382       -11.6025
  68   2.0000      -0.424193       -11.5429
  69   2.0000      -0.424146       -11.5416
  70   2.0000      -0.422324       -11.4920
  71   2.0000      -0.422278       -11.4908
  72   2.0000      -0.422113       -11.4863
  73   2.0000      -0.420397       -11.4396
  74   2.0000      -0.419676       -11.4200
  75   2.0000      -0.417447       -11.3593
  76   2.0000      -0.417102       -11.3499
  77   2.0000      -0.416968       -11.3463
  78   2.0000      -0.413196       -11.2436
  79   2.0000      -0.412847       -11.2341
  80   0.0000       0.062314         1.6957
  81   0.0000       0.074738         2.0337
  82   0.0000       0.093049         2.5320
  83   0.0000       0.093126         2.5341
  84   0.0000       0.102749         2.7959

MULLIKEN ATOMIC CHARGES
-----------------------
   0 O :   -0.856198
   1 H :    0.437193
   2 H :    0.418371
   3 O :   -0.926341
   4 H :    0.454676
   5 H :    0.435967
   6 O :   -0.922779
   7 H :    0.463019
   8 H :    0.447874
   9 O :   -0.829367
  10 H :    0.441107
  11 H :    0.434032
  12 O :   -0.854632
  13 H :    0.418292
  14 H :    0.436785
  15 O :   -0.855680
  16 H :    0.418574
  17 H :    0.437664
  18 O :   -0.925419
  19 H :    0.454722
  20 H :    0.437138
  21 O :   -0.830640
  22 H :    0.441885
  23 H :    0.434570
  24 O :   -0.855203
  25 H :    0.438040
  26 H :    0.418424
  27 O :   -0.927643
  28 H :    0.455106
  29 H :    0.440402
  30 O :   -0.828976
  31 H :    0.443017
  32 H :    0.434061
  33 O :   -0.923645
  34 H :    0.463389
  35 H :    0.448442
  36 O :   -0.927227
  37 H :    0.449626
  38 H :    0.463136
  39 O :   -0.829090
  40 H :    0.441203
  41 H :    0.433801
  42 O :   -0.926630
  43 H :    0.462338
  44 H :    0.449522
  45 O :   -0.924533
  46 H :    0.455042
  47 H :    0.436586
Sum of atomic charges:    0.0000000

LOEWDIN ATOMIC CHARGES
----------------------
   0 O :   -0.389950
   1 H :    0.200901
   2 H :    0.220267
   3 O :   -0.428003
   4 H :    0.204378
   5 H :    0.197360
   6 O :   -0.421402
   7 H :    0.210647
   8 H :    0.198299
   9 O :   -0.405056
  10 H :    0.206824
  11 H :    0.202534
  12 O :   -0.389373
  13 H :    0.220441
  14 H :    0.201594
  15 O :   -0.388213
  16 H :    0.220626
  17 H :    0.201262
  18 O :   -0.427898
  19 H :    0.205068
  20 H :    0.197371
  21 O :   -0.403867
  22 H :    0.207366
  23 H :    0.202683
  24 O :   -0.390512
  25 H :    0.201117
  26 H :    0.220348
  27 O :   -0.427084
  28 H :    0.205333
  29 H :    0.197195
  30 O :   -0.404746
  31 H :    0.206406
  32 H :    0.202605
  33 O :   -0.421143
  34 H :    0.210758
  35 H :    0.198290
  36 O :   -0.421882
  37 H :    0.198646
  38 H :    0.210507
  39 O :   -0.403606
  40 H :    0.206742
  41 H :    0.202800
  42 O :   -0.420002
  43 H :    0.210812
  44 H :    0.198634
  45 O :   -0.427363
  46 H :    0.205120
  47 H :    0.197166

  Mayer bond orders larger than 0.1
B(  0-O ,  1-H ) :   0.7451 B(  0-O ,  2-H ) :   0.8283 B(  1-H , 39-O ) :   0.1001
B(  3-O ,  4-H ) :   0.7746 B(  3-O ,  5-H ) :   0.7793 B(  6-O ,  7-H ) :   0.7915
B(  6-O ,  8-H ) :   0.7693 B(  9-O , 10-H ) :   0.8107 B(  9-O , 11-H ) :   0.8014
B( 12-O , 13-H ) :   0.8287 B( 12-O , 14-H ) :   0.7469 B( 15-O , 16-H ) :   0.8285
B( 15-O , 17-H ) :   0.7447 B( 17-H , 30-O ) :   0.1001 B( 18-O , 19-H ) :   0.7761
B( 18-O , 20-H ) :   0.7797 B( 21-O , 22-H ) :   0.8113 B( 21-O , 23-H ) :   0.8008
B( 24-O , 25-H ) :   0.7454 B( 24-O , 26-H ) :   0.8288 B( 27-O , 28-H ) :   0.7751
B( 27-O , 29-H ) :   0.7788 B( 30-O , 31-H ) :   0.8102 B( 30-O , 32-H ) :   0.8013
B( 33-O , 34-H ) :   0.7919 B( 33-O , 35-H ) :   0.7694 B( 36-O , 37-H ) :   0.7701
B( 36-O , 38-H ) :   0.7910 B( 39-O , 40-H ) :   0.8115 B( 39-O , 41-H ) :   0.8016
B( 42-O , 43-H ) :   0.7925 B( 42-O , 44-H ) :   0.7690 B( 45-O , 46-H ) :   0.7757
B( 45-O , 47-H ) :   0.7791

Dispersion correction           -0.033008988
FINAL SINGLE POINT ENERGY     -1223.345078550485

DIPOLE MOMENT
-------------
                                X             Y             Z
Electronic contribution:      0.00256      -0.00486       0.00668
Nuclear contribution   :      0.02100      -0.01014      -0.00522
                        -----------------------------------------
Total Dipole Moment    :      0.02355      -0.01500       0.00146
                        -----------------------------------------
Magnitude (a.u.)       :      0.02796
Magnitude (Debye)      :      0.07108

                             ****ORCA TERMINATED NORMALLY****
TOTAL RUN TIME: 0 days 0 hours 34 minutes 4 seconds 641 msec
