                         Program Version 4.2.0 -  RELEASE  -
|  1> # 12h2o.su.etal.mol2,4,6,7,9,10
|  2> ! MP2 def2-TZVP EnGrad TightSCF
|  3>
|  4> %pal
|  5>     nprocs 6
|  6> end
|  7>
|  8> %maxcore 8000
|  9>
| 10> %scf
| 11>     ConvForced true
| 12> end
| 13>
| 14> *xyz 0 1
| 15> O   0.923410000  -1.794470000  -2.768350000
| 16> H   1.359750000  -2.338250000  -3.430940000
| 17> H   1.303000000  -0.879480000  -2.865760000
| 18> O  -0.885520000   1.737840000   0.052730000
| 19> H  -1.032320000   2.090180000  -0.841890000
| 20> H  -1.284090000   0.839590000   0.017130000
| 21> O   1.737840000   0.885520000  -0.052730000
| 22> H   2.090180000   1.032320000   0.841890000
| 23> H   0.839590000   1.284090000  -0.017130000
| 24> O  -1.737840000  -0.885520000  -0.052730000
| 25> H  -2.090180000  -1.032320000   0.841890000
| 26> H  -0.839590000  -1.284090000  -0.017130000
| 27> O   0.741530000  -1.752130000   2.896280000
| 28> H   0.920500000  -2.036450000   1.984040000
| 29> H   1.242140000  -0.921210000   2.984230000
| 30> O  -0.923410000   1.794470000  -2.768350000
| 31> H  -1.359750000   2.338250000  -3.430940000
| 32> H  -1.303000000   0.879480000  -2.865760000
| 33> *
| 34>
| 35>                          ****END OF INPUT****

CARTESIAN COORDINATES (ANGSTROEM)
---------------------------------
  O      0.923410   -1.794470   -2.768350
  H      1.359750   -2.338250   -3.430940
  H      1.303000   -0.879480   -2.865760
  O     -0.885520    1.737840    0.052730
  H     -1.032320    2.090180   -0.841890
  H     -1.284090    0.839590    0.017130
  O      1.737840    0.885520   -0.052730
  H      2.090180    1.032320    0.841890
  H      0.839590    1.284090   -0.017130
  O     -1.737840   -0.885520   -0.052730
  H     -2.090180   -1.032320    0.841890
  H     -0.839590   -1.284090   -0.017130
  O      0.741530   -1.752130    2.896280
  H      0.920500   -2.036450    1.984040
  H      1.242140   -0.921210    2.984230
  O     -0.923410    1.794470   -2.768350
  H     -1.359750    2.338250   -3.430940
  H     -1.303000    0.879480   -2.865760

 Total Charge           Charge          ....    0
 Multiplicity           Mult            ....    1
 Number of Electrons    NEL             ....   60
 Basis Dimension        Dim             ....  258

ORBITAL ENERGIES
----------------

  NO   OCC          E(Eh)            E(eV)
   0   2.0000     -20.589107      -560.2581
   1   2.0000     -20.585789      -560.1678
   2   2.0000     -20.568823      -559.7061
   3   2.0000     -20.562853      -559.5437
   4   2.0000     -20.530888      -558.6739
   5   2.0000     -20.525228      -558.5199
   6   2.0000      -1.370211       -37.2853
   7   2.0000      -1.363692       -37.1080
   8   2.0000      -1.347769       -36.6747
   9   2.0000      -1.338186       -36.4139
  10   2.0000      -1.322166       -35.9780
  11   2.0000      -1.302929       -35.4545
  12   2.0000      -0.730732       -19.8842
  13   2.0000      -0.727065       -19.7844
  14   2.0000      -0.710718       -19.3396
  15   2.0000      -0.706094       -19.2138
  16   2.0000      -0.695225       -18.9180
  17   2.0000      -0.677874       -18.4459
  18   2.0000      -0.617511       -16.8033
  19   2.0000      -0.600717       -16.3463
  20   2.0000      -0.585452       -15.9309
  21   2.0000      -0.575656       -15.6644
  22   2.0000      -0.573069       -15.5940
  23   2.0000      -0.551412       -15.0047
  24   2.0000      -0.526901       -14.3377
  25   2.0000      -0.515519       -14.0280
  26   2.0000      -0.512627       -13.9493
  27   2.0000      -0.506327       -13.7779
  28   2.0000      -0.478561       -13.0223
  29   2.0000      -0.471854       -12.8398
  30   0.0000       0.091464         2.4889
  31   0.0000       0.116246         3.1632
  32   0.0000       0.139206         3.7880
  33   0.0000       0.145531         3.9601
  34   0.0000       0.176342         4.7985

MULLIKEN ATOMIC CHARGES
-----------------------
   0 O :   -0.698646
   1 H :    0.338764
   2 H :    0.360653
   3 O :   -0.728968
   4 H :    0.373623
   5 H :    0.351852
   6 O :   -0.722817
   7 H :    0.314263
   8 H :    0.363279
   9 O :   -0.691591
  10 H :    0.361390
  11 H :    0.364624
  12 O :   -0.675556
  13 H :    0.336522
  14 H :    0.339360
  15 O :   -0.701054
  16 H :    0.349507
  17 H :    0.364795
Sum of atomic charges:   -0.0000000

LOEWDIN ATOMIC CHARGES
----------------------
   0 O :   -0.344069
   1 H :    0.158267
   2 H :    0.186332
   3 O :   -0.318831
   4 H :    0.148896
   5 H :    0.138646
   6 O :   -0.365446
   7 H :    0.150833
   8 H :    0.142384
   9 O :   -0.289926
  10 H :    0.174460
  11 H :    0.179224
  12 O :   -0.329353
  13 H :    0.162519
  14 H :    0.166867
  15 O :   -0.311447
  16 H :    0.162389
  17 H :    0.188253

  Mayer bond orders larger than 0.100000
B(  0-O ,  1-H ) :   0.8526 B(  0-O ,  2-H ) :   0.8304 B(  3-O ,  4-H ) :   0.8110
B(  3-O ,  5-H ) :   0.7921 B(  3-O ,  8-H ) :   0.1070 B(  6-O ,  7-H ) :   0.8644
B(  6-O ,  8-H ) :   0.7750 B(  9-O , 10-H ) :   0.8346 B(  9-O , 11-H ) :   0.8244
B( 12-O , 13-H ) :   0.8512 B( 12-O , 14-H ) :   0.8502 B( 15-O , 16-H ) :   0.8430
B( 15-O , 17-H ) :   0.8254

MP2 TOTAL ENERGY:     -457.911963701 Eh
FINAL SINGLE POINT ENERGY      -457.911963700951

DIPOLE MOMENT
-------------
                                X             Y             Z
Electronic contribution:     -0.35047      -0.12429      -0.02716
Nuclear contribution   :      0.11171       0.00057      -1.17702
                        -----------------------------------------
Total Dipole Moment    :     -0.23876      -0.12371      -1.20418
                        -----------------------------------------
Magnitude (a.u.)       :      1.23384
Magnitude (Debye)      :      3.13617

Rotational constants in cm-1:     0.045573     0.027997     0.024266
Rotational constants in MHz :  1366.248333   839.318125   727.482008

                             ****ORCA TERMINATED NORMALLY****
TOTAL RUN TIME: 0 days 0 hours 0 minutes 52 seconds 781 msec
