                         Program Version 4.2.0 -  RELEASE  -
|  1> # 12h2o.su.etal.mol0,4,5,6,9
|  2> ! MP2 def2-TZVP EnGrad TightSCF
|  3>
|  4> %pal
|  5>     nprocs 6
|  6> end
|  7>
|  8> %maxcore 8000
|  9>
| 10> %scf
| 11>     ConvForced true
| 12> end
| 13>
| 14> *xyz 0 1
| 15> O   1.794470000   0.923410000   2.768350000
| 16> H   2.338250000   1.359750000   3.430940000
| 17> H   0.879480000   1.303000000   2.865760000
| 18> O  -0.885520000   1.737840000   0.052730000
| 19> H  -1.032320000   2.090180000  -0.841890000
| 20> H  -1.284090000   0.839590000   0.017130000
| 21> O   0.885520000  -1.737840000   0.052730000
| 22> H   1.284090000  -0.839590000   0.017130000
| 23> H   1.032320000  -2.090180000  -0.841890000
| 24> O   1.737840000   0.885520000  -0.052730000
| 25> H   2.090180000   1.032320000   0.841890000
| 26> H   0.839590000   1.284090000  -0.017130000
| 27> O   0.741530000  -1.752130000   2.896280000
| 28> H   0.920500000  -2.036450000   1.984040000
| 29> H   1.242140000  -0.921210000   2.984230000
| 30> *
| 31>
| 32>                          ****END OF INPUT****

CARTESIAN COORDINATES (ANGSTROEM)
---------------------------------
  O      1.794470    0.923410    2.768350
  H      2.338250    1.359750    3.430940
  H      0.879480    1.303000    2.865760
  O     -0.885520    1.737840    0.052730
  H     -1.032320    2.090180   -0.841890
  H     -1.284090    0.839590    0.017130
  O      0.885520   -1.737840    0.052730
  H      1.284090   -0.839590    0.017130
  H      1.032320   -2.090180   -0.841890
  O      1.737840    0.885520   -0.052730
  H      2.090180    1.032320    0.841890
  H      0.839590    1.284090   -0.017130
  O      0.741530   -1.752130    2.896280
  H      0.920500   -2.036450    1.984040
  H      1.242140   -0.921210    2.984230

 Total Charge           Charge          ....    0
 Multiplicity           Mult            ....    1
 Number of Electrons    NEL             ....   50
 Basis Dimension        Dim             ....  215

ORBITAL ENERGIES
----------------

  NO   OCC          E(Eh)            E(eV)
   0   2.0000     -20.606821      -560.7401
   1   2.0000     -20.605443      -560.7026
   2   2.0000     -20.544708      -559.0499
   3   2.0000     -20.538395      -558.8781
   4   2.0000     -20.499270      -557.8135
   5   2.0000      -1.387864       -37.7657
   6   2.0000      -1.385719       -37.7073
   7   2.0000      -1.336625       -36.3714
   8   2.0000      -1.318630       -35.8818
   9   2.0000      -1.284306       -34.9478
  10   2.0000      -0.752712       -20.4823
  11   2.0000      -0.743603       -20.2345
  12   2.0000      -0.709799       -19.3146
  13   2.0000      -0.693761       -18.8782
  14   2.0000      -0.664290       -18.0763
  15   2.0000      -0.636238       -17.3129
  16   2.0000      -0.619715       -16.8633
  17   2.0000      -0.584264       -15.8986
  18   2.0000      -0.578783       -15.7495
  19   2.0000      -0.545761       -14.8509
  20   2.0000      -0.530508       -14.4358
  21   2.0000      -0.515390       -14.0245
  22   2.0000      -0.492747       -13.4083
  23   2.0000      -0.484747       -13.1906
  24   2.0000      -0.449157       -12.2222
  25   0.0000       0.094760         2.5786
  26   0.0000       0.120222         3.2714
  27   0.0000       0.158091         4.3019
  28   0.0000       0.179786         4.8922
  29   0.0000       0.196222         5.3395

MULLIKEN ATOMIC CHARGES
-----------------------
   0 O :   -0.714192
   1 H :    0.362528
   2 H :    0.373705
   3 O :   -0.694250
   4 H :    0.360868
   5 H :    0.370728
   6 O :   -0.731557
   7 H :    0.356270
   8 H :    0.332507
   9 O :   -0.723086
  10 H :    0.373758
  11 H :    0.353044
  12 O :   -0.727261
  13 H :    0.369846
  14 H :    0.337093
Sum of atomic charges:    0.0000000

LOEWDIN ATOMIC CHARGES
----------------------
   0 O :   -0.287150
   1 H :    0.167034
   2 H :    0.192715
   3 O :   -0.292405
   4 H :    0.175101
   5 H :    0.184657
   6 O :   -0.345819
   7 H :    0.141991
   8 H :    0.160223
   9 O :   -0.315822
  10 H :    0.148282
  11 H :    0.138824
  12 O :   -0.356763
  13 H :    0.151350
  14 H :    0.137783

  Mayer bond orders larger than 0.100000
B(  0-O ,  1-H ) :   0.8329 B(  0-O ,  2-H ) :   0.8182 B(  3-O ,  4-H ) :   0.8360
B(  3-O ,  5-H ) :   0.8235 B(  6-O ,  7-H ) :   0.7674 B(  6-O ,  8-H ) :   0.8520
B(  7-H ,  9-O ) :   0.1074 B(  9-O , 10-H ) :   0.8132 B(  9-O , 11-H ) :   0.7932
B( 12-O , 13-H ) :   0.8193 B( 12-O , 14-H ) :   0.8408

MP2 TOTAL ENERGY:     -381.604878711 Eh
FINAL SINGLE POINT ENERGY      -381.604878711118

DIPOLE MOMENT
-------------
                                X             Y             Z
Electronic contribution:     -0.07606       0.23309       0.12910
Nuclear contribution   :     -0.19772       1.58806      -0.82779
                        -----------------------------------------
Total Dipole Moment    :     -0.27378       1.82115      -0.69869
                        -----------------------------------------
Magnitude (a.u.)       :      1.96970
Magnitude (Debye)      :      5.00659

Rotational constants in cm-1:     0.078000     0.054166     0.043436
Rotational constants in MHz :  2338.386682  1623.869314  1302.187669

                             ****ORCA TERMINATED NORMALLY****
TOTAL RUN TIME: 0 days 0 hours 1 minutes 4 seconds 949 msec
