                         Program Version 4.2.0 -  RELEASE  -
|  1> # 12h2o.su.etal.mol1,5
|  2> ! MP2 def2-TZVP EnGrad TightSCF
|  3>
|  4> %pal
|  5>     nprocs 6
|  6> end
|  7>
|  8> %maxcore 8000
|  9>
| 10> %scf
| 11>     ConvForced true
| 12> end
| 13>
| 14> *xyz 0 1
| 15> O  -1.794470000  -0.923410000   2.768350000
| 16> H  -2.338250000  -1.359750000   3.430940000
| 17> H  -0.879480000  -1.303000000   2.865760000
| 18> O   0.885520000  -1.737840000   0.052730000
| 19> H   1.284090000  -0.839590000   0.017130000
| 20> H   1.032320000  -2.090180000  -0.841890000
| 21> *
| 22>
| 23>                          ****END OF INPUT****

CARTESIAN COORDINATES (ANGSTROEM)
---------------------------------
  O     -1.794470   -0.923410    2.768350
  H     -2.338250   -1.359750    3.430940
  H     -0.879480   -1.303000    2.865760
  O      0.885520   -1.737840    0.052730
  H      1.284090   -0.839590    0.017130
  H      1.032320   -2.090180   -0.841890

 Total Charge           Charge          ....    0
 Multiplicity           Mult            ....    1
 Number of Electrons    NEL             ....   20
 Basis Dimension        Dim             ....   86

ORBITAL ENERGIES
----------------

  NO   OCC          E(Eh)            E(eV)
   0   2.0000     -20.564476      -559.5878
   1   2.0000     -20.550353      -559.2035
   2   2.0000      -1.340476       -36.4762
   3   2.0000      -1.325736       -36.0751
   4   2.0000      -0.702783       -19.1237
   5   2.0000      -0.693914       -18.8823
   6   2.0000      -0.580171       -15.7873
   7   2.0000      -0.561858       -15.2889
   8   2.0000      -0.507240       -13.8027
   9   2.0000      -0.493464       -13.4278
  10   0.0000       0.118579         3.2267
  11   0.0000       0.146328         3.9818
  12   0.0000       0.195136         5.3099
  13   0.0000       0.217918         5.9299
  14   0.0000       0.497971        13.5505

MULLIKEN ATOMIC CHARGES
-----------------------
   0 O :   -0.683645
   1 H :    0.333798
   2 H :    0.348445
   3 O :   -0.675752
   4 H :    0.339164
   5 H :    0.337990
Sum of atomic charges:   -0.0000000

LOEWDIN ATOMIC CHARGES
----------------------
   0 O :   -0.339517
   1 H :    0.155594
   2 H :    0.182393
   3 O :   -0.337369
   4 H :    0.172922
   5 H :    0.165975

  Mayer bond orders larger than 0.100000
B(  0-O ,  1-H ) :   0.8558 B(  0-O ,  2-H ) :   0.8409 B(  3-O ,  4-H ) :   0.8500
B(  3-O ,  5-H ) :   0.8526

MP2 TOTAL ENERGY:     -152.625610696 Eh
FINAL SINGLE POINT ENERGY      -152.625610696198

DIPOLE MOMENT
-------------
                                X             Y             Z
Electronic contribution:     -0.11883       0.02358       0.00154
Nuclear contribution   :      0.76293      -0.22475      -0.14168
                        -----------------------------------------
Total Dipole Moment    :      0.64410      -0.20118      -0.14015
                        -----------------------------------------
Magnitude (a.u.)       :      0.68919
Magnitude (Debye)      :      1.75177

Rotational constants in cm-1:     7.970006     0.117417     0.116961
Rotational constants in MHz : 238934.755561  3520.061685  3506.400706

                             ****ORCA TERMINATED NORMALLY****
TOTAL RUN TIME: 0 days 0 hours 0 minutes 6 seconds 654 msec
