                         Program Version 3.0.3 - RELEASE   -
|  1> ! wB97X-D3 Def2-TZVP def2-TZVP/J RIJCOSX TightSCF Grid4
|  2>
|  3> %pal nprocs 12 end
|  4>
|  5> %scf
|  6>         maxiter 400
|  7> end
|  8>
|  9> * xyz  0  1
| 10> O  1.314026	-0.915529	2.955476
| 11> H  2.103081	-0.672157	2.422893
| 12> H  0.779996	-1.452800	2.331339
| 13> O  -1.600409	0.511141	0.937034
| 14> H  -1.324290	0.915658	1.789952
| 15> H  -1.084764	-0.341513	0.931126
| 16> O  1.823769	2.402542	1.291382
| 17> H  1.295162	2.426309	0.466435
| 18> H  1.158317	2.206048	1.988346
| 19> O  0.126766	1.690942	-0.749382
| 20> H  -0.348556	1.722536	-1.609357
| 21> H  -0.561097	1.331306	-0.125162
| 22> O  -0.080233	-1.677927	0.767342
| 23> H  0.579984	-1.325623	0.109090
| 24> H  -0.675867	-2.218770	0.200600
| 25> O  3.134234	0.143205	1.149588
| 26> H  2.716108	1.063541	1.212301
| 27> H  4.085269	0.269040	1.267365
| 28> O  1.584213	-0.546450	-0.970531
| 29> H  1.112464	0.330205	-0.941115
| 30> H  2.362267	-0.412882	-0.382339
| 31> O  -0.048063	-1.392998	-3.016402
| 32> H  0.746791	-1.196881	-2.476470
| 33> H  -0.464071	-0.516382	-3.174555
| 34> O  -3.171341	-0.110019	-1.242442
| 35> H  -2.880566	0.226910	-0.368067
| 36> H  -2.828862	-1.031526	-1.242696
| 37> O  -1.429596	0.984808	-2.869471
| 38> H  -2.162032	0.603661	-2.282964
| 39> H  -1.877576	1.494787	-3.557520
| 40> O  -1.655058	-2.432240	-1.270179
| 41> H  -1.961964	-3.294187	-1.582035
| 42> H  -1.029459	-2.088175	-1.991967
| 43> O  -0.034283	1.301563	3.022157
| 44> H  0.484831	0.431260	3.072891
| 45> H  -0.189189	1.570596	3.937338
| 46> **                         ****END OF INPUT****

CARTESIAN COORDINATES (ANGSTROEM)
---------------------------------
  O      1.314026   -0.915529    2.955476
  H      2.103081   -0.672157    2.422893
  H      0.779996   -1.452800    2.331339
  O     -1.600409    0.511141    0.937034
  H     -1.324290    0.915658    1.789952
  H     -1.084764   -0.341513    0.931126
  O      1.823769    2.402542    1.291382
  H      1.295162    2.426309    0.466435
  H      1.158317    2.206048    1.988346
  O      0.126766    1.690942   -0.749382
  H     -0.348556    1.722536   -1.609357
  H     -0.561097    1.331306   -0.125162
  O     -0.080233   -1.677927    0.767342
  H      0.579984   -1.325623    0.109090
  H     -0.675867   -2.218770    0.200600
  O      3.134234    0.143205    1.149588
  H      2.716108    1.063541    1.212301
  H      4.085269    0.269040    1.267365
  O      1.584213   -0.546450   -0.970531
  H      1.112464    0.330205   -0.941115
  H      2.362267   -0.412882   -0.382339
  O     -0.048063   -1.392998   -3.016402
  H      0.746791   -1.196881   -2.476470
  H     -0.464071   -0.516382   -3.174555
  O     -3.171341   -0.110019   -1.242442
  H     -2.880566    0.226910   -0.368067
  H     -2.828862   -1.031526   -1.242696
  O     -1.429596    0.984808   -2.869471
  H     -2.162032    0.603661   -2.282964
  H     -1.877576    1.494787   -3.557520
  O     -1.655058   -2.432240   -1.270179
  H     -1.961964   -3.294187   -1.582035
  H     -1.029459   -2.088175   -1.991967
  O     -0.034283    1.301563    3.022157
  H      0.484831    0.431260    3.072891
  H     -0.189189    1.570596    3.937338

 Total Charge           Charge          ....    0
 Multiplicity           Mult            ....    1
 Number of Electrons    NEL             ....  120
 Basis Dimension        Dim             ....  516

ORBITAL ENERGIES
----------------

  NO   OCC          E(Eh)            E(eV)
   0   2.0000     -19.250459      -523.8316
   1   2.0000     -19.249735      -523.8119
   2   2.0000     -19.247951      -523.7634
   3   2.0000     -19.245646      -523.7007
   4   2.0000     -19.236256      -523.4452
   5   2.0000     -19.235597      -523.4272
   6   2.0000     -19.233278      -523.3641
   7   2.0000     -19.232841      -523.3522
   8   2.0000     -19.231501      -523.3157
   9   2.0000     -19.228979      -523.2471
  10   2.0000     -19.228776      -523.2416
  11   2.0000     -19.227370      -523.2033
  12   2.0000      -1.157713       -31.5030
  13   2.0000      -1.148827       -31.2612
  14   2.0000      -1.142696       -31.0943
  15   2.0000      -1.140969       -31.0473
  16   2.0000      -1.137123       -30.9427
  17   2.0000      -1.127880       -30.6912
  18   2.0000      -1.127756       -30.6878
  19   2.0000      -1.118094       -30.4249
  20   2.0000      -1.115924       -30.3658
  21   2.0000      -1.114763       -30.3343
  22   2.0000      -1.110448       -30.2168
  23   2.0000      -1.099201       -29.9108
  24   2.0000      -0.657868       -17.9015
  25   2.0000      -0.654780       -17.8175
  26   2.0000      -0.652342       -17.7511
  27   2.0000      -0.651371       -17.7247
  28   2.0000      -0.644692       -17.5430
  29   2.0000      -0.641553       -17.4575
  30   2.0000      -0.638517       -17.3749
  31   2.0000      -0.636185       -17.3115
  32   2.0000      -0.631692       -17.1892
  33   2.0000      -0.626204       -17.0399
  34   2.0000      -0.621976       -16.9248
  35   2.0000      -0.619411       -16.8550
  36   2.0000      -0.571875       -15.5615
  37   2.0000      -0.549814       -14.9612
  38   2.0000      -0.538455       -14.6521
  39   2.0000      -0.535681       -14.5766
  40   2.0000      -0.515600       -14.0302
  41   2.0000      -0.514689       -14.0054
  42   2.0000      -0.513895       -13.9838
  43   2.0000      -0.513144       -13.9634
  44   2.0000      -0.486896       -13.2491
  45   2.0000      -0.485835       -13.2202
  46   2.0000      -0.478991       -13.0340
  47   2.0000      -0.453243       -12.3334
  48   2.0000      -0.435283       -11.8447
  49   2.0000      -0.434159       -11.8141
  50   2.0000      -0.432327       -11.7642
  51   2.0000      -0.431398       -11.7389
  52   2.0000      -0.427245       -11.6259
  53   2.0000      -0.424095       -11.5402
  54   2.0000      -0.423676       -11.5288
  55   2.0000      -0.416670       -11.3382
  56   2.0000      -0.415679       -11.3112
  57   2.0000      -0.414533       -11.2800
  58   2.0000      -0.413446       -11.2504
  59   2.0000      -0.412206       -11.2167
  60   0.0000       0.082388         2.2419
  61   0.0000       0.104944         2.8557
  62   0.0000       0.119496         3.2517
  63   0.0000       0.119890         3.2624
  64   0.0000       0.159002         4.3267

MULLIKEN ATOMIC CHARGES
-----------------------
   0 O :   -0.690183
   1 H :    0.358430
   2 H :    0.385188
   3 O :   -0.744267
   4 H :    0.379491
   5 H :    0.350202
   6 O :   -0.696898
   7 H :    0.383528
   8 H :    0.358816
   9 O :   -0.747467
  10 H :    0.377914
  11 H :    0.347003
  12 O :   -0.749194
  13 H :    0.348960
  14 H :    0.379436
  15 O :   -0.752208
  16 H :    0.370637
  17 H :    0.352699
  18 O :   -0.743781
  19 H :    0.350079
  20 H :    0.378712
  21 O :   -0.690936
  22 H :    0.385229
  23 H :    0.363557
  24 O :   -0.688590
  25 H :    0.383070
  26 H :    0.356518
  27 O :   -0.753318
  28 H :    0.366572
  29 H :    0.353685
  30 O :   -0.754410
  31 H :    0.352709
  32 H :    0.365617
  33 O :   -0.755979
  34 H :    0.367372
  35 H :    0.351807
Sum of atomic charges:   -0.0000000

LOEWDIN ATOMIC CHARGES
----------------------
   0 O :   -0.270502
   1 H :    0.142471
   2 H :    0.148471
   3 O :   -0.295982
   4 H :    0.146971
   5 H :    0.131855
   6 O :   -0.275795
   7 H :    0.149592
   8 H :    0.142150
   9 O :   -0.293907
  10 H :    0.145386
  11 H :    0.133661
  12 O :   -0.290949
  13 H :    0.130617
  14 H :    0.143501
  15 O :   -0.303272
  16 H :    0.140987
  17 H :    0.160645
  18 O :   -0.291660
  19 H :    0.132333
  20 H :    0.145531
  21 O :   -0.266410
  22 H :    0.151093
  23 H :    0.142903
  24 O :   -0.275791
  25 H :    0.151222
  26 H :    0.142034
  27 O :   -0.303482
  28 H :    0.141413
  29 H :    0.161079
  30 O :   -0.302266
  31 H :    0.160038
  32 H :    0.136627
  33 O :   -0.307375
  34 H :    0.137219
  35 H :    0.159592

  Mayer bond orders larger than 0.1
B(  0-O ,  1-H ) :   0.8335 B(  0-O ,  2-H ) :   0.8259 B(  0-O , 34-H ) :   0.1853
B(  3-O ,  4-H ) :   0.8201 B(  3-O ,  5-H ) :   0.7770 B(  3-O , 11-H ) :   0.1497
B(  5-H , 12-O ) :   0.1476 B(  6-O ,  7-H ) :   0.8306 B(  6-O ,  8-H ) :   0.8282
B(  6-O , 16-H ) :   0.1699 B(  9-O , 10-H ) :   0.8172 B(  9-O , 11-H ) :   0.7759
B(  9-O , 19-H ) :   0.1396 B( 12-O , 13-H ) :   0.7721 B( 12-O , 14-H ) :   0.8133
B( 13-H , 18-O ) :   0.1531 B( 15-O , 16-H ) :   0.7396 B( 15-O , 17-H ) :   0.8814
B( 18-O , 19-H ) :   0.7805 B( 18-O , 20-H ) :   0.8146 B( 21-O , 22-H ) :   0.8292
B( 21-O , 23-H ) :   0.8277 B( 21-O , 32-H ) :   0.1879 B( 24-O , 25-H ) :   0.8329
B( 24-O , 26-H ) :   0.8337 B( 24-O , 28-H ) :   0.1800 B( 27-O , 28-H ) :   0.7370
B( 27-O , 29-H ) :   0.8808 B( 30-O , 31-H ) :   0.8818 B( 30-O , 32-H ) :   0.7299
B( 33-O , 34-H ) :   0.7311 B( 33-O , 35-H ) :   0.8824

Dispersion correction           -0.022134012
FINAL SINGLE POINT ENERGY      -917.482283771527

DIPOLE MOMENT
-------------
                                X             Y             Z
Electronic contribution:     -0.00879      -0.03831      -0.04911
Nuclear contribution   :      0.08983       0.10228      -0.01142
                        -----------------------------------------
Total Dipole Moment    :      0.08104       0.06398      -0.06052
                        -----------------------------------------
Magnitude (a.u.)       :      0.11968
Magnitude (Debye)      :      0.30420

                             ****ORCA TERMINATED NORMALLY****
TOTAL RUN TIME: 0 days 0 hours 1 minutes 28 seconds 52 msec
