                         Program Version 3.0.3 - RELEASE   -
|  1> ! wB97X-D3 Def2-TZVP def2-TZVP/J RIJCOSX TightSCF Grid4 COSMO
|  2>
|  3> %pal nprocs 12 end
|  4>
|  5> %scf
|  6>         maxiter 400
|  7> end
|  8>
|  9> %cosmo
| 10>         SMD true
| 11>         solvent "WATER"
| 12> end
| 13>
| 14> * xyz  0  1
| 15> O  1.298577	-0.971910	2.896841
| 16> H  2.057231	-0.638709	2.329770
| 17> H  0.740971	-1.462002	2.234015
| 18> O  -1.519307	0.516761	0.961792
| 19> H  -1.164106	0.909849	1.816778
| 20> H  -1.038366	-0.378700	0.925294
| 21> O  1.806466	2.482295	1.280102
| 22> H  1.256354	2.444585	0.452164
| 23> H  1.147159	2.196604	1.981909
| 24> O  0.118393	1.721761	-0.733472
| 25> H  -0.376412	1.674974	-1.606972
| 26> H  -0.556446	1.323677	-0.083864
| 27> O  -0.139283	-1.728456	0.704773
| 28> H  0.539833	-1.328321	0.061480
| 29> H  -0.760299	-2.214712	0.080089
| 30> O  3.022482	0.175720	1.155277
| 31> H  2.642115	1.129566	1.213905
| 32> H  3.987717	0.267767	1.280608
| 33> O  1.538215	-0.502566	-0.936513
| 34> H  1.050280	0.390036	-0.901725
| 35> H  2.305648	-0.352140	-0.305809
| 36> O  0.000535	-1.413499	-3.004272
| 37> H  0.751448	-1.191429	-2.390662
| 38> H  -0.462420	-0.527920	-3.099750
| 39> O  -3.106105	-0.101441	-1.163707
| 40> H  -2.744259	0.218091	-0.293665
| 41> H  -2.742741	-1.035770	-1.212501
| 42> O  -1.342204	0.921150	-2.795437
| 43> H  -2.113175	0.567578	-2.213007
| 44> H  -1.766879	1.410955	-3.527118
| 45> O  -1.717062	-2.413070	-1.312919
| 46> H  -2.038413	-3.291109	-1.597310
| 47> H  -1.049853	-2.110814	-2.035860
| 48> O  0.038831	1.313258	2.945680
| 49> H  0.521937	0.409669	3.037836
| 50> H  -0.186860	1.588271	3.856250
| 51> **                         ****END OF INPUT****

CARTESIAN COORDINATES (ANGSTROEM)
---------------------------------
  O      1.298577   -0.971910    2.896841
  H      2.057231   -0.638709    2.329770
  H      0.740971   -1.462002    2.234015
  O     -1.519307    0.516761    0.961792
  H     -1.164106    0.909849    1.816778
  H     -1.038366   -0.378700    0.925294
  O      1.806466    2.482295    1.280102
  H      1.256354    2.444585    0.452164
  H      1.147159    2.196604    1.981909
  O      0.118393    1.721761   -0.733472
  H     -0.376412    1.674974   -1.606972
  H     -0.556446    1.323677   -0.083864
  O     -0.139283   -1.728456    0.704773
  H      0.539833   -1.328321    0.061480
  H     -0.760299   -2.214712    0.080089
  O      3.022482    0.175720    1.155277
  H      2.642115    1.129566    1.213905
  H      3.987717    0.267767    1.280608
  O      1.538215   -0.502566   -0.936513
  H      1.050280    0.390036   -0.901725
  H      2.305648   -0.352140   -0.305809
  O      0.000535   -1.413499   -3.004272
  H      0.751448   -1.191429   -2.390662
  H     -0.462420   -0.527920   -3.099750
  O     -3.106105   -0.101441   -1.163707
  H     -2.744259    0.218091   -0.293665
  H     -2.742741   -1.035770   -1.212501
  O     -1.342204    0.921150   -2.795437
  H     -2.113175    0.567578   -2.213007
  H     -1.766879    1.410955   -3.527118
  O     -1.717062   -2.413070   -1.312919
  H     -2.038413   -3.291109   -1.597310
  H     -1.049853   -2.110814   -2.035860
  O      0.038831    1.313258    2.945680
  H      0.521937    0.409669    3.037836
  H     -0.186860    1.588271    3.856250

 Total Charge           Charge          ....    0
 Multiplicity           Mult            ....    1
 Number of Electrons    NEL             ....  120
 Basis Dimension        Dim             ....  516

ORBITAL ENERGIES
----------------

  NO   OCC          E(Eh)            E(eV)
   0   2.0000     -19.240333      -523.5561
   1   2.0000     -19.239914      -523.5447
   2   2.0000     -19.239810      -523.5418
   3   2.0000     -19.239763      -523.5406
   4   2.0000     -19.232293      -523.3373
   5   2.0000     -19.232207      -523.3350
   6   2.0000     -19.232098      -523.3320
   7   2.0000     -19.231845      -523.3251
   8   2.0000     -19.231838      -523.3249
   9   2.0000     -19.231592      -523.3182
  10   2.0000     -19.231578      -523.3178
  11   2.0000     -19.231543      -523.3169
  12   2.0000      -1.151700       -31.3393
  13   2.0000      -1.140630       -31.0381
  14   2.0000      -1.131516       -30.7901
  15   2.0000      -1.131301       -30.7843
  16   2.0000      -1.127287       -30.6751
  17   2.0000      -1.119977       -30.4761
  18   2.0000      -1.119851       -30.4727
  19   2.0000      -1.109541       -30.1922
  20   2.0000      -1.106479       -30.1088
  21   2.0000      -1.106325       -30.1046
  22   2.0000      -1.101319       -29.9684
  23   2.0000      -1.086318       -29.5602
  24   2.0000      -0.646089       -17.5810
  25   2.0000      -0.640483       -17.4284
  26   2.0000      -0.640096       -17.4179
  27   2.0000      -0.639746       -17.4084
  28   2.0000      -0.639081       -17.3903
  29   2.0000      -0.629728       -17.1358
  30   2.0000      -0.628800       -17.1105
  31   2.0000      -0.628676       -17.1072
  32   2.0000      -0.624884       -17.0040
  33   2.0000      -0.617562       -16.8047
  34   2.0000      -0.614466       -16.7205
  35   2.0000      -0.614273       -16.7152
  36   2.0000      -0.573335       -15.6012
  37   2.0000      -0.549528       -14.9534
  38   2.0000      -0.536064       -14.5870
  39   2.0000      -0.535847       -14.5811
  40   2.0000      -0.516881       -14.0650
  41   2.0000      -0.512062       -13.9339
  42   2.0000      -0.511926       -13.9302
  43   2.0000      -0.508480       -13.8365
  44   2.0000      -0.484012       -13.1706
  45   2.0000      -0.483785       -13.1645
  46   2.0000      -0.478923       -13.0322
  47   2.0000      -0.453105       -12.3296
  48   2.0000      -0.425259       -11.5719
  49   2.0000      -0.424937       -11.5631
  50   2.0000      -0.424787       -11.5590
  51   2.0000      -0.423034       -11.5113
  52   2.0000      -0.422407       -11.4943
  53   2.0000      -0.422360       -11.4930
  54   2.0000      -0.419296       -11.4096
  55   2.0000      -0.416773       -11.3410
  56   2.0000      -0.415140       -11.2965
  57   2.0000      -0.415070       -11.2946
  58   2.0000      -0.411574       -11.1995
  59   2.0000      -0.410853       -11.1799
  60   0.0000       0.095377         2.5953
  61   0.0000       0.126334         3.4377
  62   0.0000       0.146291         3.9808
  63   0.0000       0.146305         3.9812
  64   0.0000       0.180706         4.9173

MULLIKEN ATOMIC CHARGES
-----------------------
   0 O :   -0.757406
   1 H :    0.381174
   2 H :    0.400455
   3 O :   -0.794998
   4 H :    0.401477
   5 H :    0.365725
   6 O :   -0.757539
   7 H :    0.399958
   8 H :    0.381935
   9 O :   -0.793480
  10 H :    0.401596
  11 H :    0.364375
  12 O :   -0.795075
  13 H :    0.364606
  14 H :    0.401103
  15 O :   -0.784591
  16 H :    0.379817
  17 H :    0.407811
  18 O :   -0.793401
  19 H :    0.364860
  20 H :    0.401020
  21 O :   -0.756830
  22 H :    0.399696
  23 H :    0.382130
  24 O :   -0.757603
  25 H :    0.400207
  26 H :    0.381960
  27 O :   -0.784485
  28 H :    0.379524
  29 H :    0.407732
  30 O :   -0.784388
  31 H :    0.407995
  32 H :    0.379736
  33 O :   -0.783662
  34 H :    0.380367
  35 H :    0.408201
Sum of atomic charges:   -0.0000000

LOEWDIN ATOMIC CHARGES
----------------------
   0 O :   -0.320094
   1 H :    0.150431
   2 H :    0.155837
   3 O :   -0.323510
   4 H :    0.152372
   5 H :    0.140044
   6 O :   -0.320214
   7 H :    0.156358
   8 H :    0.149744
   9 O :   -0.324043
  10 H :    0.152902
  11 H :    0.139874
  12 O :   -0.324799
  13 H :    0.139772
  14 H :    0.152572
  15 O :   -0.297844
  16 H :    0.150476
  17 H :    0.190487
  18 O :   -0.323538
  19 H :    0.139929
  20 H :    0.153135
  21 O :   -0.319165
  22 H :    0.156026
  23 H :    0.150417
  24 O :   -0.320035
  25 H :    0.155131
  26 H :    0.149881
  27 O :   -0.296835
  28 H :    0.150841
  29 H :    0.190440
  30 O :   -0.295999
  31 H :    0.190543
  32 H :    0.150705
  33 O :   -0.293711
  34 H :    0.150978
  35 H :    0.190894

  Mayer bond orders larger than 0.1
B(  0-O ,  1-H ) :   0.7911 B(  0-O ,  2-H ) :   0.8087 B(  0-O , 34-H ) :   0.1685
B(  1-H , 15-O ) :   0.1106 B(  3-O ,  4-H ) :   0.7716 B(  3-O ,  5-H ) :   0.7516
B(  3-O , 11-H ) :   0.1570 B(  4-H , 33-O ) :   0.1137 B(  5-H , 12-O ) :   0.1561
B(  6-O ,  7-H ) :   0.8100 B(  6-O ,  8-H ) :   0.7900 B(  6-O , 16-H ) :   0.1675
B(  8-H , 33-O ) :   0.1112 B(  9-O , 10-H ) :   0.7738 B(  9-O , 11-H ) :   0.7523
B(  9-O , 19-H ) :   0.1577 B( 10-H , 27-O ) :   0.1108 B( 12-O , 13-H ) :   0.7520
B( 12-O , 14-H ) :   0.7720 B( 13-H , 18-O ) :   0.1569 B( 14-H , 30-O ) :   0.1138
B( 15-O , 16-H ) :   0.7333 B( 15-O , 17-H ) :   0.8371 B( 15-O , 20-H ) :   0.1108
B( 18-O , 19-H ) :   0.7513 B( 18-O , 20-H ) :   0.7742 B( 21-O , 22-H ) :   0.8093
B( 21-O , 23-H ) :   0.7904 B( 21-O , 32-H ) :   0.1689 B( 23-H , 27-O ) :   0.1104
B( 24-O , 25-H ) :   0.8084 B( 24-O , 26-H ) :   0.7913 B( 24-O , 28-H ) :   0.1682
B( 26-H , 30-O ) :   0.1095 B( 27-O , 28-H ) :   0.7331 B( 27-O , 29-H ) :   0.8372
B( 30-O , 31-H ) :   0.8369 B( 30-O , 32-H ) :   0.7323 B( 33-O , 34-H ) :   0.7323
B( 33-O , 35-H ) :   0.8367

Dispersion correction           -0.022784548
FINAL SINGLE POINT ENERGY      -917.502445420668

DIPOLE MOMENT
-------------
                                X             Y             Z
Electronic contribution:     -0.00175      -0.00011       0.00763
Nuclear contribution   :      0.00116      -0.00001       0.00463
                        -----------------------------------------
Total Dipole Moment    :     -0.00060      -0.00012       0.01227
                        -----------------------------------------
Magnitude (a.u.)       :      0.01228
Magnitude (Debye)      :      0.03122

                             ****ORCA TERMINATED NORMALLY****
TOTAL RUN TIME: 0 days 0 hours 1 minutes 35 seconds 681 msec
