                         Program Version 3.0.3 - RELEASE   -
|  1> ! wB97X-D3 MA-Def2-TZVP def2-TZVP/J RIJCOSX TightSCF Grid4
|  2>
|  3> %pal nprocs 1 end
|  4>
|  5> %scf
|  6>         maxiter 400
|  7> end
|  8>
|  9> %cosmo
| 10>         SMD true
| 11>         solvent "WATER"
| 12> end
| 13>
| 14> * xyz  0  1
| 15> O  1.298577	-0.971910	2.896841
| 16> H  2.057231	-0.638709	2.329770
| 17> H  0.740971	-1.462002	2.234015
| 18> O  -1.519307	0.516761	0.961792
| 19> H  -1.164106	0.909849	1.816778
| 20> H  -1.038366	-0.378700	0.925294
| 21> O  1.806466	2.482295	1.280102
| 22> H  1.256354	2.444585	0.452164
| 23> H  1.147159	2.196604	1.981909
| 24> O  0.118393	1.721761	-0.733472
| 25> H  -0.376412	1.674974	-1.606972
| 26> H  -0.556446	1.323677	-0.083864
| 27> O  -0.139283	-1.728456	0.704773
| 28> H  0.539833	-1.328321	0.061480
| 29> H  -0.760299	-2.214712	0.080089
| 30> O  3.022482	0.175720	1.155277
| 31> H  2.642115	1.129566	1.213905
| 32> H  3.987717	0.267767	1.280608
| 33> O  1.538215	-0.502566	-0.936513
| 34> H  1.050280	0.390036	-0.901725
| 35> H  2.305648	-0.352140	-0.305809
| 36> O  0.000535	-1.413499	-3.004272
| 37> H  0.751448	-1.191429	-2.390662
| 38> H  -0.462420	-0.527920	-3.099750
| 39> O  -3.106105	-0.101441	-1.163707
| 40> H  -2.744259	0.218091	-0.293665
| 41> H  -2.742741	-1.035770	-1.212501
| 42> O  -1.342204	0.921150	-2.795437
| 43> H  -2.113175	0.567578	-2.213007
| 44> H  -1.766879	1.410955	-3.527118
| 45> O  -1.717062	-2.413070	-1.312919
| 46> H  -2.038413	-3.291109	-1.597310
| 47> H  -1.049853	-2.110814	-2.035860
| 48> O  0.038831	1.313258	2.945680
| 49> H  0.521937	0.409669	3.037836
| 50> H  -0.186860	1.588271	3.856250
| 51> **                         ****END OF INPUT****

CARTESIAN COORDINATES (ANGSTROEM)
---------------------------------
  O      1.298577   -0.971910    2.896841
  H      2.057231   -0.638709    2.329770
  H      0.740971   -1.462002    2.234015
  O     -1.519307    0.516761    0.961792
  H     -1.164106    0.909849    1.816778
  H     -1.038366   -0.378700    0.925294
  O      1.806466    2.482295    1.280102
  H      1.256354    2.444585    0.452164
  H      1.147159    2.196604    1.981909
  O      0.118393    1.721761   -0.733472
  H     -0.376412    1.674974   -1.606972
  H     -0.556446    1.323677   -0.083864
  O     -0.139283   -1.728456    0.704773
  H      0.539833   -1.328321    0.061480
  H     -0.760299   -2.214712    0.080089
  O      3.022482    0.175720    1.155277
  H      2.642115    1.129566    1.213905
  H      3.987717    0.267767    1.280608
  O      1.538215   -0.502566   -0.936513
  H      1.050280    0.390036   -0.901725
  H      2.305648   -0.352140   -0.305809
  O      0.000535   -1.413499   -3.004272
  H      0.751448   -1.191429   -2.390662
  H     -0.462420   -0.527920   -3.099750
  O     -3.106105   -0.101441   -1.163707
  H     -2.744259    0.218091   -0.293665
  H     -2.742741   -1.035770   -1.212501
  O     -1.342204    0.921150   -2.795437
  H     -2.113175    0.567578   -2.213007
  H     -1.766879    1.410955   -3.527118
  O     -1.717062   -2.413070   -1.312919
  H     -2.038413   -3.291109   -1.597310
  H     -1.049853   -2.110814   -2.035860
  O      0.038831    1.313258    2.945680
  H      0.521937    0.409669    3.037836
  H     -0.186860    1.588271    3.856250

 Total Charge           Charge          ....    0
 Multiplicity           Mult            ....    1
 Number of Electrons    NEL             ....  120
 Basis Dimension        Dim             ....  564

ORBITAL ENERGIES
----------------

  NO   OCC          E(Eh)            E(eV)
   0   2.0000     -19.242012      -523.6018
   1   2.0000     -19.241620      -523.5911
   2   2.0000     -19.241507      -523.5880
   3   2.0000     -19.241470      -523.5870
   4   2.0000     -19.234246      -523.3905
   5   2.0000     -19.234155      -523.3880
   6   2.0000     -19.234041      -523.3849
   7   2.0000     -19.233794      -523.3781
   8   2.0000     -19.233295      -523.3646
   9   2.0000     -19.233045      -523.3578
  10   2.0000     -19.233023      -523.3572
  11   2.0000     -19.232987      -523.3562
  12   2.0000      -1.152781       -31.3688
  13   2.0000      -1.141791       -31.0697
  14   2.0000      -1.132584       -30.8192
  15   2.0000      -1.132370       -30.8133
  16   2.0000      -1.128360       -30.7042
  17   2.0000      -1.121158       -30.5083
  18   2.0000      -1.121036       -30.5049
  19   2.0000      -1.110655       -30.2225
  20   2.0000      -1.107559       -30.1382
  21   2.0000      -1.107403       -30.1340
  22   2.0000      -1.102506       -30.0007
  23   2.0000      -1.087383       -29.5892
  24   2.0000      -0.647112       -17.6088
  25   2.0000      -0.641536       -17.4571
  26   2.0000      -0.641097       -17.4451
  27   2.0000      -0.640755       -17.4358
  28   2.0000      -0.640113       -17.4184
  29   2.0000      -0.630731       -17.1631
  30   2.0000      -0.629793       -17.1375
  31   2.0000      -0.629672       -17.1343
  32   2.0000      -0.625894       -17.0314
  33   2.0000      -0.618631       -16.8338
  34   2.0000      -0.615474       -16.7479
  35   2.0000      -0.615277       -16.7425
  36   2.0000      -0.574410       -15.6305
  37   2.0000      -0.550688       -14.9850
  38   2.0000      -0.537064       -14.6143
  39   2.0000      -0.536843       -14.6082
  40   2.0000      -0.517896       -14.0927
  41   2.0000      -0.513182       -13.9644
  42   2.0000      -0.513040       -13.9605
  43   2.0000      -0.509581       -13.8664
  44   2.0000      -0.485130       -13.2011
  45   2.0000      -0.484899       -13.1948
  46   2.0000      -0.480052       -13.0629
  47   2.0000      -0.454297       -12.3620
  48   2.0000      -0.426434       -11.6039
  49   2.0000      -0.426031       -11.5929
  50   2.0000      -0.425892       -11.5891
  51   2.0000      -0.424209       -11.5433
  52   2.0000      -0.423498       -11.5240
  53   2.0000      -0.423458       -11.5229
  54   2.0000      -0.420428       -11.4404
  55   2.0000      -0.417902       -11.3717
  56   2.0000      -0.416214       -11.3257
  57   2.0000      -0.416144       -11.3239
  58   2.0000      -0.412597       -11.2273
  59   2.0000      -0.411947       -11.2096
  60   0.0000       0.063517         1.7284
  61   0.0000       0.082647         2.2489
  62   0.0000       0.094515         2.5719
  63   0.0000       0.094581         2.5737
  64   0.0000       0.111489         3.0338

MULLIKEN ATOMIC CHARGES
-----------------------
   0 O :   -0.825520
   1 H :    0.431370
   2 H :    0.443495
   3 O :   -0.918611
   4 H :    0.448284
   5 H :    0.431168
   6 O :   -0.826469
   7 H :    0.442924
   8 H :    0.431942
   9 O :   -0.906723
  10 H :    0.447827
  11 H :    0.426547
  12 O :   -0.913825
  13 H :    0.428493
  14 H :    0.448180
  15 O :   -0.864613
  16 H :    0.434116
  17 H :    0.417377
  18 O :   -0.910184
  19 H :    0.426919
  20 H :    0.446635
  21 O :   -0.825661
  22 H :    0.441906
  23 H :    0.432820
  24 O :   -0.826306
  25 H :    0.443780
  26 H :    0.432659
  27 O :   -0.865035
  28 H :    0.433555
  29 H :    0.417412
  30 O :   -0.864667
  31 H :    0.417603
  32 H :    0.434094
  33 O :   -0.864400
  34 H :    0.435211
  35 H :    0.417697
Sum of atomic charges:   -0.0000000

LOEWDIN ATOMIC CHARGES
----------------------
   0 O :   -0.406528
   1 H :    0.202536
   2 H :    0.206508
   3 O :   -0.431534
   4 H :    0.204561
   5 H :    0.196024
   6 O :   -0.406741
   7 H :    0.207009
   8 H :    0.201784
   9 O :   -0.431853
  10 H :    0.205198
  11 H :    0.195917
  12 O :   -0.432632
  13 H :    0.195918
  14 H :    0.204890
  15 O :   -0.393417
  16 H :    0.200295
  17 H :    0.219803
  18 O :   -0.431602
  19 H :    0.196030
  20 H :    0.205475
  21 O :   -0.405768
  22 H :    0.206686
  23 H :    0.202429
  24 O :   -0.406591
  25 H :    0.205834
  26 H :    0.202032
  27 O :   -0.392523
  28 H :    0.200670
  29 H :    0.219765
  30 O :   -0.391738
  31 H :    0.219842
  32 H :    0.200520
  33 O :   -0.389721
  34 H :    0.200718
  35 H :    0.220204

  Mayer bond orders larger than 0.1
B(  0-O ,  1-H ) :   0.8027 B(  0-O ,  2-H ) :   0.8121 B(  0-O , 34-H ) :   0.1018
B(  3-O ,  4-H ) :   0.7805 B(  3-O ,  5-H ) :   0.7705 B(  6-O ,  7-H ) :   0.8132
B(  6-O ,  8-H ) :   0.8014 B(  6-O , 16-H ) :   0.1006 B(  9-O , 10-H ) :   0.7823
B(  9-O , 11-H ) :   0.7707 B( 12-O , 13-H ) :   0.7716 B( 12-O , 14-H ) :   0.7803
B( 15-O , 16-H ) :   0.7465 B( 15-O , 17-H ) :   0.8298 B( 18-O , 19-H ) :   0.7700
B( 18-O , 20-H ) :   0.7828 B( 21-O , 22-H ) :   0.8131 B( 21-O , 23-H ) :   0.8015
B( 21-O , 32-H ) :   0.1020 B( 24-O , 25-H ) :   0.8119 B( 24-O , 26-H ) :   0.8026
B( 24-O , 28-H ) :   0.1023 B( 27-O , 28-H ) :   0.7463 B( 27-O , 29-H ) :   0.8299
B( 30-O , 31-H ) :   0.8294 B( 30-O , 32-H ) :   0.7458 B( 33-O , 34-H ) :   0.7458
B( 33-O , 35-H ) :   0.8295

Dispersion correction           -0.022784548
FINAL SINGLE POINT ENERGY      -917.507192797181

DIPOLE MOMENT
-------------
                                X             Y             Z
Electronic contribution:     -0.00216      -0.00071       0.00830
Nuclear contribution   :      0.00116      -0.00001       0.00463
                        -----------------------------------------
Total Dipole Moment    :     -0.00101      -0.00072       0.01293
                        -----------------------------------------
Magnitude (a.u.)       :      0.01299
Magnitude (Debye)      :      0.03301

                             ****ORCA TERMINATED NORMALLY****
TOTAL RUN TIME: 0 days 0 hours 17 minutes 21 seconds 583 msec
