                         Program Version 3.0.3 - RELEASE   -
|  1> ! wB97X-D3 Def2-TZVP def2-TZVP/J RIJCOSX TightSCF Grid4 COSMO
|  2>
|  3> %pal nprocs 12 end
|  4>
|  5> %scf
|  6>         maxiter 400
|  7> end
|  8>
|  9> %cosmo
| 10>         SMD true
| 11>         solvent "WATER"
| 12> end
| 13>
| 14> * xyz  0  1
| 15> O  1.372181	-0.946534	2.961247
| 16> H  2.132167	-0.649670	2.406272
| 17> H  0.813554	-1.436466	2.320162
| 18> O  -1.621895	0.495212	0.949167
| 19> H  -1.306120	0.909015	1.787347
| 20> H  -1.095104	-0.349797	0.933987
| 21> O  1.798421	2.442640	1.318712
| 22> H  1.275936	2.407626	0.490139
| 23> H  1.139863	2.179368	2.006044
| 24> O  0.114298	1.686798	-0.744066
| 25> H  -0.361347	1.682102	-1.609235
| 26> H  -0.570477	1.322853	-0.121106
| 27> O  -0.072898	-1.690885	0.767424
| 28> H  0.584187	-1.328226	0.112865
| 29> H  -0.684898	-2.195705	0.177385
| 30> O  3.126450	0.130358	1.154069
| 31> H  2.749583	1.054960	1.225549
| 32> H  4.086044	0.224455	1.255878
| 33> O  1.599123	-0.541967	-0.972209
| 34> H  1.115822	0.328098	-0.939645
| 35> H  2.355782	-0.402780	-0.352280
| 36> O  -0.039486	-1.369802	-3.063562
| 37> H  0.723188	-1.177530	-2.478734
| 38> H  -0.487251	-0.496933	-3.170023
| 39> O  -3.230502	-0.155547	-1.248016
| 40> H  -2.902038	0.197968	-0.394511
| 41> H  -2.825213	-1.055130	-1.266760
| 42> O  -1.405037	0.988969	-2.861516
| 43> H  -2.165483	0.627070	-2.323765
| 44> H  -1.806850	1.534578	-3.555005
| 45> O  -1.656626	-2.406052	-1.248500
| 46> H  -1.968948	-3.284580	-1.514057
| 47> H  -1.049931	-2.103759	-1.987155
| 48> O  -0.030036	1.307782	2.995362
| 49> H  0.487477	0.454856	3.089090
| 50> H  -0.193935	1.616654	3.899446
| 51> **                         ****END OF INPUT****

CARTESIAN COORDINATES (ANGSTROEM)
---------------------------------
  O      1.372181   -0.946534    2.961247
  H      2.132167   -0.649670    2.406272
  H      0.813554   -1.436466    2.320162
  O     -1.621895    0.495212    0.949167
  H     -1.306120    0.909015    1.787347
  H     -1.095104   -0.349797    0.933987
  O      1.798421    2.442640    1.318712
  H      1.275936    2.407626    0.490139
  H      1.139863    2.179368    2.006044
  O      0.114298    1.686798   -0.744066
  H     -0.361347    1.682102   -1.609235
  H     -0.570477    1.322853   -0.121106
  O     -0.072898   -1.690885    0.767424
  H      0.584187   -1.328226    0.112865
  H     -0.684898   -2.195705    0.177385
  O      3.126450    0.130358    1.154069
  H      2.749583    1.054960    1.225549
  H      4.086044    0.224455    1.255878
  O      1.599123   -0.541967   -0.972209
  H      1.115822    0.328098   -0.939645
  H      2.355782   -0.402780   -0.352280
  O     -0.039486   -1.369802   -3.063562
  H      0.723188   -1.177530   -2.478734
  H     -0.487251   -0.496933   -3.170023
  O     -3.230502   -0.155547   -1.248016
  H     -2.902038    0.197968   -0.394511
  H     -2.825213   -1.055130   -1.266760
  O     -1.405037    0.988969   -2.861516
  H     -2.165483    0.627070   -2.323765
  H     -1.806850    1.534578   -3.555005
  O     -1.656626   -2.406052   -1.248500
  H     -1.968948   -3.284580   -1.514057
  H     -1.049931   -2.103759   -1.987155
  O     -0.030036    1.307782    2.995362
  H      0.487477    0.454856    3.089090
  H     -0.193935    1.616654    3.899446

 Total Charge           Charge          ....    0
 Multiplicity           Mult            ....    1
 Number of Electrons    NEL             ....  120
 Basis Dimension        Dim             ....  516

ORBITAL ENERGIES
----------------

  NO   OCC          E(Eh)            E(eV)
   0   2.0000     -19.240759      -523.5677
   1   2.0000     -19.239566      -523.5352
   2   2.0000     -19.238603      -523.5090
   3   2.0000     -19.237663      -523.4834
   4   2.0000     -19.233056      -523.3581
   5   2.0000     -19.232858      -523.3527
   6   2.0000     -19.232000      -523.3293
   7   2.0000     -19.231915      -523.3270
   8   2.0000     -19.230358      -523.2846
   9   2.0000     -19.230297      -523.2830
  10   2.0000     -19.228704      -523.2396
  11   2.0000     -19.228670      -523.2387
  12   2.0000      -1.152811       -31.3696
  13   2.0000      -1.142005       -31.0755
  14   2.0000      -1.135682       -30.9035
  15   2.0000      -1.134400       -30.8686
  16   2.0000      -1.131596       -30.7923
  17   2.0000      -1.124190       -30.5908
  18   2.0000      -1.123568       -30.5738
  19   2.0000      -1.115634       -30.3580
  20   2.0000      -1.114093       -30.3160
  21   2.0000      -1.112553       -30.2741
  22   2.0000      -1.107660       -30.1410
  23   2.0000      -1.096065       -29.8254
  24   2.0000      -0.647711       -17.6251
  25   2.0000      -0.643110       -17.4999
  26   2.0000      -0.642305       -17.4780
  27   2.0000      -0.641576       -17.4582
  28   2.0000      -0.639526       -17.4024
  29   2.0000      -0.634431       -17.2637
  30   2.0000      -0.633102       -17.2276
  31   2.0000      -0.631443       -17.1824
  32   2.0000      -0.628069       -17.0906
  33   2.0000      -0.622342       -16.9348
  34   2.0000      -0.619248       -16.8506
  35   2.0000      -0.616000       -16.7622
  36   2.0000      -0.567724       -15.4486
  37   2.0000      -0.543820       -14.7981
  38   2.0000      -0.537017       -14.6130
  39   2.0000      -0.534202       -14.5364
  40   2.0000      -0.515936       -14.0393
  41   2.0000      -0.511892       -13.9293
  42   2.0000      -0.510375       -13.8880
  43   2.0000      -0.509251       -13.8574
  44   2.0000      -0.485777       -13.2187
  45   2.0000      -0.484692       -13.1891
  46   2.0000      -0.480013       -13.0618
  47   2.0000      -0.456156       -12.4126
  48   2.0000      -0.428700       -11.6655
  49   2.0000      -0.426679       -11.6105
  50   2.0000      -0.426263       -11.5992
  51   2.0000      -0.425190       -11.5700
  52   2.0000      -0.424775       -11.5587
  53   2.0000      -0.423695       -11.5293
  54   2.0000      -0.421969       -11.4823
  55   2.0000      -0.418772       -11.3954
  56   2.0000      -0.417267       -11.3544
  57   2.0000      -0.416119       -11.3232
  58   2.0000      -0.414736       -11.2855
  59   2.0000      -0.414152       -11.2697
  60   0.0000       0.094295         2.5659
  61   0.0000       0.125745         3.4217
  62   0.0000       0.145163         3.9501
  63   0.0000       0.145994         3.9727
  64   0.0000       0.179674         4.8892

MULLIKEN ATOMIC CHARGES
-----------------------
   0 O :   -0.755139
   1 H :    0.375244
   2 H :    0.394165
   3 O :   -0.773893
   4 H :    0.394974
   5 H :    0.360314
   6 O :   -0.759301
   7 H :    0.392466
   8 H :    0.373759
   9 O :   -0.777763
  10 H :    0.396364
  11 H :    0.356445
  12 O :   -0.779257
  13 H :    0.357500
  14 H :    0.395729
  15 O :   -0.772715
  16 H :    0.379139
  17 H :    0.405720
  18 O :   -0.776219
  19 H :    0.363557
  20 H :    0.394260
  21 O :   -0.752072
  22 H :    0.394253
  23 H :    0.379412
  24 O :   -0.752959
  25 H :    0.391035
  26 H :    0.373937
  27 O :   -0.771097
  28 H :    0.374902
  29 H :    0.407206
  30 O :   -0.771698
  31 H :    0.405069
  32 H :    0.372634
  33 O :   -0.774500
  34 H :    0.374006
  35 H :    0.404524
Sum of atomic charges:   -0.0000000

LOEWDIN ATOMIC CHARGES
----------------------
   0 O :   -0.314758
   1 H :    0.143759
   2 H :    0.148025
   3 O :   -0.312128
   4 H :    0.150464
   5 H :    0.134519
   6 O :   -0.318244
   7 H :    0.149254
   8 H :    0.142345
   9 O :   -0.305982
  10 H :    0.148749
  11 H :    0.135924
  12 O :   -0.306587
  13 H :    0.132597
  14 H :    0.145904
  15 O :   -0.286377
  16 H :    0.146757
  17 H :    0.186756
  18 O :   -0.307822
  19 H :    0.135213
  20 H :    0.148430
  21 O :   -0.307121
  22 H :    0.151386
  23 H :    0.144981
  24 O :   -0.319982
  25 H :    0.152236
  26 H :    0.144368
  27 O :   -0.283085
  28 H :    0.147655
  29 H :    0.187791
  30 O :   -0.282367
  31 H :    0.186003
  32 H :    0.141900
  33 O :   -0.289263
  34 H :    0.143227
  35 H :    0.185471

  Mayer bond orders larger than 0.1
B(  0-O ,  1-H ) :   0.8070 B(  0-O ,  2-H ) :   0.8178 B(  0-O , 34-H ) :   0.1439
B(  3-O ,  4-H ) :   0.8021 B(  3-O ,  5-H ) :   0.7755 B(  3-O , 11-H ) :   0.1396
B(  5-H , 12-O ) :   0.1396 B(  6-O ,  7-H ) :   0.8225 B(  6-O ,  8-H ) :   0.8028
B(  6-O , 16-H ) :   0.1302 B(  8-H , 33-O ) :   0.1062 B(  9-O , 10-H ) :   0.7933
B(  9-O , 11-H ) :   0.7761 B(  9-O , 19-H ) :   0.1318 B( 12-O , 13-H ) :   0.7709
B( 12-O , 14-H ) :   0.7903 B( 13-H , 18-O ) :   0.1452 B( 15-O , 16-H ) :   0.7666
B( 15-O , 17-H ) :   0.8404 B( 18-O , 19-H ) :   0.7763 B( 18-O , 20-H ) :   0.7939
B( 21-O , 22-H ) :   0.8220 B( 21-O , 23-H ) :   0.8041 B( 21-O , 32-H ) :   0.1475
B( 24-O , 25-H ) :   0.8278 B( 24-O , 26-H ) :   0.8086 B( 24-O , 28-H ) :   0.1332
B( 27-O , 28-H ) :   0.7696 B( 27-O , 29-H ) :   0.8393 B( 30-O , 31-H ) :   0.8414
B( 30-O , 32-H ) :   0.7589 B( 33-O , 34-H ) :   0.7610 B( 33-O , 35-H ) :   0.8417

Dispersion correction           -0.022070022
FINAL SINGLE POINT ENERGY      -917.517353028546

DIPOLE MOMENT
-------------
                                X             Y             Z
Electronic contribution:     -0.00340      -0.00956      -0.09679
Nuclear contribution   :      0.11488       0.14740      -0.02026
                        -----------------------------------------
Total Dipole Moment    :      0.11149       0.13784      -0.11705
                        -----------------------------------------
Magnitude (a.u.)       :      0.21244
Magnitude (Debye)      :      0.53998

                             ****ORCA TERMINATED NORMALLY****
TOTAL RUN TIME: 0 days 0 hours 1 minutes 37 seconds 10 msec
