                         Program Version 3.0.3 - RELEASE   -
|  1> ! B3LYP Def2-TZVP def2-TZVP/J RIJCOSX TightSCF Grid4 D3BJ COSMO
|  2>
|  3> %pal nprocs 12 end
|  4>
|  5> %scf
|  6>         maxiter 400
|  7> end
|  8>
|  9> %cosmo
| 10>         SMD true
| 11>         solvent "WATER"
| 12> end
| 13>
| 14> * xyz  0  1
| 15> O  1.372181	-0.946534	2.961247
| 16> H  2.132167	-0.649670	2.406272
| 17> H  0.813554	-1.436466	2.320162
| 18> O  -1.621895	0.495212	0.949167
| 19> H  -1.306120	0.909015	1.787347
| 20> H  -1.095104	-0.349797	0.933987
| 21> O  1.798421	2.442640	1.318712
| 22> H  1.275936	2.407626	0.490139
| 23> H  1.139863	2.179368	2.006044
| 24> O  0.114298	1.686798	-0.744066
| 25> H  -0.361347	1.682102	-1.609235
| 26> H  -0.570477	1.322853	-0.121106
| 27> O  -0.072898	-1.690885	0.767424
| 28> H  0.584187	-1.328226	0.112865
| 29> H  -0.684898	-2.195705	0.177385
| 30> O  3.126450	0.130358	1.154069
| 31> H  2.749583	1.054960	1.225549
| 32> H  4.086044	0.224455	1.255878
| 33> O  1.599123	-0.541967	-0.972209
| 34> H  1.115822	0.328098	-0.939645
| 35> H  2.355782	-0.402780	-0.352280
| 36> O  -0.039486	-1.369802	-3.063562
| 37> H  0.723188	-1.177530	-2.478734
| 38> H  -0.487251	-0.496933	-3.170023
| 39> O  -3.230502	-0.155547	-1.248016
| 40> H  -2.902038	0.197968	-0.394511
| 41> H  -2.825213	-1.055130	-1.266760
| 42> O  -1.405037	0.988969	-2.861516
| 43> H  -2.165483	0.627070	-2.323765
| 44> H  -1.806850	1.534578	-3.555005
| 45> O  -1.656626	-2.406052	-1.248500
| 46> H  -1.968948	-3.284580	-1.514057
| 47> H  -1.049931	-2.103759	-1.987155
| 48> O  -0.030036	1.307782	2.995362
| 49> H  0.487477	0.454856	3.089090
| 50> H  -0.193935	1.616654	3.899446
| 51> **                         ****END OF INPUT****

CARTESIAN COORDINATES (ANGSTROEM)
---------------------------------
  O      1.372181   -0.946534    2.961247
  H      2.132167   -0.649670    2.406272
  H      0.813554   -1.436466    2.320162
  O     -1.621895    0.495212    0.949167
  H     -1.306120    0.909015    1.787347
  H     -1.095104   -0.349797    0.933987
  O      1.798421    2.442640    1.318712
  H      1.275936    2.407626    0.490139
  H      1.139863    2.179368    2.006044
  O      0.114298    1.686798   -0.744066
  H     -0.361347    1.682102   -1.609235
  H     -0.570477    1.322853   -0.121106
  O     -0.072898   -1.690885    0.767424
  H      0.584187   -1.328226    0.112865
  H     -0.684898   -2.195705    0.177385
  O      3.126450    0.130358    1.154069
  H      2.749583    1.054960    1.225549
  H      4.086044    0.224455    1.255878
  O      1.599123   -0.541967   -0.972209
  H      1.115822    0.328098   -0.939645
  H      2.355782   -0.402780   -0.352280
  O     -0.039486   -1.369802   -3.063562
  H      0.723188   -1.177530   -2.478734
  H     -0.487251   -0.496933   -3.170023
  O     -3.230502   -0.155547   -1.248016
  H     -2.902038    0.197968   -0.394511
  H     -2.825213   -1.055130   -1.266760
  O     -1.405037    0.988969   -2.861516
  H     -2.165483    0.627070   -2.323765
  H     -1.806850    1.534578   -3.555005
  O     -1.656626   -2.406052   -1.248500
  H     -1.968948   -3.284580   -1.514057
  H     -1.049931   -2.103759   -1.987155
  O     -0.030036    1.307782    2.995362
  H      0.487477    0.454856    3.089090
  H     -0.193935    1.616654    3.899446

 Total Charge           Charge          ....    0
 Multiplicity           Mult            ....    1
 Number of Electrons    NEL             ....  120
 Basis Dimension        Dim             ....  516

ORBITAL ENERGIES
----------------

  NO   OCC          E(Eh)            E(eV)
   0   2.0000     -19.132459      -520.6207
   1   2.0000     -19.131280      -520.5886
   2   2.0000     -19.130337      -520.5629
   3   2.0000     -19.129368      -520.5366
   4   2.0000     -19.123372      -520.3734
   5   2.0000     -19.123312      -520.3718
   6   2.0000     -19.123071      -520.3652
   7   2.0000     -19.122315      -520.3446
   8   2.0000     -19.121403      -520.3198
   9   2.0000     -19.120656      -520.2995
  10   2.0000     -19.119611      -520.2711
  11   2.0000     -19.119603      -520.2708
  12   2.0000      -1.034987       -28.1634
  13   2.0000      -1.025020       -27.8922
  14   2.0000      -1.018710       -27.7205
  15   2.0000      -1.017383       -27.6844
  16   2.0000      -1.014698       -27.6113
  17   2.0000      -1.007571       -27.4174
  18   2.0000      -1.006874       -27.3984
  19   2.0000      -0.998973       -27.1834
  20   2.0000      -0.997598       -27.1460
  21   2.0000      -0.996002       -27.1026
  22   2.0000      -0.991533       -26.9810
  23   2.0000      -0.979882       -26.6640
  24   2.0000      -0.542742       -14.7688
  25   2.0000      -0.538371       -14.6498
  26   2.0000      -0.537378       -14.6228
  27   2.0000      -0.537010       -14.6128
  28   2.0000      -0.534339       -14.5401
  29   2.0000      -0.529602       -14.4112
  30   2.0000      -0.528237       -14.3741
  31   2.0000      -0.526425       -14.3247
  32   2.0000      -0.522653       -14.2221
  33   2.0000      -0.517812       -14.0904
  34   2.0000      -0.515108       -14.0168
  35   2.0000      -0.511951       -13.9309
  36   2.0000      -0.460933       -12.5426
  37   2.0000      -0.439047       -11.9471
  38   2.0000      -0.432103       -11.7581
  39   2.0000      -0.429415       -11.6850
  40   2.0000      -0.411503       -11.1976
  41   2.0000      -0.408983       -11.1290
  42   2.0000      -0.407743       -11.0953
  43   2.0000      -0.407248       -11.0818
  44   2.0000      -0.384928       -10.4744
  45   2.0000      -0.383774       -10.4430
  46   2.0000      -0.378701       -10.3050
  47   2.0000      -0.356615        -9.7040
  48   2.0000      -0.328309        -8.9337
  49   2.0000      -0.327022        -8.8987
  50   2.0000      -0.326380        -8.8813
  51   2.0000      -0.325405        -8.8547
  52   2.0000      -0.325060        -8.8453
  53   2.0000      -0.323832        -8.8119
  54   2.0000      -0.322631        -8.7792
  55   2.0000      -0.318980        -8.6799
  56   2.0000      -0.317607        -8.6425
  57   2.0000      -0.316266        -8.6060
  58   2.0000      -0.315205        -8.5772
  59   2.0000      -0.314404        -8.5554
  60   0.0000       0.014694         0.3998
  61   0.0000       0.040855         1.1117
  62   0.0000       0.058072         1.5802
  63   0.0000       0.058705         1.5975
  64   0.0000       0.093605         2.5471

MULLIKEN ATOMIC CHARGES
-----------------------
   0 O :   -0.743538
   1 H :    0.368353
   2 H :    0.383601
   3 O :   -0.760569
   4 H :    0.379850
   5 H :    0.362558
   6 O :   -0.747663
   7 H :    0.382089
   8 H :    0.367229
   9 O :   -0.763658
  10 H :    0.381067
  11 H :    0.358258
  12 O :   -0.765300
  13 H :    0.359770
  14 H :    0.380235
  15 O :   -0.743722
  16 H :    0.376380
  17 H :    0.384147
  18 O :   -0.763034
  19 H :    0.364796
  20 H :    0.379888
  21 O :   -0.741028
  22 H :    0.384099
  23 H :    0.372668
  24 O :   -0.741672
  25 H :    0.380977
  26 H :    0.367302
  27 O :   -0.741832
  28 H :    0.372513
  29 H :    0.385456
  30 O :   -0.742895
  31 H :    0.383398
  32 H :    0.371225
  33 O :   -0.745810
  34 H :    0.372075
  35 H :    0.382793
Sum of atomic charges:   -0.0000000

LOEWDIN ATOMIC CHARGES
----------------------
   0 O :   -0.313483
   1 H :    0.142581
   2 H :    0.146652
   3 O :   -0.309248
   4 H :    0.148112
   5 H :    0.133910
   6 O :   -0.317057
   7 H :    0.147931
   8 H :    0.141197
   9 O :   -0.303086
  10 H :    0.146387
  11 H :    0.135227
  12 O :   -0.303536
  13 H :    0.131943
  14 H :    0.143530
  15 O :   -0.281511
  16 H :    0.146241
  17 H :    0.183654
  18 O :   -0.304988
  19 H :    0.134570
  20 H :    0.146136
  21 O :   -0.305909
  22 H :    0.150150
  23 H :    0.143908
  24 O :   -0.318764
  25 H :    0.151049
  26 H :    0.143233
  27 O :   -0.278269
  28 H :    0.147166
  29 H :    0.184653
  30 O :   -0.277311
  31 H :    0.182819
  32 H :    0.141428
  33 O :   -0.284370
  34 H :    0.142741
  35 H :    0.182315

  Mayer bond orders larger than 0.1
B(  0-O ,  1-H ) :   0.8072 B(  0-O ,  2-H ) :   0.8201 B(  0-O , 34-H ) :   0.1506
B(  1-H , 15-O ) :   0.1075 B(  3-O ,  4-H ) :   0.8069 B(  3-O ,  5-H ) :   0.7708
B(  3-O , 11-H ) :   0.1431 B(  5-H , 12-O ) :   0.1435 B(  6-O ,  7-H ) :   0.8250
B(  6-O ,  8-H ) :   0.8026 B(  6-O , 16-H ) :   0.1372 B(  8-H , 33-O ) :   0.1150
B(  9-O , 10-H ) :   0.7983 B(  9-O , 11-H ) :   0.7718 B(  9-O , 19-H ) :   0.1352
B( 10-H , 27-O ) :   0.1026 B( 12-O , 13-H ) :   0.7662 B( 12-O , 14-H ) :   0.7949
B( 13-H , 18-O ) :   0.1486 B( 14-H , 30-O ) :   0.1086 B( 15-O , 16-H ) :   0.7616
B( 15-O , 17-H ) :   0.8533 B( 15-O , 20-H ) :   0.1047 B( 18-O , 19-H ) :   0.7721
B( 18-O , 20-H ) :   0.7983 B( 21-O , 22-H ) :   0.8244 B( 21-O , 23-H ) :   0.8042
B( 21-O , 32-H ) :   0.1537 B( 23-H , 27-O ) :   0.1053 B( 24-O , 25-H ) :   0.8303
B( 24-O , 26-H ) :   0.8084 B( 24-O , 28-H ) :   0.1400 B( 26-H , 30-O ) :   0.1084
B( 27-O , 28-H ) :   0.7644 B( 27-O , 29-H ) :   0.8524 B( 30-O , 31-H ) :   0.8544
B( 30-O , 32-H ) :   0.7533 B( 33-O , 34-H ) :   0.7556 B( 33-O , 35-H ) :   0.8547

Dispersion correction           -0.042990679
FINAL SINGLE POINT ENERGY      -917.378212521386

DIPOLE MOMENT
-------------
                                X             Y             Z
Electronic contribution:     -0.00611      -0.01292      -0.09808
Nuclear contribution   :      0.11488       0.14740      -0.02026
                        -----------------------------------------
Total Dipole Moment    :      0.10878       0.13448      -0.11834
                        -----------------------------------------
Magnitude (a.u.)       :      0.20957
Magnitude (Debye)      :      0.53269

                             ****ORCA TERMINATED NORMALLY****
TOTAL RUN TIME: 0 days 0 hours 1 minutes 29 seconds 863 msec
