                         Program Version 3.0.3 - RELEASE   -
|  1> ! wB97X-D3 MA-Def2-TZVP def2-TZVP/J RIJCOSX TightSCF Grid4
|  2>
|  3> %pal nprocs 1 end
|  4>
|  5> %scf
|  6>         maxiter 400
|  7> end
|  8>
|  9> %cosmo
| 10>         SMD true
| 11>         solvent "WATER"
| 12> end
| 13>
| 14> * xyz  0  1
| 15> O  1.372181	-0.946534	2.961247
| 16> H  2.132167	-0.649670	2.406272
| 17> H  0.813554	-1.436466	2.320162
| 18> O  -1.621895	0.495212	0.949167
| 19> H  -1.306120	0.909015	1.787347
| 20> H  -1.095104	-0.349797	0.933987
| 21> O  1.798421	2.442640	1.318712
| 22> H  1.275936	2.407626	0.490139
| 23> H  1.139863	2.179368	2.006044
| 24> O  0.114298	1.686798	-0.744066
| 25> H  -0.361347	1.682102	-1.609235
| 26> H  -0.570477	1.322853	-0.121106
| 27> O  -0.072898	-1.690885	0.767424
| 28> H  0.584187	-1.328226	0.112865
| 29> H  -0.684898	-2.195705	0.177385
| 30> O  3.126450	0.130358	1.154069
| 31> H  2.749583	1.054960	1.225549
| 32> H  4.086044	0.224455	1.255878
| 33> O  1.599123	-0.541967	-0.972209
| 34> H  1.115822	0.328098	-0.939645
| 35> H  2.355782	-0.402780	-0.352280
| 36> O  -0.039486	-1.369802	-3.063562
| 37> H  0.723188	-1.177530	-2.478734
| 38> H  -0.487251	-0.496933	-3.170023
| 39> O  -3.230502	-0.155547	-1.248016
| 40> H  -2.902038	0.197968	-0.394511
| 41> H  -2.825213	-1.055130	-1.266760
| 42> O  -1.405037	0.988969	-2.861516
| 43> H  -2.165483	0.627070	-2.323765
| 44> H  -1.806850	1.534578	-3.555005
| 45> O  -1.656626	-2.406052	-1.248500
| 46> H  -1.968948	-3.284580	-1.514057
| 47> H  -1.049931	-2.103759	-1.987155
| 48> O  -0.030036	1.307782	2.995362
| 49> H  0.487477	0.454856	3.089090
| 50> H  -0.193935	1.616654	3.899446
| 51> **                         ****END OF INPUT****

CARTESIAN COORDINATES (ANGSTROEM)
---------------------------------
  O      1.372181   -0.946534    2.961247
  H      2.132167   -0.649670    2.406272
  H      0.813554   -1.436466    2.320162
  O     -1.621895    0.495212    0.949167
  H     -1.306120    0.909015    1.787347
  H     -1.095104   -0.349797    0.933987
  O      1.798421    2.442640    1.318712
  H      1.275936    2.407626    0.490139
  H      1.139863    2.179368    2.006044
  O      0.114298    1.686798   -0.744066
  H     -0.361347    1.682102   -1.609235
  H     -0.570477    1.322853   -0.121106
  O     -0.072898   -1.690885    0.767424
  H      0.584187   -1.328226    0.112865
  H     -0.684898   -2.195705    0.177385
  O      3.126450    0.130358    1.154069
  H      2.749583    1.054960    1.225549
  H      4.086044    0.224455    1.255878
  O      1.599123   -0.541967   -0.972209
  H      1.115822    0.328098   -0.939645
  H      2.355782   -0.402780   -0.352280
  O     -0.039486   -1.369802   -3.063562
  H      0.723188   -1.177530   -2.478734
  H     -0.487251   -0.496933   -3.170023
  O     -3.230502   -0.155547   -1.248016
  H     -2.902038    0.197968   -0.394511
  H     -2.825213   -1.055130   -1.266760
  O     -1.405037    0.988969   -2.861516
  H     -2.165483    0.627070   -2.323765
  H     -1.806850    1.534578   -3.555005
  O     -1.656626   -2.406052   -1.248500
  H     -1.968948   -3.284580   -1.514057
  H     -1.049931   -2.103759   -1.987155
  O     -0.030036    1.307782    2.995362
  H      0.487477    0.454856    3.089090
  H     -0.193935    1.616654    3.899446

 Total Charge           Charge          ....    0
 Multiplicity           Mult            ....    1
 Number of Electrons    NEL             ....  120
 Basis Dimension        Dim             ....  564
Dispersion correction           -0.022070022
FINAL SINGLE POINT ENERGY      -917.522384688811
                             ****ORCA TERMINATED NORMALLY****
TOTAL RUN TIME: 0 days 0 hours 15 minutes 16 seconds 578 msec

ORBITAL ENERGIES
----------------

  NO   OCC          E(Eh)            E(eV)
   0   2.0000     -19.242602      -523.6178
   1   2.0000     -19.241379      -523.5845
   2   2.0000     -19.240420      -523.5584
   3   2.0000     -19.239560      -523.5351
   4   2.0000     -19.234694      -523.4026
   5   2.0000     -19.234377      -523.3940
   6   2.0000     -19.234069      -523.3856
   7   2.0000     -19.233499      -523.3701
   8   2.0000     -19.232513      -523.3433
   9   2.0000     -19.231862      -523.3256
  10   2.0000     -19.230960      -523.3010
  11   2.0000     -19.230817      -523.2971
  12   2.0000      -1.153961       -31.4009
  13   2.0000      -1.143256       -31.1096
  14   2.0000      -1.136819       -30.9344
  15   2.0000      -1.135531       -30.8994
  16   2.0000      -1.132757       -30.8239
  17   2.0000      -1.125459       -30.6253
  18   2.0000      -1.124841       -30.6085
  19   2.0000      -1.116832       -30.3905
  20   2.0000      -1.115265       -30.3479
  21   2.0000      -1.113775       -30.3074
  22   2.0000      -1.108960       -30.1763
  23   2.0000      -1.097224       -29.8570
  24   2.0000      -0.648800       -17.6547
  25   2.0000      -0.644196       -17.5295
  26   2.0000      -0.643413       -17.5082
  27   2.0000      -0.642707       -17.4890
  28   2.0000      -0.640618       -17.4321
  29   2.0000      -0.635493       -17.2927
  30   2.0000      -0.634156       -17.2563
  31   2.0000      -0.632519       -17.2117
  32   2.0000      -0.629180       -17.1209
  33   2.0000      -0.623492       -16.9661
  34   2.0000      -0.620385       -16.8815
  35   2.0000      -0.617109       -16.7924
  36   2.0000      -0.568898       -15.4805
  37   2.0000      -0.545083       -14.8325
  38   2.0000      -0.538103       -14.6425
  39   2.0000      -0.535289       -14.5659
  40   2.0000      -0.517019       -14.0688
  41   2.0000      -0.513097       -13.9621
  42   2.0000      -0.511586       -13.9210
  43   2.0000      -0.510446       -13.8899
  44   2.0000      -0.486991       -13.2517
  45   2.0000      -0.485906       -13.2222
  46   2.0000      -0.481234       -13.0951
  47   2.0000      -0.457433       -12.4474
  48   2.0000      -0.429995       -11.7008
  49   2.0000      -0.427875       -11.6431
  50   2.0000      -0.427423       -11.6308
  51   2.0000      -0.426389       -11.6026
  52   2.0000      -0.425987       -11.5917
  53   2.0000      -0.424875       -11.5614
  54   2.0000      -0.423178       -11.5153
  55   2.0000      -0.419975       -11.4281
  56   2.0000      -0.418423       -11.3859
  57   2.0000      -0.417356       -11.3568
  58   2.0000      -0.415877       -11.3166
  59   2.0000      -0.415309       -11.3011
  60   0.0000       0.063194         1.7196
  61   0.0000       0.082727         2.2511
  62   0.0000       0.094088         2.5603
  63   0.0000       0.094286         2.5657
  64   0.0000       0.111471         3.0333

MULLIKEN ATOMIC CHARGES
-----------------------
   0 O :   -0.823574
   1 H :    0.422765
   2 H :    0.432268
   3 O :   -0.832768
   4 H :    0.432609
   5 H :    0.412571
   6 O :   -0.832799
   7 H :    0.429191
   8 H :    0.420704
   9 O :   -0.916636
  10 H :    0.439465
  11 H :    0.413360
  12 O :   -0.933775
  13 H :    0.419916
  14 H :    0.439196
  15 O :   -0.837380
  16 H :    0.430723
  17 H :    0.414362
  18 O :   -0.852381
  19 H :    0.421447
  20 H :    0.437101
  21 O :   -0.818832
  22 H :    0.432966
  23 H :    0.427215
  24 O :   -0.811104
  25 H :    0.427007
  26 H :    0.416301
  27 O :   -0.841596
  28 H :    0.424356
  29 H :    0.416112
  30 O :   -0.833012
  31 H :    0.412870
  32 H :    0.418198
  33 O :   -0.844603
  34 H :    0.424475
  35 H :    0.413283
Sum of atomic charges:    0.0000000

LOEWDIN ATOMIC CHARGES
----------------------
   0 O :   -0.400822
   1 H :    0.194983
   2 H :    0.197628
   3 O :   -0.416435
   4 H :    0.201298
   5 H :    0.189800
   6 O :   -0.403792
   7 H :    0.198648
   8 H :    0.193364
   9 O :   -0.412373
  10 H :    0.199400
  11 H :    0.190990
  12 O :   -0.413852
  13 H :    0.187724
  14 H :    0.196748
  15 O :   -0.378654
  16 H :    0.196267
  17 H :    0.214846
  18 O :   -0.412617
  19 H :    0.190251
  20 H :    0.199477
  21 O :   -0.392855
  22 H :    0.200470
  23 H :    0.195824
  24 O :   -0.404885
  25 H :    0.201245
  26 H :    0.195138
  27 O :   -0.375715
  28 H :    0.196896
  29 H :    0.215773
  30 O :   -0.375419
  31 H :    0.214663
  32 H :    0.191210
  33 O :   -0.381949
  34 H :    0.192765
  35 H :    0.213958

  Mayer bond orders larger than 0.1
B(  0-O ,  1-H ) :   0.8180 B(  0-O ,  2-H ) :   0.8241 B(  3-O ,  4-H ) :   0.8101
B(  3-O ,  5-H ) :   0.7949 B(  6-O ,  7-H ) :   0.8280 B(  6-O ,  8-H ) :   0.8139
B(  9-O , 10-H ) :   0.8044 B(  9-O , 11-H ) :   0.7996 B( 12-O , 13-H ) :   0.7944
B( 12-O , 14-H ) :   0.8041 B( 15-O , 16-H ) :   0.7846 B( 15-O , 17-H ) :   0.8349
B( 18-O , 19-H ) :   0.8001 B( 18-O , 20-H ) :   0.8036 B( 21-O , 22-H ) :   0.8269
B( 21-O , 23-H ) :   0.8164 B( 24-O , 25-H ) :   0.8331 B( 24-O , 26-H ) :   0.8196
B( 27-O , 28-H ) :   0.7844 B( 27-O , 29-H ) :   0.8327 B( 30-O , 31-H ) :   0.8366
B( 30-O , 32-H ) :   0.7781 B( 33-O , 34-H ) :   0.7787 B( 33-O , 35-H ) :   0.8358

Dispersion correction           -0.022070022
FINAL SINGLE POINT ENERGY      -917.522384688811

DIPOLE MOMENT
-------------
                                X             Y             Z
Electronic contribution:     -0.00048      -0.00891      -0.09976
Nuclear contribution   :      0.11488       0.14740      -0.02026
                        -----------------------------------------
Total Dipole Moment    :      0.11441       0.13849      -0.12001
                        -----------------------------------------
Magnitude (a.u.)       :      0.21603
Magnitude (Debye)      :      0.54911

                             ****ORCA TERMINATED NORMALLY****
TOTAL RUN TIME: 0 days 0 hours 17 minutes 57 seconds 704 msec
