                         Program Version 3.0.3 - RELEASE   -
|  1> ! wB97X-D3 MA-Def2-TZVP def2-TZVP/J RIJCOSX TightSCF Grid4
|  2>
|  3> %pal nprocs 1 end
|  4>
|  5> %scf
|  6>         maxiter 400
|  7> end
|  8>
|  9> * xyz  0  1
| 10> O  1.264084	-0.922640	2.891796
| 11> H  2.048024	-0.639550	2.339353
| 12> H  0.723683	-1.452641	2.243587
| 13> O  -1.524059	0.523355	0.947581
| 14> H  -1.202197	0.913812	1.811475
| 15> H  -1.044811	-0.372633	0.924077
| 16> O  1.827947	2.429301	1.266997
| 17> H  1.273708	2.431015	0.439269
| 18> H  1.158234	2.202099	1.974248
| 19> O  0.134514	1.717916	-0.731728
| 20> H  -0.358883	1.705134	-1.602731
| 21> H  -0.550151	1.328751	-0.088389
| 22> O  -0.141392	-1.720781	0.719260
| 23> H  0.538618	-1.333790	0.069534
| 24> H  -0.748949	-2.237351	0.113409
| 25> O  3.040303	0.182587	1.141602
| 26> H  2.620999	1.142066	1.199833
| 27> H  3.999610	0.299993	1.269419
| 28> O  1.531449	-0.516695	-0.938388
| 29> H  1.055335	0.381627	-0.905351
| 30> H  2.315158	-0.370565	-0.333317
| 31> O  -0.027516	-1.429012	-2.961643
| 32> H  0.750496	-1.207566	-2.380457
| 33> H  -0.457752	-0.537071	-3.097641
| 34> O  -3.064212	-0.079199	-1.192293
| 35> H  -2.740875	0.234307	-0.303603
| 36> H  -2.748616	-1.027502	-1.215841
| 37> O  -1.357532	0.945955	-2.795544
| 38> H  -2.118984	0.563652	-2.183205
| 39> H  -1.806462	1.424982	-3.515987
| 40> O  -1.704758	-2.437330	-1.315464
| 41> H  -2.019248	-3.304906	-1.628530
| 42> H  -1.023567	-2.097056	-2.036442
| 43> O  0.019969	1.308122	2.966349
| 44> H  0.520773	0.388027	3.023824
| 45> H  -0.182937	1.563588	3.884943
| 46> **                         ****END OF INPUT****

CARTESIAN COORDINATES (ANGSTROEM)
---------------------------------
  O      1.264084   -0.922640    2.891796
  H      2.048024   -0.639550    2.339353
  H      0.723683   -1.452641    2.243587
  O     -1.524059    0.523355    0.947581
  H     -1.202197    0.913812    1.811475
  H     -1.044811   -0.372633    0.924077
  O      1.827947    2.429301    1.266997
  H      1.273708    2.431015    0.439269
  H      1.158234    2.202099    1.974248
  O      0.134514    1.717916   -0.731728
  H     -0.358883    1.705134   -1.602731
  H     -0.550151    1.328751   -0.088389
  O     -0.141392   -1.720781    0.719260
  H      0.538618   -1.333790    0.069534
  H     -0.748949   -2.237351    0.113409
  O      3.040303    0.182587    1.141602
  H      2.620999    1.142066    1.199833
  H      3.999610    0.299993    1.269419
  O      1.531449   -0.516695   -0.938388
  H      1.055335    0.381627   -0.905351
  H      2.315158   -0.370565   -0.333317
  O     -0.027516   -1.429012   -2.961643
  H      0.750496   -1.207566   -2.380457
  H     -0.457752   -0.537071   -3.097641
  O     -3.064212   -0.079199   -1.192293
  H     -2.740875    0.234307   -0.303603
  H     -2.748616   -1.027502   -1.215841
  O     -1.357532    0.945955   -2.795544
  H     -2.118984    0.563652   -2.183205
  H     -1.806462    1.424982   -3.515987
  O     -1.704758   -2.437330   -1.315464
  H     -2.019248   -3.304906   -1.628530
  H     -1.023567   -2.097056   -2.036442
  O      0.019969    1.308122    2.966349
  H      0.520773    0.388027    3.023824
  H     -0.182937    1.563588    3.884943

 Total Charge           Charge          ....    0
 Multiplicity           Mult            ....    1
 Number of Electrons    NEL             ....  120
 Basis Dimension        Dim             ....  564

ORBITAL ENERGIES
----------------

  NO   OCC          E(Eh)            E(eV)
   0   2.0000     -19.252009      -523.8738
   1   2.0000     -19.251693      -523.8652
   2   2.0000     -19.251576      -523.8620
   3   2.0000     -19.251306      -523.8547
   4   2.0000     -19.237058      -523.4670
   5   2.0000     -19.236962      -523.4643
   6   2.0000     -19.236900      -523.4627
   7   2.0000     -19.236887      -523.4623
   8   2.0000     -19.236827      -523.4607
   9   2.0000     -19.236740      -523.4583
  10   2.0000     -19.236734      -523.4581
  11   2.0000     -19.236216      -523.4440
  12   2.0000      -1.158939       -31.5363
  13   2.0000      -1.149511       -31.2798
  14   2.0000      -1.140023       -31.0216
  15   2.0000      -1.139805       -31.0157
  16   2.0000      -1.134553       -30.8727
  17   2.0000      -1.126388       -30.6506
  18   2.0000      -1.126332       -30.6491
  19   2.0000      -1.115374       -30.3509
  20   2.0000      -1.112296       -30.2671
  21   2.0000      -1.112233       -30.2654
  22   2.0000      -1.107546       -30.1378
  23   2.0000      -1.092491       -29.7282
  24   2.0000      -0.657808       -17.8999
  25   2.0000      -0.652994       -17.7689
  26   2.0000      -0.652246       -17.7485
  27   2.0000      -0.651957       -17.7407
  28   2.0000      -0.645017       -17.5518
  29   2.0000      -0.637973       -17.3601
  30   2.0000      -0.637868       -17.3573
  31   2.0000      -0.637647       -17.3513
  32   2.0000      -0.631650       -17.1881
  33   2.0000      -0.624247       -16.9866
  34   2.0000      -0.619582       -16.8597
  35   2.0000      -0.619396       -16.8546
  36   2.0000      -0.580586       -15.7985
  37   2.0000      -0.558694       -15.2029
  38   2.0000      -0.540248       -14.7009
  39   2.0000      -0.540194       -14.6994
  40   2.0000      -0.518819       -14.1178
  41   2.0000      -0.518038       -14.0965
  42   2.0000      -0.517845       -14.0913
  43   2.0000      -0.515223       -14.0199
  44   2.0000      -0.488880       -13.3031
  45   2.0000      -0.488713       -13.2985
  46   2.0000      -0.481726       -13.1084
  47   2.0000      -0.453767       -12.3476
  48   2.0000      -0.433991       -11.8095
  49   2.0000      -0.433797       -11.8042
  50   2.0000      -0.432228       -11.7615
  51   2.0000      -0.431447       -11.7403
  52   2.0000      -0.426389       -11.6026
  53   2.0000      -0.424999       -11.5648
  54   2.0000      -0.424912       -11.5624
  55   2.0000      -0.417720       -11.3667
  56   2.0000      -0.416766       -11.3408
  57   2.0000      -0.416619       -11.3368
  58   2.0000      -0.414918       -11.2905
  59   2.0000      -0.413897       -11.2627
  60   0.0000       0.052915         1.4399
  61   0.0000       0.067423         1.8347
  62   0.0000       0.077248         2.1020
  63   0.0000       0.077352         2.1049
  64   0.0000       0.108959         2.9649

MULLIKEN ATOMIC CHARGES
-----------------------
   0 O :   -0.753978
   1 H :    0.415469
   2 H :    0.433708
   3 O :   -0.865566
   4 H :    0.426929
   5 H :    0.410818
   6 O :   -0.754763
   7 H :    0.433002
   8 H :    0.416302
   9 O :   -0.858551
  10 H :    0.427507
  11 H :    0.409129
  12 O :   -0.863063
  13 H :    0.411262
  14 H :    0.427176
  15 O :   -0.851302
  16 H :    0.421599
  17 H :    0.360533
  18 O :   -0.863070
  19 H :    0.410294
  20 H :    0.426678
  21 O :   -0.753833
  22 H :    0.432298
  23 H :    0.415807
  24 O :   -0.754345
  25 H :    0.434296
  26 H :    0.416988
  27 O :   -0.853012
  28 H :    0.420818
  29 H :    0.360578
  30 O :   -0.851323
  31 H :    0.360408
  32 H :    0.421208
  33 O :   -0.852166
  34 H :    0.421627
  35 H :    0.360536
Sum of atomic charges:   -0.0000000

LOEWDIN ATOMIC CHARGES
----------------------
   0 O :   -0.356699
   1 H :    0.201022
   2 H :    0.206817
   3 O :   -0.417162
   4 H :    0.201847
   5 H :    0.193720
   6 O :   -0.356886
   7 H :    0.207198
   8 H :    0.200978
   9 O :   -0.417743
  10 H :    0.202562
  11 H :    0.193816
  12 O :   -0.418273
  13 H :    0.193962
  14 H :    0.202361
  15 O :   -0.419425
  16 H :    0.194358
  17 H :    0.195029
  18 O :   -0.417951
  19 H :    0.193811
  20 H :    0.202645
  21 O :   -0.356886
  22 H :    0.206890
  23 H :    0.200974
  24 O :   -0.356436
  25 H :    0.206257
  26 H :    0.200888
  27 O :   -0.419644
  28 H :    0.194508
  29 H :    0.194874
  30 O :   -0.418391
  31 H :    0.194913
  32 H :    0.194715
  33 O :   -0.418222
  34 H :    0.194468
  35 H :    0.195105

  Mayer bond orders larger than 0.1
B(  0-O ,  1-H ) :   0.8358 B(  0-O ,  2-H ) :   0.8246 B(  0-O , 34-H ) :   0.1636
B(  3-O ,  4-H ) :   0.8061 B(  3-O ,  5-H ) :   0.7828 B(  3-O , 11-H ) :   0.1014
B(  6-O ,  7-H ) :   0.8256 B(  6-O ,  8-H ) :   0.8351 B(  6-O , 16-H ) :   0.1614
B(  9-O , 10-H ) :   0.8061 B(  9-O , 11-H ) :   0.7823 B(  9-O , 19-H ) :   0.1009
B( 12-O , 13-H ) :   0.7825 B( 12-O , 14-H ) :   0.8056 B( 15-O , 16-H ) :   0.7100
B( 15-O , 17-H ) :   0.8713 B( 18-O , 19-H ) :   0.7812 B( 18-O , 20-H ) :   0.8066
B( 21-O , 22-H ) :   0.8254 B( 21-O , 23-H ) :   0.8352 B( 21-O , 32-H ) :   0.1618
B( 24-O , 25-H ) :   0.8248 B( 24-O , 26-H ) :   0.8359 B( 24-O , 28-H ) :   0.1645
B( 27-O , 28-H ) :   0.7089 B( 27-O , 29-H ) :   0.8712 B( 30-O , 31-H ) :   0.8712
B( 30-O , 32-H ) :   0.7105 B( 33-O , 34-H ) :   0.7093 B( 33-O , 35-H ) :   0.8711

Dispersion correction           -0.022823067
FINAL SINGLE POINT ENERGY      -917.471578464597

DIPOLE MOMENT
-------------
                                X             Y             Z
Electronic contribution:     -0.00078      -0.00001       0.00481
Nuclear contribution   :      0.00301      -0.00394       0.00368
                        -----------------------------------------
Total Dipole Moment    :      0.00223      -0.00396       0.00850
                        -----------------------------------------
Magnitude (a.u.)       :      0.00964
Magnitude (Debye)      :      0.02449

                             ****ORCA TERMINATED NORMALLY****
TOTAL RUN TIME: 0 days 0 hours 15 minutes 28 seconds 103 msec
