                         Program Version 3.0.3 - RELEASE   -
|  1> ! B3LYP Def2-TZVP def2-TZVP/J RIJCOSX TightSCF Grid4 D3BJ
|  2>
|  3> %pal nprocs 12 end
|  4>
|  5> %scf
|  6>         maxiter 400
|  7> end
|  8>
|  9> * xyz  0  1
| 10> O  1.264084	-0.922640	2.891796
| 11> H  2.048024	-0.639550	2.339353
| 12> H  0.723683	-1.452641	2.243587
| 13> O  -1.524059	0.523355	0.947581
| 14> H  -1.202197	0.913812	1.811475
| 15> H  -1.044811	-0.372633	0.924077
| 16> O  1.827947	2.429301	1.266997
| 17> H  1.273708	2.431015	0.439269
| 18> H  1.158234	2.202099	1.974248
| 19> O  0.134514	1.717916	-0.731728
| 20> H  -0.358883	1.705134	-1.602731
| 21> H  -0.550151	1.328751	-0.088389
| 22> O  -0.141392	-1.720781	0.719260
| 23> H  0.538618	-1.333790	0.069534
| 24> H  -0.748949	-2.237351	0.113409
| 25> O  3.040303	0.182587	1.141602
| 26> H  2.620999	1.142066	1.199833
| 27> H  3.999610	0.299993	1.269419
| 28> O  1.531449	-0.516695	-0.938388
| 29> H  1.055335	0.381627	-0.905351
| 30> H  2.315158	-0.370565	-0.333317
| 31> O  -0.027516	-1.429012	-2.961643
| 32> H  0.750496	-1.207566	-2.380457
| 33> H  -0.457752	-0.537071	-3.097641
| 34> O  -3.064212	-0.079199	-1.192293
| 35> H  -2.740875	0.234307	-0.303603
| 36> H  -2.748616	-1.027502	-1.215841
| 37> O  -1.357532	0.945955	-2.795544
| 38> H  -2.118984	0.563652	-2.183205
| 39> H  -1.806462	1.424982	-3.515987
| 40> O  -1.704758	-2.437330	-1.315464
| 41> H  -2.019248	-3.304906	-1.628530
| 42> H  -1.023567	-2.097056	-2.036442
| 43> O  0.019969	1.308122	2.966349
| 44> H  0.520773	0.388027	3.023824
| 45> H  -0.182937	1.563588	3.884943
| 46> **                         ****END OF INPUT****

CARTESIAN COORDINATES (ANGSTROEM)
---------------------------------
  O      1.264084   -0.922640    2.891796
  H      2.048024   -0.639550    2.339353
  H      0.723683   -1.452641    2.243587
  O     -1.524059    0.523355    0.947581
  H     -1.202197    0.913812    1.811475
  H     -1.044811   -0.372633    0.924077
  O      1.827947    2.429301    1.266997
  H      1.273708    2.431015    0.439269
  H      1.158234    2.202099    1.974248
  O      0.134514    1.717916   -0.731728
  H     -0.358883    1.705134   -1.602731
  H     -0.550151    1.328751   -0.088389
  O     -0.141392   -1.720781    0.719260
  H      0.538618   -1.333790    0.069534
  H     -0.748949   -2.237351    0.113409
  O      3.040303    0.182587    1.141602
  H      2.620999    1.142066    1.199833
  H      3.999610    0.299993    1.269419
  O      1.531449   -0.516695   -0.938388
  H      1.055335    0.381627   -0.905351
  H      2.315158   -0.370565   -0.333317
  O     -0.027516   -1.429012   -2.961643
  H      0.750496   -1.207566   -2.380457
  H     -0.457752   -0.537071   -3.097641
  O     -3.064212   -0.079199   -1.192293
  H     -2.740875    0.234307   -0.303603
  H     -2.748616   -1.027502   -1.215841
  O     -1.357532    0.945955   -2.795544
  H     -2.118984    0.563652   -2.183205
  H     -1.806462    1.424982   -3.515987
  O     -1.704758   -2.437330   -1.315464
  H     -2.019248   -3.304906   -1.628530
  H     -1.023567   -2.097056   -2.036442
  O      0.019969    1.308122    2.966349
  H      0.520773    0.388027    3.023824
  H     -0.182937    1.563588    3.884943

 Total Charge           Charge          ....    0
 Multiplicity           Mult            ....    1
 Number of Electrons    NEL             ....  120
 Basis Dimension        Dim             ....  516

ORBITAL ENERGIES
----------------

  NO   OCC          E(Eh)            E(eV)
   0   2.0000     -19.141755      -520.8736
   1   2.0000     -19.141428      -520.8647
   2   2.0000     -19.141271      -520.8605
   3   2.0000     -19.141002      -520.8531
   4   2.0000     -19.126333      -520.4540
   5   2.0000     -19.126314      -520.4535
   6   2.0000     -19.126239      -520.4514
   7   2.0000     -19.126218      -520.4508
   8   2.0000     -19.126204      -520.4505
   9   2.0000     -19.126186      -520.4500
  10   2.0000     -19.126149      -520.4490
  11   2.0000     -19.125700      -520.4367
  12   2.0000      -1.040152       -28.3040
  13   2.0000      -1.031341       -28.0642
  14   2.0000      -1.022078       -27.8122
  15   2.0000      -1.021858       -27.8062
  16   2.0000      -1.016649       -27.6644
  17   2.0000      -1.008606       -27.4456
  18   2.0000      -1.008549       -27.4440
  19   2.0000      -0.997791       -27.1513
  20   2.0000      -0.994869       -27.0718
  21   2.0000      -0.994799       -27.0698
  22   2.0000      -0.990360       -26.9491
  23   2.0000      -0.975416       -26.5424
  24   2.0000      -0.551767       -15.0143
  25   2.0000      -0.547287       -14.8924
  26   2.0000      -0.546660       -14.8754
  27   2.0000      -0.546352       -14.8670
  28   2.0000      -0.537603       -14.6289
  29   2.0000      -0.531897       -14.4737
  30   2.0000      -0.531738       -14.4693
  31   2.0000      -0.531247       -14.4560
  32   2.0000      -0.524641       -14.2762
  33   2.0000      -0.518513       -14.1095
  34   2.0000      -0.514387       -13.9972
  35   2.0000      -0.514212       -13.9924
  36   2.0000      -0.472972       -12.8702
  37   2.0000      -0.453139       -12.3305
  38   2.0000      -0.435107       -11.8399
  39   2.0000      -0.435068       -11.8388
  40   2.0000      -0.414529       -11.2799
  41   2.0000      -0.414430       -11.2772
  42   2.0000      -0.413372       -11.2484
  43   2.0000      -0.413222       -11.2443
  44   2.0000      -0.387030       -10.5316
  45   2.0000      -0.386855       -10.5269
  46   2.0000      -0.379041       -10.3142
  47   2.0000      -0.353338        -9.6148
  48   2.0000      -0.333909        -9.0861
  49   2.0000      -0.333698        -9.0804
  50   2.0000      -0.332262        -9.0413
  51   2.0000      -0.330977        -9.0063
  52   2.0000      -0.326328        -8.8798
  53   2.0000      -0.324465        -8.8291
  54   2.0000      -0.324363        -8.8264
  55   2.0000      -0.317581        -8.6418
  56   2.0000      -0.316792        -8.6203
  57   2.0000      -0.316651        -8.6165
  58   2.0000      -0.314817        -8.5666
  59   2.0000      -0.314378        -8.5547
  60   0.0000       0.000234         0.0064
  61   0.0000       0.017850         0.4857
  62   0.0000       0.030739         0.8364
  63   0.0000       0.030912         0.8412
  64   0.0000       0.074457         2.0261

MULLIKEN ATOMIC CHARGES
-----------------------
   0 O :   -0.677710
   1 H :    0.358664
   2 H :    0.383120
   3 O :   -0.747614
   4 H :    0.371081
   5 H :    0.353626
   6 O :   -0.677524
   7 H :    0.382445
   8 H :    0.359225
   9 O :   -0.747346
  10 H :    0.371541
  11 H :    0.353777
  12 O :   -0.748504
  13 H :    0.354141
  14 H :    0.371190
  15 O :   -0.742663
  16 H :    0.366893
  17 H :    0.334412
  18 O :   -0.748141
  19 H :    0.353780
  20 H :    0.371572
  21 O :   -0.677582
  22 H :    0.382559
  23 H :    0.358466
  24 O :   -0.677456
  25 H :    0.382888
  26 H :    0.359313
  27 O :   -0.742956
  28 H :    0.366807
  29 H :    0.334230
  30 O :   -0.742609
  31 H :    0.334352
  32 H :    0.367191
  33 O :   -0.742710
  34 H :    0.367063
  35 H :    0.334480
Sum of atomic charges:   -0.0000000

LOEWDIN ATOMIC CHARGES
----------------------
   0 O :   -0.268197
   1 H :    0.147659
   2 H :    0.155747
   3 O :   -0.305188
   4 H :    0.146945
   5 H :    0.136449
   6 O :   -0.268327
   7 H :    0.156155
   8 H :    0.147646
   9 O :   -0.305937
  10 H :    0.147593
  11 H :    0.136529
  12 O :   -0.306454
  13 H :    0.136578
  14 H :    0.147395
  15 O :   -0.316915
  16 H :    0.142965
  17 H :    0.160045
  18 O :   -0.305983
  19 H :    0.136428
  20 H :    0.147680
  21 O :   -0.268278
  22 H :    0.155836
  23 H :    0.147603
  24 O :   -0.267854
  25 H :    0.155182
  26 H :    0.147532
  27 O :   -0.317004
  28 H :    0.143104
  29 H :    0.159841
  30 O :   -0.315882
  31 H :    0.160009
  32 H :    0.143318
  33 O :   -0.315424
  34 H :    0.143090
  35 H :    0.160115

  Mayer bond orders larger than 0.1
B(  0-O ,  1-H ) :   0.8138 B(  0-O ,  2-H ) :   0.8159 B(  0-O , 34-H ) :   0.2264
B(  1-H , 15-O ) :   0.1058 B(  3-O ,  4-H ) :   0.7974 B(  3-O ,  5-H ) :   0.7527
B(  3-O , 11-H ) :   0.1674 B(  4-H , 33-O ) :   0.1123 B(  5-H , 12-O ) :   0.1672
B(  6-O ,  7-H ) :   0.8172 B(  6-O ,  8-H ) :   0.8137 B(  6-O , 16-H ) :   0.2248
B(  8-H , 33-O ) :   0.1052 B(  9-O , 10-H ) :   0.7981 B(  9-O , 11-H ) :   0.7526
B(  9-O , 19-H ) :   0.1681 B( 10-H , 27-O ) :   0.1104 B( 12-O , 13-H ) :   0.7518
B( 12-O , 14-H ) :   0.7975 B( 13-H , 18-O ) :   0.1678 B( 14-H , 30-O ) :   0.1117
B( 15-O , 16-H ) :   0.6919 B( 15-O , 17-H ) :   0.8869 B( 15-O , 20-H ) :   0.1100
B( 18-O , 19-H ) :   0.7515 B( 18-O , 20-H ) :   0.7982 B( 21-O , 22-H ) :   0.8166
B( 21-O , 23-H ) :   0.8141 B( 21-O , 32-H ) :   0.2247 B( 23-H , 27-O ) :   0.1055
B( 24-O , 25-H ) :   0.8160 B( 24-O , 26-H ) :   0.8144 B( 24-O , 28-H ) :   0.2264
B( 26-H , 30-O ) :   0.1041 B( 27-O , 28-H ) :   0.6907 B( 27-O , 29-H ) :   0.8870
B( 30-O , 31-H ) :   0.8869 B( 30-O , 32-H ) :   0.6919 B( 33-O , 34-H ) :   0.6907
B( 33-O , 35-H ) :   0.8868

Dispersion correction           -0.044645183
FINAL SINGLE POINT ENERGY      -917.331657416487

DIPOLE MOMENT
-------------
                                X             Y             Z
Electronic contribution:     -0.00076       0.00008       0.00447
Nuclear contribution   :      0.00301      -0.00394       0.00368
                        -----------------------------------------
Total Dipole Moment    :      0.00225      -0.00387       0.00815
                        -----------------------------------------
Magnitude (a.u.)       :      0.00930
Magnitude (Debye)      :      0.02363

                             ****ORCA TERMINATED NORMALLY****
TOTAL RUN TIME: 0 days 0 hours 2 minutes 11 seconds 542 msec
