                         Program Version 3.0.3 - RELEASE   -
|  1> ! B3LYP Def2-TZVP def2-TZVP/J RIJCOSX TightSCF Grid4 D3BJ COSMO
|  2>
|  3> %pal nprocs 12 end
|  4>
|  5> %scf
|  6>         maxiter 400
|  7> end
|  8>
|  9> %cosmo
| 10>         SMD true
| 11>         solvent "WATER"
| 12> end
| 13>
| 14> * xyz  0  1
| 15> O  1.298577	-0.971910	2.896841
| 16> H  2.057231	-0.638709	2.329770
| 17> H  0.740971	-1.462002	2.234015
| 18> O  -1.519307	0.516761	0.961792
| 19> H  -1.164106	0.909849	1.816778
| 20> H  -1.038366	-0.378700	0.925294
| 21> O  1.806466	2.482295	1.280102
| 22> H  1.256354	2.444585	0.452164
| 23> H  1.147159	2.196604	1.981909
| 24> O  0.118393	1.721761	-0.733472
| 25> H  -0.376412	1.674974	-1.606972
| 26> H  -0.556446	1.323677	-0.083864
| 27> O  -0.139283	-1.728456	0.704773
| 28> H  0.539833	-1.328321	0.061480
| 29> H  -0.760299	-2.214712	0.080089
| 30> O  3.022482	0.175720	1.155277
| 31> H  2.642115	1.129566	1.213905
| 32> H  3.987717	0.267767	1.280608
| 33> O  1.538215	-0.502566	-0.936513
| 34> H  1.050280	0.390036	-0.901725
| 35> H  2.305648	-0.352140	-0.305809
| 36> O  0.000535	-1.413499	-3.004272
| 37> H  0.751448	-1.191429	-2.390662
| 38> H  -0.462420	-0.527920	-3.099750
| 39> O  -3.106105	-0.101441	-1.163707
| 40> H  -2.744259	0.218091	-0.293665
| 41> H  -2.742741	-1.035770	-1.212501
| 42> O  -1.342204	0.921150	-2.795437
| 43> H  -2.113175	0.567578	-2.213007
| 44> H  -1.766879	1.410955	-3.527118
| 45> O  -1.717062	-2.413070	-1.312919
| 46> H  -2.038413	-3.291109	-1.597310
| 47> H  -1.049853	-2.110814	-2.035860
| 48> O  0.038831	1.313258	2.945680
| 49> H  0.521937	0.409669	3.037836
| 50> H  -0.186860	1.588271	3.856250
| 51> **                         ****END OF INPUT****

CARTESIAN COORDINATES (ANGSTROEM)
---------------------------------
  O      1.298577   -0.971910    2.896841
  H      2.057231   -0.638709    2.329770
  H      0.740971   -1.462002    2.234015
  O     -1.519307    0.516761    0.961792
  H     -1.164106    0.909849    1.816778
  H     -1.038366   -0.378700    0.925294
  O      1.806466    2.482295    1.280102
  H      1.256354    2.444585    0.452164
  H      1.147159    2.196604    1.981909
  O      0.118393    1.721761   -0.733472
  H     -0.376412    1.674974   -1.606972
  H     -0.556446    1.323677   -0.083864
  O     -0.139283   -1.728456    0.704773
  H      0.539833   -1.328321    0.061480
  H     -0.760299   -2.214712    0.080089
  O      3.022482    0.175720    1.155277
  H      2.642115    1.129566    1.213905
  H      3.987717    0.267767    1.280608
  O      1.538215   -0.502566   -0.936513
  H      1.050280    0.390036   -0.901725
  H      2.305648   -0.352140   -0.305809
  O      0.000535   -1.413499   -3.004272
  H      0.751448   -1.191429   -2.390662
  H     -0.462420   -0.527920   -3.099750
  O     -3.106105   -0.101441   -1.163707
  H     -2.744259    0.218091   -0.293665
  H     -2.742741   -1.035770   -1.212501
  O     -1.342204    0.921150   -2.795437
  H     -2.113175    0.567578   -2.213007
  H     -1.766879    1.410955   -3.527118
  O     -1.717062   -2.413070   -1.312919
  H     -2.038413   -3.291109   -1.597310
  H     -1.049853   -2.110814   -2.035860
  O      0.038831    1.313258    2.945680
  H      0.521937    0.409669    3.037836
  H     -0.186860    1.588271    3.856250

 Total Charge           Charge          ....    0
 Multiplicity           Mult            ....    1
 Number of Electrons    NEL             ....  120
 Basis Dimension        Dim             ....  516

ORBITAL ENERGIES
----------------

  NO   OCC          E(Eh)            E(eV)
   0   2.0000     -19.132128      -520.6117
   1   2.0000     -19.131703      -520.6001
   2   2.0000     -19.131561      -520.5962
   3   2.0000     -19.131508      -520.5948
   4   2.0000     -19.123204      -520.3688
   5   2.0000     -19.123074      -520.3653
   6   2.0000     -19.122981      -520.3628
   7   2.0000     -19.122716      -520.3556
   8   2.0000     -19.122205      -520.3417
   9   2.0000     -19.121928      -520.3341
  10   2.0000     -19.121911      -520.3337
  11   2.0000     -19.121853      -520.3321
  12   2.0000      -1.033732       -28.1293
  13   2.0000      -1.023508       -27.8511
  14   2.0000      -1.014426       -27.6039
  15   2.0000      -1.014210       -27.5981
  16   2.0000      -1.010241       -27.4900
  17   2.0000      -1.003238       -27.2995
  18   2.0000      -1.003102       -27.2958
  19   2.0000      -0.992833       -27.0164
  20   2.0000      -0.989881       -26.9360
  21   2.0000      -0.989714       -26.9315
  22   2.0000      -0.985173       -26.8079
  23   2.0000      -0.970054       -26.3965
  24   2.0000      -0.540980       -14.7208
  25   2.0000      -0.535818       -14.5803
  26   2.0000      -0.535041       -14.5592
  27   2.0000      -0.534736       -14.5509
  28   2.0000      -0.532363       -14.4863
  29   2.0000      -0.524300       -14.2669
  30   2.0000      -0.524182       -14.2637
  31   2.0000      -0.523888       -14.2557
  32   2.0000      -0.518750       -14.1159
  33   2.0000      -0.512758       -13.9529
  34   2.0000      -0.509920       -13.8756
  35   2.0000      -0.509735       -13.8706
  36   2.0000      -0.466556       -12.6956
  37   2.0000      -0.444805       -12.1037
  38   2.0000      -0.431318       -11.7368
  39   2.0000      -0.431103       -11.7309
  40   2.0000      -0.412234       -11.2174
  41   2.0000      -0.409390       -11.1401
  42   2.0000      -0.409230       -11.1357
  43   2.0000      -0.407136       -11.0787
  44   2.0000      -0.383431       -10.4337
  45   2.0000      -0.383205       -10.4275
  46   2.0000      -0.377695       -10.2776
  47   2.0000      -0.353592        -9.6217
  48   2.0000      -0.325573        -8.8593
  49   2.0000      -0.325440        -8.8557
  50   2.0000      -0.325256        -8.8507
  51   2.0000      -0.324169        -8.8211
  52   2.0000      -0.323138        -8.7930
  53   2.0000      -0.323064        -8.7910
  54   2.0000      -0.320589        -8.7237
  55   2.0000      -0.317446        -8.6381
  56   2.0000      -0.315898        -8.5960
  57   2.0000      -0.315816        -8.5938
  58   2.0000      -0.312242        -8.4965
  59   2.0000      -0.312067        -8.4918
  60   0.0000       0.015709         0.4275
  61   0.0000       0.041257         1.1227
  62   0.0000       0.058854         1.6015
  63   0.0000       0.058911         1.6030
  64   0.0000       0.094604         2.5743

MULLIKEN ATOMIC CHARGES
-----------------------
   0 O :   -0.745473
   1 H :    0.374473
   2 H :    0.389231
   3 O :   -0.779626
   4 H :    0.385736
   5 H :    0.367016
   6 O :   -0.745328
   7 H :    0.388657
   8 H :    0.374878
   9 O :   -0.778281
  10 H :    0.385648
  11 H :    0.365959
  12 O :   -0.780343
  13 H :    0.366309
  14 H :    0.385523
  15 O :   -0.754325
  16 H :    0.376080
  17 H :    0.386333
  18 O :   -0.778475
  19 H :    0.365905
  20 H :    0.385529
  21 O :   -0.744761
  22 H :    0.388624
  23 H :    0.374874
  24 O :   -0.745659
  25 H :    0.388897
  26 H :    0.375039
  27 O :   -0.753809
  28 H :    0.376049
  29 H :    0.386155
  30 O :   -0.754137
  31 H :    0.386500
  32 H :    0.376421
  33 O :   -0.752829
  34 H :    0.376544
  35 H :    0.386666
Sum of atomic charges:   -0.0000000

LOEWDIN ATOMIC CHARGES
----------------------
   0 O :   -0.318487
   1 H :    0.149169
   2 H :    0.154261
   3 O :   -0.319937
   4 H :    0.149844
   5 H :    0.139043
   6 O :   -0.318614
   7 H :    0.154792
   8 H :    0.148480
   9 O :   -0.320486
  10 H :    0.150348
  11 H :    0.138889
  12 O :   -0.321288
  13 H :    0.138810
  14 H :    0.150051
  15 O :   -0.292344
  16 H :    0.149494
  17 H :    0.187154
  18 O :   -0.320008
  19 H :    0.138923
  20 H :    0.150595
  21 O :   -0.317553
  22 H :    0.154442
  23 H :    0.149107
  24 O :   -0.318424
  25 H :    0.153561
  26 H :    0.148637
  27 O :   -0.291271
  28 H :    0.149877
  29 H :    0.187065
  30 O :   -0.290507
  31 H :    0.187209
  32 H :    0.149764
  33 O :   -0.288113
  34 H :    0.149987
  35 H :    0.187529

  Mayer bond orders larger than 0.1
B(  0-O ,  1-H ) :   0.7906 B(  0-O ,  2-H ) :   0.8108 B(  0-O , 34-H ) :   0.1761
B(  1-H , 15-O ) :   0.1197 B(  3-O ,  4-H ) :   0.7761 B(  3-O ,  5-H ) :   0.7473
B(  3-O , 11-H ) :   0.1616 B(  4-H , 33-O ) :   0.1233 B(  5-H , 12-O ) :   0.1604
B(  6-O ,  7-H ) :   0.8121 B(  6-O ,  8-H ) :   0.7896 B(  6-O , 16-H ) :   0.1752
B(  8-H , 33-O ) :   0.1204 B(  9-O , 10-H ) :   0.7784 B(  9-O , 11-H ) :   0.7473
B(  9-O , 19-H ) :   0.1621 B( 10-H , 27-O ) :   0.1202 B( 12-O , 13-H ) :   0.7471
B( 12-O , 14-H ) :   0.7764 B( 13-H , 18-O ) :   0.1612 B( 14-H , 30-O ) :   0.1232
B( 15-O , 16-H ) :   0.7283 B( 15-O , 17-H ) :   0.8499 B( 15-O , 20-H ) :   0.1196
B( 18-O , 19-H ) :   0.7467 B( 18-O , 20-H ) :   0.7787 B( 21-O , 22-H ) :   0.8114
B( 21-O , 23-H ) :   0.7902 B( 21-O , 32-H ) :   0.1762 B( 23-H , 27-O ) :   0.1197
B( 24-O , 25-H ) :   0.8105 B( 24-O , 26-H ) :   0.7910 B( 24-O , 28-H ) :   0.1757
B( 26-H , 30-O ) :   0.1184 B( 27-O , 28-H ) :   0.7280 B( 27-O , 29-H ) :   0.8500
B( 30-O , 31-H ) :   0.8496 B( 30-O , 32-H ) :   0.7273 B( 33-O , 34-H ) :   0.7274
B( 33-O , 35-H ) :   0.8495

Dispersion correction           -0.044605257
FINAL SINGLE POINT ENERGY      -917.377207284964

DIPOLE MOMENT
-------------
                                X             Y             Z
Electronic contribution:     -0.00202      -0.00062       0.00784
Nuclear contribution   :      0.00116      -0.00001       0.00463
                        -----------------------------------------
Total Dipole Moment    :     -0.00086      -0.00063       0.01247
                        -----------------------------------------
Magnitude (a.u.)       :      0.01251
Magnitude (Debye)      :      0.03181

                             ****ORCA TERMINATED NORMALLY****
TOTAL RUN TIME: 0 days 0 hours 1 minutes 31 seconds 996 msec
