                         Program Version 4.2.0 -  RELEASE  -
|  1> # 12mecn.remya.etal.2.mol2,5,7
|  2> ! MP2 def2-TZVP EnGrad TightSCF
|  3>
|  4> %pal
|  5>     nprocs 6
|  6> end
|  7>
|  8> %maxcore 8000
|  9>
| 10> %scf
| 11>     ConvForced true
| 12> end
| 13>
| 14> *xyz 0 1
| 15> C  -4.219070000  -3.477410000  -1.501740000
| 16> H  -3.251530000  -3.803540000  -1.893830000
| 17> H  -4.452920000  -2.481700000  -1.890840000
| 18> H  -4.992170000  -4.178130000  -1.824640000
| 19> C  -4.154550000  -3.418790000  -0.058340000
| 20> N  -4.091140000  -3.354840000   1.104432000
| 21> C  -1.955700000   2.515080000   1.698463000
| 22> H  -2.923830000   2.883163000   2.049269000
| 23> H  -1.154850000   3.171830000   2.050990000
| 24> H  -1.790380000   1.506115000   2.087896000
| 25> C  -1.948230000   2.482156000   0.253672000
| 26> N  -1.937550000   2.462523000  -0.913150000
| 27> C   1.502241000   0.651296000   1.710523000
| 28> H   1.309219000   1.637164000   2.143202000
| 29> H   2.493408000   0.297996000   2.009069000
| 30> H   0.746597000  -0.059850000   2.055508000
| 31> C   1.447974000   0.738517000   0.269805000
| 32> N   1.405612000   0.808047000  -0.894380000
| 33> *
| 34>
| 35>                          ****END OF INPUT****

CARTESIAN COORDINATES (ANGSTROEM)
---------------------------------
  C     -4.219070   -3.477410   -1.501740
  H     -3.251530   -3.803540   -1.893830
  H     -4.452920   -2.481700   -1.890840
  H     -4.992170   -4.178130   -1.824640
  C     -4.154550   -3.418790   -0.058340
  N     -4.091140   -3.354840    1.104432
  C     -1.955700    2.515080    1.698463
  H     -2.923830    2.883163    2.049269
  H     -1.154850    3.171830    2.050990
  H     -1.790380    1.506115    2.087896
  C     -1.948230    2.482156    0.253672
  N     -1.937550    2.462523   -0.913150
  C      1.502241    0.651296    1.710523
  H      1.309219    1.637164    2.143202
  H      2.493408    0.297996    2.009069
  H      0.746597   -0.059850    2.055508
  C      1.447974    0.738517    0.269805
  N      1.405612    0.808047   -0.894380

 Total Charge           Charge          ....    0
 Multiplicity           Mult            ....    1
 Number of Electrons    NEL             ....   66
 Basis Dimension        Dim             ....  333

ORBITAL ENERGIES
----------------

  NO   OCC          E(Eh)            E(eV)
   0   2.0000     -15.572979      -423.7623
   1   2.0000     -15.571276      -423.7160
   2   2.0000     -15.570290      -423.6891
   3   2.0000     -11.288129      -307.1656
   4   2.0000     -11.287089      -307.1373
   5   2.0000     -11.282278      -307.0064
   6   2.0000     -11.280823      -306.9668
   7   2.0000     -11.276424      -306.8471
   8   2.0000     -11.275799      -306.8301
   9   2.0000      -1.215177       -33.0666
  10   2.0000      -1.211953       -32.9789
  11   2.0000      -1.210366       -32.9357
  12   2.0000      -1.046893       -28.4874
  13   2.0000      -1.043990       -28.4084
  14   2.0000      -1.041517       -28.3411
  15   2.0000      -0.701426       -19.0868
  16   2.0000      -0.698873       -19.0173
  17   2.0000      -0.698604       -19.0100
  18   2.0000      -0.641129       -17.4460
  19   2.0000      -0.636706       -17.3256
  20   2.0000      -0.631942       -17.1960
  21   2.0000      -0.629132       -17.1196
  22   2.0000      -0.628550       -17.1037
  23   2.0000      -0.628455       -17.1011
  24   2.0000      -0.556903       -15.1541
  25   2.0000      -0.553399       -15.0587
  26   2.0000      -0.550770       -14.9872
  27   2.0000      -0.461789       -12.5659
  28   2.0000      -0.458247       -12.4695
  29   2.0000      -0.457986       -12.4624
  30   2.0000      -0.456097       -12.4110
  31   2.0000      -0.453178       -12.3316
  32   2.0000      -0.446571       -12.1518
  33   0.0000       0.096884         2.6364
  34   0.0000       0.122267         3.3271
  35   0.0000       0.144383         3.9289
  36   0.0000       0.151342         4.1182
  37   0.0000       0.158138         4.3031

MULLIKEN ATOMIC CHARGES
-----------------------
   0 C :   -0.278528
   1 H :    0.174116
   2 H :    0.178267
   3 H :    0.170747
   4 C :   -0.144810
   5 N :   -0.099773
   6 C :   -0.289469
   7 H :    0.181712
   8 H :    0.167083
   9 H :    0.169762
  10 C :   -0.151016
  11 N :   -0.078166
  12 C :   -0.288886
  13 H :    0.162581
  14 H :    0.181078
  15 H :    0.174713
  16 C :   -0.152890
  17 N :   -0.076520
Sum of atomic charges:   -0.0000000

LOEWDIN ATOMIC CHARGES
----------------------
   0 C :   -0.282178
   1 H :    0.153963
   2 H :    0.155429
   3 H :    0.150871
   4 C :   -0.217776
   5 N :    0.039700
   6 C :   -0.287442
   7 H :    0.153777
   8 H :    0.149828
   9 H :    0.150455
  10 C :   -0.223622
  11 N :    0.056862
  12 C :   -0.287543
  13 H :    0.148334
  14 H :    0.154071
  15 H :    0.152255
  16 C :   -0.225273
  17 N :    0.058290

  Mayer bond orders larger than 0.100000
B(  0-C ,  1-H ) :   0.9150 B(  0-C ,  2-H ) :   0.9142 B(  0-C ,  3-H ) :   0.9165
B(  0-C ,  4-C ) :   0.9031 B(  4-C ,  5-N ) :   2.8423 B(  6-C ,  7-H ) :   0.9111
B(  6-C ,  8-H ) :   0.9227 B(  6-C ,  9-H ) :   0.9183 B(  6-C , 10-C ) :   0.8970
B( 10-C , 11-N ) :   2.8303 B( 12-C , 13-H ) :   0.9203 B( 12-C , 14-H ) :   0.9119
B( 12-C , 15-H ) :   0.9216 B( 12-C , 16-C ) :   0.8936 B( 16-C , 17-N ) :   2.8278

MP2 TOTAL ENERGY:     -397.449436859 Eh
FINAL SINGLE POINT ENERGY      -397.449436858961

DIPOLE MOMENT
-------------
                                X             Y             Z
Electronic contribution:      0.02963       0.25044      -3.26251
Nuclear contribution   :     -0.06095      -0.39165       4.61239
                        -----------------------------------------
Total Dipole Moment    :     -0.03132      -0.14121       1.34988
                        -----------------------------------------
Magnitude (a.u.)       :      1.35760
Magnitude (Debye)      :      3.45075

Rotational constants in cm-1:     0.037552     0.012981     0.011747
Rotational constants in MHz :  1125.771654   389.174220   352.173458

                             ****ORCA TERMINATED NORMALLY****
TOTAL RUN TIME: 0 days 0 hours 2 minutes 49 seconds 299 msec
