                         Program Version 4.2.0 -  RELEASE  -
|  1> # 12h2o.su.etal.mol0,3,4,7
|  2> ! MP2 def2-TZVP EnGrad TightSCF
|  3>
|  4> %pal
|  5>     nprocs 6
|  6> end
|  7>
|  8> %maxcore 8000
|  9>
| 10> %scf
| 11>     ConvForced true
| 12> end
| 13>
| 14> *xyz 0 1
| 15> O   1.794470000   0.923410000   2.768350000
| 16> H   2.338250000   1.359750000   3.430940000
| 17> H   0.879480000   1.303000000   2.865760000
| 18> O  -1.752130000  -0.741530000  -2.896280000
| 19> H  -2.036450000  -0.920500000  -1.984040000
| 20> H  -0.921210000  -1.242140000  -2.984230000
| 21> O  -0.885520000   1.737840000   0.052730000
| 22> H  -1.032320000   2.090180000  -0.841890000
| 23> H  -1.284090000   0.839590000   0.017130000
| 24> O  -1.737840000  -0.885520000  -0.052730000
| 25> H  -2.090180000  -1.032320000   0.841890000
| 26> H  -0.839590000  -1.284090000  -0.017130000
| 27> *
| 28>
| 29>                          ****END OF INPUT****

CARTESIAN COORDINATES (ANGSTROEM)
---------------------------------
  O      1.794470    0.923410    2.768350
  H      2.338250    1.359750    3.430940
  H      0.879480    1.303000    2.865760
  O     -1.752130   -0.741530   -2.896280
  H     -2.036450   -0.920500   -1.984040
  H     -0.921210   -1.242140   -2.984230
  O     -0.885520    1.737840    0.052730
  H     -1.032320    2.090180   -0.841890
  H     -1.284090    0.839590    0.017130
  O     -1.737840   -0.885520   -0.052730
  H     -2.090180   -1.032320    0.841890
  H     -0.839590   -1.284090   -0.017130

 Total Charge           Charge          ....    0
 Multiplicity           Mult            ....    1
 Number of Electrons    NEL             ....   40
 Basis Dimension        Dim             ....  172

ORBITAL ENERGIES
----------------

  NO   OCC          E(Eh)            E(eV)
   0   2.0000     -20.619799      -561.0933
   1   2.0000     -20.556929      -559.3825
   2   2.0000     -20.546258      -559.0921
   3   2.0000     -20.530387      -558.6602
   4   2.0000      -1.402619       -38.1672
   5   2.0000      -1.332330       -36.2545
   6   2.0000      -1.328124       -36.1401
   7   2.0000      -1.311707       -35.6934
   8   2.0000      -0.761164       -20.7123
   9   2.0000      -0.701446       -19.0873
  10   2.0000      -0.700670       -19.0662
  11   2.0000      -0.689835       -18.7714
  12   2.0000      -0.637819       -17.3559
  13   2.0000      -0.581701       -15.8289
  14   2.0000      -0.568936       -15.4815
  15   2.0000      -0.559615       -15.2279
  16   2.0000      -0.533955       -14.5297
  17   2.0000      -0.500216       -13.6116
  18   2.0000      -0.492370       -13.3981
  19   2.0000      -0.478355       -13.0167
  20   0.0000       0.090113         2.4521
  21   0.0000       0.135198         3.6789
  22   0.0000       0.150147         4.0857
  23   0.0000       0.175730         4.7819
  24   0.0000       0.190903         5.1947

MULLIKEN ATOMIC CHARGES
-----------------------
   0 O :   -0.688234
   1 H :    0.336656
   2 H :    0.349640
   3 O :   -0.689715
   4 H :    0.366375
   5 H :    0.323626
   6 O :   -0.715761
   7 H :    0.337932
   8 H :    0.349437
   9 O :   -0.707735
  10 H :    0.369743
  11 H :    0.368035
Sum of atomic charges:    0.0000000

LOEWDIN ATOMIC CHARGES
----------------------
   0 O :   -0.341616
   1 H :    0.156939
   2 H :    0.182688
   3 O :   -0.335261
   4 H :    0.150216
   5 H :    0.160275
   6 O :   -0.360971
   7 H :    0.162896
   8 H :    0.138878
   9 O :   -0.276868
  10 H :    0.178383
  11 H :    0.184440

  Mayer bond orders larger than 0.100000
B(  0-O ,  1-H ) :   0.8544 B(  0-O ,  2-H ) :   0.8397 B(  3-O ,  4-H ) :   0.8263
B(  3-O ,  5-H ) :   0.8604 B(  6-O ,  7-H ) :   0.8522 B(  6-O ,  8-H ) :   0.8132
B(  9-O , 10-H ) :   0.8282 B(  9-O , 11-H ) :   0.8248

MP2 TOTAL ENERGY:     -305.264534259 Eh
FINAL SINGLE POINT ENERGY      -305.264534258736

DIPOLE MOMENT
-------------
                                X             Y             Z
Electronic contribution:     -0.11201      -0.07214      -0.10005
Nuclear contribution   :      0.14644      -0.79485       1.31870
                        -----------------------------------------
Total Dipole Moment    :      0.03443      -0.86699       1.21865
                        -----------------------------------------
Magnitude (a.u.)       :      1.49598
Magnitude (Debye)      :      3.80248

Rotational constants in cm-1:     0.190746     0.035390     0.033346
Rotational constants in MHz :  5718.431707  1060.952709   999.696378

                             ****ORCA TERMINATED NORMALLY****
TOTAL RUN TIME: 0 days 0 hours 0 minutes 16 seconds 878 msec
