                         Program Version 4.2.0 -  RELEASE  -
|  1> # 12meoh.boyd.etal.mol0,3
|  2> ! MP2 def2-TZVP EnGrad TightSCF
|  3>
|  4> %pal
|  5>     nprocs 6
|  6> end
|  7>
|  8> %maxcore 8000
|  9>
| 10> %scf
| 11>     ConvForced true
| 12> end
| 13>
| 14> *xyz 0 1
| 15> O  -1.776108874  -2.741384797  -1.019308298
| 16> H  -2.520094035  -2.452295987  -0.420778302
| 17> C  -2.174025166  -3.952700964  -1.647004581
| 18> H  -1.359803895  -4.272673416  -2.304149236
| 19> H  -3.075973971  -3.808692420  -2.256751112
| 20> H  -2.370225393  -4.752784761  -0.918966137
| 21> O  -3.821405976  -2.118091637   0.596795346
| 22> H  -4.342989117  -1.344303030   0.251966383
| 23> C  -3.443883586  -1.809641231   1.934889393
| 24> H  -2.831494349  -2.637429600   2.305201764
| 25> H  -4.325601146  -1.719364371   2.585074667
| 26> H  -2.858527126  -0.882644791   1.996110694
| 27> *
| 28>
| 29>                          ****END OF INPUT****

CARTESIAN COORDINATES (ANGSTROEM)
---------------------------------
  O     -1.776109   -2.741385   -1.019308
  H     -2.520094   -2.452296   -0.420778
  C     -2.174025   -3.952701   -1.647005
  H     -1.359804   -4.272673   -2.304149
  H     -3.075974   -3.808692   -2.256751
  H     -2.370225   -4.752785   -0.918966
  O     -3.821406   -2.118092    0.596795
  H     -4.342989   -1.344303    0.251966
  C     -3.443884   -1.809641    1.934889
  H     -2.831494   -2.637430    2.305202
  H     -4.325601   -1.719364    2.585075
  H     -2.858527   -0.882645    1.996111

 Total Charge           Charge          ....    0
 Multiplicity           Mult            ....    1
 Number of Electrons    NEL             ....   36
 Basis Dimension        Dim             ....  172

ORBITAL ENERGIES
----------------

  NO   OCC          E(Eh)            E(eV)
   0   2.0000     -20.592170      -560.3414
   1   2.0000     -20.512340      -558.1692
   2   2.0000     -11.291122      -307.2471
   3   2.0000     -11.246681      -306.0378
   4   2.0000      -1.385423       -37.6993
   5   2.0000      -1.309328       -35.6286
   6   2.0000      -0.942685       -25.6518
   7   2.0000      -0.892954       -24.2985
   8   2.0000      -0.717338       -19.5198
   9   2.0000      -0.673385       -18.3237
  10   2.0000      -0.635615       -17.2960
  11   2.0000      -0.609542       -16.5865
  12   2.0000      -0.588589       -16.0163
  13   2.0000      -0.559820       -15.2335
  14   2.0000      -0.529657       -14.4127
  15   2.0000      -0.489220       -13.3123
  16   2.0000      -0.454985       -12.3808
  17   2.0000      -0.414738       -11.2856
  18   0.0000       0.117638         3.2011
  19   0.0000       0.161417         4.3924
  20   0.0000       0.174370         4.7448
  21   0.0000       0.211366         5.7516
  22   0.0000       0.214290         5.8311

MULLIKEN ATOMIC CHARGES
-----------------------
   0 O :   -0.536765
   1 H :    0.339829
   2 C :   -0.155000
   3 H :    0.119182
   4 H :    0.094347
   5 H :    0.095857
   6 O :   -0.512663
   7 H :    0.342070
   8 C :   -0.188665
   9 H :    0.145430
  10 H :    0.125570
  11 H :    0.130807
Sum of atomic charges:   -0.0000000

LOEWDIN ATOMIC CHARGES
----------------------
   0 O :   -0.127553
   1 H :    0.157348
   2 C :   -0.396053
   3 H :    0.104942
   4 H :    0.090782
   5 H :    0.091534
   6 O :   -0.073070
   7 H :    0.200062
   8 C :   -0.372358
   9 H :    0.117063
  10 H :    0.104028
  11 H :    0.103277

  Mayer bond orders larger than 0.100000
B(  0-O ,  1-H ) :   0.7893 B(  0-O ,  2-C ) :   0.9410 B(  1-H ,  6-O ) :   0.1012
B(  2-C ,  3-H ) :   0.9409 B(  2-C ,  4-H ) :   0.9436 B(  2-C ,  5-H ) :   0.9361
B(  6-O ,  7-H ) :   0.8277 B(  6-O ,  8-C ) :   0.8679 B(  8-C ,  9-H ) :   0.9385
B(  8-C , 10-H ) :   0.9338 B(  8-C , 11-H ) :   0.9392

MP2 TOTAL ENERGY:     -231.022522275 Eh
FINAL SINGLE POINT ENERGY      -231.022522274867

DIPOLE MOMENT
-------------
                                X             Y             Z
Electronic contribution:      0.03102       1.18667      -0.61276
Nuclear contribution   :     -1.03237      -0.71856       1.39650
                        -----------------------------------------
Total Dipole Moment    :     -1.00135       0.46811       0.78374
                        -----------------------------------------
Magnitude (a.u.)       :      1.35502
Magnitude (Debye)      :      3.44418

Rotational constants in cm-1:     0.615661     0.081076     0.078119
Rotational constants in MHz : 18457.057673  2430.596670  2341.959970

                             ****ORCA TERMINATED NORMALLY****
TOTAL RUN TIME: 0 days 0 hours 0 minutes 44 seconds 464 msec
