                         Program Version 4.2.0 -  RELEASE  -
|  1> # 12h2o.su.etal.mol0,1,3,4,5,10
|  2> ! MP2 def2-TZVP EnGrad TightSCF
|  3>
|  4> %pal
|  5>     nprocs 6
|  6> end
|  7>
|  8> %maxcore 8000
|  9>
| 10> %scf
| 11>     ConvForced true
| 12> end
| 13>
| 14> *xyz 0 1
| 15> O   1.794470000   0.923410000   2.768350000
| 16> H   2.338250000   1.359750000   3.430940000
| 17> H   0.879480000   1.303000000   2.865760000
| 18> O  -1.794470000  -0.923410000   2.768350000
| 19> H  -2.338250000  -1.359750000   3.430940000
| 20> H  -0.879480000  -1.303000000   2.865760000
| 21> O  -1.752130000  -0.741530000  -2.896280000
| 22> H  -2.036450000  -0.920500000  -1.984040000
| 23> H  -0.921210000  -1.242140000  -2.984230000
| 24> O  -0.885520000   1.737840000   0.052730000
| 25> H  -1.032320000   2.090180000  -0.841890000
| 26> H  -1.284090000   0.839590000   0.017130000
| 27> O   0.885520000  -1.737840000   0.052730000
| 28> H   1.284090000  -0.839590000   0.017130000
| 29> H   1.032320000  -2.090180000  -0.841890000
| 30> O  -0.923410000   1.794470000  -2.768350000
| 31> H  -1.359750000   2.338250000  -3.430940000
| 32> H  -1.303000000   0.879480000  -2.865760000
| 33> *
| 34>
| 35>                          ****END OF INPUT****

CARTESIAN COORDINATES (ANGSTROEM)
---------------------------------
  O      1.794470    0.923410    2.768350
  H      2.338250    1.359750    3.430940
  H      0.879480    1.303000    2.865760
  O     -1.794470   -0.923410    2.768350
  H     -2.338250   -1.359750    3.430940
  H     -0.879480   -1.303000    2.865760
  O     -1.752130   -0.741530   -2.896280
  H     -2.036450   -0.920500   -1.984040
  H     -0.921210   -1.242140   -2.984230
  O     -0.885520    1.737840    0.052730
  H     -1.032320    2.090180   -0.841890
  H     -1.284090    0.839590    0.017130
  O      0.885520   -1.737840    0.052730
  H      1.284090   -0.839590    0.017130
  H      1.032320   -2.090180   -0.841890
  O     -0.923410    1.794470   -2.768350
  H     -1.359750    2.338250   -3.430940
  H     -1.303000    0.879480   -2.865760

 Total Charge           Charge          ....    0
 Multiplicity           Mult            ....    1
 Number of Electrons    NEL             ....   60
 Basis Dimension        Dim             ....  258

ORBITAL ENERGIES
----------------

  NO   OCC          E(Eh)            E(eV)
   0   2.0000     -20.609554      -560.8145
   1   2.0000     -20.564684      -559.5935
   2   2.0000     -20.554698      -559.3218
   3   2.0000     -20.548767      -559.1604
   4   2.0000     -20.544133      -559.0343
   5   2.0000     -20.520853      -558.4008
   6   2.0000      -1.394965       -37.9589
   7   2.0000      -1.340499       -36.4768
   8   2.0000      -1.330049       -36.1925
   9   2.0000      -1.329269       -36.1712
  10   2.0000      -1.324121       -36.0312
  11   2.0000      -1.299109       -35.3506
  12   2.0000      -0.752193       -20.4682
  13   2.0000      -0.715408       -19.4673
  14   2.0000      -0.702303       -19.1106
  15   2.0000      -0.698121       -18.9968
  16   2.0000      -0.691699       -18.8221
  17   2.0000      -0.668310       -18.1856
  18   2.0000      -0.632132       -17.2012
  19   2.0000      -0.580765       -15.8034
  20   2.0000      -0.580020       -15.7832
  21   2.0000      -0.566735       -15.4217
  22   2.0000      -0.561214       -15.2714
  23   2.0000      -0.548507       -14.9256
  24   2.0000      -0.530031       -14.4229
  25   2.0000      -0.507608       -13.8127
  26   2.0000      -0.498232       -13.5576
  27   2.0000      -0.492213       -13.3938
  28   2.0000      -0.490151       -13.3377
  29   2.0000      -0.466189       -12.6856
  30   0.0000       0.082987         2.2582
  31   0.0000       0.125793         3.4230
  32   0.0000       0.142506         3.8778
  33   0.0000       0.153039         4.1644
  34   0.0000       0.164496         4.4762

MULLIKEN ATOMIC CHARGES
-----------------------
   0 O :   -0.694458
   1 H :    0.334004
   2 H :    0.360887
   3 O :   -0.692301
   4 H :    0.334623
   5 H :    0.358135
   6 O :   -0.675022
   7 H :    0.363350
   8 H :    0.356510
   9 O :   -0.698903
  10 H :    0.366134
  11 H :    0.317548
  12 O :   -0.684991
  13 H :    0.364931
  14 H :    0.320530
  15 O :   -0.732952
  16 H :    0.336344
  17 H :    0.365630
Sum of atomic charges:   -0.0000000

LOEWDIN ATOMIC CHARGES
----------------------
   0 O :   -0.342330
   1 H :    0.156023
   2 H :    0.186411
   3 O :   -0.341346
   4 H :    0.156260
   5 H :    0.185359
   6 O :   -0.266108
   7 H :    0.175024
   8 H :    0.174927
   9 O :   -0.347325
  10 H :    0.148477
  11 H :    0.157258
  12 O :   -0.336717
  13 H :    0.181082
  14 H :    0.156665
  15 O :   -0.339474
  16 H :    0.153415
  17 H :    0.142399

  Mayer bond orders larger than 0.100000
B(  0-O ,  1-H ) :   0.8552 B(  0-O ,  2-H ) :   0.8305 B(  3-O ,  4-H ) :   0.8547
B(  3-O ,  5-H ) :   0.8323 B(  6-O ,  7-H ) :   0.8321 B(  6-O ,  8-H ) :   0.8365
B(  9-O , 10-H ) :   0.8130 B(  9-O , 11-H ) :   0.8572 B( 12-O , 13-H ) :   0.8278
B( 12-O , 14-H ) :   0.8606 B( 15-O , 16-H ) :   0.8508 B( 15-O , 17-H ) :   0.7736

MP2 TOTAL ENERGY:     -457.900269649 Eh
FINAL SINGLE POINT ENERGY      -457.900269649095

DIPOLE MOMENT
-------------
                                X             Y             Z
Electronic contribution:     -0.01073      -0.08765      -0.11238
Nuclear contribution   :     -0.22418      -0.87464      -0.22986
                        -----------------------------------------
Total Dipole Moment    :     -0.23491      -0.96229      -0.34224
                        -----------------------------------------
Magnitude (a.u.)       :      1.04800
Magnitude (Debye)      :      2.66380

Rotational constants in cm-1:     0.047618     0.021905     0.020150
Rotational constants in MHz :  1427.552940   656.692093   604.089944

                             ****ORCA TERMINATED NORMALLY****
TOTAL RUN TIME: 0 days 0 hours 0 minutes 49 seconds 471 msec
