                         Program Version 4.2.0 -  RELEASE  -
|  1> # 12mecn.remya.etal.2.mol0,6,9
|  2> ! MP2 def2-TZVP EnGrad TightSCF
|  3>
|  4> %pal
|  5>     nprocs 6
|  6> end
|  7>
|  8> %maxcore 8000
|  9>
| 10> %scf
| 11>     ConvForced true
| 12> end
| 13>
| 14> *xyz 0 1
| 15> C  -0.869520000  -3.929380000   1.700199000
| 16> H  -0.057420000  -3.268850000   2.015352000
| 17> H  -0.697530000  -4.930670000   2.101524000
| 18> H  -1.821490000  -3.546590000   2.077146000
| 19> C  -0.916080000  -3.969960000   0.256749000
| 20> N  -0.955390000  -3.995980000  -0.909290000
| 21> C   5.300864000  -2.920090000   1.401103000
| 22> H   5.986071000  -2.139770000   1.737487000
| 23> H   5.636642000  -3.888750000   1.778233000
| 24> H   4.307359000  -2.697240000   1.799307000
| 25> C   5.234791000  -2.933140000  -0.043290000
| 26> N   5.170868000  -2.941760000  -1.207750000
| 27> C   0.923766000   4.000693000  -1.575910000
| 28> H   0.011949000   4.478423000  -1.939550000
| 29> H   0.947903000   2.966558000  -1.929960000
| 30> H   1.805950000   4.519548000  -1.956520000
| 31> C   0.942834000   3.994846000  -0.131200000
| 32> N   0.960035000   3.982544000   1.035639000
| 33> *
| 34>
| 35>                          ****END OF INPUT****

CARTESIAN COORDINATES (ANGSTROEM)
---------------------------------
  C     -0.869520   -3.929380    1.700199
  H     -0.057420   -3.268850    2.015352
  H     -0.697530   -4.930670    2.101524
  H     -1.821490   -3.546590    2.077146
  C     -0.916080   -3.969960    0.256749
  N     -0.955390   -3.995980   -0.909290
  C      5.300864   -2.920090    1.401103
  H      5.986071   -2.139770    1.737487
  H      5.636642   -3.888750    1.778233
  H      4.307359   -2.697240    1.799307
  C      5.234791   -2.933140   -0.043290
  N      5.170868   -2.941760   -1.207750
  C      0.923766    4.000693   -1.575910
  H      0.011949    4.478423   -1.939550
  H      0.947903    2.966558   -1.929960
  H      1.805950    4.519548   -1.956520
  C      0.942834    3.994846   -0.131200
  N      0.960035    3.982544    1.035639

 Total Charge           Charge          ....    0
 Multiplicity           Mult            ....    1
 Number of Electrons    NEL             ....   66
 Basis Dimension        Dim             ....  333

ORBITAL ENERGIES
----------------

  NO   OCC          E(Eh)            E(eV)
   0   2.0000     -15.573500      -423.7765
   1   2.0000     -15.573393      -423.7736
   2   2.0000     -15.573354      -423.7725
   3   2.0000     -11.286248      -307.1144
   4   2.0000     -11.286205      -307.1132
   5   2.0000     -11.283258      -307.0331
   6   2.0000     -11.280770      -306.9654
   7   2.0000     -11.280155      -306.9486
   8   2.0000     -11.280017      -306.9449
   9   2.0000      -1.214922       -33.0597
  10   2.0000      -1.214808       -33.0566
  11   2.0000      -1.214410       -33.0458
  12   2.0000      -1.045279       -28.4435
  13   2.0000      -1.044947       -28.4345
  14   2.0000      -1.043326       -28.3903
  15   2.0000      -0.702222       -19.1084
  16   2.0000      -0.701069       -19.0770
  17   2.0000      -0.699580       -19.0365
  18   2.0000      -0.634087       -17.2544
  19   2.0000      -0.633857       -17.2481
  20   2.0000      -0.632986       -17.2244
  21   2.0000      -0.632904       -17.2222
  22   2.0000      -0.631429       -17.1821
  23   2.0000      -0.628779       -17.1099
  24   2.0000      -0.556567       -15.1450
  25   2.0000      -0.556012       -15.1299
  26   2.0000      -0.555682       -15.1209
  27   2.0000      -0.458355       -12.4725
  28   2.0000      -0.458277       -12.4704
  29   2.0000      -0.457772       -12.4566
  30   2.0000      -0.457622       -12.4525
  31   2.0000      -0.457450       -12.4479
  32   2.0000      -0.457430       -12.4473
  33   0.0000       0.101272         2.7557
  34   0.0000       0.121142         3.2964
  35   0.0000       0.127049         3.4572
  36   0.0000       0.159396         4.3374
  37   0.0000       0.169934         4.6241

MULLIKEN ATOMIC CHARGES
-----------------------
   0 C :   -0.278531
   1 H :    0.168041
   2 H :    0.171881
   3 H :    0.173486
   4 C :   -0.145745
   5 N :   -0.089134
   6 C :   -0.279555
   7 H :    0.173611
   8 H :    0.172411
   9 H :    0.167052
  10 C :   -0.145692
  11 N :   -0.087825
  12 C :   -0.278689
  13 H :    0.172130
  14 H :    0.176397
  15 H :    0.172238
  16 C :   -0.145589
  17 N :   -0.096487
Sum of atomic charges:    0.0000000

LOEWDIN ATOMIC CHARGES
----------------------
   0 C :   -0.284128
   1 H :    0.151501
   2 H :    0.151251
   3 H :    0.153346
   4 C :   -0.220293
   5 N :    0.048322
   6 C :   -0.284252
   7 H :    0.151972
   8 H :    0.151151
   9 H :    0.151559
  10 C :   -0.219320
  11 N :    0.048891
  12 C :   -0.282572
  13 H :    0.151777
  14 H :    0.154930
  15 H :    0.152236
  16 C :   -0.218831
  17 N :    0.042461

  Mayer bond orders larger than 0.100000
B(  0-C ,  1-H ) :   0.9176 B(  0-C ,  2-H ) :   0.9171 B(  0-C ,  3-H ) :   0.9163
B(  0-C ,  4-C ) :   0.9012 B(  4-C ,  5-N ) :   2.8347 B(  6-C ,  7-H ) :   0.9166
B(  6-C ,  8-H ) :   0.9165 B(  6-C ,  9-H ) :   0.9180 B(  6-C , 10-C ) :   0.9026
B( 10-C , 11-N ) :   2.8350 B( 12-C , 13-H ) :   0.9161 B( 12-C , 14-H ) :   0.9157
B( 12-C , 15-H ) :   0.9161 B( 12-C , 16-C ) :   0.9014 B( 16-C , 17-N ) :   2.8397

MP2 TOTAL ENERGY:     -397.449462264 Eh
FINAL SINGLE POINT ENERGY      -397.449462264407

DIPOLE MOMENT
-------------
                                X             Y             Z
Electronic contribution:     -0.19411      -0.12784      -3.17422
Nuclear contribution   :      0.29603       0.18476       4.64630
                        -----------------------------------------
Total Dipole Moment    :      0.10192       0.05692       1.47207
                        -----------------------------------------
Magnitude (a.u.)       :      1.47670
Magnitude (Debye)      :      3.75346

Rotational constants in cm-1:     0.017505     0.009758     0.007101
Rotational constants in MHz :   524.787392   292.533949   212.873526

                             ****ORCA TERMINATED NORMALLY****
TOTAL RUN TIME: 0 days 0 hours 1 minutes 54 seconds 375 msec
