                         Program Version 3.0.3 - RELEASE   -
|  1> ! B3LYP Def2-SVP def2-SVP/J RIJCOSX TightSCF Grid4 D3BJ COSMO OPT
|  2>
|  3> %pal nprocs 12 end
|  4>
|  5> %scf
|  6>         maxiter 800
|  7> end
|  8>
|  9> %cosmo
| 10>         SMD true
| 11>         solvent "WATER"
| 12> end
| 13>
| 14> * xyz  0  1
| 15>   O      1.917812    1.163363    0.515807
| 16>   H      1.402840    1.558921   -0.187450
| 17>   H      1.307768    1.094004    1.250155
| 18>   O     -0.081997    0.618336    2.373167
| 19>   H     -0.125264   -0.315920    2.169393
| 20>   H     -0.104203    0.656691    3.329341
| 21>   O     -0.126737   -1.973437    1.455550
| 22>   H      0.602800   -1.858514    0.846616
| 23>   H     -0.047940   -2.878725    1.756343
| 24>   O     -1.785962    1.425392    0.335462
| 25>   H     -2.035183    0.551344    0.035194
| 26>   H     -1.302655    1.271530    1.147233
| 27>   O      1.785964   -1.425392   -0.335460
| 28>   H      1.302660   -1.271531   -1.147233
| 29>   H      2.035185   -0.551343   -0.035193
| 30>   O      0.126736    1.973436   -1.455551
| 31>   H      0.047941    2.878726   -1.756340
| 32>   H     -0.602800    1.858513   -0.846616
| 33>   O      0.081999   -0.618338   -2.373168
| 34>   H      0.125265    0.315919   -2.169394
| 35>   H      0.104188   -0.656693   -3.329341
| 36>   O     -1.917811   -1.163361   -0.515808
| 37>   H     -1.307766   -1.094003   -1.250156
| 38>   H     -1.402841   -1.558921    0.187449
| 39> **                         ****END OF INPUT****
 Total Charge           Charge          ....    0
 Multiplicity           Mult            ....    1
 Number of Electrons    NEL             ....   80
Dispersion correction           -0.024410785
FINAL SINGLE POINT ENERGY      -610.802120704953
Dispersion correction            ...
Dispersion correction           -0.023892154
FINAL SINGLE POINT ENERGY      -610.810461945303
Dispersion correction            ...
Dispersion correction           -0.024207237
FINAL SINGLE POINT ENERGY      -610.811786242079
Dispersion correction            ...
FINAL SINGLE POINT ENERGY      -610.812799397854
FINAL SINGLE POINT ENERGY      -610.813356711399
FINAL SINGLE POINT ENERGY      -610.813509879078
FINAL SINGLE POINT ENERGY      -610.813568087347
FINAL SINGLE POINT ENERGY      -610.813606916399
FINAL SINGLE POINT ENERGY      -610.813586571453
FINAL SINGLE POINT ENERGY      -610.813626922960
FINAL SINGLE POINT ENERGY      -610.815565692932
FINAL SINGLE POINT ENERGY      -610.815611663008
FINAL SINGLE POINT ENERGY      -610.815622748022
FINAL SINGLE POINT ENERGY      -610.815604180854
FINAL SINGLE POINT ENERGY      -610.815586118568
FINAL SINGLE POINT ENERGY      -610.815620855549
FINAL SINGLE POINT ENERGY      -610.824149780734
Dispersion correction            ...
Dispersion correction           -0.024966342
FINAL SINGLE POINT ENERGY      -610.815637489712
Dispersion correction            ...
Dispersion correction           -0.024958123
FINAL SINGLE POINT ENERGY      -610.815618925447
Dispersion correction            ...
                    ***********************HURRAY********************

CARTESIAN COORDINATES (ANGSTROEM)
---------------------------------
  O      2.079924    1.257150    0.568982
  H      1.494485    1.603407   -0.142686
  H      1.454672    1.122275    1.316490
  O     -0.002138    0.605424    2.283133
  H     -0.099079   -0.365110    2.092040
  H     -0.133474    0.695370    3.239285
  O     -0.186957   -1.865000    1.315019
  H      0.627139   -1.784383    0.730311
  H     -0.096868   -2.699535    1.799741
  O     -1.800403    1.347315    0.330782
  H     -2.029835    0.436446    0.015123
  H     -1.249160    1.180623    1.131277
  O      1.801076   -1.346244   -0.331569
  H      1.249821   -1.180711   -1.132266
  H      2.029091   -0.435228   -0.015402
  O      0.188051    1.864297   -1.315466
  H      0.099759    2.699670   -1.799108
  H     -0.626313    1.784836   -0.730857
  O     -0.000195   -0.606213   -2.283037
  H      0.098511    0.364083   -2.092123
  H      0.134731   -0.696835   -3.238622
  O     -2.081047   -1.256726   -0.568031
  H     -1.456728   -1.122512   -1.316387
  H     -1.495062   -1.602404    0.143370

 Multiplicity           Mult            ....    1
 Number of Electrons    NEL             ....   80
 Basis Dimension        Dim             ....  192

ORBITAL ENERGIES
----------------

  NO   OCC          E(Eh)            E(eV)
   0   2.0000     -19.134848      -520.6857
   1   2.0000     -19.134739      -520.6827
   2   2.0000     -19.134353      -520.6722
   3   2.0000     -19.134304      -520.6709
   4   2.0000     -19.114954      -520.1443
   5   2.0000     -19.114888      -520.1425
   6   2.0000     -19.111061      -520.0384
   7   2.0000     -19.111045      -520.0380
   8   2.0000      -1.005756       -27.3680
   9   2.0000      -0.996699       -27.1216
  10   2.0000      -0.988420       -26.8963
  11   2.0000      -0.979387       -26.6505
  12   2.0000      -0.976950       -26.5842
  13   2.0000      -0.968545       -26.3555
  14   2.0000      -0.960949       -26.1487
  15   2.0000      -0.952465       -25.9179
  16   2.0000      -0.537895       -14.6369
  17   2.0000      -0.536814       -14.6075
  18   2.0000      -0.518154       -14.0997
  19   2.0000      -0.518011       -14.0958
  20   2.0000      -0.507484       -13.8093
  21   2.0000      -0.505270       -13.7491
  22   2.0000      -0.503359       -13.6971
  23   2.0000      -0.501412       -13.6441
  24   2.0000      -0.431178       -11.7329
  25   2.0000      -0.412333       -11.2201
  26   2.0000      -0.403172       -10.9709
  27   2.0000      -0.389837       -10.6080
  28   2.0000      -0.384688       -10.4679
  29   2.0000      -0.378030       -10.2867
  30   2.0000      -0.368688       -10.0325
  31   2.0000      -0.347459        -9.4548
  32   2.0000      -0.316692        -8.6176
  33   2.0000      -0.315348        -8.5811
  34   2.0000      -0.310974        -8.4620
  35   2.0000      -0.309434        -8.4201
  36   2.0000      -0.302878        -8.2417
  37   2.0000      -0.301013        -8.1910
  38   2.0000      -0.293955        -7.9989
  39   2.0000      -0.293859        -7.9963
  40   0.0000       0.041664         1.1337
  41   0.0000       0.073332         1.9955
  42   0.0000       0.090988         2.4759
  43   0.0000       0.106352         2.8940
  44   0.0000       0.142321         3.8728

MULLIKEN ATOMIC CHARGES
-----------------------
   0 O :   -0.377866
   1 H :    0.155839
   2 H :    0.159048
   3 O :   -0.318828
   4 H :    0.165869
   5 H :    0.218510
   6 O :   -0.324076
   7 H :    0.167814
   8 H :    0.223115
   9 O :   -0.372456
  10 H :    0.145215
  11 H :    0.157971
  12 O :   -0.372579
  13 H :    0.158262
  14 H :    0.144975
  15 O :   -0.324022
  16 H :    0.223128
  17 H :    0.167636
  18 O :   -0.318569
  19 H :    0.165600
  20 H :    0.218400
  21 O :   -0.377753
  22 H :    0.159156
  23 H :    0.155611
Sum of atomic charges:   -0.0000000

LOEWDIN ATOMIC CHARGES
----------------------
   0 O :   -0.167155
   1 H :    0.037301
   2 H :    0.042920
   3 O :   -0.087633
   4 H :    0.045339
   5 H :    0.112513
   6 O :   -0.075355
   7 H :    0.042346
   8 H :    0.112580
   9 O :   -0.143732
  10 H :    0.039126
  11 H :    0.041842
  12 O :   -0.143773
  13 H :    0.042083
  14 H :    0.038938
  15 O :   -0.075331
  16 H :    0.112569
  17 H :    0.042219
  18 O :   -0.087582
  19 H :    0.045222
  20 H :    0.112467
  21 O :   -0.167066
  22 H :    0.042939
  23 H :    0.037224

  Mayer bond orders larger than 0.1
B(  0-O ,  1-H ) :   0.9133 B(  0-O ,  2-H ) :   0.9216 B(  0-O , 14-H ) :   0.2167
B(  1-H , 15-O ) :   0.1720 B(  2-H ,  3-O ) :   0.1584 B(  3-O ,  4-H ) :   0.8652
B(  3-O ,  5-H ) :   0.9623 B(  3-O , 11-H ) :   0.1764 B(  4-H ,  6-O ) :   0.1985
B(  6-O ,  7-H ) :   0.8329 B(  6-O ,  8-H ) :   0.9599 B(  6-O , 23-H ) :   0.1719
B(  7-H , 12-O ) :   0.2460 B(  9-O , 10-H ) :   0.8936 B(  9-O , 11-H ) :   0.9084
B(  9-O , 17-H ) :   0.2460 B( 10-H , 21-O ) :   0.2165 B( 12-O , 13-H ) :   0.9084
B( 12-O , 14-H ) :   0.8936 B( 13-H , 18-O ) :   0.1763 B( 15-O , 16-H ) :   0.9598
B( 15-O , 17-H ) :   0.8330 B( 15-O , 19-H ) :   0.1984 B( 18-O , 19-H ) :   0.8655
B( 18-O , 20-H ) :   0.9624 B( 18-O , 22-H ) :   0.1583 B( 21-O , 22-H ) :   0.9217
B( 21-O , 23-H ) :   0.9135

Dispersion correction           -0.024949705
FINAL SINGLE POINT ENERGY      -610.815632681294

DIPOLE MOMENT
-------------
                                X             Y             Z
Electronic contribution:      0.00013      -0.00108      -0.00022
Nuclear contribution   :      0.00422      -0.00001       0.00047
                        -----------------------------------------
Total Dipole Moment    :      0.00435      -0.00109       0.00025
                        -----------------------------------------
Magnitude (a.u.)       :      0.00450
Magnitude (Debye)      :      0.01143

                             ****ORCA TERMINATED NORMALLY****
TOTAL RUN TIME: 0 days 0 hours 42 minutes 12 seconds 209 msec
