                         Program Version 3.0.3 - RELEASE   -
|  1> ! BP86 Def2-SVP TightSCF Opt D3BJ COSMO
|  2>
|  3> %pal nprocs 12 end
|  4>
|  5> %scf
|  6>         maxiter 800
|  7> end
|  8>
|  9> %cosmo
| 10> 	SMD true
| 11>         solvent "WATER"
| 12> end
| 13>
| 14> * xyz  0  1
| 15>   O      1.917812    1.163363    0.515807
| 16>   H      1.402840    1.558921   -0.187450
| 17>   H      1.307768    1.094004    1.250155
| 18>   O     -0.081997    0.618336    2.373167
| 19>   H     -0.125264   -0.315920    2.169393
| 20>   H     -0.104203    0.656691    3.329341
| 21>   O     -0.126737   -1.973437    1.455550
| 22>   H      0.602800   -1.858514    0.846616
| 23>   H     -0.047940   -2.878725    1.756343
| 24>   O     -1.785962    1.425392    0.335462
| 25>   H     -2.035183    0.551344    0.035194
| 26>   H     -1.302655    1.271530    1.147233
| 27>   O      1.785964   -1.425392   -0.335460
| 28>   H      1.302660   -1.271531   -1.147233
| 29>   H      2.035185   -0.551343   -0.035193
| 30>   O      0.126736    1.973436   -1.455551
| 31>   H      0.047941    2.878726   -1.756340
| 32>   H     -0.602800    1.858513   -0.846616
| 33>   O      0.081999   -0.618338   -2.373168
| 34>   H      0.125265    0.315919   -2.169394
| 35>   H      0.104188   -0.656693   -3.329341
| 36>   O     -1.917811   -1.163361   -0.515808
| 37>   H     -1.307766   -1.094003   -1.250156
| 38>   H     -1.402841   -1.558921    0.187449
| 39> **                         ****END OF INPUT****
 Total Charge           Charge          ....    0
 Multiplicity           Mult            ....    1
 Number of Electrons    NEL             ....   80
Dispersion correction           -0.022489600
FINAL SINGLE POINT ENERGY      -611.107656915193
Dispersion correction            ...
Dispersion correction           -0.022065751
FINAL SINGLE POINT ENERGY      -611.123240164361
Dispersion correction            ...
Dispersion correction           -0.022336378
FINAL SINGLE POINT ENERGY      -611.126401796497
Dispersion correction            ...
FINAL SINGLE POINT ENERGY      -611.128352043453
FINAL SINGLE POINT ENERGY      -611.138279498091
FINAL SINGLE POINT ENERGY      -611.130826820925
FINAL SINGLE POINT ENERGY      -611.131501852950
FINAL SINGLE POINT ENERGY      -611.131844279549
FINAL SINGLE POINT ENERGY      -611.131988434593
FINAL SINGLE POINT ENERGY      -611.132267641860
FINAL SINGLE POINT ENERGY      -611.134616168263
FINAL SINGLE POINT ENERGY      -611.134651014090
FINAL SINGLE POINT ENERGY      -611.142967166436
FINAL SINGLE POINT ENERGY      -611.134720723884
FINAL SINGLE POINT ENERGY      -611.134733117995
FINAL SINGLE POINT ENERGY      -611.134757403427
FINAL SINGLE POINT ENERGY      -611.134809142306
Dispersion correction            ...
Dispersion correction           -0.023843102
FINAL SINGLE POINT ENERGY      -611.134841108918
Dispersion correction            ...
Dispersion correction           -0.023828704
FINAL SINGLE POINT ENERGY      -611.134851421231
Dispersion correction            ...
                    ***********************HURRAY********************

CARTESIAN COORDINATES (ANGSTROEM)
---------------------------------
  O      2.058060    1.146415    0.564795
  H      1.473215    1.534133   -0.147809
  H      1.405646    1.034526    1.313103
  O     -0.035310    0.618318    2.216835
  H     -0.107341   -0.371979    2.002888
  H     -0.140860    0.690084    3.185867
  O     -0.166175   -1.811537    1.248646
  H      0.682620   -1.732733    0.655002
  H     -0.037390   -2.607309    1.801101
  O     -1.824273    1.377725    0.327617
  H     -2.028575    0.440047    0.000218
  H     -1.261105    1.202414    1.136796
  O      1.824462   -1.376068   -0.327440
  H      1.261390   -1.201948   -1.136960
  H      2.027249   -0.438196    0.000071
  O      0.167013    1.810406   -1.249586
  H      0.038807    2.607561   -1.800229
  H     -0.681228    1.731835   -0.655496
  O      0.034448   -0.620056   -2.217192
  H      0.107751    0.370191   -2.004270
  H      0.141661   -0.692702   -3.185987
  O     -2.058830   -1.144534   -0.563642
  H     -1.407367   -1.033775   -1.312850
  H     -1.473869   -1.532821    0.148524

 Multiplicity           Mult            ....    1
 Number of Electrons    NEL             ....   80
 Basis Dimension        Dim             ....  192

ORBITAL ENERGIES
----------------

  NO   OCC          E(Eh)            E(eV)
   0   2.0000     -18.782150      -511.0883
   1   2.0000     -18.782127      -511.0877
   2   2.0000     -18.780718      -511.0493
   3   2.0000     -18.780595      -511.0460
   4   2.0000     -18.759373      -510.4685
   5   2.0000     -18.759243      -510.4649
   6   2.0000     -18.758172      -510.4358
   7   2.0000     -18.758086      -510.4335
   8   2.0000      -0.921705       -25.0809
   9   2.0000      -0.910902       -24.7869
  10   2.0000      -0.902446       -24.5568
  11   2.0000      -0.892276       -24.2801
  12   2.0000      -0.891565       -24.2607
  13   2.0000      -0.881089       -23.9756
  14   2.0000      -0.872234       -23.7347
  15   2.0000      -0.862282       -23.4639
  16   2.0000      -0.485294       -13.2055
  17   2.0000      -0.483978       -13.1697
  18   2.0000      -0.464443       -12.6381
  19   2.0000      -0.463617       -12.6157
  20   2.0000      -0.452781       -12.3208
  21   2.0000      -0.450897       -12.2695
  22   2.0000      -0.447429       -12.1752
  23   2.0000      -0.445588       -12.1251
  24   2.0000      -0.387236       -10.5372
  25   2.0000      -0.362868        -9.8741
  26   2.0000      -0.353706        -9.6248
  27   2.0000      -0.344668        -9.3789
  28   2.0000      -0.336227        -9.1492
  29   2.0000      -0.329251        -8.9594
  30   2.0000      -0.318844        -8.6762
  31   2.0000      -0.295776        -8.0485
  32   2.0000      -0.267772        -7.2865
  33   2.0000      -0.265853        -7.2342
  34   2.0000      -0.262577        -7.1451
  35   2.0000      -0.260734        -7.0949
  36   2.0000      -0.253625        -6.9015
  37   2.0000      -0.251206        -6.8357
  38   2.0000      -0.243780        -6.6336
  39   2.0000      -0.243707        -6.6316
  40   0.0000       0.021277         0.5790
  41   0.0000       0.053599         1.4585
  42   0.0000       0.070536         1.9194
  43   0.0000       0.086079         2.3423
  44   0.0000       0.117627         3.2008

MULLIKEN ATOMIC CHARGES
-----------------------
   0 O :   -0.370223
   1 H :    0.154723
   2 H :    0.151393
   3 O :   -0.317536
   4 H :    0.161557
   5 H :    0.225650
   6 O :   -0.331195
   7 H :    0.165465
   8 H :    0.227897
   9 O :   -0.367667
  10 H :    0.144018
  11 H :    0.156048
  12 O :   -0.367457
  13 H :    0.156352
  14 H :    0.143472
  15 O :   -0.330799
  16 H :    0.227948
  17 H :    0.164639
  18 O :   -0.317251
  19 H :    0.161502
  20 H :    0.225588
  21 O :   -0.370098
  22 H :    0.151380
  23 H :    0.154595
Sum of atomic charges:   -0.0000000

LOEWDIN ATOMIC CHARGES
----------------------
   0 O :   -0.158797
   1 H :    0.035894
   2 H :    0.037119
   3 O :   -0.077340
   4 H :    0.039059
   5 H :    0.116000
   6 O :   -0.072818
   7 H :    0.034841
   8 H :    0.114196
   9 O :   -0.137502
  10 H :    0.031501
  11 H :    0.037485
  12 O :   -0.137117
  13 H :    0.037707
  14 H :    0.031319
  15 O :   -0.072662
  16 H :    0.114251
  17 H :    0.034533
  18 O :   -0.077257
  19 H :    0.039105
  20 H :    0.116018
  21 O :   -0.158560
  22 H :    0.037143
  23 H :    0.035879

  Mayer bond orders larger than 0.1
B(  0-O ,  1-H ) :   0.8957 B(  0-O ,  2-H ) :   0.8986 B(  0-O , 14-H ) :   0.2545
B(  1-H , 15-O ) :   0.1872 B(  2-H ,  3-O ) :   0.1891 B(  3-O ,  4-H ) :   0.8281
B(  3-O ,  5-H ) :   0.9572 B(  3-O , 11-H ) :   0.1950 B(  4-H ,  6-O ) :   0.2369
B(  6-O ,  7-H ) :   0.7783 B(  6-O ,  8-H ) :   0.9553 B(  6-O , 23-H ) :   0.1871
B(  7-H , 12-O ) :   0.3013 B(  9-O , 10-H ) :   0.8561 B(  9-O , 11-H ) :   0.8912
B(  9-O , 17-H ) :   0.3014 B( 10-H , 21-O ) :   0.2543 B( 12-O , 13-H ) :   0.8911
B( 12-O , 14-H ) :   0.8563 B( 13-H , 18-O ) :   0.1948 B( 15-O , 16-H ) :   0.9553
B( 15-O , 17-H ) :   0.7787 B( 15-O , 19-H ) :   0.2364 B( 18-O , 19-H ) :   0.8285
B( 18-O , 20-H ) :   0.9573 B( 18-O , 22-H ) :   0.1890 B( 21-O , 22-H ) :   0.8987
B( 21-O , 23-H ) :   0.8958

Dispersion correction           -0.023821709
FINAL SINGLE POINT ENERGY      -611.134851037051

DIPOLE MOMENT
-------------
                                X             Y             Z
Electronic contribution:      0.00138      -0.00207      -0.00117
Nuclear contribution   :      0.00151      -0.00167      -0.00008
                        -----------------------------------------
Total Dipole Moment    :      0.00289      -0.00375      -0.00125
                        -----------------------------------------
Magnitude (a.u.)       :      0.00490
Magnitude (Debye)      :      0.01244

                             ****ORCA TERMINATED NORMALLY****
TOTAL RUN TIME: 0 days 0 hours 35 minutes 23 seconds 649 msec
