                         Program Version 3.0.3 - RELEASE   -
|  1> ! B3LYP Def2-SVP def2-SVP/J RIJCOSX TightSCF Grid4 D3BJ OPT
|  2>
|  3> %pal nprocs 12 end
|  4>
|  5> %scf
|  6>         maxiter 400
|  7> end
|  8>
|  9> * xyz  0  1
| 10>   O      1.917812    1.163363    0.515807
| 11>   H      1.402840    1.558921   -0.187450
| 12>   H      1.307768    1.094004    1.250155
| 13>   O     -0.081997    0.618336    2.373167
| 14>   H     -0.125264   -0.315920    2.169393
| 15>   H     -0.104203    0.656691    3.329341
| 16>   O     -0.126737   -1.973437    1.455550
| 17>   H      0.602800   -1.858514    0.846616
| 18>   H     -0.047940   -2.878725    1.756343
| 19>   O     -1.785962    1.425392    0.335462
| 20>   H     -2.035183    0.551344    0.035194
| 21>   H     -1.302655    1.271530    1.147233
| 22>   O      1.785964   -1.425392   -0.335460
| 23>   H      1.302660   -1.271531   -1.147233
| 24>   H      2.035185   -0.551343   -0.035193
| 25>   O      0.126736    1.973436   -1.455551
| 26>   H      0.047941    2.878726   -1.756340
| 27>   H     -0.602800    1.858513   -0.846616
| 28>   O      0.081999   -0.618338   -2.373168
| 29>   H      0.125265    0.315919   -2.169394
| 30>   H      0.104188   -0.656693   -3.329341
| 31>   O     -1.917811   -1.163361   -0.515808
| 32>   H     -1.307766   -1.094003   -1.250156
| 33>   H     -1.402841   -1.558921    0.187449
| 34> **                         ****END OF INPUT****
 Total Charge           Charge          ....    0
 Multiplicity           Mult            ....    1
 Number of Electrons    NEL             ....   80
Dispersion correction           -0.024410785
FINAL SINGLE POINT ENERGY      -610.767363157518
Dispersion correction            ...
Dispersion correction           -0.023846206
FINAL SINGLE POINT ENERGY      -610.775997809969
Dispersion correction            ...
Dispersion correction           -0.024051130
FINAL SINGLE POINT ENERGY      -610.777999158846
Dispersion correction            ...
FINAL SINGLE POINT ENERGY      -610.779415108698
FINAL SINGLE POINT ENERGY      -610.780394386455
FINAL SINGLE POINT ENERGY      -610.780915699340
FINAL SINGLE POINT ENERGY      -610.781024434118
FINAL SINGLE POINT ENERGY      -610.781037156911
FINAL SINGLE POINT ENERGY      -610.781022382518
FINAL SINGLE POINT ENERGY      -610.780997566559
FINAL SINGLE POINT ENERGY      -610.781614823504
FINAL SINGLE POINT ENERGY      -610.781614943431
FINAL SINGLE POINT ENERGY      -610.781615112634
FINAL SINGLE POINT ENERGY      -610.781622945540
FINAL SINGLE POINT ENERGY      -610.781644582686
FINAL SINGLE POINT ENERGY      -610.781679854643
FINAL SINGLE POINT ENERGY      -610.781715003978
Dispersion correction            ...
Dispersion correction           -0.024819727
FINAL SINGLE POINT ENERGY      -610.781733477206
Dispersion correction            ...
Dispersion correction           -0.024825011
FINAL SINGLE POINT ENERGY      -610.781736937809
Dispersion correction            ...
                    ***********************HURRAY********************

CARTESIAN COORDINATES (ANGSTROEM)
---------------------------------
  O      2.081362    1.195624    0.526618
  H      1.521380    1.597059   -0.170232
  H      1.472937    1.125202    1.289549
  O     -0.036184    0.581440    2.331299
  H     -0.118135   -0.386892    2.115448
  H     -0.149617    0.660074    3.287149
  O     -0.161220   -1.874740    1.344840
  H      0.646613   -1.744242    0.720580
  H     -0.035035   -2.724001    1.788173
  O     -1.747672    1.368368    0.268780
  H     -2.042474    0.458647   -0.009714
  H     -1.268674    1.215851    1.111016
  O      1.747659   -1.368392   -0.268778
  H      1.268650   -1.215860   -1.111008
  H      2.042474   -0.458671    0.009702
  O      0.161203    1.874763   -1.344840
  H      0.035040    2.724014   -1.788199
  H     -0.646631    1.744265   -0.720590
  O      0.036203   -0.581435   -2.331254
  H      0.118140    0.386902   -2.115409
  H      0.149631   -0.660079   -3.287103
  O     -2.081360   -1.195643   -0.526658
  H     -1.472915   -1.125197   -1.289570
  H     -1.521377   -1.597062    0.170201

 Multiplicity           Mult            ....    1
 Number of Electrons    NEL             ....   80
 Basis Dimension        Dim             ....  192

ORBITAL ENERGIES
----------------

  NO   OCC          E(Eh)            E(eV)
   0   2.0000     -19.145394      -520.9727
   1   2.0000     -19.145389      -520.9725
   2   2.0000     -19.140102      -520.8287
   3   2.0000     -19.140096      -520.8285
   4   2.0000     -19.108878      -519.9790
   5   2.0000     -19.108873      -519.9789
   6   2.0000     -19.102335      -519.8010
   7   2.0000     -19.102328      -519.8008
   8   2.0000      -1.012175       -27.5427
   9   2.0000      -1.006175       -27.3794
  10   2.0000      -0.994511       -27.0620
  11   2.0000      -0.989060       -26.9137
  12   2.0000      -0.972386       -26.4600
  13   2.0000      -0.966590       -26.3022
  14   2.0000      -0.954593       -25.9758
  15   2.0000      -0.949235       -25.8300
  16   2.0000      -0.552610       -15.0373
  17   2.0000      -0.551235       -14.9999
  18   2.0000      -0.528411       -14.3788
  19   2.0000      -0.526749       -14.3336
  20   2.0000      -0.505044       -13.7429
  21   2.0000      -0.502220       -13.6661
  22   2.0000      -0.500044       -13.6069
  23   2.0000      -0.495401       -13.4806
  24   2.0000      -0.436639       -11.8815
  25   2.0000      -0.413453       -11.2506
  26   2.0000      -0.410475       -11.1696
  27   2.0000      -0.385399       -10.4872
  28   2.0000      -0.380662       -10.3583
  29   2.0000      -0.373055       -10.1513
  30   2.0000      -0.364637        -9.9223
  31   2.0000      -0.339953        -9.2506
  32   2.0000      -0.323809        -8.8113
  33   2.0000      -0.318724        -8.6729
  34   2.0000      -0.316471        -8.6116
  35   2.0000      -0.314426        -8.5560
  36   2.0000      -0.297575        -8.0974
  37   2.0000      -0.295045        -8.0286
  38   2.0000      -0.279764        -7.6128
  39   2.0000      -0.279635        -7.6092
  40   0.0000       0.023254         0.6328
  41   0.0000       0.043795         1.1917
  42   0.0000       0.064224         1.7476
  43   0.0000       0.073473         1.9993
  44   0.0000       0.131724         3.5844

MULLIKEN ATOMIC CHARGES
-----------------------
   0 O :   -0.318831
   1 H :    0.143039
   2 H :    0.145566
   3 O :   -0.302290
   4 H :    0.155074
   5 H :    0.175463
   6 O :   -0.334902
   7 H :    0.178099
   8 H :    0.179243
   9 O :   -0.326053
  10 H :    0.156792
  11 H :    0.148791
  12 O :   -0.326047
  13 H :    0.148789
  14 H :    0.156793
  15 O :   -0.334900
  16 H :    0.179244
  17 H :    0.178104
  18 O :   -0.302290
  19 H :    0.155075
  20 H :    0.175466
  21 O :   -0.318829
  22 H :    0.145564
  23 H :    0.143037
Sum of atomic charges:   -0.0000000

LOEWDIN ATOMIC CHARGES
----------------------
   0 O :   -0.119354
   1 H :    0.036721
   2 H :    0.043905
   3 O :   -0.096905
   4 H :    0.038590
   5 H :    0.085221
   6 O :   -0.097540
   7 H :    0.032572
   8 H :    0.082351
   9 O :   -0.089810
  10 H :    0.042100
  11 H :    0.042142
  12 O :   -0.089807
  13 H :    0.042140
  14 H :    0.042100
  15 O :   -0.097533
  16 H :    0.082351
  17 H :    0.032574
  18 O :   -0.096897
  19 H :    0.038591
  20 H :    0.085222
  21 O :   -0.119355
  22 H :    0.043902
  23 H :    0.036720

  Mayer bond orders larger than 0.1
B(  0-O ,  1-H ) :   0.9295 B(  0-O ,  2-H ) :   0.9425 B(  0-O , 14-H ) :   0.2192
B(  1-H , 15-O ) :   0.1557 B(  2-H ,  3-O ) :   0.1342 B(  3-O ,  4-H ) :   0.8642
B(  3-O ,  5-H ) :   0.9830 B(  3-O , 11-H ) :   0.1552 B(  4-H ,  6-O ) :   0.2056
B(  6-O ,  7-H ) :   0.7834 B(  6-O ,  8-H ) :   0.9807 B(  6-O , 23-H ) :   0.1557
B(  7-H , 12-O ) :   0.2897 B(  9-O , 10-H ) :   0.8813 B(  9-O , 11-H ) :   0.9262
B(  9-O , 17-H ) :   0.2897 B( 10-H , 21-O ) :   0.2192 B( 12-O , 13-H ) :   0.9262
B( 12-O , 14-H ) :   0.8813 B( 13-H , 18-O ) :   0.1552 B( 15-O , 16-H ) :   0.9807
B( 15-O , 17-H ) :   0.7834 B( 15-O , 19-H ) :   0.2056 B( 18-O , 19-H ) :   0.8642
B( 18-O , 20-H ) :   0.9830 B( 18-O , 22-H ) :   0.1342 B( 21-O , 22-H ) :   0.9425
B( 21-O , 23-H ) :   0.9295

Dispersion correction           -0.024827526
FINAL SINGLE POINT ENERGY      -610.781734875684

DIPOLE MOMENT
-------------
                                X             Y             Z
Electronic contribution:      0.00001       0.00002      -0.00003
Nuclear contribution   :      0.00002       0.00003      -0.00002
                        -----------------------------------------
Total Dipole Moment    :      0.00003       0.00005      -0.00004
                        -----------------------------------------
Magnitude (a.u.)       :      0.00007
Magnitude (Debye)      :      0.00018

                             ****ORCA TERMINATED NORMALLY****
TOTAL RUN TIME: 0 days 0 hours 46 minutes 2 seconds 311 msec
