                         Program Version 4.2.0 -  RELEASE  -
|  1> # 12mecn.remya.etal.2.mol7
|  2> ! MP2 def2-TZVP EnGrad TightSCF
|  3>
|  4> %pal
|  5>     nprocs 6
|  6> end
|  7>
|  8> %maxcore 8000
|  9>
| 10> %scf
| 11>     ConvForced true
| 12> end
| 13>
| 14> *xyz 0 1
| 15> C   1.502241000   0.651296000   1.710523000
| 16> H   1.309219000   1.637164000   2.143202000
| 17> H   2.493408000   0.297996000   2.009069000
| 18> H   0.746597000  -0.059850000   2.055508000
| 19> C   1.447974000   0.738517000   0.269805000
| 20> N   1.405612000   0.808047000  -0.894380000
| 21> *
| 22>
| 23>                          ****END OF INPUT****

CARTESIAN COORDINATES (ANGSTROEM)
---------------------------------
  C      1.502241    0.651296    1.710523
  H      1.309219    1.637164    2.143202
  H      2.493408    0.297996    2.009069
  H      0.746597   -0.059850    2.055508
  C      1.447974    0.738517    0.269805
  N      1.405612    0.808047   -0.894380

 Total Charge           Charge          ....    0
 Multiplicity           Mult            ....    1
 Number of Electrons    NEL             ....   22
 Basis Dimension        Dim             ....  111

ORBITAL ENERGIES
----------------

  NO   OCC          E(Eh)            E(eV)
   0   2.0000     -15.573234      -423.7692
   1   2.0000     -11.285596      -307.0967
   2   2.0000     -11.280151      -306.9485
   3   2.0000      -1.214527       -33.0490
   4   2.0000      -1.044731       -28.4286
   5   2.0000      -0.699307       -19.0291
   6   2.0000      -0.633777       -17.2459
   7   2.0000      -0.632347       -17.2070
   8   2.0000      -0.555826       -15.1248
   9   2.0000      -0.457713       -12.4550
  10   2.0000      -0.457452       -12.4479
  11   0.0000       0.118694         3.2298
  12   0.0000       0.171172         4.6578
  13   0.0000       0.171263         4.6603
  14   0.0000       0.202444         5.5088
  15   0.0000       0.224125         6.0988

MULLIKEN ATOMIC CHARGES
-----------------------
   0 C :   -0.277474
   1 H :    0.172150
   2 H :    0.171999
   3 H :    0.171981
   4 C :   -0.146576
   5 N :   -0.092079
Sum of atomic charges:   -0.0000000

LOEWDIN ATOMIC CHARGES
----------------------
   0 C :   -0.283575
   1 H :    0.152659
   2 H :    0.153043
   3 H :    0.152838
   4 C :   -0.220780
   5 N :    0.045816

  Mayer bond orders larger than 0.100000
B(  0-C ,  1-H ) :   0.9163 B(  0-C ,  2-H ) :   0.9166 B(  0-C ,  3-H ) :   0.9167
B(  0-C ,  4-C ) :   0.9004 B(  4-C ,  5-N ) :   2.8371

MP2 TOTAL ENERGY:     -132.483044710 Eh
FINAL SINGLE POINT ENERGY      -132.483044709950

DIPOLE MOMENT
-------------
                                X             Y             Z
Electronic contribution:     -0.11747       0.19618      -3.08955
Nuclear contribution   :      0.17415      -0.29020       4.61588
                        -----------------------------------------
Total Dipole Moment    :      0.05668      -0.09402       1.52632
                        -----------------------------------------
Magnitude (a.u.)       :      1.53027
Magnitude (Debye)      :      3.88963

Rotational constants in cm-1:     5.226542     0.308938     0.308829
Rotational constants in MHz : 156687.798923  9261.716341  9258.458053

                             ****ORCA TERMINATED NORMALLY****
TOTAL RUN TIME: 0 days 0 hours 0 minutes 18 seconds 411 msec
