                         Program Version 4.2.0 -  RELEASE  -
|  1> # 12mecn.remya.etal.2.mol1,3,10
|  2> ! MP2 def2-TZVP EnGrad TightSCF
|  3>
|  4> %pal
|  5>     nprocs 6
|  6> end
|  7>
|  8> %maxcore 8000
|  9>
| 10> %scf
| 11>     ConvForced true
| 12> end
| 13>
| 14> *xyz 0 1
| 15> C  -4.697980000  -0.249690000   1.746215000
| 16> H  -4.927570000   0.755530000   2.111799000
| 17> H  -3.709180000  -0.561560000   2.093253000
| 18> H  -5.432280000  -0.961520000   2.128066000
| 19> C  -4.714100000  -0.247110000   0.301670000
| 20> N  -4.729750000  -0.234960000  -0.865260000
| 21> C  -5.181310000   2.853865000  -1.626100000
| 22> H  -5.488260000   3.811434000  -2.053310000
| 23> H  -5.857590000   2.068112000  -1.968630000
| 24> H  -4.170750000   2.611402000  -1.966640000
| 25> C  -5.187260000   2.919160000  -0.181450000
| 26> N  -5.181700000   2.970641000   0.983640000
| 27> C   4.602033000   0.321019000  -1.784800000
| 28> H   4.827650000  -0.662160000  -2.207910000
| 29> H   5.320558000   1.057980000  -2.148500000
| 30> H   3.601982000   0.643751000  -2.087520000
| 31> C   4.654967000   0.244048000  -0.343060000
| 32> N   4.691648000   0.166590000   0.820757000
| 33> *
| 34>
| 35>                          ****END OF INPUT****

CARTESIAN COORDINATES (ANGSTROEM)
---------------------------------
  C     -4.697980   -0.249690    1.746215
  H     -4.927570    0.755530    2.111799
  H     -3.709180   -0.561560    2.093253
  H     -5.432280   -0.961520    2.128066
  C     -4.714100   -0.247110    0.301670
  N     -4.729750   -0.234960   -0.865260
  C     -5.181310    2.853865   -1.626100
  H     -5.488260    3.811434   -2.053310
  H     -5.857590    2.068112   -1.968630
  H     -4.170750    2.611402   -1.966640
  C     -5.187260    2.919160   -0.181450
  N     -5.181700    2.970641    0.983640
  C      4.602033    0.321019   -1.784800
  H      4.827650   -0.662160   -2.207910
  H      5.320558    1.057980   -2.148500
  H      3.601982    0.643751   -2.087520
  C      4.654967    0.244048   -0.343060
  N      4.691648    0.166590    0.820757

 Total Charge           Charge          ....    0
 Multiplicity           Mult            ....    1
 Number of Electrons    NEL             ....   66
 Basis Dimension        Dim             ....  333

ORBITAL ENERGIES
----------------

  NO   OCC          E(Eh)            E(eV)
   0   2.0000     -15.573422      -423.7743
   1   2.0000     -15.570885      -423.7053
   2   2.0000     -15.570476      -423.6942
   3   2.0000     -11.285253      -307.0873
   4   2.0000     -11.282760      -307.0195
   5   2.0000     -11.282728      -307.0186
   6   2.0000     -11.280391      -306.9550
   7   2.0000     -11.272772      -306.7477
   8   2.0000     -11.271174      -306.7042
   9   2.0000      -1.218166       -33.1480
  10   2.0000      -1.214678       -33.0531
  11   2.0000      -1.213328       -33.0163
  12   2.0000      -1.044543       -28.4235
  13   2.0000      -1.036393       -28.2017
  14   2.0000      -1.033427       -28.1210
  15   2.0000      -0.700338       -19.0572
  16   2.0000      -0.695251       -18.9187
  17   2.0000      -0.690981       -18.8026
  18   2.0000      -0.634688       -17.2707
  19   2.0000      -0.631570       -17.1859
  20   2.0000      -0.630279       -17.1508
  21   2.0000      -0.621538       -16.9129
  22   2.0000      -0.618449       -16.8289
  23   2.0000      -0.616147       -16.7662
  24   2.0000      -0.558976       -15.2105
  25   2.0000      -0.556093       -15.1321
  26   2.0000      -0.555867       -15.1259
  27   2.0000      -0.463330       -12.6078
  28   2.0000      -0.458363       -12.4727
  29   2.0000      -0.458046       -12.4641
  30   2.0000      -0.457481       -12.4487
  31   2.0000      -0.457025       -12.4363
  32   2.0000      -0.452544       -12.3144
  33   0.0000       0.118866         3.2345
  34   0.0000       0.126467         3.4414
  35   0.0000       0.144991         3.9454
  36   0.0000       0.170947         4.6517
  37   0.0000       0.171414         4.6644

MULLIKEN ATOMIC CHARGES
-----------------------
   0 C :   -0.286598
   1 H :    0.205998
   2 H :    0.167545
   3 H :    0.166462
   4 C :   -0.111435
   5 N :   -0.142350
   6 C :   -0.263460
   7 H :    0.171128
   8 H :    0.185037
   9 H :    0.171139
  10 C :   -0.115746
  11 N :   -0.147721
  12 C :   -0.278693
  13 H :    0.172545
  14 H :    0.171925
  15 H :    0.172142
  16 C :   -0.145787
  17 N :   -0.092131
Sum of atomic charges:    0.0000000

LOEWDIN ATOMIC CHARGES
----------------------
   0 C :   -0.281808
   1 H :    0.157363
   2 H :    0.152932
   3 H :    0.150622
   4 C :   -0.209154
   5 N :    0.032979
   6 C :   -0.284888
   7 H :    0.148547
   8 H :    0.156010
   9 H :    0.156260
  10 C :   -0.208786
  11 N :    0.029923
  12 C :   -0.283641
  13 H :    0.153053
  14 H :    0.151458
  15 H :    0.153132
  16 C :   -0.219857
  17 N :    0.045856

  Mayer bond orders larger than 0.100000
B(  0-C ,  1-H ) :   0.9014 B(  0-C ,  2-H ) :   0.9147 B(  0-C ,  3-H ) :   0.9165
B(  0-C ,  4-C ) :   0.8997 B(  4-C ,  5-N ) :   2.7909 B(  6-C ,  7-H ) :   0.9105
B(  6-C ,  8-H ) :   0.9102 B(  6-C ,  9-H ) :   0.9143 B(  6-C , 10-C ) :   0.9126
B( 10-C , 11-N ) :   2.7726 B( 12-C , 13-H ) :   0.9159 B( 12-C , 14-H ) :   0.9170
B( 12-C , 15-H ) :   0.9166 B( 12-C , 16-C ) :   0.9015 B( 16-C , 17-N ) :   2.8369

MP2 TOTAL ENERGY:     -397.459164570 Eh
FINAL SINGLE POINT ENERGY      -397.459164569586

DIPOLE MOMENT
-------------
                                X             Y             Z
Electronic contribution:      0.04988      -0.00216       3.11690
Nuclear contribution   :     -0.08362       0.01847      -4.64108
                        -----------------------------------------
Total Dipole Moment    :     -0.03374       0.01632      -1.52418
                        -----------------------------------------
Magnitude (a.u.)       :      1.52464
Magnitude (Debye)      :      3.87533

Rotational constants in cm-1:     0.045269     0.006222     0.005977
Rotational constants in MHz :  1357.122472   186.544791   179.179421

                             ****ORCA TERMINATED NORMALLY****
TOTAL RUN TIME: 0 days 0 hours 4 minutes 26 seconds 694 msec
