                         Program Version 4.2.0 -  RELEASE  -
|  1> # 12h2o.su.etal.mol0,1,2,4,7,8,9
|  2> ! MP2 def2-TZVP EnGrad TightSCF
|  3>
|  4> %pal
|  5>     nprocs 6
|  6> end
|  7>
|  8> %maxcore 8000
|  9>
| 10> %scf
| 11>     ConvForced true
| 12> end
| 13>
| 14> *xyz 0 1
| 15> O   1.794470000   0.923410000   2.768350000
| 16> H   2.338250000   1.359750000   3.430940000
| 17> H   0.879480000   1.303000000   2.865760000
| 18> O  -1.794470000  -0.923410000   2.768350000
| 19> H  -2.338250000  -1.359750000   3.430940000
| 20> H  -0.879480000  -1.303000000   2.865760000
| 21> O   0.923410000  -1.794470000  -2.768350000
| 22> H   1.359750000  -2.338250000  -3.430940000
| 23> H   1.303000000  -0.879480000  -2.865760000
| 24> O  -0.885520000   1.737840000   0.052730000
| 25> H  -1.032320000   2.090180000  -0.841890000
| 26> H  -1.284090000   0.839590000   0.017130000
| 27> O  -1.737840000  -0.885520000  -0.052730000
| 28> H  -2.090180000  -1.032320000   0.841890000
| 29> H  -0.839590000  -1.284090000  -0.017130000
| 30> O   1.752130000   0.741530000  -2.896280000
| 31> H   2.036450000   0.920500000  -1.984040000
| 32> H   0.921210000   1.242140000  -2.984230000
| 33> O   0.741530000  -1.752130000   2.896280000
| 34> H   0.920500000  -2.036450000   1.984040000
| 35> H   1.242140000  -0.921210000   2.984230000
| 36> *
| 37>
| 38>                          ****END OF INPUT****

CARTESIAN COORDINATES (ANGSTROEM)
---------------------------------
  O      1.794470    0.923410    2.768350
  H      2.338250    1.359750    3.430940
  H      0.879480    1.303000    2.865760
  O     -1.794470   -0.923410    2.768350
  H     -2.338250   -1.359750    3.430940
  H     -0.879480   -1.303000    2.865760
  O      0.923410   -1.794470   -2.768350
  H      1.359750   -2.338250   -3.430940
  H      1.303000   -0.879480   -2.865760
  O     -0.885520    1.737840    0.052730
  H     -1.032320    2.090180   -0.841890
  H     -1.284090    0.839590    0.017130
  O     -1.737840   -0.885520   -0.052730
  H     -2.090180   -1.032320    0.841890
  H     -0.839590   -1.284090   -0.017130
  O      1.752130    0.741530   -2.896280
  H      2.036450    0.920500   -1.984040
  H      0.921210    1.242140   -2.984230
  O      0.741530   -1.752130    2.896280
  H      0.920500   -2.036450    1.984040
  H      1.242140   -0.921210    2.984230

 Total Charge           Charge          ....    0
 Multiplicity           Mult            ....    1
 Number of Electrons    NEL             ....   70
 Basis Dimension        Dim             ....  301

ORBITAL ENERGIES
----------------

  NO   OCC          E(Eh)            E(eV)
   0   2.0000     -20.595031      -560.4193
   1   2.0000     -20.593096      -560.3666
   2   2.0000     -20.581030      -560.0383
   3   2.0000     -20.551443      -559.2332
   4   2.0000     -20.546497      -559.0986
   5   2.0000     -20.527731      -558.5880
   6   2.0000     -20.520812      -558.3997
   7   2.0000      -1.380328       -37.5606
   8   2.0000      -1.375910       -37.4404
   9   2.0000      -1.365316       -37.1521
  10   2.0000      -1.339639       -36.4534
  11   2.0000      -1.326554       -36.0974
  12   2.0000      -1.307029       -35.5661
  13   2.0000      -1.302996       -35.4563
  14   2.0000      -0.741456       -20.1760
  15   2.0000      -0.737878       -20.0787
  16   2.0000      -0.726799       -19.7772
  17   2.0000      -0.714227       -19.4351
  18   2.0000      -0.697455       -18.9787
  19   2.0000      -0.692968       -18.8566
  20   2.0000      -0.680888       -18.5279
  21   2.0000      -0.626071       -17.0363
  22   2.0000      -0.616260       -16.7693
  23   2.0000      -0.602213       -16.3870
  24   2.0000      -0.586456       -15.9583
  25   2.0000      -0.568284       -15.4638
  26   2.0000      -0.558536       -15.1985
  27   2.0000      -0.550584       -14.9822
  28   2.0000      -0.534655       -14.5487
  29   2.0000      -0.517847       -14.0913
  30   2.0000      -0.515231       -14.0202
  31   2.0000      -0.495521       -13.4838
  32   2.0000      -0.490870       -13.3572
  33   2.0000      -0.475418       -12.9368
  34   2.0000      -0.471179       -12.8214
  35   0.0000       0.091348         2.4857
  36   0.0000       0.113835         3.0976
  37   0.0000       0.132835         3.6146
  38   0.0000       0.155180         4.2227
  39   0.0000       0.169477         4.6117

MULLIKEN ATOMIC CHARGES
-----------------------
   0 O :   -0.706959
   1 H :    0.353551
   2 H :    0.379149
   3 O :   -0.740239
   4 H :    0.338637
   5 H :    0.368029
   6 O :   -0.732267
   7 H :    0.325837
   8 H :    0.364924
   9 O :   -0.721360
  10 H :    0.314065
  11 H :    0.366783
  12 O :   -0.695981
  13 H :    0.378882
  14 H :    0.335878
  15 O :   -0.679577
  16 H :    0.363626
  17 H :    0.356395
  18 O :   -0.699538
  19 H :    0.350959
  20 H :    0.379205
Sum of atomic charges:   -0.0000000

LOEWDIN ATOMIC CHARGES
----------------------
   0 O :   -0.311814
   1 H :    0.164606
   2 H :    0.195105
   3 O :   -0.341755
   4 H :    0.154538
   5 H :    0.142375
   6 O :   -0.372572
   7 H :    0.149325
   8 H :    0.141771
   9 O :   -0.365234
  10 H :    0.151018
  11 H :    0.144675
  12 O :   -0.297320
  13 H :    0.152813
  14 H :    0.167328
  15 O :   -0.270400
  16 H :    0.176435
  17 H :    0.174610
  18 O :   -0.279768
  19 H :    0.168629
  20 H :    0.155636

  Mayer bond orders larger than 0.100000
B(  0-O ,  1-H ) :   0.8407 B(  0-O ,  2-H ) :   0.8151 B(  3-O ,  4-H ) :   0.8498
B(  3-O ,  5-H ) :   0.7582 B(  5-H , 18-O ) :   0.1004 B(  6-O ,  7-H ) :   0.8599
B(  6-O ,  8-H ) :   0.7859 B(  9-O , 10-H ) :   0.8649 B(  9-O , 11-H ) :   0.7789
B( 12-O , 13-H ) :   0.7950 B( 12-O , 14-H ) :   0.8432 B( 15-O , 16-H ) :   0.8323
B( 15-O , 17-H ) :   0.8365 B( 18-O , 19-H ) :   0.8414 B( 18-O , 20-H ) :   0.7900

MP2 TOTAL ENERGY:     -534.242010970 Eh
FINAL SINGLE POINT ENERGY      -534.242010970288

DIPOLE MOMENT
-------------
                                X             Y             Z
Electronic contribution:      0.22119       0.09023       0.17206
Nuclear contribution   :      0.79028       0.42127       0.63259
                        -----------------------------------------
Total Dipole Moment    :      1.01147       0.51149       0.80466
                        -----------------------------------------
Magnitude (a.u.)       :      1.39003
Magnitude (Debye)      :      3.53317

Rotational constants in cm-1:     0.036920     0.018215     0.017043
Rotational constants in MHz :  1106.818954   546.061595   510.944240

                             ****ORCA TERMINATED NORMALLY****
TOTAL RUN TIME: 0 days 0 hours 1 minutes 37 seconds 563 msec
