                         Program Version 4.2.0 -  RELEASE  -
|  1> # 12h2o.su.etal.mol0,2,3,5,6,7,8,9,10
|  2> ! MP2 def2-TZVP EnGrad TightSCF
|  3>
|  4> %pal
|  5>     nprocs 6
|  6> end
|  7>
|  8> %maxcore 8000
|  9>
| 10> %scf
| 11>     ConvForced true
| 12> end
| 13>
| 14> *xyz 0 1
| 15> O   1.794470000   0.923410000   2.768350000
| 16> H   2.338250000   1.359750000   3.430940000
| 17> H   0.879480000   1.303000000   2.865760000
| 18> O   0.923410000  -1.794470000  -2.768350000
| 19> H   1.359750000  -2.338250000  -3.430940000
| 20> H   1.303000000  -0.879480000  -2.865760000
| 21> O  -1.752130000  -0.741530000  -2.896280000
| 22> H  -2.036450000  -0.920500000  -1.984040000
| 23> H  -0.921210000  -1.242140000  -2.984230000
| 24> O   0.885520000  -1.737840000   0.052730000
| 25> H   1.284090000  -0.839590000   0.017130000
| 26> H   1.032320000  -2.090180000  -0.841890000
| 27> O   1.737840000   0.885520000  -0.052730000
| 28> H   2.090180000   1.032320000   0.841890000
| 29> H   0.839590000   1.284090000  -0.017130000
| 30> O  -1.737840000  -0.885520000  -0.052730000
| 31> H  -2.090180000  -1.032320000   0.841890000
| 32> H  -0.839590000  -1.284090000  -0.017130000
| 33> O   1.752130000   0.741530000  -2.896280000
| 34> H   2.036450000   0.920500000  -1.984040000
| 35> H   0.921210000   1.242140000  -2.984230000
| 36> O   0.741530000  -1.752130000   2.896280000
| 37> H   0.920500000  -2.036450000   1.984040000
| 38> H   1.242140000  -0.921210000   2.984230000
| 39> O  -0.923410000   1.794470000  -2.768350000
| 40> H  -1.359750000   2.338250000  -3.430940000
| 41> H  -1.303000000   0.879480000  -2.865760000
| 42> *
| 43>
| 44>                          ****END OF INPUT****

CARTESIAN COORDINATES (ANGSTROEM)
---------------------------------
  O      1.794470    0.923410    2.768350
  H      2.338250    1.359750    3.430940
  H      0.879480    1.303000    2.865760
  O      0.923410   -1.794470   -2.768350
  H      1.359750   -2.338250   -3.430940
  H      1.303000   -0.879480   -2.865760
  O     -1.752130   -0.741530   -2.896280
  H     -2.036450   -0.920500   -1.984040
  H     -0.921210   -1.242140   -2.984230
  O      0.885520   -1.737840    0.052730
  H      1.284090   -0.839590    0.017130
  H      1.032320   -2.090180   -0.841890
  O      1.737840    0.885520   -0.052730
  H      2.090180    1.032320    0.841890
  H      0.839590    1.284090   -0.017130
  O     -1.737840   -0.885520   -0.052730
  H     -2.090180   -1.032320    0.841890
  H     -0.839590   -1.284090   -0.017130
  O      1.752130    0.741530   -2.896280
  H      2.036450    0.920500   -1.984040
  H      0.921210    1.242140   -2.984230
  O      0.741530   -1.752130    2.896280
  H      0.920500   -2.036450    1.984040
  H      1.242140   -0.921210    2.984230
  O     -0.923410    1.794470   -2.768350
  H     -1.359750    2.338250   -3.430940
  H     -1.303000    0.879480   -2.865760

 Total Charge           Charge          ....    0
 Multiplicity           Mult            ....    1
 Number of Electrons    NEL             ....   90
 Basis Dimension        Dim             ....  387

ORBITAL ENERGIES
----------------

  NO   OCC          E(Eh)            E(eV)
   0   2.0000     -20.629851      -561.3668
   1   2.0000     -20.601491      -560.5951
   2   2.0000     -20.563399      -559.5585
   3   2.0000     -20.553865      -559.2991
   4   2.0000     -20.552769      -559.2693
   5   2.0000     -20.544096      -559.0333
   6   2.0000     -20.538908      -558.8921
   7   2.0000     -20.537818      -558.8624
   8   2.0000     -20.518360      -558.3330
   9   2.0000      -1.410851       -38.3912
  10   2.0000      -1.387669       -37.7604
  11   2.0000      -1.360025       -37.0082
  12   2.0000      -1.347473       -36.6666
  13   2.0000      -1.337347       -36.3911
  14   2.0000      -1.335464       -36.3398
  15   2.0000      -1.324246       -36.0346
  16   2.0000      -1.313664       -35.7466
  17   2.0000      -1.303405       -35.4674
  18   2.0000      -0.776001       -21.1161
  19   2.0000      -0.751209       -20.4414
  20   2.0000      -0.728728       -19.8297
  21   2.0000      -0.718940       -19.5634
  22   2.0000      -0.713878       -19.4256
  23   2.0000      -0.702891       -19.1266
  24   2.0000      -0.700105       -19.0508
  25   2.0000      -0.691501       -18.8167
  26   2.0000      -0.684421       -18.6240
  27   2.0000      -0.656346       -17.8601
  28   2.0000      -0.631022       -17.1710
  29   2.0000      -0.616339       -16.7714
  30   2.0000      -0.601705       -16.3732
  31   2.0000      -0.590355       -16.0644
  32   2.0000      -0.583311       -15.8727
  33   2.0000      -0.569490       -15.4966
  34   2.0000      -0.563924       -15.3451
  35   2.0000      -0.542042       -14.7497
  36   2.0000      -0.540070       -14.6960
  37   2.0000      -0.529964       -14.4210
  38   2.0000      -0.509574       -13.8662
  39   2.0000      -0.502223       -13.6662
  40   2.0000      -0.499144       -13.5824
  41   2.0000      -0.493369       -13.4253
  42   2.0000      -0.488795       -13.3008
  43   2.0000      -0.482862       -13.1393
  44   2.0000      -0.467943       -12.7334
  45   0.0000       0.079844         2.1727
  46   0.0000       0.126343         3.4380
  47   0.0000       0.145347         3.9551
  48   0.0000       0.157451         4.2845
  49   0.0000       0.170784         4.6473

MULLIKEN ATOMIC CHARGES
-----------------------
   0 O :   -0.717876
   1 H :    0.371207
   2 H :    0.372357
   3 O :   -0.759631
   4 H :    0.350686
   5 H :    0.384730
   6 O :   -0.726542
   7 H :    0.387925
   8 H :    0.364799
   9 O :   -0.749588
  10 H :    0.360001
  11 H :    0.383248
  12 O :   -0.733090
  13 H :    0.388939
  14 H :    0.368819
  15 O :   -0.741923
  16 H :    0.343327
  17 H :    0.364027
  18 O :   -0.724797
  19 H :    0.381831
  20 H :    0.371499
  21 O :   -0.723780
  22 H :    0.372262
  23 H :    0.338301
  24 O :   -0.750897
  25 H :    0.338516
  26 H :    0.385653
Sum of atomic charges:    0.0000000

LOEWDIN ATOMIC CHARGES
----------------------
   0 O :   -0.287328
   1 H :    0.171168
   2 H :    0.192998
   3 O :   -0.316615
   4 H :    0.159197
   5 H :    0.146401
   6 O :   -0.289417
   7 H :    0.158297
   8 H :    0.147749
   9 O :   -0.300164
  10 H :    0.140913
  11 H :    0.152081
  12 O :   -0.282419
  13 H :    0.156888
  14 H :    0.181253
  15 O :   -0.345337
  16 H :    0.164711
  17 H :    0.143050
  18 O :   -0.287503
  19 H :    0.153710
  20 H :    0.151055
  21 O :   -0.353468
  22 H :    0.149469
  23 H :    0.138216
  24 O :   -0.345461
  25 H :    0.154421
  26 H :    0.146134

  Mayer bond orders larger than 0.100000
B(  0-O ,  1-H ) :   0.8281 B(  0-O ,  2-H ) :   0.8193 B(  3-O ,  4-H ) :   0.8406
B(  3-O ,  5-H ) :   0.7253 B(  5-H , 18-O ) :   0.1250 B(  6-O ,  7-H ) :   0.7981
B(  6-O ,  8-H ) :   0.8036 B(  6-O , 26-H ) :   0.1197 B(  9-O , 10-H ) :   0.7769
B(  9-O , 11-H ) :   0.7940 B( 12-O , 13-H ) :   0.7947 B( 12-O , 14-H ) :   0.8192
B( 15-O , 16-H ) :   0.8455 B( 15-O , 17-H ) :   0.7679 B( 18-O , 19-H ) :   0.8112
B( 18-O , 20-H ) :   0.7849 B( 21-O , 22-H ) :   0.8178 B( 21-O , 23-H ) :   0.8407
B( 24-O , 25-H ) :   0.8497 B( 24-O , 26-H ) :   0.7366

MP2 TOTAL ENERGY:     -686.929749645 Eh
FINAL SINGLE POINT ENERGY      -686.929749645196

DIPOLE MOMENT
-------------
                                X             Y             Z
Electronic contribution:      0.24865       0.03409       0.05899
Nuclear contribution   :      0.71062       1.58851       0.82779
                        -----------------------------------------
Total Dipole Moment    :      0.95926       1.62260       0.88678
                        -----------------------------------------
Magnitude (a.u.)       :      2.08312
Magnitude (Debye)      :      5.29487

Rotational constants in cm-1:     0.031550     0.015675     0.014189
Rotational constants in MHz :   945.846504   469.914598   425.373685

                             ****ORCA TERMINATED NORMALLY****
TOTAL RUN TIME: 0 days 0 hours 5 minutes 8 seconds 710 msec
