                         Program Version 4.2.0 -  RELEASE  -
|  1> # 12meoh.boyd.etal.mol2,7,11
|  2> ! MP2 def2-TZVP EnGrad TightSCF
|  3>
|  4> %pal
|  5>     nprocs 6
|  6> end
|  7>
|  8> %maxcore 8000
|  9>
| 10> %scf
| 11>     ConvForced true
| 12> end
| 13>
| 14> *xyz 0 1
| 15> O  -3.839777402   2.233595098   0.660436763
| 16> H  -2.958345897   1.907036203   0.973588449
| 17> C  -3.600368059   3.168790682  -0.390480452
| 18> H  -4.551709193   3.344148967  -0.901254863
| 19> H  -2.868237594   2.789240199  -1.113617525
| 20> H  -3.243594915   4.128998607   0.009549480
| 21> O   4.310535586  -1.588322800   0.656128299
| 22> H   3.804372199  -1.630404735  -0.196849819
| 23> C   4.312298137  -2.894980854   1.222112691
| 24> H   4.713177833  -2.819907076   2.237066773
| 25> H   4.957796734  -3.574699304   0.648211180
| 26> H   3.302735989  -3.324433205   1.269756773
| 27> O   3.252955559   0.588596242   1.858934315
| 28> H   3.621209177  -0.251605199   1.476063364
| 29> C   4.040824528   0.944288422   2.989639460
| 30> H   3.670521436   1.902573549   3.363847391
| 31> H   5.103749934   1.055868619   2.734277559
| 32> H   3.948540682   0.200279590   3.792908518
| 33> *
| 34>
| 35>                          ****END OF INPUT****

CARTESIAN COORDINATES (ANGSTROEM)
---------------------------------
  O     -3.839777    2.233595    0.660437
  H     -2.958346    1.907036    0.973588
  C     -3.600368    3.168791   -0.390480
  H     -4.551709    3.344149   -0.901255
  H     -2.868238    2.789240   -1.113618
  H     -3.243595    4.128999    0.009549
  O      4.310536   -1.588323    0.656128
  H      3.804372   -1.630405   -0.196850
  C      4.312298   -2.894981    1.222113
  H      4.713178   -2.819907    2.237067
  H      4.957797   -3.574699    0.648211
  H      3.302736   -3.324433    1.269757
  O      3.252956    0.588596    1.858934
  H      3.621209   -0.251605    1.476063
  C      4.040825    0.944288    2.989639
  H      3.670521    1.902574    3.363847
  H      5.103750    1.055869    2.734278
  H      3.948541    0.200280    3.792909

 Total Charge           Charge          ....    0
 Multiplicity           Mult            ....    1
 Number of Electrons    NEL             ....   54
 Basis Dimension        Dim             ....  258

ORBITAL ENERGIES
----------------

  NO   OCC          E(Eh)            E(eV)
   0   2.0000     -20.591973      -560.3361
   1   2.0000     -20.552407      -559.2594
   2   2.0000     -20.517141      -558.2998
   3   2.0000     -11.293745      -307.3184
   4   2.0000     -11.267784      -306.6120
   5   2.0000     -11.251476      -306.1682
   6   2.0000      -1.385509       -37.7016
   7   2.0000      -1.341924       -36.5156
   8   2.0000      -1.313785       -35.7499
   9   2.0000      -0.945649       -25.7324
  10   2.0000      -0.915537       -24.9130
  11   2.0000      -0.897972       -24.4350
  12   2.0000      -0.716438       -19.4953
  13   2.0000      -0.677241       -18.4287
  14   2.0000      -0.676479       -18.4079
  15   2.0000      -0.638184       -17.3659
  16   2.0000      -0.612832       -16.6760
  17   2.0000      -0.612520       -16.6675
  18   2.0000      -0.593050       -16.1377
  19   2.0000      -0.585744       -15.9389
  20   2.0000      -0.564613       -15.3639
  21   2.0000      -0.531827       -14.4718
  22   2.0000      -0.497441       -13.5360
  23   2.0000      -0.489681       -13.3249
  24   2.0000      -0.459946       -12.5158
  25   2.0000      -0.444881       -12.1058
  26   2.0000      -0.419774       -11.4226
  27   0.0000       0.117159         3.1881
  28   0.0000       0.140539         3.8243
  29   0.0000       0.154004         4.1907
  30   0.0000       0.171317         4.6618
  31   0.0000       0.180593         4.9142

MULLIKEN ATOMIC CHARGES
-----------------------
   0 O :   -0.498466
   1 H :    0.323705
   2 C :   -0.174116
   3 H :    0.127247
   4 H :    0.111156
   5 H :    0.110473
   6 O :   -0.512819
   7 H :    0.344105
   8 C :   -0.184514
   9 H :    0.140886
  10 H :    0.125328
  11 H :    0.128523
  12 O :   -0.534599
  13 H :    0.339448
  14 C :   -0.164101
  15 H :    0.120830
  16 H :    0.103485
  17 H :    0.093427
Sum of atomic charges:   -0.0000000

LOEWDIN ATOMIC CHARGES
----------------------
   0 O :   -0.111467
   1 H :    0.189188
   2 C :   -0.378710
   3 H :    0.109052
   4 H :    0.095920
   5 H :    0.096017
   6 O :   -0.074664
   7 H :    0.200097
   8 C :   -0.372416
   9 H :    0.114481
  10 H :    0.104303
  11 H :    0.102406
  12 O :   -0.127268
  13 H :    0.156952
  14 C :   -0.392916
  15 H :    0.105614
  16 H :    0.093426
  17 H :    0.089984

  Mayer bond orders larger than 0.100000
B(  0-O ,  1-H ) :   0.8427 B(  0-O ,  2-C ) :   0.9272 B(  2-C ,  3-H ) :   0.9381
B(  2-C ,  4-H ) :   0.9413 B(  2-C ,  5-H ) :   0.9378 B(  6-O ,  7-H ) :   0.8279
B(  6-O ,  8-C ) :   0.8721 B(  8-C ,  9-H ) :   0.9398 B(  8-C , 10-H ) :   0.9330
B(  8-C , 11-H ) :   0.9398 B( 12-O , 13-H ) :   0.7923 B( 12-O , 14-C ) :   0.9393
B( 14-C , 15-H ) :   0.9420 B( 14-C , 16-H ) :   0.9381 B( 14-C , 17-H ) :   0.9390

MP2 TOTAL ENERGY:     -346.529333625 Eh
FINAL SINGLE POINT ENERGY      -346.529333625076

DIPOLE MOMENT
-------------
                                X             Y             Z
Electronic contribution:     -1.34954      -0.14917      -0.90368
Nuclear contribution   :      2.32155      -0.96818       0.39253
                        -----------------------------------------
Total Dipole Moment    :      0.97200      -1.11735      -0.51115
                        -----------------------------------------
Magnitude (a.u.)       :      1.56670
Magnitude (Debye)      :      3.98223

Rotational constants in cm-1:     0.085487     0.010247     0.009481
Rotational constants in MHz :  2562.846629   307.193608   284.225291

                             ****ORCA TERMINATED NORMALLY****
TOTAL RUN TIME: 0 days 0 hours 0 minutes 55 seconds 48 msec
