                         Program Version 4.2.0 -  RELEASE  -
|  1> # 12h2o.su.etal.mol2,4,6,8,10,11
|  2> ! MP2 def2-TZVP EnGrad TightSCF
|  3>
|  4> %pal
|  5>     nprocs 6
|  6> end
|  7>
|  8> %maxcore 8000
|  9>
| 10> %scf
| 11>     ConvForced true
| 12> end
| 13>
| 14> *xyz 0 1
| 15> O   0.923410000  -1.794470000  -2.768350000
| 16> H   1.359750000  -2.338250000  -3.430940000
| 17> H   1.303000000  -0.879480000  -2.865760000
| 18> O  -0.885520000   1.737840000   0.052730000
| 19> H  -1.032320000   2.090180000  -0.841890000
| 20> H  -1.284090000   0.839590000   0.017130000
| 21> O   1.737840000   0.885520000  -0.052730000
| 22> H   2.090180000   1.032320000   0.841890000
| 23> H   0.839590000   1.284090000  -0.017130000
| 24> O   1.752130000   0.741530000  -2.896280000
| 25> H   2.036450000   0.920500000  -1.984040000
| 26> H   0.921210000   1.242140000  -2.984230000
| 27> O  -0.923410000   1.794470000  -2.768350000
| 28> H  -1.359750000   2.338250000  -3.430940000
| 29> H  -1.303000000   0.879480000  -2.865760000
| 30> O  -0.741530000   1.752130000   2.896280000
| 31> H  -0.920500000   2.036450000   1.984040000
| 32> H  -1.242140000   0.921210000   2.984230000
| 33> *
| 34>
| 35>                          ****END OF INPUT****

CARTESIAN COORDINATES (ANGSTROEM)
---------------------------------
  O      0.923410   -1.794470   -2.768350
  H      1.359750   -2.338250   -3.430940
  H      1.303000   -0.879480   -2.865760
  O     -0.885520    1.737840    0.052730
  H     -1.032320    2.090180   -0.841890
  H     -1.284090    0.839590    0.017130
  O      1.737840    0.885520   -0.052730
  H      2.090180    1.032320    0.841890
  H      0.839590    1.284090   -0.017130
  O      1.752130    0.741530   -2.896280
  H      2.036450    0.920500   -1.984040
  H      0.921210    1.242140   -2.984230
  O     -0.923410    1.794470   -2.768350
  H     -1.359750    2.338250   -3.430940
  H     -1.303000    0.879480   -2.865760
  O     -0.741530    1.752130    2.896280
  H     -0.920500    2.036450    1.984040
  H     -1.242140    0.921210    2.984230

 Total Charge           Charge          ....    0
 Multiplicity           Mult            ....    1
 Number of Electrons    NEL             ....   60
 Basis Dimension        Dim             ....  258

ORBITAL ENERGIES
----------------

  NO   OCC          E(Eh)            E(eV)
   0   2.0000     -20.632325      -561.4341
   1   2.0000     -20.604588      -560.6793
   2   2.0000     -20.546889      -559.1093
   3   2.0000     -20.544744      -559.0509
   4   2.0000     -20.544163      -559.0351
   5   2.0000     -20.508290      -558.0589
   6   2.0000      -1.413439       -38.4616
   7   2.0000      -1.389829       -37.8192
   8   2.0000      -1.339592       -36.4522
   9   2.0000      -1.327159       -36.1138
  10   2.0000      -1.326390       -36.0929
  11   2.0000      -1.289741       -35.0956
  12   2.0000      -0.778397       -21.1813
  13   2.0000      -0.754145       -20.5213
  14   2.0000      -0.709787       -19.3143
  15   2.0000      -0.702714       -19.1218
  16   2.0000      -0.696431       -18.9508
  17   2.0000      -0.676347       -18.4043
  18   2.0000      -0.656849       -17.8738
  19   2.0000      -0.625369       -17.0172
  20   2.0000      -0.603411       -16.4197
  21   2.0000      -0.577744       -15.7212
  22   2.0000      -0.563995       -15.3471
  23   2.0000      -0.556419       -15.1409
  24   2.0000      -0.537387       -14.6230
  25   2.0000      -0.528860       -14.3910
  26   2.0000      -0.496834       -13.5195
  27   2.0000      -0.490879       -13.3575
  28   2.0000      -0.482011       -13.1162
  29   2.0000      -0.459115       -12.4932
  30   0.0000       0.078790         2.1440
  31   0.0000       0.119991         3.2651
  32   0.0000       0.154972         4.2170
  33   0.0000       0.165869         4.5135
  34   0.0000       0.180808         4.9200

MULLIKEN ATOMIC CHARGES
-----------------------
   0 O :   -0.744760
   1 H :    0.322218
   2 H :    0.369720
   3 O :   -0.719401
   4 H :    0.388739
   5 H :    0.354151
   6 O :   -0.726855
   7 H :    0.347655
   8 H :    0.356277
   9 O :   -0.714720
  10 H :    0.388574
  11 H :    0.353091
  12 O :   -0.725481
  13 H :    0.372101
  14 H :    0.379682
  15 O :   -0.692628
  16 H :    0.368500
  17 H :    0.323138
Sum of atomic charges:   -0.0000000

LOEWDIN ATOMIC CHARGES
----------------------
   0 O :   -0.379565
   1 H :    0.146782
   2 H :    0.141408
   3 O :   -0.281560
   4 H :    0.156662
   5 H :    0.177456
   6 O :   -0.338730
   7 H :    0.167789
   8 H :    0.142384
   9 O :   -0.287251
  10 H :    0.159090
  11 H :    0.143994
  12 O :   -0.288167
  13 H :    0.171816
  14 H :    0.195636
  15 O :   -0.337447
  16 H :    0.149816
  17 H :    0.159890

  Mayer bond orders larger than 0.100000
B(  0-O ,  1-H ) :   0.8622 B(  0-O ,  2-H ) :   0.7692 B(  2-H ,  9-O ) :   0.1025
B(  3-O ,  4-H ) :   0.7948 B(  3-O ,  5-H ) :   0.8330 B(  6-O ,  7-H ) :   0.8436
B(  6-O ,  8-H ) :   0.7900 B(  9-O , 10-H ) :   0.7969 B(  9-O , 11-H ) :   0.8252
B( 12-O , 13-H ) :   0.8278 B( 12-O , 14-H ) :   0.8124 B( 15-O , 16-H ) :   0.8234
B( 15-O , 17-H ) :   0.8606

MP2 TOTAL ENERGY:     -457.924671816 Eh
FINAL SINGLE POINT ENERGY      -457.924671816125

DIPOLE MOMENT
-------------
                                X             Y             Z
Electronic contribution:      0.05707       0.47883       0.07607
Nuclear contribution   :     -1.92896       0.11024      -1.26519
                        -----------------------------------------
Total Dipole Moment    :     -1.87189       0.58907      -1.18912
                        -----------------------------------------
Magnitude (a.u.)       :      2.29456
Magnitude (Debye)      :      5.83230

Rotational constants in cm-1:     0.069118     0.026020     0.022726
Rotational constants in MHz :  2072.111417   780.056788   681.302331

                             ****ORCA TERMINATED NORMALLY****
TOTAL RUN TIME: 0 days 0 hours 1 minutes 10 seconds 737 msec
