                         Program Version 4.2.0 -  RELEASE  -
|  1> # 12meoh.boyd.etal.mol7,9
|  2> ! MP2 def2-TZVP EnGrad TightSCF
|  3>
|  4> %pal
|  5>     nprocs 6
|  6> end
|  7>
|  8> %maxcore 8000
|  9>
| 10> %scf
| 11>     ConvForced true
| 12> end
| 13>
| 14> *xyz 0 1
| 15> O   4.310535586  -1.588322800   0.656128299
| 16> H   3.804372199  -1.630404735  -0.196849819
| 17> C   4.312298137  -2.894980854   1.222112691
| 18> H   4.713177833  -2.819907076   2.237066773
| 19> H   4.957796734  -3.574699304   0.648211180
| 20> H   3.302735989  -3.324433205   1.269756773
| 21> O   1.390610024   3.194080770  -1.536658882
| 22> H   2.162932299   2.881562730  -0.993525056
| 23> C   1.202977189   4.580367182  -1.302880219
| 24> H   0.374773115   4.915764831  -1.934164643
| 25> H   2.098649340   5.157710875  -1.570472348
| 26> H   0.950320401   4.800436015  -0.254328827
| 27> *
| 28>
| 29>                          ****END OF INPUT****

CARTESIAN COORDINATES (ANGSTROEM)
---------------------------------
  O      4.310536   -1.588323    0.656128
  H      3.804372   -1.630405   -0.196850
  C      4.312298   -2.894981    1.222113
  H      4.713178   -2.819907    2.237067
  H      4.957797   -3.574699    0.648211
  H      3.302736   -3.324433    1.269757
  O      1.390610    3.194081   -1.536659
  H      2.162932    2.881563   -0.993525
  C      1.202977    4.580367   -1.302880
  H      0.374773    4.915765   -1.934165
  H      2.098649    5.157711   -1.570472
  H      0.950320    4.800436   -0.254329

 Total Charge           Charge          ....    0
 Multiplicity           Mult            ....    1
 Number of Electrons    NEL             ....   36
 Basis Dimension        Dim             ....  172

ORBITAL ENERGIES
----------------

  NO   OCC          E(Eh)            E(eV)
   0   2.0000     -20.558489      -559.4249
   1   2.0000     -20.556075      -559.3592
   2   2.0000     -11.272483      -306.7398
   3   2.0000     -11.270117      -306.6755
   4   2.0000      -1.348182       -36.6859
   5   2.0000      -1.346786       -36.6479
   6   2.0000      -0.920452       -25.0468
   7   2.0000      -0.918090       -24.9825
   8   2.0000      -0.682887       -18.5823
   9   2.0000      -0.681379       -18.5413
  10   2.0000      -0.617877       -16.8133
  11   2.0000      -0.615616       -16.7518
  12   2.0000      -0.591914       -16.1068
  13   2.0000      -0.591022       -16.0825
  14   2.0000      -0.501995       -13.6600
  15   2.0000      -0.497952       -13.5500
  16   2.0000      -0.450137       -12.2488
  17   2.0000      -0.447192       -12.1687
  18   0.0000       0.127713         3.4753
  19   0.0000       0.142382         3.8744
  20   0.0000       0.172543         4.6951
  21   0.0000       0.181099         4.9280
  22   0.0000       0.227543         6.1918

MULLIKEN ATOMIC CHARGES
-----------------------
   0 O :   -0.499049
   1 H :    0.322626
   2 C :   -0.173963
   3 H :    0.128966
   4 H :    0.109901
   5 H :    0.111536
   6 O :   -0.499859
   7 H :    0.324022
   8 C :   -0.170367
   9 H :    0.128321
  10 H :    0.108951
  11 H :    0.108914
Sum of atomic charges:   -0.0000000

LOEWDIN ATOMIC CHARGES
----------------------
   0 O :   -0.110501
   1 H :    0.189835
   2 C :   -0.380985
   3 H :    0.109966
   4 H :    0.095612
   5 H :    0.096083
   6 O :   -0.106713
   7 H :    0.191423
   8 C :   -0.385615
   9 H :    0.110212
  10 H :    0.095258
  11 H :    0.095425

  Mayer bond orders larger than 0.100000
B(  0-O ,  1-H ) :   0.8425 B(  0-O ,  2-C ) :   0.9255 B(  2-C ,  3-H ) :   0.9378
B(  2-C ,  4-H ) :   0.9384 B(  2-C ,  5-H ) :   0.9402 B(  6-O ,  7-H ) :   0.8406
B(  6-O ,  8-C ) :   0.9272 B(  8-C ,  9-H ) :   0.9376 B(  8-C , 10-H ) :   0.9402
B(  8-C , 11-H ) :   0.9376

MP2 TOTAL ENERGY:     -231.013723460 Eh
FINAL SINGLE POINT ENERGY      -231.013723460325

DIPOLE MOMENT
-------------
                                X             Y             Z
Electronic contribution:      0.18385      -0.06786      -0.96680
Nuclear contribution   :     -0.09801      -0.12639       1.10640
                        -----------------------------------------
Total Dipole Moment    :      0.08584      -0.19425       0.13960
                        -----------------------------------------
Magnitude (a.u.)       :      0.25415
Magnitude (Debye)      :      0.64600

Rotational constants in cm-1:     1.136923     0.019565     0.019489
Rotational constants in MHz : 34084.091017   586.532916   584.254047

                             ****ORCA TERMINATED NORMALLY****
TOTAL RUN TIME: 0 days 0 hours 0 minutes 16 seconds 79 msec
