                         Program Version 4.2.0 -  RELEASE  -
|  1> # 12mecn.remya.etal.2.mol1,5,6
|  2> ! MP2 def2-TZVP EnGrad TightSCF
|  3>
|  4> %pal
|  5>     nprocs 6
|  6> end
|  7>
|  8> %maxcore 8000
|  9>
| 10> %scf
| 11>     ConvForced true
| 12> end
| 13>
| 14> *xyz 0 1
| 15> C  -4.697980000  -0.249690000   1.746215000
| 16> H  -4.927570000   0.755530000   2.111799000
| 17> H  -3.709180000  -0.561560000   2.093253000
| 18> H  -5.432280000  -0.961520000   2.128066000
| 19> C  -4.714100000  -0.247110000   0.301670000
| 20> N  -4.729750000  -0.234960000  -0.865260000
| 21> C  -1.955700000   2.515080000   1.698463000
| 22> H  -2.923830000   2.883163000   2.049269000
| 23> H  -1.154850000   3.171830000   2.050990000
| 24> H  -1.790380000   1.506115000   2.087896000
| 25> C  -1.948230000   2.482156000   0.253672000
| 26> N  -1.937550000   2.462523000  -0.913150000
| 27> C   5.300864000  -2.920090000   1.401103000
| 28> H   5.986071000  -2.139770000   1.737487000
| 29> H   5.636642000  -3.888750000   1.778233000
| 30> H   4.307359000  -2.697240000   1.799307000
| 31> C   5.234791000  -2.933140000  -0.043290000
| 32> N   5.170868000  -2.941760000  -1.207750000
| 33> *
| 34>
| 35>                          ****END OF INPUT****

CARTESIAN COORDINATES (ANGSTROEM)
---------------------------------
  C     -4.697980   -0.249690    1.746215
  H     -4.927570    0.755530    2.111799
  H     -3.709180   -0.561560    2.093253
  H     -5.432280   -0.961520    2.128066
  C     -4.714100   -0.247110    0.301670
  N     -4.729750   -0.234960   -0.865260
  C     -1.955700    2.515080    1.698463
  H     -2.923830    2.883163    2.049269
  H     -1.154850    3.171830    2.050990
  H     -1.790380    1.506115    2.087896
  C     -1.948230    2.482156    0.253672
  N     -1.937550    2.462523   -0.913150
  C      5.300864   -2.920090    1.401103
  H      5.986071   -2.139770    1.737487
  H      5.636642   -3.888750    1.778233
  H      4.307359   -2.697240    1.799307
  C      5.234791   -2.933140   -0.043290
  N      5.170868   -2.941760   -1.207750

 Total Charge           Charge          ....    0
 Multiplicity           Mult            ....    1
 Number of Electrons    NEL             ....   66
 Basis Dimension        Dim             ....  333

ORBITAL ENERGIES
----------------

  NO   OCC          E(Eh)            E(eV)
   0   2.0000     -15.573283      -423.7706
   1   2.0000     -15.573095      -423.7655
   2   2.0000     -15.572764      -423.7564
   3   2.0000     -11.291421      -307.2552
   4   2.0000     -11.291101      -307.2465
   5   2.0000     -11.286024      -307.1083
   6   2.0000     -11.279924      -306.9423
   7   2.0000     -11.277924      -306.8879
   8   2.0000     -11.277591      -306.8788
   9   2.0000      -1.214702       -33.0537
  10   2.0000      -1.213378       -33.0177
  11   2.0000      -1.212381       -32.9906
  12   2.0000      -1.049973       -28.5712
  13   2.0000      -1.047327       -28.4992
  14   2.0000      -1.044770       -28.4296
  15   2.0000      -0.705254       -19.1909
  16   2.0000      -0.702541       -19.1171
  17   2.0000      -0.702065       -19.1042
  18   2.0000      -0.643919       -17.5219
  19   2.0000      -0.641045       -17.4437
  20   2.0000      -0.636035       -17.3074
  21   2.0000      -0.633922       -17.2499
  22   2.0000      -0.631227       -17.1766
  23   2.0000      -0.630689       -17.1619
  24   2.0000      -0.555750       -15.1227
  25   2.0000      -0.554467       -15.0878
  26   2.0000      -0.552630       -15.0378
  27   2.0000      -0.462385       -12.5821
  28   2.0000      -0.458108       -12.4657
  29   2.0000      -0.457745       -12.4559
  30   2.0000      -0.457538       -12.4503
  31   2.0000      -0.455194       -12.3865
  32   2.0000      -0.449503       -12.2316
  33   0.0000       0.093712         2.5500
  34   0.0000       0.117573         3.1993
  35   0.0000       0.141078         3.8389
  36   0.0000       0.145622         3.9626
  37   0.0000       0.154594         4.2067

MULLIKEN ATOMIC CHARGES
-----------------------
   0 C :   -0.284731
   1 H :    0.164434
   2 H :    0.164044
   3 H :    0.182564
   4 C :   -0.153038
   5 N :   -0.073255
   6 C :   -0.283011
   7 H :    0.166667
   8 H :    0.182155
   9 H :    0.160693
  10 C :   -0.153614
  11 N :   -0.072909
  12 C :   -0.280897
  13 H :    0.171960
  14 H :    0.172504
  15 H :    0.169645
  16 C :   -0.145734
  17 N :   -0.087479
Sum of atomic charges:    0.0000000

LOEWDIN ATOMIC CHARGES
----------------------
   0 C :   -0.288195
   1 H :    0.149478
   2 H :    0.149111
   3 H :    0.152605
   4 C :   -0.224137
   5 N :    0.061171
   6 C :   -0.288348
   7 H :    0.149786
   8 H :    0.153523
   9 H :    0.147908
  10 C :   -0.224267
  11 N :    0.061364
  12 C :   -0.284509
  13 H :    0.151308
  14 H :    0.151268
  15 H :    0.152191
  16 C :   -0.219300
  17 N :    0.049042

  Mayer bond orders larger than 0.100000
B(  0-C ,  1-H ) :   0.9201 B(  0-C ,  2-H ) :   0.9231 B(  0-C ,  3-H ) :   0.9113
B(  0-C ,  4-C ) :   0.8984 B(  4-C ,  5-N ) :   2.8256 B(  6-C ,  7-H ) :   0.9221
B(  6-C ,  8-H ) :   0.9112 B(  6-C ,  9-H ) :   0.9212 B(  6-C , 10-C ) :   0.8984
B( 10-C , 11-N ) :   2.8260 B( 12-C , 13-H ) :   0.9171 B( 12-C , 14-H ) :   0.9162
B( 12-C , 15-H ) :   0.9175 B( 12-C , 16-C ) :   0.9030 B( 16-C , 17-N ) :   2.8350

MP2 TOTAL ENERGY:     -397.446596145 Eh
FINAL SINGLE POINT ENERGY      -397.446596145049

DIPOLE MOMENT
-------------
                                X             Y             Z
Electronic contribution:     -0.16288      -0.08905      -9.54423
Nuclear contribution   :      0.24286       0.12044      13.93478
                        -----------------------------------------
Total Dipole Moment    :      0.07998       0.03139       4.39054
                        -----------------------------------------
Magnitude (a.u.)       :      4.39138
Magnitude (Debye)      :     11.16200

Rotational constants in cm-1:     0.038917     0.006323     0.006061
Rotational constants in MHz :  1166.691716   189.551913   181.693256

                             ****ORCA TERMINATED NORMALLY****
TOTAL RUN TIME: 0 days 0 hours 2 minutes 13 seconds 9 msec
