                         Program Version 4.2.0 -  RELEASE  -
|  1> # 12h2o.su.etal.mol0,5,9,10,11
|  2> ! MP2 def2-TZVP EnGrad TightSCF
|  3>
|  4> %pal
|  5>     nprocs 6
|  6> end
|  7>
|  8> %maxcore 8000
|  9>
| 10> %scf
| 11>     ConvForced true
| 12> end
| 13>
| 14> *xyz 0 1
| 15> O   1.794470000   0.923410000   2.768350000
| 16> H   2.338250000   1.359750000   3.430940000
| 17> H   0.879480000   1.303000000   2.865760000
| 18> O   0.885520000  -1.737840000   0.052730000
| 19> H   1.284090000  -0.839590000   0.017130000
| 20> H   1.032320000  -2.090180000  -0.841890000
| 21> O   0.741530000  -1.752130000   2.896280000
| 22> H   0.920500000  -2.036450000   1.984040000
| 23> H   1.242140000  -0.921210000   2.984230000
| 24> O  -0.923410000   1.794470000  -2.768350000
| 25> H  -1.359750000   2.338250000  -3.430940000
| 26> H  -1.303000000   0.879480000  -2.865760000
| 27> O  -0.741530000   1.752130000   2.896280000
| 28> H  -0.920500000   2.036450000   1.984040000
| 29> H  -1.242140000   0.921210000   2.984230000
| 30> *
| 31>
| 32>                          ****END OF INPUT****

CARTESIAN COORDINATES (ANGSTROEM)
---------------------------------
  O      1.794470    0.923410    2.768350
  H      2.338250    1.359750    3.430940
  H      0.879480    1.303000    2.865760
  O      0.885520   -1.737840    0.052730
  H      1.284090   -0.839590    0.017130
  H      1.032320   -2.090180   -0.841890
  O      0.741530   -1.752130    2.896280
  H      0.920500   -2.036450    1.984040
  H      1.242140   -0.921210    2.984230
  O     -0.923410    1.794470   -2.768350
  H     -1.359750    2.338250   -3.430940
  H     -1.303000    0.879480   -2.865760
  O     -0.741530    1.752130    2.896280
  H     -0.920500    2.036450    1.984040
  H     -1.242140    0.921210    2.984230

 Total Charge           Charge          ....    0
 Multiplicity           Mult            ....    1
 Number of Electrons    NEL             ....   50
 Basis Dimension        Dim             ....  215

ORBITAL ENERGIES
----------------

  NO   OCC          E(Eh)            E(eV)
   0   2.0000     -20.594836      -560.4140
   1   2.0000     -20.576573      -559.9170
   2   2.0000     -20.575325      -559.8831
   3   2.0000     -20.540843      -558.9448
   4   2.0000     -20.497027      -557.7525
   5   2.0000      -1.380629       -37.5688
   6   2.0000      -1.354923       -36.8693
   7   2.0000      -1.350647       -36.7530
   8   2.0000      -1.324976       -36.0544
   9   2.0000      -1.282033       -34.8859
  10   2.0000      -0.737166       -20.0593
  11   2.0000      -0.719094       -19.5675
  12   2.0000      -0.716976       -19.5099
  13   2.0000      -0.710217       -19.3260
  14   2.0000      -0.659959       -17.9584
  15   2.0000      -0.620218       -16.8770
  16   2.0000      -0.595785       -16.2121
  17   2.0000      -0.586941       -15.9715
  18   2.0000      -0.571717       -15.5572
  19   2.0000      -0.532282       -14.4841
  20   2.0000      -0.522690       -14.2231
  21   2.0000      -0.518640       -14.1129
  22   2.0000      -0.512978       -13.9588
  23   2.0000      -0.485801       -13.2193
  24   2.0000      -0.447224       -12.1696
  25   0.0000       0.096766         2.6331
  26   0.0000       0.121243         3.2992
  27   0.0000       0.135900         3.6980
  28   0.0000       0.166803         4.5389
  29   0.0000       0.188967         5.1421

MULLIKEN ATOMIC CHARGES
-----------------------
   0 O :   -0.738445
   1 H :    0.339279
   2 H :    0.378026
   3 O :   -0.695370
   4 H :    0.356053
   5 H :    0.342078
   6 O :   -0.735840
   7 H :    0.363246
   8 H :    0.346589
   9 O :   -0.686586
  10 H :    0.342959
  11 H :    0.343572
  12 O :   -0.688408
  13 H :    0.361341
  14 H :    0.371506
Sum of atomic charges:   -0.0000000

LOEWDIN ATOMIC CHARGES
----------------------
   0 O :   -0.341084
   1 H :    0.154877
   2 H :    0.144876
   3 O :   -0.319900
   4 H :    0.178697
   5 H :    0.167127
   6 O :   -0.359491
   7 H :    0.148711
   8 H :    0.140560
   9 O :   -0.340824
  10 H :    0.159713
  11 H :    0.181013
  12 O :   -0.271016
  13 H :    0.176037
  14 H :    0.180706

  Mayer bond orders larger than 0.100000
B(  0-O ,  1-H ) :   0.8497 B(  0-O ,  2-H ) :   0.7662 B(  3-O ,  4-H ) :   0.8339
B(  3-O ,  5-H ) :   0.8464 B(  6-O ,  7-H ) :   0.8289 B(  6-O ,  8-H ) :   0.8195
B(  9-O , 10-H ) :   0.8509 B(  9-O , 11-H ) :   0.8449 B( 12-O , 13-H ) :   0.8353
B( 12-O , 14-H ) :   0.8242

MP2 TOTAL ENERGY:     -381.591571355 Eh
FINAL SINGLE POINT ENERGY      -381.591571354986

DIPOLE MOMENT
-------------
                                X             Y             Z
Electronic contribution:     -0.16752       0.13638       0.20062
Nuclear contribution   :     -0.53418       0.82456      -2.14649
                        -----------------------------------------
Total Dipole Moment    :     -0.70170       0.96094      -1.94587
                        -----------------------------------------
Magnitude (a.u.)       :      2.28084
Magnitude (Debye)      :      5.79743

Rotational constants in cm-1:     0.059512     0.029807     0.022536
Rotational constants in MHz :  1784.119531   893.587822   675.616886

                             ****ORCA TERMINATED NORMALLY****
TOTAL RUN TIME: 0 days 0 hours 0 minutes 26 seconds 763 msec
