                         Program Version 4.2.0 -  RELEASE  -
|  1> # 12h2o.su.etal.mol1,2,5,6,7,8,9
|  2> ! MP2 def2-TZVP EnGrad TightSCF
|  3>
|  4> %pal
|  5>     nprocs 6
|  6> end
|  7>
|  8> %maxcore 8000
|  9>
| 10> %scf
| 11>     ConvForced true
| 12> end
| 13>
| 14> *xyz 0 1
| 15> O  -1.794470000  -0.923410000   2.768350000
| 16> H  -2.338250000  -1.359750000   3.430940000
| 17> H  -0.879480000  -1.303000000   2.865760000
| 18> O   0.923410000  -1.794470000  -2.768350000
| 19> H   1.359750000  -2.338250000  -3.430940000
| 20> H   1.303000000  -0.879480000  -2.865760000
| 21> O   0.885520000  -1.737840000   0.052730000
| 22> H   1.284090000  -0.839590000   0.017130000
| 23> H   1.032320000  -2.090180000  -0.841890000
| 24> O   1.737840000   0.885520000  -0.052730000
| 25> H   2.090180000   1.032320000   0.841890000
| 26> H   0.839590000   1.284090000  -0.017130000
| 27> O  -1.737840000  -0.885520000  -0.052730000
| 28> H  -2.090180000  -1.032320000   0.841890000
| 29> H  -0.839590000  -1.284090000  -0.017130000
| 30> O   1.752130000   0.741530000  -2.896280000
| 31> H   2.036450000   0.920500000  -1.984040000
| 32> H   0.921210000   1.242140000  -2.984230000
| 33> O   0.741530000  -1.752130000   2.896280000
| 34> H   0.920500000  -2.036450000   1.984040000
| 35> H   1.242140000  -0.921210000   2.984230000
| 36> *
| 37>
| 38>                          ****END OF INPUT****

CARTESIAN COORDINATES (ANGSTROEM)
---------------------------------
  O     -1.794470   -0.923410    2.768350
  H     -2.338250   -1.359750    3.430940
  H     -0.879480   -1.303000    2.865760
  O      0.923410   -1.794470   -2.768350
  H      1.359750   -2.338250   -3.430940
  H      1.303000   -0.879480   -2.865760
  O      0.885520   -1.737840    0.052730
  H      1.284090   -0.839590    0.017130
  H      1.032320   -2.090180   -0.841890
  O      1.737840    0.885520   -0.052730
  H      2.090180    1.032320    0.841890
  H      0.839590    1.284090   -0.017130
  O     -1.737840   -0.885520   -0.052730
  H     -2.090180   -1.032320    0.841890
  H     -0.839590   -1.284090   -0.017130
  O      1.752130    0.741530   -2.896280
  H      2.036450    0.920500   -1.984040
  H      0.921210    1.242140   -2.984230
  O      0.741530   -1.752130    2.896280
  H      0.920500   -2.036450    1.984040
  H      1.242140   -0.921210    2.984230

 Total Charge           Charge          ....    0
 Multiplicity           Mult            ....    1
 Number of Electrons    NEL             ....   70
 Basis Dimension        Dim             ....  301

ORBITAL ENERGIES
----------------

  NO   OCC          E(Eh)            E(eV)
   0   2.0000     -20.638817      -561.6107
   1   2.0000     -20.590765      -560.3032
   2   2.0000     -20.579592      -559.9992
   3   2.0000     -20.556655      -559.3750
   4   2.0000     -20.543410      -559.0146
   5   2.0000     -20.530084      -558.6520
   6   2.0000     -20.485299      -557.4333
   7   2.0000      -1.422194       -38.6999
   8   2.0000      -1.379062       -37.5262
   9   2.0000      -1.370036       -37.2806
  10   2.0000      -1.347961       -36.6799
  11   2.0000      -1.325157       -36.0594
  12   2.0000      -1.314667       -35.7739
  13   2.0000      -1.269382       -34.5417
  14   2.0000      -0.780702       -21.2440
  15   2.0000      -0.741846       -20.1866
  16   2.0000      -0.733240       -19.9525
  17   2.0000      -0.720499       -19.6058
  18   2.0000      -0.712094       -19.3771
  19   2.0000      -0.699639       -19.0382
  20   2.0000      -0.666521       -18.1370
  21   2.0000      -0.652282       -17.7495
  22   2.0000      -0.624626       -16.9969
  23   2.0000      -0.614201       -16.7133
  24   2.0000      -0.599446       -16.3118
  25   2.0000      -0.568580       -15.4718
  26   2.0000      -0.565969       -15.4008
  27   2.0000      -0.560683       -15.2570
  28   2.0000      -0.531580       -14.4650
  29   2.0000      -0.522486       -14.2176
  30   2.0000      -0.509738       -13.8707
  31   2.0000      -0.493431       -13.4269
  32   2.0000      -0.490118       -13.3368
  33   2.0000      -0.473101       -12.8737
  34   2.0000      -0.436456       -11.8766
  35   0.0000       0.069749         1.8980
  36   0.0000       0.120843         3.2883
  37   0.0000       0.151598         4.1252
  38   0.0000       0.160166         4.3583
  39   0.0000       0.175510         4.7759

MULLIKEN ATOMIC CHARGES
-----------------------
   0 O :   -0.737425
   1 H :    0.332003
   2 H :    0.367863
   3 O :   -0.730840
   4 H :    0.336055
   5 H :    0.371480
   6 O :   -0.749503
   7 H :    0.342958
   8 H :    0.390071
   9 O :   -0.718433
  10 H :    0.368003
  11 H :    0.383032
  12 O :   -0.747045
  13 H :    0.360035
  14 H :    0.347430
  15 O :   -0.691526
  16 H :    0.383083
  17 H :    0.357082
  18 O :   -0.687506
  19 H :    0.393615
  20 H :    0.329571
Sum of atomic charges:   -0.0000000

LOEWDIN ATOMIC CHARGES
----------------------
   0 O :   -0.343309
   1 H :    0.150975
   2 H :    0.143019
   3 O :   -0.336348
   4 H :    0.154034
   5 H :    0.144312
   6 O :   -0.303083
   7 H :    0.136246
   8 H :    0.156469
   9 O :   -0.277027
  10 H :    0.176846
  11 H :    0.189751
  12 O :   -0.376573
  13 H :    0.143518
  14 H :    0.133322
  15 O :   -0.272219
  16 H :    0.157203
  17 H :    0.175693
  18 O :   -0.274424
  19 H :    0.159374
  20 H :    0.162223

  Mayer bond orders larger than 0.100000
B(  0-O ,  1-H ) :   0.8531 B(  0-O ,  2-H ) :   0.7669 B(  3-O ,  4-H ) :   0.8511
B(  3-O ,  5-H ) :   0.7648 B(  6-O ,  7-H ) :   0.7957 B(  6-O ,  8-H ) :   0.7837
B(  9-O , 10-H ) :   0.8295 B(  9-O , 11-H ) :   0.8096 B( 12-O , 13-H ) :   0.8206
B( 12-O , 14-H ) :   0.8104 B( 15-O , 16-H ) :   0.8103 B( 15-O , 17-H ) :   0.8374
B( 18-O , 19-H ) :   0.7896 B( 18-O , 20-H ) :   0.8532

MP2 TOTAL ENERGY:     -534.253936385 Eh
FINAL SINGLE POINT ENERGY      -534.253936385452

DIPOLE MOMENT
-------------
                                X             Y             Z
Electronic contribution:      0.36602       0.14475      -0.30360
Nuclear contribution   :      1.55276       1.10485       0.77428
                        -----------------------------------------
Total Dipole Moment    :      1.91878       1.24960       0.47068
                        -----------------------------------------
Magnitude (a.u.)       :      2.33768
Magnitude (Debye)      :      5.94191

Rotational constants in cm-1:     0.058119     0.020976     0.019613
Rotational constants in MHz :  1742.360478   628.834830   587.988330

                             ****ORCA TERMINATED NORMALLY****
TOTAL RUN TIME: 0 days 0 hours 2 minutes 37 seconds 91 msec
