                         Program Version 4.2.0 -  RELEASE  -
|  1> # Functional Basis-set
|  2> ! MP2 Def2-TZVP
|  3>
|  4> # Type of calculation
|  5> ! OPT
|  6>
|  7> # Options
|  8> ! TightSCF
|  9>
| 10> %pal nprocs 24 end
| 11>
| 12> %maxcore 700
| 13>
| 14> %geom
| 15> 	Maxiter 200
| 16> end
| 17>
| 18> *xyz  0  1
| 19>     C     -2.11518077      1.50920664      1.51977203
| 20>     H     -1.51857584      2.38229294      1.68312152
| 21>     H     -3.01730563      1.58175266      2.09056700
| 22>     H     -2.35618110      1.43128102      0.48018291
| 23>     C     -1.32859874      0.26035543      1.95938477
| 24>     N     -0.74295266     -0.66947106      2.28669643
| 25>     C      2.49934875     -0.03300692      1.67736202
| 26>     H      3.54854703      0.10369033      1.83672643
| 27>     H      2.10491300     -0.67906248      2.43362371
| 28>     H      2.00496361      0.91475755      1.72453126
| 29>     C      2.26852479     -0.66398520      0.29165401
| 30>     N      2.09666586     -1.13377721     -0.74006860
| 31>     C      0.39913351      1.37768648     -2.64652216
| 32>     H      0.78730192      0.38064606     -2.65817800
| 33>     H      0.94649389      1.98165587     -3.33971527
| 34>     H     -0.63371819      1.36160495     -2.92555233
| 35>     C      0.53920601      1.96656137     -1.23046917
| 36>     N      0.64349635      2.40500550     -0.17615336
| 37>     C     -0.78330453     -2.85388692     -0.55061089
| 38>     H     -0.43611111     -2.72669614      0.45347048
| 39>     H      0.04738039     -3.06482594     -1.19120935
| 40>     H     -1.47772328     -3.66710043     -0.58756333
| 41>     C     -1.47912619     -1.56293021     -1.02057153
| 42>     N     -1.99719705     -0.60175427     -1.37047859
| 43> *
| 44>
| 45>                          ****END OF INPUT****
 Total Charge           Charge          ....    0
 Multiplicity           Mult            ....    1
 Number of Electrons    NEL             ....   88
MP2 TOTAL ENERGY:     -529.944830078 Eh
FINAL SINGLE POINT ENERGY      -529.944830078442
MP2 TOTAL ENERGY:     -529.964905783 Eh
FINAL SINGLE POINT ENERGY      -529.964905782771
MP2 TOTAL ENERGY:     -529.967406108 Eh
FINAL SINGLE POINT ENERGY      -529.967406108457
MP2 TOTAL ENERGY:     -529.967785509 Eh
FINAL SINGLE POINT ENERGY      -529.967785509140
MP2 TOTAL ENERGY:     -529.968085524 Eh
FINAL SINGLE POINT ENERGY      -529.968085523737
MP2 TOTAL ENERGY:     -529.968316228 Eh
FINAL SINGLE POINT ENERGY      -529.968316228285
FINAL SINGLE POINT ENERGY      -529.968489590676
FINAL SINGLE POINT ENERGY      -529.968611104412
FINAL SINGLE POINT ENERGY      -529.968677323417
FINAL SINGLE POINT ENERGY      -529.968698654573
FINAL SINGLE POINT ENERGY      -529.968725473731
FINAL SINGLE POINT ENERGY      -529.968762403233
FINAL SINGLE POINT ENERGY      -529.968794254556
MP2 TOTAL ENERGY:     -529.968826787 Eh
FINAL SINGLE POINT ENERGY      -529.968826786988
MP2 TOTAL ENERGY:     -529.968864274 Eh
FINAL SINGLE POINT ENERGY      -529.968864273505
MP2 TOTAL ENERGY:     -529.968899525 Eh
FINAL SINGLE POINT ENERGY      -529.968899525075
MP2 TOTAL ENERGY:     -529.968922502 Eh
FINAL SINGLE POINT ENERGY      -529.968922502370
MP2 TOTAL ENERGY:     -529.968932607 Eh
FINAL SINGLE POINT ENERGY      -529.968932606695
                    ***********************HURRAY********************

CARTESIAN COORDINATES (ANGSTROEM)
---------------------------------
  C     -2.095694    1.388974    1.478353
  H     -1.502431    2.299537    1.545510
  H     -2.964906    1.459987    2.131671
  H     -2.419868    1.257196    0.445952
  C     -1.278381    0.249200    1.864087
  N     -0.629900   -0.673031    2.175079
  C      2.467235    0.007137    1.561939
  H      3.546727    0.052556    1.703380
  H      2.008696   -0.566013    2.366181
  H      2.051917    1.015075    1.568377
  C      2.160460   -0.619239    0.285552
  N      1.919454   -1.115213   -0.745713
  C      0.465565    1.363843   -2.545596
  H      0.948315    0.386950   -2.576995
  H      0.977786    2.049981   -3.219618
  H     -0.574501    1.250448   -2.846864
  C      0.523496    1.873532   -1.184349
  N      0.583562    2.285884   -0.091539
  C     -0.838718   -2.761696   -0.499171
  H     -0.577954   -2.666555    0.555098
  H      0.064786   -2.982308   -1.065209
  H     -1.566003   -3.562894   -0.627788
  C     -1.403075   -1.502305   -0.958752
  N     -1.866570   -0.491046   -1.319582

 Multiplicity           Mult            ....    1
 Number of Electrons    NEL             ....   88
 Basis Dimension        Dim             ....  444

ORBITAL ENERGIES
----------------

  NO   OCC          E(Eh)            E(eV)
   0   2.0000     -15.565062      -423.5469
   1   2.0000     -15.565055      -423.5467
   2   2.0000     -15.564997      -423.5451
   3   2.0000     -15.564972      -423.5444
   4   2.0000     -11.280894      -306.9687
   5   2.0000     -11.280819      -306.9667
   6   2.0000     -11.280744      -306.9647
   7   2.0000     -11.280709      -306.9637
   8   2.0000     -11.260328      -306.4091
   9   2.0000     -11.260176      -306.4050
  10   2.0000     -11.260060      -306.4018
  11   2.0000     -11.259986      -306.3998
  12   2.0000      -1.213630       -33.0245
  13   2.0000      -1.210054       -32.9272
  14   2.0000      -1.207647       -32.8618
  15   2.0000      -1.207633       -32.8614
  16   2.0000      -1.025513       -27.9056
  17   2.0000      -1.025466       -27.9043
  18   2.0000      -1.024395       -27.8752
  19   2.0000      -1.021500       -27.7964
  20   2.0000      -0.686337       -18.6762
  21   2.0000      -0.684430       -18.6243
  22   2.0000      -0.681643       -18.5484
  23   2.0000      -0.681602       -18.5473
  24   2.0000      -0.624550       -16.9949
  25   2.0000      -0.620205       -16.8766
  26   2.0000      -0.616442       -16.7742
  27   2.0000      -0.615520       -16.7491
  28   2.0000      -0.615498       -16.7486
  29   2.0000      -0.608554       -16.5596
  30   2.0000      -0.603360       -16.4183
  31   2.0000      -0.603335       -16.4176
  32   2.0000      -0.553259       -15.0549
  33   2.0000      -0.553246       -15.0546
  34   2.0000      -0.552092       -15.0232
  35   2.0000      -0.549926       -14.9642
  36   2.0000      -0.463911       -12.6237
  37   2.0000      -0.457359       -12.4454
  38   2.0000      -0.453860       -12.3501
  39   2.0000      -0.453817       -12.3490
  40   2.0000      -0.450675       -12.2635
  41   2.0000      -0.450214       -12.2509
  42   2.0000      -0.446116       -12.1394
  43   2.0000      -0.446085       -12.1386
  44   0.0000       0.134869         3.6700
  45   0.0000       0.157508         4.2860
  46   0.0000       0.157567         4.2876
  47   0.0000       0.158787         4.3208
  48   0.0000       0.166550         4.5320

MULLIKEN ATOMIC CHARGES
-----------------------
   0 C :   -0.290067
   1 H :    0.186182
   2 H :    0.167480
   3 H :    0.194402
   4 C :   -0.059846
   5 N :   -0.198326
   6 C :   -0.290500
   7 H :    0.167395
   8 H :    0.186477
   9 H :    0.194470
  10 C :   -0.058627
  11 N :   -0.199283
  12 C :   -0.289321
  13 H :    0.194207
  14 H :    0.167457
  15 H :    0.185885
  16 C :   -0.059199
  17 N :   -0.198973
  18 C :   -0.290025
  19 H :    0.194249
  20 H :    0.186212
  21 H :    0.167402
  22 C :   -0.057638
  23 N :   -0.200012
Sum of atomic charges:   -0.0000000

LOEWDIN ATOMIC CHARGES
----------------------
   0 C :   -0.284299
   1 H :    0.153303
   2 H :    0.146452
   3 H :    0.154759
   4 C :   -0.194621
   5 N :    0.024061
   6 C :   -0.284236
   7 H :    0.146428
   8 H :    0.153328
   9 H :    0.154886
  10 C :   -0.194480
  11 N :    0.024408
  12 C :   -0.284299
  13 H :    0.154854
  14 H :    0.146468
  15 H :    0.153203
  16 C :   -0.194552
  17 N :    0.023934
  18 C :   -0.284211
  19 H :    0.154964
  20 H :    0.153274
  21 H :    0.146438
  22 C :   -0.194369
  23 N :    0.024305

  Mayer bond orders larger than 0.100000
B(  0-C ,  1-H ) :   0.9127 B(  0-C ,  2-H ) :   0.9100 B(  0-C ,  3-H ) :   0.9090
B(  0-C ,  4-C ) :   0.8942 B(  4-C ,  5-N ) :   2.7140 B(  6-C ,  7-H ) :   0.9101
B(  6-C ,  8-H ) :   0.9127 B(  6-C ,  9-H ) :   0.9090 B(  6-C , 10-C ) :   0.8941
B( 10-C , 11-N ) :   2.7126 B( 12-C , 13-H ) :   0.9092 B( 12-C , 14-H ) :   0.9101
B( 12-C , 15-H ) :   0.9129 B( 12-C , 16-C ) :   0.8942 B( 16-C , 17-N ) :   2.7130
B( 18-C , 19-H ) :   0.9092 B( 18-C , 20-H ) :   0.9129 B( 18-C , 21-H ) :   0.9101
B( 18-C , 22-C ) :   0.8941 B( 22-C , 23-N ) :   2.7116

MP2 TOTAL ENERGY:     -529.968937845 Eh
FINAL SINGLE POINT ENERGY      -529.968937845066

DIPOLE MOMENT
-------------
                                X             Y             Z
Electronic contribution:      0.00872       0.00433       0.02130
Nuclear contribution   :     -0.01346      -0.01110      -0.03680
                        -----------------------------------------
Total Dipole Moment    :     -0.00473      -0.00677      -0.01550
                        -----------------------------------------
Magnitude (a.u.)       :      0.01757
Magnitude (Debye)      :      0.04465

Rotational constants in cm-1:     0.024430     0.022284     0.022274
Rotational constants in MHz :   732.390452   668.062996   667.765047

                             ****ORCA TERMINATED NORMALLY****
TOTAL RUN TIME: 0 days 3 hours 2 minutes 1 seconds 743 msec
