                         Program Version 4.2.0 -  RELEASE  -
|  1> # 12h2o.su.etal.mol0,1,2,4,7,8,9,10
|  2> ! MP2 def2-TZVP EnGrad TightSCF
|  3>
|  4> %pal
|  5>     nprocs 6
|  6> end
|  7>
|  8> %maxcore 8000
|  9>
| 10> %scf
| 11>     ConvForced true
| 12> end
| 13>
| 14> *xyz 0 1
| 15> O   1.794470000   0.923410000   2.768350000
| 16> H   2.338250000   1.359750000   3.430940000
| 17> H   0.879480000   1.303000000   2.865760000
| 18> O  -1.794470000  -0.923410000   2.768350000
| 19> H  -2.338250000  -1.359750000   3.430940000
| 20> H  -0.879480000  -1.303000000   2.865760000
| 21> O   0.923410000  -1.794470000  -2.768350000
| 22> H   1.359750000  -2.338250000  -3.430940000
| 23> H   1.303000000  -0.879480000  -2.865760000
| 24> O  -0.885520000   1.737840000   0.052730000
| 25> H  -1.032320000   2.090180000  -0.841890000
| 26> H  -1.284090000   0.839590000   0.017130000
| 27> O  -1.737840000  -0.885520000  -0.052730000
| 28> H  -2.090180000  -1.032320000   0.841890000
| 29> H  -0.839590000  -1.284090000  -0.017130000
| 30> O   1.752130000   0.741530000  -2.896280000
| 31> H   2.036450000   0.920500000  -1.984040000
| 32> H   0.921210000   1.242140000  -2.984230000
| 33> O   0.741530000  -1.752130000   2.896280000
| 34> H   0.920500000  -2.036450000   1.984040000
| 35> H   1.242140000  -0.921210000   2.984230000
| 36> O  -0.923410000   1.794470000  -2.768350000
| 37> H  -1.359750000   2.338250000  -3.430940000
| 38> H  -1.303000000   0.879480000  -2.865760000
| 39> *
| 40>
| 41>                          ****END OF INPUT****

CARTESIAN COORDINATES (ANGSTROEM)
---------------------------------
  O      1.794470    0.923410    2.768350
  H      2.338250    1.359750    3.430940
  H      0.879480    1.303000    2.865760
  O     -1.794470   -0.923410    2.768350
  H     -2.338250   -1.359750    3.430940
  H     -0.879480   -1.303000    2.865760
  O      0.923410   -1.794470   -2.768350
  H      1.359750   -2.338250   -3.430940
  H      1.303000   -0.879480   -2.865760
  O     -0.885520    1.737840    0.052730
  H     -1.032320    2.090180   -0.841890
  H     -1.284090    0.839590    0.017130
  O     -1.737840   -0.885520   -0.052730
  H     -2.090180   -1.032320    0.841890
  H     -0.839590   -1.284090   -0.017130
  O      1.752130    0.741530   -2.896280
  H      2.036450    0.920500   -1.984040
  H      0.921210    1.242140   -2.984230
  O      0.741530   -1.752130    2.896280
  H      0.920500   -2.036450    1.984040
  H      1.242140   -0.921210    2.984230
  O     -0.923410    1.794470   -2.768350
  H     -1.359750    2.338250   -3.430940
  H     -1.303000    0.879480   -2.865760

 Total Charge           Charge          ....    0
 Multiplicity           Mult            ....    1
 Number of Electrons    NEL             ....   80
 Basis Dimension        Dim             ....  344

ORBITAL ENERGIES
----------------

  NO   OCC          E(Eh)            E(eV)
   0   2.0000     -20.602760      -560.6296
   1   2.0000     -20.586904      -560.1981
   2   2.0000     -20.577287      -559.9364
   3   2.0000     -20.565696      -559.6210
   4   2.0000     -20.549395      -559.1775
   5   2.0000     -20.543361      -559.0133
   6   2.0000     -20.518825      -558.3456
   7   2.0000     -20.497934      -557.7771
   8   2.0000      -1.383469       -37.6461
   9   2.0000      -1.371209       -37.3125
  10   2.0000      -1.360098       -37.0101
  11   2.0000      -1.354186       -36.8493
  12   2.0000      -1.336750       -36.3748
  13   2.0000      -1.323220       -36.0066
  14   2.0000      -1.300501       -35.3884
  15   2.0000      -1.281927       -34.8830
  16   2.0000      -0.749019       -20.3818
  17   2.0000      -0.736134       -20.0312
  18   2.0000      -0.722072       -19.6486
  19   2.0000      -0.716254       -19.4903
  20   2.0000      -0.710977       -19.3467
  21   2.0000      -0.695622       -18.9288
  22   2.0000      -0.687549       -18.7092
  23   2.0000      -0.666941       -18.1484
  24   2.0000      -0.622997       -16.9526
  25   2.0000      -0.621641       -16.9157
  26   2.0000      -0.598213       -16.2782
  27   2.0000      -0.594852       -16.1868
  28   2.0000      -0.581469       -15.8226
  29   2.0000      -0.564466       -15.3599
  30   2.0000      -0.554431       -15.0868
  31   2.0000      -0.543730       -14.7956
  32   2.0000      -0.528985       -14.3944
  33   2.0000      -0.520683       -14.1685
  34   2.0000      -0.513907       -13.9841
  35   2.0000      -0.499375       -13.5887
  36   2.0000      -0.492455       -13.4004
  37   2.0000      -0.483205       -13.1487
  38   2.0000      -0.469647       -12.7797
  39   2.0000      -0.448844       -12.2137
  40   0.0000       0.098565         2.6821
  41   0.0000       0.114725         3.1218
  42   0.0000       0.135762         3.6943
  43   0.0000       0.154244         4.1972
  44   0.0000       0.166708         4.5363

MULLIKEN ATOMIC CHARGES
-----------------------
   0 O :   -0.705849
   1 H :    0.351729
   2 H :    0.380300
   3 O :   -0.738251
   4 H :    0.337089
   5 H :    0.368095
   6 O :   -0.739251
   7 H :    0.325315
   8 H :    0.365194
   9 O :   -0.741471
  10 H :    0.349548
  11 H :    0.350691
  12 O :   -0.702536
  13 H :    0.379679
  14 H :    0.337061
  15 O :   -0.703963
  16 H :    0.358610
  17 H :    0.374123
  18 O :   -0.700237
  19 H :    0.350858
  20 H :    0.379504
  21 O :   -0.720634
  22 H :    0.360240
  23 H :    0.384155
Sum of atomic charges:   -0.0000000

LOEWDIN ATOMIC CHARGES
----------------------
   0 O :   -0.311305
   1 H :    0.163812
   2 H :    0.195537
   3 O :   -0.340909
   4 H :    0.153832
   5 H :    0.142526
   6 O :   -0.376805
   7 H :    0.148808
   8 H :    0.141050
   9 O :   -0.374114
  10 H :    0.139287
  11 H :    0.137812
  12 O :   -0.301944
  13 H :    0.153143
  14 H :    0.167495
  15 O :   -0.283457
  16 H :    0.173158
  17 H :    0.152994
  18 O :   -0.280283
  19 H :    0.168592
  20 H :    0.155837
  21 O :   -0.287804
  22 H :    0.166149
  23 H :    0.196587

  Mayer bond orders larger than 0.100000
B(  0-O ,  1-H ) :   0.8417 B(  0-O ,  2-H ) :   0.8141 B(  3-O ,  4-H ) :   0.8506
B(  3-O ,  5-H ) :   0.7580 B(  5-H , 18-O ) :   0.1007 B(  6-O ,  7-H ) :   0.8601
B(  6-O ,  8-H ) :   0.7736 B(  9-O , 10-H ) :   0.8384 B(  9-O , 11-H ) :   0.7945
B( 12-O , 13-H ) :   0.7945 B( 12-O , 14-H ) :   0.8423 B( 15-O , 16-H ) :   0.8355
B( 15-O , 17-H ) :   0.8019 B( 18-O , 19-H ) :   0.8415 B( 18-O , 20-H ) :   0.7890
B( 21-O , 22-H ) :   0.8340 B( 21-O , 23-H ) :   0.8095

MP2 TOTAL ENERGY:     -610.571191666 Eh
FINAL SINGLE POINT ENERGY      -610.571191666362

DIPOLE MOMENT
-------------
                                X             Y             Z
Electronic contribution:      0.16466       0.27410       0.12337
Nuclear contribution   :      0.11114       0.11229       0.00000
                        -----------------------------------------
Total Dipole Moment    :      0.27579       0.38639       0.12337
                        -----------------------------------------
Magnitude (a.u.)       :      0.49049
Magnitude (Debye)      :      1.24672

Rotational constants in cm-1:     0.031363     0.014647     0.014266
Rotational constants in MHz :   940.230176   439.117891   427.697733

                             ****ORCA TERMINATED NORMALLY****
TOTAL RUN TIME: 0 days 0 hours 2 minutes 42 seconds 555 msec
