                         Program Version 4.2.0 -  RELEASE  -
|  1> # 12h2o.su.etal.mol0,3,5,6,8,10
|  2> ! MP2 def2-TZVP EnGrad TightSCF
|  3>
|  4> %pal
|  5>     nprocs 6
|  6> end
|  7>
|  8> %maxcore 8000
|  9>
| 10> %scf
| 11>     ConvForced true
| 12> end
| 13>
| 14> *xyz 0 1
| 15> O   1.794470000   0.923410000   2.768350000
| 16> H   2.338250000   1.359750000   3.430940000
| 17> H   0.879480000   1.303000000   2.865760000
| 18> O  -1.752130000  -0.741530000  -2.896280000
| 19> H  -2.036450000  -0.920500000  -1.984040000
| 20> H  -0.921210000  -1.242140000  -2.984230000
| 21> O   0.885520000  -1.737840000   0.052730000
| 22> H   1.284090000  -0.839590000   0.017130000
| 23> H   1.032320000  -2.090180000  -0.841890000
| 24> O   1.737840000   0.885520000  -0.052730000
| 25> H   2.090180000   1.032320000   0.841890000
| 26> H   0.839590000   1.284090000  -0.017130000
| 27> O   1.752130000   0.741530000  -2.896280000
| 28> H   2.036450000   0.920500000  -1.984040000
| 29> H   0.921210000   1.242140000  -2.984230000
| 30> O  -0.923410000   1.794470000  -2.768350000
| 31> H  -1.359750000   2.338250000  -3.430940000
| 32> H  -1.303000000   0.879480000  -2.865760000
| 33> *
| 34>
| 35>                          ****END OF INPUT****

CARTESIAN COORDINATES (ANGSTROEM)
---------------------------------
  O      1.794470    0.923410    2.768350
  H      2.338250    1.359750    3.430940
  H      0.879480    1.303000    2.865760
  O     -1.752130   -0.741530   -2.896280
  H     -2.036450   -0.920500   -1.984040
  H     -0.921210   -1.242140   -2.984230
  O      0.885520   -1.737840    0.052730
  H      1.284090   -0.839590    0.017130
  H      1.032320   -2.090180   -0.841890
  O      1.737840    0.885520   -0.052730
  H      2.090180    1.032320    0.841890
  H      0.839590    1.284090   -0.017130
  O      1.752130    0.741530   -2.896280
  H      2.036450    0.920500   -1.984040
  H      0.921210    1.242140   -2.984230
  O     -0.923410    1.794470   -2.768350
  H     -1.359750    2.338250   -3.430940
  H     -1.303000    0.879480   -2.865760

 Total Charge           Charge          ....    0
 Multiplicity           Mult            ....    1
 Number of Electrons    NEL             ....   60
 Basis Dimension        Dim             ....  258

ORBITAL ENERGIES
----------------

  NO   OCC          E(Eh)            E(eV)
   0   2.0000     -20.602543      -560.6237
   1   2.0000     -20.597110      -560.4758
   2   2.0000     -20.580409      -560.0214
   3   2.0000     -20.546608      -559.1016
   4   2.0000     -20.526468      -558.5536
   5   2.0000     -20.505988      -557.9963
   6   2.0000      -1.382946       -37.6319
   7   2.0000      -1.381763       -37.5997
   8   2.0000      -1.364869       -37.1400
   9   2.0000      -1.330662       -36.2092
  10   2.0000      -1.307135       -35.5689
  11   2.0000      -1.290991       -35.1297
  12   2.0000      -0.747778       -20.3481
  13   2.0000      -0.739543       -20.1240
  14   2.0000      -0.728973       -19.8364
  15   2.0000      -0.715542       -19.4709
  16   2.0000      -0.682991       -18.5851
  17   2.0000      -0.668734       -18.1972
  18   2.0000      -0.627511       -17.0754
  19   2.0000      -0.621673       -16.9166
  20   2.0000      -0.600419       -16.3382
  21   2.0000      -0.578211       -15.7339
  22   2.0000      -0.561111       -15.2686
  23   2.0000      -0.545999       -14.8574
  24   2.0000      -0.532364       -14.4864
  25   2.0000      -0.523201       -14.2370
  26   2.0000      -0.511918       -13.9300
  27   2.0000      -0.492230       -13.3943
  28   2.0000      -0.474522       -12.9124
  29   2.0000      -0.456096       -12.4110
  30   0.0000       0.090906         2.4737
  31   0.0000       0.109677         2.9845
  32   0.0000       0.153287         4.1712
  33   0.0000       0.161912         4.4058
  34   0.0000       0.174555         4.7499

MULLIKEN ATOMIC CHARGES
-----------------------
   0 O :   -0.691043
   1 H :    0.356406
   2 H :    0.354112
   3 O :   -0.686653
   4 H :    0.362725
   5 H :    0.366447
   6 O :   -0.719070
   7 H :    0.364541
   8 H :    0.322253
   9 O :   -0.720980
  10 H :    0.385872
  11 H :    0.350694
  12 O :   -0.736352
  13 H :    0.364252
  14 H :    0.348701
  15 O :   -0.740770
  16 H :    0.340376
  17 H :    0.378487
Sum of atomic charges:   -0.0000000

LOEWDIN ATOMIC CHARGES
----------------------
   0 O :   -0.307134
   1 H :    0.165773
   2 H :    0.185876
   3 O :   -0.269686
   4 H :    0.176013
   5 H :    0.177598
   6 O :   -0.361580
   7 H :    0.142870
   8 H :    0.153799
   9 O :   -0.282152
  10 H :    0.156290
  11 H :    0.174753
  12 O :   -0.358357
  13 H :    0.146426
  14 H :    0.141363
  15 O :   -0.342140
  16 H :    0.155373
  17 H :    0.144915

  Mayer bond orders larger than 0.100000
B(  0-O ,  1-H ) :   0.8396 B(  0-O ,  2-H ) :   0.8350 B(  3-O ,  4-H ) :   0.8330
B(  3-O ,  5-H ) :   0.8268 B(  6-O ,  7-H ) :   0.7956 B(  6-O ,  8-H ) :   0.8599
B(  9-O , 10-H ) :   0.7936 B(  9-O , 11-H ) :   0.8330 B( 12-O , 13-H ) :   0.8281
B( 12-O , 14-H ) :   0.8174 B( 15-O , 16-H ) :   0.8490 B( 15-O , 17-H ) :   0.7641

MP2 TOTAL ENERGY:     -457.921141086 Eh
FINAL SINGLE POINT ENERGY      -457.921141086307

DIPOLE MOMENT
-------------
                                X             Y             Z
Electronic contribution:      0.04467      -0.19316       0.17047
Nuclear contribution   :     -0.98858       1.27851       1.37221
                        -----------------------------------------
Total Dipole Moment    :     -0.94391       1.08534       1.54268
                        -----------------------------------------
Magnitude (a.u.)       :      2.10922
Magnitude (Debye)      :      5.36120

Rotational constants in cm-1:     0.063421     0.024530     0.022255
Rotational constants in MHz :  1901.322510   735.376601   667.196696

                             ****ORCA TERMINATED NORMALLY****
TOTAL RUN TIME: 0 days 0 hours 0 minutes 56 seconds 424 msec
