                         Program Version 4.2.0 -  RELEASE  -
|  1> # 12h2o.su.etal.mol2,3,4,6,7,9,10
|  2> ! MP2 def2-TZVP EnGrad TightSCF
|  3>
|  4> %pal
|  5>     nprocs 6
|  6> end
|  7>
|  8> %maxcore 8000
|  9>
| 10> %scf
| 11>     ConvForced true
| 12> end
| 13>
| 14> *xyz 0 1
| 15> O   0.923410000  -1.794470000  -2.768350000
| 16> H   1.359750000  -2.338250000  -3.430940000
| 17> H   1.303000000  -0.879480000  -2.865760000
| 18> O  -1.752130000  -0.741530000  -2.896280000
| 19> H  -2.036450000  -0.920500000  -1.984040000
| 20> H  -0.921210000  -1.242140000  -2.984230000
| 21> O  -0.885520000   1.737840000   0.052730000
| 22> H  -1.032320000   2.090180000  -0.841890000
| 23> H  -1.284090000   0.839590000   0.017130000
| 24> O   1.737840000   0.885520000  -0.052730000
| 25> H   2.090180000   1.032320000   0.841890000
| 26> H   0.839590000   1.284090000  -0.017130000
| 27> O  -1.737840000  -0.885520000  -0.052730000
| 28> H  -2.090180000  -1.032320000   0.841890000
| 29> H  -0.839590000  -1.284090000  -0.017130000
| 30> O   0.741530000  -1.752130000   2.896280000
| 31> H   0.920500000  -2.036450000   1.984040000
| 32> H   1.242140000  -0.921210000   2.984230000
| 33> O  -0.923410000   1.794470000  -2.768350000
| 34> H  -1.359750000   2.338250000  -3.430940000
| 35> H  -1.303000000   0.879480000  -2.865760000
| 36> *
| 37>
| 38>                          ****END OF INPUT****

CARTESIAN COORDINATES (ANGSTROEM)
---------------------------------
  O      0.923410   -1.794470   -2.768350
  H      1.359750   -2.338250   -3.430940
  H      1.303000   -0.879480   -2.865760
  O     -1.752130   -0.741530   -2.896280
  H     -2.036450   -0.920500   -1.984040
  H     -0.921210   -1.242140   -2.984230
  O     -0.885520    1.737840    0.052730
  H     -1.032320    2.090180   -0.841890
  H     -1.284090    0.839590    0.017130
  O      1.737840    0.885520   -0.052730
  H      2.090180    1.032320    0.841890
  H      0.839590    1.284090   -0.017130
  O     -1.737840   -0.885520   -0.052730
  H     -2.090180   -1.032320    0.841890
  H     -0.839590   -1.284090   -0.017130
  O      0.741530   -1.752130    2.896280
  H      0.920500   -2.036450    1.984040
  H      1.242140   -0.921210    2.984230
  O     -0.923410    1.794470   -2.768350
  H     -1.359750    2.338250   -3.430940
  H     -1.303000    0.879480   -2.865760

 Total Charge           Charge          ....    0
 Multiplicity           Mult            ....    1
 Number of Electrons    NEL             ....   70
 Basis Dimension        Dim             ....  301

ORBITAL ENERGIES
----------------

  NO   OCC          E(Eh)            E(eV)
   0   2.0000     -20.615458      -560.9751
   1   2.0000     -20.593643      -560.3815
   2   2.0000     -20.575907      -559.8989
   3   2.0000     -20.557760      -559.4051
   4   2.0000     -20.536864      -558.8365
   5   2.0000     -20.530183      -558.6547
   6   2.0000     -20.528818      -558.6175
   7   2.0000      -1.398707       -38.0608
   8   2.0000      -1.372064       -37.3357
   9   2.0000      -1.354815       -36.8664
  10   2.0000      -1.350067       -36.7372
  11   2.0000      -1.326663       -36.1003
  12   2.0000      -1.316446       -35.8223
  13   2.0000      -1.304882       -35.5076
  14   2.0000      -0.757152       -20.6032
  15   2.0000      -0.739312       -20.1177
  16   2.0000      -0.718022       -19.5384
  17   2.0000      -0.715681       -19.4747
  18   2.0000      -0.703690       -19.1484
  19   2.0000      -0.696166       -18.9436
  20   2.0000      -0.681047       -18.5322
  21   2.0000      -0.644659       -17.5421
  22   2.0000      -0.612580       -16.6691
  23   2.0000      -0.594316       -16.1722
  24   2.0000      -0.592402       -16.1201
  25   2.0000      -0.586289       -15.9537
  26   2.0000      -0.561464       -15.2782
  27   2.0000      -0.551936       -15.0189
  28   2.0000      -0.533785       -14.5250
  29   2.0000      -0.531489       -14.4626
  30   2.0000      -0.519717       -14.1422
  31   2.0000      -0.499727       -13.5983
  32   2.0000      -0.485792       -13.2191
  33   2.0000      -0.480052       -13.0629
  34   2.0000      -0.473647       -12.8886
  35   0.0000       0.083357         2.2683
  36   0.0000       0.117329         3.1927
  37   0.0000       0.134575         3.6620
  38   0.0000       0.152930         4.1614
  39   0.0000       0.167378         4.5546

MULLIKEN ATOMIC CHARGES
-----------------------
   0 O :   -0.712927
   1 H :    0.355500
   2 H :    0.381234
   3 O :   -0.715023
   4 H :    0.380999
   5 H :    0.366443
   6 O :   -0.730351
   7 H :    0.379577
   8 H :    0.349161
   9 O :   -0.726318
  10 H :    0.314612
  11 H :    0.366489
  12 O :   -0.717463
  13 H :    0.376309
  14 H :    0.368339
  15 O :   -0.674256
  16 H :    0.333889
  17 H :    0.341571
  18 O :   -0.741490
  19 H :    0.334651
  20 H :    0.369053
Sum of atomic charges:    0.0000000

LOEWDIN ATOMIC CHARGES
----------------------
   0 O :   -0.314677
   1 H :    0.165316
   2 H :    0.195754
   3 O :   -0.285065
   4 H :    0.154841
   5 H :    0.149869
   6 O :   -0.318822
   7 H :    0.150907
   8 H :    0.136682
   9 O :   -0.366650
  10 H :    0.150955
  11 H :    0.143089
  12 O :   -0.275996
  13 H :    0.180645
  14 H :    0.180777
  15 O :   -0.328699
  16 H :    0.161258
  17 H :    0.167907
  18 O :   -0.343530
  19 H :    0.152593
  20 H :    0.142848

  Mayer bond orders larger than 0.100000
B(  0-O ,  1-H ) :   0.8399 B(  0-O ,  2-H ) :   0.8136 B(  3-O ,  4-H ) :   0.8132
B(  3-O ,  5-H ) :   0.8026 B(  3-O , 20-H ) :   0.1093 B(  6-O ,  7-H ) :   0.7971
B(  6-O ,  8-H ) :   0.8055 B(  6-O , 11-H ) :   0.1084 B(  9-O , 10-H ) :   0.8640
B(  9-O , 11-H ) :   0.7714 B( 12-O , 13-H ) :   0.8236 B( 12-O , 14-H ) :   0.8182
B( 15-O , 16-H ) :   0.8529 B( 15-O , 17-H ) :   0.8488 B( 18-O , 19-H ) :   0.8517
B( 18-O , 20-H ) :   0.7525

MP2 TOTAL ENERGY:     -534.250645184 Eh
FINAL SINGLE POINT ENERGY      -534.250645183766

DIPOLE MOMENT
-------------
                                X             Y             Z
Electronic contribution:     -0.31751      -0.38870      -0.01941
Nuclear contribution   :      0.56668      -0.56508      -0.49091
                        -----------------------------------------
Total Dipole Moment    :      0.24917      -0.95378      -0.51032
                        -----------------------------------------
Magnitude (a.u.)       :      1.11005
Magnitude (Debye)      :      2.82152

Rotational constants in cm-1:     0.039392     0.023223     0.021060
Rotational constants in MHz :  1180.957226   696.205013   631.372175

                             ****ORCA TERMINATED NORMALLY****
TOTAL RUN TIME: 0 days 0 hours 1 minutes 54 seconds 829 msec
