                         Program Version 4.2.0 -  RELEASE  -
|  1> # 12h2o.su.etal.mol1,2,3,4,6,7,9,10,11
|  2> ! MP2 def2-TZVP EnGrad TightSCF
|  3>
|  4> %pal
|  5>     nprocs 6
|  6> end
|  7>
|  8> %maxcore 8000
|  9>
| 10> %scf
| 11>     ConvForced true
| 12> end
| 13>
| 14> *xyz 0 1
| 15> O  -1.794470000  -0.923410000   2.768350000
| 16> H  -2.338250000  -1.359750000   3.430940000
| 17> H  -0.879480000  -1.303000000   2.865760000
| 18> O   0.923410000  -1.794470000  -2.768350000
| 19> H   1.359750000  -2.338250000  -3.430940000
| 20> H   1.303000000  -0.879480000  -2.865760000
| 21> O  -1.752130000  -0.741530000  -2.896280000
| 22> H  -2.036450000  -0.920500000  -1.984040000
| 23> H  -0.921210000  -1.242140000  -2.984230000
| 24> O  -0.885520000   1.737840000   0.052730000
| 25> H  -1.032320000   2.090180000  -0.841890000
| 26> H  -1.284090000   0.839590000   0.017130000
| 27> O   1.737840000   0.885520000  -0.052730000
| 28> H   2.090180000   1.032320000   0.841890000
| 29> H   0.839590000   1.284090000  -0.017130000
| 30> O  -1.737840000  -0.885520000  -0.052730000
| 31> H  -2.090180000  -1.032320000   0.841890000
| 32> H  -0.839590000  -1.284090000  -0.017130000
| 33> O   0.741530000  -1.752130000   2.896280000
| 34> H   0.920500000  -2.036450000   1.984040000
| 35> H   1.242140000  -0.921210000   2.984230000
| 36> O  -0.923410000   1.794470000  -2.768350000
| 37> H  -1.359750000   2.338250000  -3.430940000
| 38> H  -1.303000000   0.879480000  -2.865760000
| 39> O  -0.741530000   1.752130000   2.896280000
| 40> H  -0.920500000   2.036450000   1.984040000
| 41> H  -1.242140000   0.921210000   2.984230000
| 42> *
| 43>
| 44>                          ****END OF INPUT****

CARTESIAN COORDINATES (ANGSTROEM)
---------------------------------
  O     -1.794470   -0.923410    2.768350
  H     -2.338250   -1.359750    3.430940
  H     -0.879480   -1.303000    2.865760
  O      0.923410   -1.794470   -2.768350
  H      1.359750   -2.338250   -3.430940
  H      1.303000   -0.879480   -2.865760
  O     -1.752130   -0.741530   -2.896280
  H     -2.036450   -0.920500   -1.984040
  H     -0.921210   -1.242140   -2.984230
  O     -0.885520    1.737840    0.052730
  H     -1.032320    2.090180   -0.841890
  H     -1.284090    0.839590    0.017130
  O      1.737840    0.885520   -0.052730
  H      2.090180    1.032320    0.841890
  H      0.839590    1.284090   -0.017130
  O     -1.737840   -0.885520   -0.052730
  H     -2.090180   -1.032320    0.841890
  H     -0.839590   -1.284090   -0.017130
  O      0.741530   -1.752130    2.896280
  H      0.920500   -2.036450    1.984040
  H      1.242140   -0.921210    2.984230
  O     -0.923410    1.794470   -2.768350
  H     -1.359750    2.338250   -3.430940
  H     -1.303000    0.879480   -2.865760
  O     -0.741530    1.752130    2.896280
  H     -0.920500    2.036450    1.984040
  H     -1.242140    0.921210    2.984230

 Total Charge           Charge          ....    0
 Multiplicity           Mult            ....    1
 Number of Electrons    NEL             ....   90
 Basis Dimension        Dim             ....  387

ORBITAL ENERGIES
----------------

  NO   OCC          E(Eh)            E(eV)
   0   2.0000     -20.616460      -561.0024
   1   2.0000     -20.595563      -560.4338
   2   2.0000     -20.593867      -560.3876
   3   2.0000     -20.581116      -560.0406
   4   2.0000     -20.554827      -559.3253
   5   2.0000     -20.540511      -558.9357
   6   2.0000     -20.537629      -558.8573
   7   2.0000     -20.528911      -558.6201
   8   2.0000     -20.509139      -558.0820
   9   2.0000      -1.403181       -38.1825
  10   2.0000      -1.384540       -37.6752
  11   2.0000      -1.372113       -37.3371
  12   2.0000      -1.364286       -37.1241
  13   2.0000      -1.347579       -36.6695
  14   2.0000      -1.335502       -36.3409
  15   2.0000      -1.317803       -35.8592
  16   2.0000      -1.307690       -35.5841
  17   2.0000      -1.293944       -35.2100
  18   2.0000      -0.758662       -20.6442
  19   2.0000      -0.750094       -20.4111
  20   2.0000      -0.744037       -20.2463
  21   2.0000      -0.739210       -20.1149
  22   2.0000      -0.712117       -19.3777
  23   2.0000      -0.707001       -19.2385
  24   2.0000      -0.702528       -19.1167
  25   2.0000      -0.682116       -18.5613
  26   2.0000      -0.672778       -18.3072
  27   2.0000      -0.651195       -17.7199
  28   2.0000      -0.632773       -17.2186
  29   2.0000      -0.614006       -16.7080
  30   2.0000      -0.602275       -16.3887
  31   2.0000      -0.598054       -16.2739
  32   2.0000      -0.584740       -15.9116
  33   2.0000      -0.561570       -15.2811
  34   2.0000      -0.557645       -15.1743
  35   2.0000      -0.552266       -15.0279
  36   2.0000      -0.539164       -14.6714
  37   2.0000      -0.531968       -14.4756
  38   2.0000      -0.527124       -14.3438
  39   2.0000      -0.516616       -14.0578
  40   2.0000      -0.497821       -13.5464
  41   2.0000      -0.487890       -13.2762
  42   2.0000      -0.485946       -13.2233
  43   2.0000      -0.476502       -12.9663
  44   2.0000      -0.459073       -12.4920
  45   0.0000       0.080519         2.1910
  46   0.0000       0.114808         3.1241
  47   0.0000       0.137969         3.7543
  48   0.0000       0.147510         4.0139
  49   0.0000       0.153474         4.1762

MULLIKEN ATOMIC CHARGES
-----------------------
   0 O :   -0.752267
   1 H :    0.355506
   2 H :    0.383105
   3 O :   -0.712834
   4 H :    0.354867
   5 H :    0.381182
   6 O :   -0.717643
   7 H :    0.383559
   8 H :    0.365414
   9 O :   -0.752673
  10 H :    0.383968
  11 H :    0.357490
  12 O :   -0.730326
  13 H :    0.320876
  14 H :    0.370620
  15 O :   -0.728870
  16 H :    0.392354
  17 H :    0.350970
  18 O :   -0.684265
  19 H :    0.358367
  20 H :    0.374478
  21 O :   -0.742651
  22 H :    0.335398
  23 H :    0.371800
  24 O :   -0.735364
  25 H :    0.372341
  26 H :    0.344598
Sum of atomic charges:    0.0000000

LOEWDIN ATOMIC CHARGES
----------------------
   0 O :   -0.312437
   1 H :    0.161836
   2 H :    0.146068
   3 O :   -0.314855
   4 H :    0.164976
   5 H :    0.195710
   6 O :   -0.286713
   7 H :    0.154613
   8 H :    0.149349
   9 O :   -0.301756
  10 H :    0.153258
  11 H :    0.140160
  12 O :   -0.365782
  13 H :    0.152904
  14 H :    0.143268
  15 O :   -0.282421
  16 H :    0.157662
  17 H :    0.172197
  18 O :   -0.265266
  19 H :    0.172650
  20 H :    0.181553
  21 O :   -0.343515
  22 H :    0.153098
  23 H :    0.143313
  24 O :   -0.357904
  25 H :    0.149226
  26 H :    0.138807

  Mayer bond orders larger than 0.100000
B(  0-O ,  1-H ) :   0.8378 B(  0-O ,  2-H ) :   0.7481 B(  3-O ,  4-H ) :   0.8402
B(  3-O ,  5-H ) :   0.8137 B(  6-O ,  7-H ) :   0.8086 B(  6-O ,  8-H ) :   0.8040
B(  6-O , 23-H ) :   0.1113 B(  9-O , 10-H ) :   0.7893 B(  9-O , 11-H ) :   0.7805
B( 12-O , 13-H ) :   0.8601 B( 12-O , 14-H ) :   0.7763 B( 15-O , 16-H ) :   0.7835
B( 15-O , 17-H ) :   0.8297 B( 18-O , 19-H ) :   0.8354 B( 18-O , 20-H ) :   0.8207
B( 21-O , 22-H ) :   0.8515 B( 21-O , 23-H ) :   0.7504 B( 24-O , 25-H ) :   0.8163
B( 24-O , 26-H ) :   0.8298

MP2 TOTAL ENERGY:     -686.913547148 Eh
FINAL SINGLE POINT ENERGY      -686.913547148221

DIPOLE MOMENT
-------------
                                X             Y             Z
Electronic contribution:     -0.04552      -0.42220       0.05708
Nuclear contribution   :      0.31000      -1.69920      -0.54442
                        -----------------------------------------
Total Dipole Moment    :      0.26448      -2.12140      -0.48734
                        -----------------------------------------
Magnitude (a.u.)       :      2.19266
Magnitude (Debye)      :      5.57331

Rotational constants in cm-1:     0.028661     0.015103     0.013859
Rotational constants in MHz :   859.244570   452.788269   415.481761

                             ****ORCA TERMINATED NORMALLY****
TOTAL RUN TIME: 0 days 0 hours 4 minutes 51 seconds 333 msec
