                         Program Version 4.2.0 -  RELEASE  -
|  1> # 12meoh.boyd.etal.mol2,9,11
|  2> ! MP2 def2-TZVP EnGrad TightSCF
|  3>
|  4> %pal
|  5>     nprocs 6
|  6> end
|  7>
|  8> %maxcore 8000
|  9>
| 10> %scf
| 11>     ConvForced true
| 12> end
| 13>
| 14> *xyz 0 1
| 15> O  -3.839777402   2.233595098   0.660436763
| 16> H  -2.958345897   1.907036203   0.973588449
| 17> C  -3.600368059   3.168790682  -0.390480452
| 18> H  -4.551709193   3.344148967  -0.901254863
| 19> H  -2.868237594   2.789240199  -1.113617525
| 20> H  -3.243594915   4.128998607   0.009549480
| 21> O   1.390610024   3.194080770  -1.536658882
| 22> H   2.162932299   2.881562730  -0.993525056
| 23> C   1.202977189   4.580367182  -1.302880219
| 24> H   0.374773115   4.915764831  -1.934164643
| 25> H   2.098649340   5.157710875  -1.570472348
| 26> H   0.950320401   4.800436015  -0.254328827
| 27> O   3.252955559   0.588596242   1.858934315
| 28> H   3.621209177  -0.251605199   1.476063364
| 29> C   4.040824528   0.944288422   2.989639460
| 30> H   3.670521436   1.902573549   3.363847391
| 31> H   5.103749934   1.055868619   2.734277559
| 32> H   3.948540682   0.200279590   3.792908518
| 33> *
| 34>
| 35>                          ****END OF INPUT****

CARTESIAN COORDINATES (ANGSTROEM)
---------------------------------
  O     -3.839777    2.233595    0.660437
  H     -2.958346    1.907036    0.973588
  C     -3.600368    3.168791   -0.390480
  H     -4.551709    3.344149   -0.901255
  H     -2.868238    2.789240   -1.113618
  H     -3.243595    4.128999    0.009549
  O      1.390610    3.194081   -1.536659
  H      2.162932    2.881563   -0.993525
  C      1.202977    4.580367   -1.302880
  H      0.374773    4.915765   -1.934165
  H      2.098649    5.157711   -1.570472
  H      0.950320    4.800436   -0.254329
  O      3.252956    0.588596    1.858934
  H      3.621209   -0.251605    1.476063
  C      4.040825    0.944288    2.989639
  H      3.670521    1.902574    3.363847
  H      5.103750    1.055869    2.734278
  H      3.948541    0.200280    3.792909

 Total Charge           Charge          ....    0
 Multiplicity           Mult            ....    1
 Number of Electrons    NEL             ....   54
 Basis Dimension        Dim             ....  258

ORBITAL ENERGIES
----------------

  NO   OCC          E(Eh)            E(eV)
   0   2.0000     -20.565973      -559.6286
   1   2.0000     -20.554524      -559.3170
   2   2.0000     -20.549448      -559.1789
   3   2.0000     -11.278861      -306.9134
   4   2.0000     -11.270246      -306.6790
   5   2.0000     -11.264261      -306.5161
   6   2.0000      -1.355107       -36.8743
   7   2.0000      -1.345403       -36.6103
   8   2.0000      -1.338918       -36.4338
   9   2.0000      -0.927180       -25.2298
  10   2.0000      -0.917910       -24.9776
  11   2.0000      -0.912186       -24.8218
  12   2.0000      -0.689761       -18.7693
  13   2.0000      -0.680403       -18.5147
  14   2.0000      -0.673998       -18.3404
  15   2.0000      -0.624667       -16.9981
  16   2.0000      -0.615298       -16.7431
  17   2.0000      -0.609271       -16.5791
  18   2.0000      -0.599008       -16.2998
  19   2.0000      -0.590358       -16.0645
  20   2.0000      -0.582676       -15.8554
  21   2.0000      -0.508207       -13.8290
  22   2.0000      -0.497425       -13.5356
  23   2.0000      -0.494108       -13.4454
  24   2.0000      -0.457280       -12.4432
  25   2.0000      -0.446309       -12.1447
  26   2.0000      -0.441808       -12.0222
  27   0.0000       0.118533         3.2254
  28   0.0000       0.132583         3.6078
  29   0.0000       0.153299         4.1715
  30   0.0000       0.164207         4.4683
  31   0.0000       0.174361         4.7446

MULLIKEN ATOMIC CHARGES
-----------------------
   0 O :   -0.499973
   1 H :    0.323710
   2 C :   -0.176691
   3 H :    0.125883
   4 H :    0.121849
   5 H :    0.104905
   6 O :   -0.502465
   7 H :    0.328495
   8 C :   -0.171983
   9 H :    0.126630
  10 H :    0.109436
  11 H :    0.108202
  12 O :   -0.501912
  13 H :    0.324796
  14 C :   -0.174149
  15 H :    0.128858
  16 H :    0.111314
  17 H :    0.113092
Sum of atomic charges:   -0.0000000

LOEWDIN ATOMIC CHARGES
----------------------
   0 O :   -0.112180
   1 H :    0.189160
   2 C :   -0.378899
   3 H :    0.108551
   4 H :    0.098764
   5 H :    0.094521
   6 O :   -0.106686
   7 H :    0.193242
   8 C :   -0.387280
   9 H :    0.109197
  10 H :    0.095276
  11 H :    0.095030
  12 O :   -0.111720
  13 H :    0.191405
  14 C :   -0.381250
  15 H :    0.110111
  16 H :    0.095909
  17 H :    0.096848

  Mayer bond orders larger than 0.100000
B(  0-O ,  1-H ) :   0.8428 B(  0-O ,  2-C ) :   0.9266 B(  2-C ,  3-H ) :   0.9376
B(  2-C ,  4-H ) :   0.9409 B(  2-C ,  5-H ) :   0.9379 B(  6-O ,  7-H ) :   0.8364
B(  6-O ,  8-C ) :   0.9285 B(  8-C ,  9-H ) :   0.9379 B(  8-C , 10-H ) :   0.9406
B(  8-C , 11-H ) :   0.9373 B( 12-O , 13-H ) :   0.8403 B( 12-O , 14-C ) :   0.9211
B( 14-C , 15-H ) :   0.9379 B( 14-C , 16-H ) :   0.9386 B( 14-C , 17-H ) :   0.9383

MP2 TOTAL ENERGY:     -346.522290447 Eh
FINAL SINGLE POINT ENERGY      -346.522290446557

DIPOLE MOMENT
-------------
                                X             Y             Z
Electronic contribution:     -1.34247      -3.28244      -0.47781
Nuclear contribution   :      2.98925       3.40502       0.91126
                        -----------------------------------------
Total Dipole Moment    :      1.64679       0.12258       0.43345
                        -----------------------------------------
Magnitude (a.u.)       :      1.70728
Magnitude (Debye)      :      4.33956

Rotational constants in cm-1:     0.049149     0.016028     0.012571
Rotational constants in MHz :  1473.435585   480.519425   376.866828

                             ****ORCA TERMINATED NORMALLY****
TOTAL RUN TIME: 0 days 0 hours 0 minutes 46 seconds 905 msec
