                         Program Version 4.2.0 -  RELEASE  -
|  1> # 12h2o.su.etal.mol2,3,4,8,9,10,11
|  2> ! MP2 def2-TZVP EnGrad TightSCF
|  3>
|  4> %pal
|  5>     nprocs 6
|  6> end
|  7>
|  8> %maxcore 8000
|  9>
| 10> %scf
| 11>     ConvForced true
| 12> end
| 13>
| 14> *xyz 0 1
| 15> O   0.923410000  -1.794470000  -2.768350000
| 16> H   1.359750000  -2.338250000  -3.430940000
| 17> H   1.303000000  -0.879480000  -2.865760000
| 18> O  -1.752130000  -0.741530000  -2.896280000
| 19> H  -2.036450000  -0.920500000  -1.984040000
| 20> H  -0.921210000  -1.242140000  -2.984230000
| 21> O  -0.885520000   1.737840000   0.052730000
| 22> H  -1.032320000   2.090180000  -0.841890000
| 23> H  -1.284090000   0.839590000   0.017130000
| 24> O   1.752130000   0.741530000  -2.896280000
| 25> H   2.036450000   0.920500000  -1.984040000
| 26> H   0.921210000   1.242140000  -2.984230000
| 27> O   0.741530000  -1.752130000   2.896280000
| 28> H   0.920500000  -2.036450000   1.984040000
| 29> H   1.242140000  -0.921210000   2.984230000
| 30> O  -0.923410000   1.794470000  -2.768350000
| 31> H  -1.359750000   2.338250000  -3.430940000
| 32> H  -1.303000000   0.879480000  -2.865760000
| 33> O  -0.741530000   1.752130000   2.896280000
| 34> H  -0.920500000   2.036450000   1.984040000
| 35> H  -1.242140000   0.921210000   2.984230000
| 36> *
| 37>
| 38>                          ****END OF INPUT****

CARTESIAN COORDINATES (ANGSTROEM)
---------------------------------
  O      0.923410   -1.794470   -2.768350
  H      1.359750   -2.338250   -3.430940
  H      1.303000   -0.879480   -2.865760
  O     -1.752130   -0.741530   -2.896280
  H     -2.036450   -0.920500   -1.984040
  H     -0.921210   -1.242140   -2.984230
  O     -0.885520    1.737840    0.052730
  H     -1.032320    2.090180   -0.841890
  H     -1.284090    0.839590    0.017130
  O      1.752130    0.741530   -2.896280
  H      2.036450    0.920500   -1.984040
  H      0.921210    1.242140   -2.984230
  O      0.741530   -1.752130    2.896280
  H      0.920500   -2.036450    1.984040
  H      1.242140   -0.921210    2.984230
  O     -0.923410    1.794470   -2.768350
  H     -1.359750    2.338250   -3.430940
  H     -1.303000    0.879480   -2.865760
  O     -0.741530    1.752130    2.896280
  H     -0.920500    2.036450    1.984040
  H     -1.242140    0.921210    2.984230

 Total Charge           Charge          ....    0
 Multiplicity           Mult            ....    1
 Number of Electrons    NEL             ....   70
 Basis Dimension        Dim             ....  301

ORBITAL ENERGIES
----------------

  NO   OCC          E(Eh)            E(eV)
   0   2.0000     -20.594596      -560.4074
   1   2.0000     -20.586823      -560.1959
   2   2.0000     -20.583615      -560.1086
   3   2.0000     -20.572116      -559.7957
   4   2.0000     -20.562886      -559.5446
   5   2.0000     -20.559076      -559.4409
   6   2.0000     -20.528753      -558.6158
   7   2.0000      -1.390626       -37.8408
   8   2.0000      -1.374882       -37.4124
   9   2.0000      -1.368072       -37.2271
  10   2.0000      -1.352360       -36.7996
  11   2.0000      -1.343102       -36.5477
  12   2.0000      -1.338275       -36.4163
  13   2.0000      -1.310435       -35.6587
  14   2.0000      -0.753645       -20.5077
  15   2.0000      -0.746233       -20.3060
  16   2.0000      -0.732893       -19.9430
  17   2.0000      -0.725945       -19.7540
  18   2.0000      -0.722159       -19.6509
  19   2.0000      -0.700868       -19.0716
  20   2.0000      -0.678827       -18.4718
  21   2.0000      -0.647959       -17.6319
  22   2.0000      -0.617059       -16.7910
  23   2.0000      -0.611644       -16.6437
  24   2.0000      -0.596629       -16.2351
  25   2.0000      -0.576763       -15.6945
  26   2.0000      -0.576213       -15.6796
  27   2.0000      -0.549046       -14.9403
  28   2.0000      -0.537144       -14.6164
  29   2.0000      -0.532423       -14.4880
  30   2.0000      -0.523855       -14.2548
  31   2.0000      -0.516313       -14.0496
  32   2.0000      -0.513550       -13.9744
  33   2.0000      -0.503689       -13.7061
  34   2.0000      -0.474909       -12.9229
  35   0.0000       0.079664         2.1678
  36   0.0000       0.125312         3.4099
  37   0.0000       0.133569         3.6346
  38   0.0000       0.139861         3.8058
  39   0.0000       0.160858         4.3772

MULLIKEN ATOMIC CHARGES
-----------------------
   0 O :   -0.747817
   1 H :    0.346673
   2 H :    0.379678
   3 O :   -0.702540
   4 H :    0.346895
   5 H :    0.384385
   6 O :   -0.706197
   7 H :    0.378319
   8 H :    0.317209
   9 O :   -0.707364
  10 H :    0.359435
  11 H :    0.378988
  12 O :   -0.684177
  13 H :    0.334278
  14 H :    0.348737
  15 O :   -0.759272
  16 H :    0.357167
  17 H :    0.381990
  18 O :   -0.701758
  19 H :    0.371376
  20 H :    0.323995
Sum of atomic charges:   -0.0000000

LOEWDIN ATOMIC CHARGES
----------------------
   0 O :   -0.342660
   1 H :    0.158211
   2 H :    0.144817
   3 O :   -0.278596
   4 H :    0.166685
   5 H :    0.156818
   6 O :   -0.324842
   7 H :    0.152829
   8 H :    0.160957
   9 O :   -0.281345
  10 H :    0.173577
  11 H :    0.153797
  12 O :   -0.333865
  13 H :    0.163689
  14 H :    0.169530
  15 O :   -0.315169
  16 H :    0.162339
  17 H :    0.145371
  18 O :   -0.341745
  19 H :    0.152116
  20 H :    0.157484

  Mayer bond orders larger than 0.100000
B(  0-O ,  1-H ) :   0.8453 B(  0-O ,  2-H ) :   0.7485 B(  2-H ,  9-O ) :   0.1095
B(  3-O ,  4-H ) :   0.8437 B(  3-O ,  5-H ) :   0.7742 B(  3-O , 17-H ) :   0.1135
B(  6-O ,  7-H ) :   0.8016 B(  6-O ,  8-H ) :   0.8546 B(  9-O , 10-H ) :   0.8355
B(  9-O , 11-H ) :   0.7913 B( 12-O , 13-H ) :   0.8544 B( 12-O , 14-H ) :   0.8421
B( 15-O , 16-H ) :   0.8369 B( 15-O , 17-H ) :   0.7338 B( 18-O , 19-H ) :   0.8180
B( 18-O , 20-H ) :   0.8576

MP2 TOTAL ENERGY:     -534.253778366 Eh
FINAL SINGLE POINT ENERGY      -534.253778365818

DIPOLE MOMENT
-------------
                                X             Y             Z
Electronic contribution:      0.15237       0.12601      -0.09862
Nuclear contribution   :     -0.45394      -0.45439      -2.03947
                        -----------------------------------------
Total Dipole Moment    :     -0.30158      -0.32839      -2.13809
                        -----------------------------------------
Magnitude (a.u.)       :      2.18408
Magnitude (Debye)      :      5.55150

Rotational constants in cm-1:     0.035954     0.018172     0.014896
Rotational constants in MHz :  1077.887938   544.780991   446.577800

                             ****ORCA TERMINATED NORMALLY****
TOTAL RUN TIME: 0 days 0 hours 1 minutes 58 seconds 496 msec
