                         Program Version 4.2.0 -  RELEASE  -
|  1> # 12mecn.remya.etal.2.mol5,9
|  2> ! MP2 def2-TZVP EnGrad TightSCF
|  3>
|  4> %pal
|  5>     nprocs 6
|  6> end
|  7>
|  8> %maxcore 8000
|  9>
| 10> %scf
| 11>     ConvForced true
| 12> end
| 13>
| 14> *xyz 0 1
| 15> C  -1.955700000   2.515080000   1.698463000
| 16> H  -2.923830000   2.883163000   2.049269000
| 17> H  -1.154850000   3.171830000   2.050990000
| 18> H  -1.790380000   1.506115000   2.087896000
| 19> C  -1.948230000   2.482156000   0.253672000
| 20> N  -1.937550000   2.462523000  -0.913150000
| 21> C   0.923766000   4.000693000  -1.575910000
| 22> H   0.011949000   4.478423000  -1.939550000
| 23> H   0.947903000   2.966558000  -1.929960000
| 24> H   1.805950000   4.519548000  -1.956520000
| 25> C   0.942834000   3.994846000  -0.131200000
| 26> N   0.960035000   3.982544000   1.035639000
| 27> *
| 28>
| 29>                          ****END OF INPUT****

CARTESIAN COORDINATES (ANGSTROEM)
---------------------------------
  C     -1.955700    2.515080    1.698463
  H     -2.923830    2.883163    2.049269
  H     -1.154850    3.171830    2.050990
  H     -1.790380    1.506115    2.087896
  C     -1.948230    2.482156    0.253672
  N     -1.937550    2.462523   -0.913150
  C      0.923766    4.000693   -1.575910
  H      0.011949    4.478423   -1.939550
  H      0.947903    2.966558   -1.929960
  H      1.805950    4.519548   -1.956520
  C      0.942834    3.994846   -0.131200
  N      0.960035    3.982544    1.035639

 Total Charge           Charge          ....    0
 Multiplicity           Mult            ....    1
 Number of Electrons    NEL             ....   44
 Basis Dimension        Dim             ....  222

ORBITAL ENERGIES
----------------

  NO   OCC          E(Eh)            E(eV)
   0   2.0000     -15.571917      -423.7334
   1   2.0000     -15.570669      -423.6994
   2   2.0000     -11.284036      -307.0542
   3   2.0000     -11.281891      -306.9959
   4   2.0000     -11.274054      -306.7826
   5   2.0000     -11.271502      -306.7132
   6   2.0000      -1.218130       -33.1470
   7   2.0000      -1.213572       -33.0230
   8   2.0000      -1.037341       -28.2275
   9   2.0000      -1.033895       -28.1337
  10   2.0000      -0.695458       -18.9244
  11   2.0000      -0.690550       -18.7908
  12   2.0000      -0.631395       -17.1811
  13   2.0000      -0.623064       -16.9544
  14   2.0000      -0.619986       -16.8707
  15   2.0000      -0.616493       -16.7756
  16   2.0000      -0.559250       -15.2180
  17   2.0000      -0.556035       -15.1305
  18   2.0000      -0.462367       -12.5816
  19   2.0000      -0.458851       -12.4860
  20   2.0000      -0.457135       -12.4393
  21   2.0000      -0.453639       -12.3441
  22   0.0000       0.125231         3.4077
  23   0.0000       0.144789         3.9399
  24   0.0000       0.170972         4.6524
  25   0.0000       0.176620         4.8061
  26   0.0000       0.177263         4.8236

MULLIKEN ATOMIC CHARGES
-----------------------
   0 C :   -0.284632
   1 H :    0.166567
   2 H :    0.204112
   3 H :    0.166607
   4 C :   -0.119641
   5 N :   -0.135302
   6 C :   -0.260676
   7 H :    0.180141
   8 H :    0.176175
   9 H :    0.171851
  10 C :   -0.115264
  11 N :   -0.149939
Sum of atomic charges:   -0.0000000

LOEWDIN ATOMIC CHARGES
----------------------
   0 C :   -0.282966
   1 H :    0.150793
   2 H :    0.156884
   3 H :    0.152899
   4 C :   -0.211737
   5 N :    0.033173
   6 C :   -0.282870
   7 H :    0.155952
   8 H :    0.157613
   9 H :    0.149675
  10 C :   -0.208768
  11 N :    0.029353

  Mayer bond orders larger than 0.100000
B(  0-C ,  1-H ) :   0.9166 B(  0-C ,  2-H ) :   0.9020 B(  0-C ,  3-H ) :   0.9149
B(  0-C ,  4-C ) :   0.8994 B(  4-C ,  5-N ) :   2.7993 B(  6-C ,  7-H ) :   0.9112
B(  6-C ,  8-H ) :   0.9136 B(  6-C ,  9-H ) :   0.9107 B(  6-C , 10-C ) :   0.9118
B( 10-C , 11-N ) :   2.7707

MP2 TOTAL ENERGY:     -264.975860579 Eh
FINAL SINGLE POINT ENERGY      -264.975860578581

DIPOLE MOMENT
-------------
                                X             Y             Z
Electronic contribution:      0.07250      -0.03794      -0.00917
Nuclear contribution   :     -0.08044       0.08079      -0.00468
                        -----------------------------------------
Total Dipole Moment    :     -0.00793       0.04285      -0.01385
                        -----------------------------------------
Magnitude (a.u.)       :      0.04573
Magnitude (Debye)      :      0.11622

Rotational constants in cm-1:     0.165435     0.069762     0.050007
Rotational constants in MHz :  4959.612416  2091.419655  1499.171167

                             ****ORCA TERMINATED NORMALLY****
TOTAL RUN TIME: 0 days 0 hours 1 minutes 11 seconds 919 msec
