                         Program Version 4.2.0 -  RELEASE  -
|  1> # 12h2o.su.etal.mol0,1,3,8,9,11
|  2> ! MP2 def2-TZVP EnGrad TightSCF
|  3>
|  4> %pal
|  5>     nprocs 6
|  6> end
|  7>
|  8> %maxcore 8000
|  9>
| 10> %scf
| 11>     ConvForced true
| 12> end
| 13>
| 14> *xyz 0 1
| 15> O   1.794470000   0.923410000   2.768350000
| 16> H   2.338250000   1.359750000   3.430940000
| 17> H   0.879480000   1.303000000   2.865760000
| 18> O  -1.794470000  -0.923410000   2.768350000
| 19> H  -2.338250000  -1.359750000   3.430940000
| 20> H  -0.879480000  -1.303000000   2.865760000
| 21> O  -1.752130000  -0.741530000  -2.896280000
| 22> H  -2.036450000  -0.920500000  -1.984040000
| 23> H  -0.921210000  -1.242140000  -2.984230000
| 24> O   1.752130000   0.741530000  -2.896280000
| 25> H   2.036450000   0.920500000  -1.984040000
| 26> H   0.921210000   1.242140000  -2.984230000
| 27> O   0.741530000  -1.752130000   2.896280000
| 28> H   0.920500000  -2.036450000   1.984040000
| 29> H   1.242140000  -0.921210000   2.984230000
| 30> O  -0.741530000   1.752130000   2.896280000
| 31> H  -0.920500000   2.036450000   1.984040000
| 32> H  -1.242140000   0.921210000   2.984230000
| 33> *
| 34>
| 35>                          ****END OF INPUT****

CARTESIAN COORDINATES (ANGSTROEM)
---------------------------------
  O      1.794470    0.923410    2.768350
  H      2.338250    1.359750    3.430940
  H      0.879480    1.303000    2.865760
  O     -1.794470   -0.923410    2.768350
  H     -2.338250   -1.359750    3.430940
  H     -0.879480   -1.303000    2.865760
  O     -1.752130   -0.741530   -2.896280
  H     -2.036450   -0.920500   -1.984040
  H     -0.921210   -1.242140   -2.984230
  O      1.752130    0.741530   -2.896280
  H      2.036450    0.920500   -1.984040
  H      0.921210    1.242140   -2.984230
  O      0.741530   -1.752130    2.896280
  H      0.920500   -2.036450    1.984040
  H      1.242140   -0.921210    2.984230
  O     -0.741530    1.752130    2.896280
  H     -0.920500    2.036450    1.984040
  H     -1.242140    0.921210    2.984230

 Total Charge           Charge          ....    0
 Multiplicity           Mult            ....    1
 Number of Electrons    NEL             ....   60
 Basis Dimension        Dim             ....  258

ORBITAL ENERGIES
----------------

  NO   OCC          E(Eh)            E(eV)
   0   2.0000     -20.577409      -559.9398
   1   2.0000     -20.577409      -559.9398
   2   2.0000     -20.564036      -559.5759
   3   2.0000     -20.564036      -559.5759
   4   2.0000     -20.556306      -559.3655
   5   2.0000     -20.556305      -559.3655
   6   2.0000      -1.372807       -37.3560
   7   2.0000      -1.365631       -37.1607
   8   2.0000      -1.343612       -36.5616
   9   2.0000      -1.342861       -36.5411
  10   2.0000      -1.340564       -36.4786
  11   2.0000      -1.333744       -36.2930
  12   2.0000      -0.732220       -19.9247
  13   2.0000      -0.729894       -19.8614
  14   2.0000      -0.720002       -19.5923
  15   2.0000      -0.716239       -19.4898
  16   2.0000      -0.706988       -19.2381
  17   2.0000      -0.704522       -19.1710
  18   2.0000      -0.630028       -17.1439
  19   2.0000      -0.603382       -16.4188
  20   2.0000      -0.589341       -16.0368
  21   2.0000      -0.581334       -15.8189
  22   2.0000      -0.580757       -15.8032
  23   2.0000      -0.565014       -15.3748
  24   2.0000      -0.517827       -14.0908
  25   2.0000      -0.517716       -14.0878
  26   2.0000      -0.511352       -13.9146
  27   2.0000      -0.507421       -13.8076
  28   2.0000      -0.505856       -13.7650
  29   2.0000      -0.505262       -13.7489
  30   0.0000       0.097940         2.6651
  31   0.0000       0.124356         3.3839
  32   0.0000       0.143727         3.9110
  33   0.0000       0.150342         4.0910
  34   0.0000       0.155676         4.2362

MULLIKEN ATOMIC CHARGES
-----------------------
   0 O :   -0.746988
   1 H :    0.344333
   2 H :    0.378765
   3 O :   -0.746988
   4 H :    0.344333
   5 H :    0.378765
   6 O :   -0.682680
   7 H :    0.337786
   8 H :    0.344721
   9 O :   -0.682680
  10 H :    0.337786
  11 H :    0.344721
  12 O :   -0.706666
  13 H :    0.351653
  14 H :    0.379076
  15 O :   -0.706666
  16 H :    0.351653
  17 H :    0.379076
Sum of atomic charges:    0.0000000

LOEWDIN ATOMIC CHARGES
----------------------
   0 O :   -0.343164
   1 H :    0.156981
   2 H :    0.144678
   3 O :   -0.343164
   4 H :    0.156981
   5 H :    0.144678
   6 O :   -0.333156
   7 H :    0.165398
   8 H :    0.167654
   9 O :   -0.333156
  10 H :    0.165398
  11 H :    0.167654
  12 O :   -0.283433
  13 H :    0.170437
  14 H :    0.154605
  15 O :   -0.283433
  16 H :    0.170437
  17 H :    0.154605

  Mayer bond orders larger than 0.100000
B(  0-O ,  1-H ) :   0.8468 B(  0-O ,  2-H ) :   0.7492 B(  2-H , 15-O ) :   0.1099
B(  3-O ,  4-H ) :   0.8468 B(  3-O ,  5-H ) :   0.7492 B(  5-H , 12-O ) :   0.1099
B(  6-O ,  7-H ) :   0.8524 B(  6-O ,  8-H ) :   0.8452 B(  9-O , 10-H ) :   0.8524
B(  9-O , 11-H ) :   0.8452 B( 12-O , 13-H ) :   0.8414 B( 12-O , 14-H ) :   0.7812
B( 15-O , 16-H ) :   0.8414 B( 15-O , 17-H ) :   0.7812

MP2 TOTAL ENERGY:     -457.927187458 Eh
FINAL SINGLE POINT ENERGY      -457.927187458370

DIPOLE MOMENT
-------------
                                X             Y             Z
Electronic contribution:      0.00000       0.00000      -0.16871
Nuclear contribution   :     -0.00000      -0.00000       1.26519
                        -----------------------------------------
Total Dipole Moment    :      0.00000       0.00000       1.09647
                        -----------------------------------------
Magnitude (a.u.)       :      1.09647
Magnitude (Debye)      :      2.78702

Rotational constants in cm-1:     0.040967     0.018503     0.015921
Rotational constants in MHz :  1228.174620   554.703193   477.285737

                             ****ORCA TERMINATED NORMALLY****
TOTAL RUN TIME: 0 days 0 hours 0 minutes 48 seconds 5 msec
