                         Program Version 4.2.0 -  RELEASE  -
|  1> # 12mecn.remya.etal.2.mol4,7,11
|  2> ! MP2 def2-TZVP EnGrad TightSCF
|  3>
|  4> %pal
|  5>     nprocs 6
|  6> end
|  7>
|  8> %maxcore 8000
|  9>
| 10> %scf
| 11>     ConvForced true
| 12> end
| 13>
| 14> *xyz 0 1
| 15> C  -1.509690000  -0.693960000  -1.610140000
| 16> H  -1.327010000  -1.692700000  -2.017370000
| 17> H  -0.742170000  -0.000650000  -1.964400000
| 18> H  -2.491920000  -0.334310000  -1.929350000
| 19> C  -1.473570000  -0.748120000  -0.167200000
| 20> N  -1.447490000  -0.793720000   0.998938000
| 21> C   1.502241000   0.651296000   1.710523000
| 22> H   1.309219000   1.637164000   2.143202000
| 23> H   2.493408000   0.297996000   2.009069000
| 24> H   0.746597000  -0.059850000   2.055508000
| 25> C   1.447974000   0.738517000   0.269805000
| 26> N   1.405612000   0.808047000  -0.894380000
| 27> C   4.214163000   3.378139000   1.593627000
| 28> H   3.242643000   3.657109000   2.012358000
| 29> H   4.969258000   4.086643000   1.941290000
| 30> H   4.482966000   2.372549000   1.931698000
| 31> C   4.130759000   3.388436000   0.150192000
| 32> N   4.050180000   3.381449000  -1.013420000
| 33> *
| 34>
| 35>                          ****END OF INPUT****

CARTESIAN COORDINATES (ANGSTROEM)
---------------------------------
  C     -1.509690   -0.693960   -1.610140
  H     -1.327010   -1.692700   -2.017370
  H     -0.742170   -0.000650   -1.964400
  H     -2.491920   -0.334310   -1.929350
  C     -1.473570   -0.748120   -0.167200
  N     -1.447490   -0.793720    0.998938
  C      1.502241    0.651296    1.710523
  H      1.309219    1.637164    2.143202
  H      2.493408    0.297996    2.009069
  H      0.746597   -0.059850    2.055508
  C      1.447974    0.738517    0.269805
  N      1.405612    0.808047   -0.894380
  C      4.214163    3.378139    1.593627
  H      3.242643    3.657109    2.012358
  H      4.969258    4.086643    1.941290
  H      4.482966    2.372549    1.931698
  C      4.130759    3.388436    0.150192
  N      4.050180    3.381449   -1.013420

 Total Charge           Charge          ....    0
 Multiplicity           Mult            ....    1
 Number of Electrons    NEL             ....   66
 Basis Dimension        Dim             ....  333

ORBITAL ENERGIES
----------------

  NO   OCC          E(Eh)            E(eV)
   0   2.0000     -15.571011      -423.7088
   1   2.0000     -15.570402      -423.6922
   2   2.0000     -15.569679      -423.6725
   3   2.0000     -11.288252      -307.1690
   4   2.0000     -11.282599      -307.0151
   5   2.0000     -11.279518      -306.9313
   6   2.0000     -11.277229      -306.8690
   7   2.0000     -11.276242      -306.8422
   8   2.0000     -11.270697      -306.6912
   9   2.0000      -1.216510       -33.1029
  10   2.0000      -1.212331       -32.9892
  11   2.0000      -1.211167       -32.9575
  12   2.0000      -1.045835       -28.4586
  13   2.0000      -1.039179       -28.2775
  14   2.0000      -1.033985       -28.1362
  15   2.0000      -0.702158       -19.1067
  16   2.0000      -0.695173       -18.9166
  17   2.0000      -0.689884       -18.7727
  18   2.0000      -0.638750       -17.3813
  19   2.0000      -0.636264       -17.3136
  20   2.0000      -0.628688       -17.1075
  21   2.0000      -0.626665       -17.0524
  22   2.0000      -0.622390       -16.9361
  23   2.0000      -0.614993       -16.7348
  24   2.0000      -0.557898       -15.1812
  25   2.0000      -0.554470       -15.0879
  26   2.0000      -0.551596       -15.0097
  27   2.0000      -0.463401       -12.6098
  28   2.0000      -0.459139       -12.4938
  29   2.0000      -0.457150       -12.4397
  30   2.0000      -0.455885       -12.4053
  31   2.0000      -0.453586       -12.3427
  32   2.0000      -0.446241       -12.1428
  33   0.0000       0.101905         2.7730
  34   0.0000       0.135487         3.6868
  35   0.0000       0.147442         4.0121
  36   0.0000       0.154187         4.1956
  37   0.0000       0.165761         4.5106

MULLIKEN ATOMIC CHARGES
-----------------------
   0 C :   -0.283423
   1 H :    0.166792
   2 H :    0.207091
   3 H :    0.166554
   4 C :   -0.103672
   5 N :   -0.153014
   6 C :   -0.289216
   7 H :    0.157847
   8 H :    0.160804
   9 H :    0.214552
  10 C :   -0.110560
  11 N :   -0.133826
  12 C :   -0.280721
  13 H :    0.165157
  14 H :    0.182081
  15 H :    0.164763
  16 C :   -0.156214
  17 N :   -0.074997
Sum of atomic charges:   -0.0000000

LOEWDIN ATOMIC CHARGES
----------------------
   0 C :   -0.281349
   1 H :    0.153199
   2 H :    0.158011
   3 H :    0.151558
   4 C :   -0.208415
   5 N :    0.027304
   6 C :   -0.286070
   7 H :    0.149138
   8 H :    0.148387
   9 H :    0.158314
  10 C :   -0.214288
  11 N :    0.044715
  12 C :   -0.287691
  13 H :    0.150005
  14 H :    0.151799
  15 H :    0.150058
  16 C :   -0.223615
  17 N :    0.058940

  Mayer bond orders larger than 0.100000
B(  0-C ,  1-H ) :   0.9140 B(  0-C ,  2-H ) :   0.9014 B(  0-C ,  3-H ) :   0.9163
B(  0-C ,  4-C ) :   0.9007 B(  4-C ,  5-N ) :   2.7753 B(  6-C ,  7-H ) :   0.9200
B(  6-C ,  8-H ) :   0.9232 B(  6-C ,  9-H ) :   0.8949 B(  6-C , 10-C ) :   0.8946
B( 10-C , 11-N ) :   2.7575 B( 12-C , 13-H ) :   0.9216 B( 12-C , 14-H ) :   0.9108
B( 12-C , 15-H ) :   0.9201 B( 12-C , 16-C ) :   0.9007 B( 16-C , 17-N ) :   2.8288

MP2 TOTAL ENERGY:     -397.457880945 Eh
FINAL SINGLE POINT ENERGY      -397.457880945223

DIPOLE MOMENT
-------------
                                X             Y             Z
Electronic contribution:     -0.22536       0.09727      -3.28778
Nuclear contribution   :      0.32821      -0.13037       4.63499
                        -----------------------------------------
Total Dipole Moment    :      0.10285      -0.03309       1.34722
                        -----------------------------------------
Magnitude (a.u.)       :      1.35154
Magnitude (Debye)      :      3.43535

Rotational constants in cm-1:     0.095838     0.016456     0.014335
Rotational constants in MHz :  2873.149198   493.351024   429.750344

                             ****ORCA TERMINATED NORMALLY****
TOTAL RUN TIME: 0 days 0 hours 3 minutes 37 seconds 605 msec
