                         Program Version 4.2.0 -  RELEASE  -
|  1> # 12h2o.su.etal.mol0,3,9
|  2> ! MP2 def2-TZVP EnGrad TightSCF
|  3>
|  4> %pal
|  5>     nprocs 6
|  6> end
|  7>
|  8> %maxcore 8000
|  9>
| 10> %scf
| 11>     ConvForced true
| 12> end
| 13>
| 14> *xyz 0 1
| 15> O   1.794470000   0.923410000   2.768350000
| 16> H   2.338250000   1.359750000   3.430940000
| 17> H   0.879480000   1.303000000   2.865760000
| 18> O  -1.752130000  -0.741530000  -2.896280000
| 19> H  -2.036450000  -0.920500000  -1.984040000
| 20> H  -0.921210000  -1.242140000  -2.984230000
| 21> O   0.741530000  -1.752130000   2.896280000
| 22> H   0.920500000  -2.036450000   1.984040000
| 23> H   1.242140000  -0.921210000   2.984230000
| 24> *
| 25>
| 26>                          ****END OF INPUT****

CARTESIAN COORDINATES (ANGSTROEM)
---------------------------------
  O      1.794470    0.923410    2.768350
  H      2.338250    1.359750    3.430940
  H      0.879480    1.303000    2.865760
  O     -1.752130   -0.741530   -2.896280
  H     -2.036450   -0.920500   -1.984040
  H     -0.921210   -1.242140   -2.984230
  O      0.741530   -1.752130    2.896280
  H      0.920500   -2.036450    1.984040
  H      1.242140   -0.921210    2.984230

 Total Charge           Charge          ....    0
 Multiplicity           Mult            ....    1
 Number of Electrons    NEL             ....   30
 Basis Dimension        Dim             ....  129

ORBITAL ENERGIES
----------------

  NO   OCC          E(Eh)            E(eV)
   0   2.0000     -20.594449      -560.4034
   1   2.0000     -20.562811      -559.5425
   2   2.0000     -20.536081      -558.8152
   3   2.0000      -1.372102       -37.3368
   4   2.0000      -1.342078       -36.5198
   5   2.0000      -1.318487       -35.8778
   6   2.0000      -0.739314       -20.1178
   7   2.0000      -0.704879       -19.1807
   8   2.0000      -0.687904       -18.7188
   9   2.0000      -0.611259       -16.6332
  10   2.0000      -0.579490       -15.7687
  11   2.0000      -0.561724       -15.2853
  12   2.0000      -0.530278       -14.4296
  13   2.0000      -0.506911       -13.7938
  14   2.0000      -0.483746       -13.1634
  15   0.0000       0.106264         2.8916
  16   0.0000       0.124279         3.3818
  17   0.0000       0.166237         4.5235
  18   0.0000       0.182237         4.9589
  19   0.0000       0.196995         5.3605

MULLIKEN ATOMIC CHARGES
-----------------------
   0 O :   -0.694678
   1 H :    0.354653
   2 H :    0.360557
   3 O :   -0.673606
   4 H :    0.337145
   5 H :    0.336460
   6 O :   -0.704052
   7 H :    0.327037
   8 H :    0.356484
Sum of atomic charges:   -0.0000000

LOEWDIN ATOMIC CHARGES
----------------------
   0 O :   -0.310506
   1 H :    0.164518
   2 H :    0.188432
   3 O :   -0.331823
   4 H :    0.165431
   5 H :    0.166391
   6 O :   -0.348601
   7 H :    0.159464
   8 H :    0.146693

  Mayer bond orders larger than 0.100000
B(  0-O ,  1-H ) :   0.8405 B(  0-O ,  2-H ) :   0.8308 B(  3-O ,  4-H ) :   0.8534
B(  3-O ,  5-H ) :   0.8535 B(  6-O ,  7-H ) :   0.8595 B(  6-O ,  8-H ) :   0.8189

MP2 TOTAL ENERGY:     -228.946433777 Eh
FINAL SINGLE POINT ENERGY      -228.946433777190

DIPOLE MOMENT
-------------
                                X             Y             Z
Electronic contribution:     -0.03939       0.11157      -0.08142
Nuclear contribution   :      0.71164       0.56846       0.63259
                        -----------------------------------------
Total Dipole Moment    :      0.67225       0.68003       0.55118
                        -----------------------------------------
Magnitude (a.u.)       :      1.10370
Magnitude (Debye)      :      2.80539

Rotational constants in cm-1:     0.228164     0.033342     0.029331
Rotational constants in MHz :  6840.193106   999.580037   879.314114

                             ****ORCA TERMINATED NORMALLY****
TOTAL RUN TIME: 0 days 0 hours 0 minutes 27 seconds 887 msec
