                         Program Version 4.2.0 -  RELEASE  -
|  1> # 12h2o.su.etal.mol0,4,8,9
|  2> ! MP2 def2-TZVP EnGrad TightSCF
|  3>
|  4> %pal
|  5>     nprocs 6
|  6> end
|  7>
|  8> %maxcore 8000
|  9>
| 10> %scf
| 11>     ConvForced true
| 12> end
| 13>
| 14> *xyz 0 1
| 15> O   1.794470000   0.923410000   2.768350000
| 16> H   2.338250000   1.359750000   3.430940000
| 17> H   0.879480000   1.303000000   2.865760000
| 18> O  -0.885520000   1.737840000   0.052730000
| 19> H  -1.032320000   2.090180000  -0.841890000
| 20> H  -1.284090000   0.839590000   0.017130000
| 21> O   1.752130000   0.741530000  -2.896280000
| 22> H   2.036450000   0.920500000  -1.984040000
| 23> H   0.921210000   1.242140000  -2.984230000
| 24> O   0.741530000  -1.752130000   2.896280000
| 25> H   0.920500000  -2.036450000   1.984040000
| 26> H   1.242140000  -0.921210000   2.984230000
| 27> *
| 28>
| 29>                          ****END OF INPUT****

CARTESIAN COORDINATES (ANGSTROEM)
---------------------------------
  O      1.794470    0.923410    2.768350
  H      2.338250    1.359750    3.430940
  H      0.879480    1.303000    2.865760
  O     -0.885520    1.737840    0.052730
  H     -1.032320    2.090180   -0.841890
  H     -1.284090    0.839590    0.017130
  O      1.752130    0.741530   -2.896280
  H      2.036450    0.920500   -1.984040
  H      0.921210    1.242140   -2.984230
  O      0.741530   -1.752130    2.896280
  H      0.920500   -2.036450    1.984040
  H      1.242140   -0.921210    2.984230

 Total Charge           Charge          ....    0
 Multiplicity           Mult            ....    1
 Number of Electrons    NEL             ....   40
 Basis Dimension        Dim             ....  172

ORBITAL ENERGIES
----------------

  NO   OCC          E(Eh)            E(eV)
   0   2.0000     -20.585529      -560.1607
   1   2.0000     -20.581645      -560.0550
   2   2.0000     -20.565294      -559.6101
   3   2.0000     -20.531474      -558.6898
   4   2.0000      -1.363246       -37.0958
   5   2.0000      -1.357446       -36.9380
   6   2.0000      -1.344444       -36.5842
   7   2.0000      -1.313815       -35.7507
   8   2.0000      -0.730348       -19.8738
   9   2.0000      -0.719469       -19.5778
  10   2.0000      -0.707275       -19.2459
  11   2.0000      -0.682891       -18.5824
  12   2.0000      -0.603176       -16.4133
  13   2.0000      -0.597220       -16.2512
  14   2.0000      -0.581896       -15.8342
  15   2.0000      -0.555914       -15.1272
  16   2.0000      -0.524459       -14.2713
  17   2.0000      -0.522181       -14.2093
  18   2.0000      -0.509259       -13.8577
  19   2.0000      -0.479163       -13.0387
  20   0.0000       0.085789         2.3344
  21   0.0000       0.118452         3.2232
  22   0.0000       0.151158         4.1132
  23   0.0000       0.163350         4.4450
  24   0.0000       0.191112         5.2004

MULLIKEN ATOMIC CHARGES
-----------------------
   0 O :   -0.697678
   1 H :    0.350953
   2 H :    0.367094
   3 O :   -0.676973
   4 H :    0.332686
   5 H :    0.346877
   6 O :   -0.672030
   7 H :    0.344433
   8 H :    0.325869
   9 O :   -0.706277
  10 H :    0.328029
  11 H :    0.357017
Sum of atomic charges:    0.0000000

LOEWDIN ATOMIC CHARGES
----------------------
   0 O :   -0.311363
   1 H :    0.162928
   2 H :    0.190245
   3 O :   -0.335921
   4 H :    0.162504
   5 H :    0.176165
   6 O :   -0.330042
   7 H :    0.167744
   8 H :    0.160739
   9 O :   -0.349544
  10 H :    0.159681
  11 H :    0.146862

  Mayer bond orders larger than 0.100000
B(  0-O ,  1-H ) :   0.8424 B(  0-O ,  2-H ) :   0.8250 B(  3-O ,  4-H ) :   0.8543
B(  3-O ,  5-H ) :   0.8444 B(  6-O ,  7-H ) :   0.8482 B(  6-O ,  8-H ) :   0.8588
B(  9-O , 10-H ) :   0.8589 B(  9-O , 11-H ) :   0.8175

MP2 TOTAL ENERGY:     -305.261995104 Eh
FINAL SINGLE POINT ENERGY      -305.261995103570

DIPOLE MOMENT
-------------
                                X             Y             Z
Electronic contribution:      0.16934       0.00135       0.05611
Nuclear contribution   :     -0.65224       1.24538      -0.14168
                        -----------------------------------------
Total Dipole Moment    :     -0.48290       1.24673      -0.08557
                        -----------------------------------------
Magnitude (a.u.)       :      1.33972
Magnitude (Debye)      :      3.40529

Rotational constants in cm-1:     0.095026     0.033625     0.030881
Rotational constants in MHz :  2848.814442  1008.051251   925.777888

                             ****ORCA TERMINATED NORMALLY****
TOTAL RUN TIME: 0 days 0 hours 0 minutes 26 seconds 680 msec
