                         Program Version 4.2.0 -  RELEASE  -
|  1> # 12h2o.su.etal.mol1,3,4,6,8,10,11
|  2> ! MP2 def2-TZVP EnGrad TightSCF
|  3>
|  4> %pal
|  5>     nprocs 6
|  6> end
|  7>
|  8> %maxcore 8000
|  9>
| 10> %scf
| 11>     ConvForced true
| 12> end
| 13>
| 14> *xyz 0 1
| 15> O  -1.794470000  -0.923410000   2.768350000
| 16> H  -2.338250000  -1.359750000   3.430940000
| 17> H  -0.879480000  -1.303000000   2.865760000
| 18> O  -1.752130000  -0.741530000  -2.896280000
| 19> H  -2.036450000  -0.920500000  -1.984040000
| 20> H  -0.921210000  -1.242140000  -2.984230000
| 21> O  -0.885520000   1.737840000   0.052730000
| 22> H  -1.032320000   2.090180000  -0.841890000
| 23> H  -1.284090000   0.839590000   0.017130000
| 24> O   1.737840000   0.885520000  -0.052730000
| 25> H   2.090180000   1.032320000   0.841890000
| 26> H   0.839590000   1.284090000  -0.017130000
| 27> O   1.752130000   0.741530000  -2.896280000
| 28> H   2.036450000   0.920500000  -1.984040000
| 29> H   0.921210000   1.242140000  -2.984230000
| 30> O  -0.923410000   1.794470000  -2.768350000
| 31> H  -1.359750000   2.338250000  -3.430940000
| 32> H  -1.303000000   0.879480000  -2.865760000
| 33> O  -0.741530000   1.752130000   2.896280000
| 34> H  -0.920500000   2.036450000   1.984040000
| 35> H  -1.242140000   0.921210000   2.984230000
| 36> *
| 37>
| 38>                          ****END OF INPUT****

CARTESIAN COORDINATES (ANGSTROEM)
---------------------------------
  O     -1.794470   -0.923410    2.768350
  H     -2.338250   -1.359750    3.430940
  H     -0.879480   -1.303000    2.865760
  O     -1.752130   -0.741530   -2.896280
  H     -2.036450   -0.920500   -1.984040
  H     -0.921210   -1.242140   -2.984230
  O     -0.885520    1.737840    0.052730
  H     -1.032320    2.090180   -0.841890
  H     -1.284090    0.839590    0.017130
  O      1.737840    0.885520   -0.052730
  H      2.090180    1.032320    0.841890
  H      0.839590    1.284090   -0.017130
  O      1.752130    0.741530   -2.896280
  H      2.036450    0.920500   -1.984040
  H      0.921210    1.242140   -2.984230
  O     -0.923410    1.794470   -2.768350
  H     -1.359750    2.338250   -3.430940
  H     -1.303000    0.879480   -2.865760
  O     -0.741530    1.752130    2.896280
  H     -0.920500    2.036450    1.984040
  H     -1.242140    0.921210    2.984230

 Total Charge           Charge          ....    0
 Multiplicity           Mult            ....    1
 Number of Electrons    NEL             ....   70
 Basis Dimension        Dim             ....  301

ORBITAL ENERGIES
----------------

  NO   OCC          E(Eh)            E(eV)
   0   2.0000     -20.618651      -561.0620
   1   2.0000     -20.601425      -560.5933
   2   2.0000     -20.590090      -560.2848
   3   2.0000     -20.578680      -559.9744
   4   2.0000     -20.540037      -558.9228
   5   2.0000     -20.516431      -558.2805
   6   2.0000     -20.502757      -557.9084
   7   2.0000      -1.405023       -38.2326
   8   2.0000      -1.379442       -37.5365
   9   2.0000      -1.378454       -37.5096
  10   2.0000      -1.361699       -37.0537
  11   2.0000      -1.323630       -36.0178
  12   2.0000      -1.301788       -35.4234
  13   2.0000      -1.287597       -35.0373
  14   2.0000      -0.760725       -20.7004
  15   2.0000      -0.747379       -20.3372
  16   2.0000      -0.746167       -20.3042
  17   2.0000      -0.738394       -20.0927
  18   2.0000      -0.698270       -19.0009
  19   2.0000      -0.680781       -18.5250
  20   2.0000      -0.667433       -18.1618
  21   2.0000      -0.648032       -17.6338
  22   2.0000      -0.626474       -17.0472
  23   2.0000      -0.614094       -16.7103
  24   2.0000      -0.598259       -16.2795
  25   2.0000      -0.581801       -15.8316
  26   2.0000      -0.555399       -15.1132
  27   2.0000      -0.553659       -15.0658
  28   2.0000      -0.537268       -14.6198
  29   2.0000      -0.525922       -14.3111
  30   2.0000      -0.521232       -14.1834
  31   2.0000      -0.512109       -13.9352
  32   2.0000      -0.488472       -13.2920
  33   2.0000      -0.466137       -12.6842
  34   2.0000      -0.452724       -12.3192
  35   0.0000       0.075555         2.0559
  36   0.0000       0.106436         2.8963
  37   0.0000       0.140730         3.8295
  38   0.0000       0.155503         4.2315
  39   0.0000       0.163449         4.4477

MULLIKEN ATOMIC CHARGES
-----------------------
   0 O :   -0.703185
   1 H :    0.357583
   2 H :    0.363894
   3 O :   -0.683088
   4 H :    0.352948
   5 H :    0.380853
   6 O :   -0.715043
   7 H :    0.390167
   8 H :    0.338328
   9 O :   -0.732672
  10 H :    0.341682
  11 H :    0.358931
  12 O :   -0.734368
  13 H :    0.371928
  14 H :    0.342471
  15 O :   -0.750539
  16 H :    0.354974
  17 H :    0.381685
  18 O :   -0.724764
  19 H :    0.365968
  20 H :    0.342248
Sum of atomic charges:   -0.0000000

LOEWDIN ATOMIC CHARGES
----------------------
   0 O :   -0.314671
   1 H :    0.165606
   2 H :    0.189384
   3 O :   -0.265624
   4 H :    0.170959
   5 H :    0.185282
   6 O :   -0.279999
   7 H :    0.156389
   8 H :    0.168276
   9 O :   -0.343246
  10 H :    0.163965
  11 H :    0.142946
  12 O :   -0.358521
  13 H :    0.151761
  14 H :    0.137953
  15 O :   -0.312015
  16 H :    0.161575
  17 H :    0.145757
  18 O :   -0.353667
  19 H :    0.147264
  20 H :    0.140628

  Mayer bond orders larger than 0.100000
B(  0-O ,  1-H ) :   0.8389 B(  0-O ,  2-H ) :   0.8281 B(  3-O ,  4-H ) :   0.8400
B(  3-O ,  5-H ) :   0.8175 B(  6-O ,  7-H ) :   0.7854 B(  6-O ,  8-H ) :   0.8396
B(  9-O , 10-H ) :   0.8461 B(  9-O , 11-H ) :   0.7847 B( 12-O , 13-H ) :   0.8174
B( 12-O , 14-H ) :   0.8320 B( 15-O , 16-H ) :   0.8381 B( 15-O , 17-H ) :   0.7508
B( 18-O , 19-H ) :   0.8274 B( 18-O , 20-H ) :   0.8311

MP2 TOTAL ENERGY:     -534.247927410 Eh
FINAL SINGLE POINT ENERGY      -534.247927410311

DIPOLE MOMENT
-------------
                                X             Y             Z
Electronic contribution:     -0.20566      -0.09304      -0.29355
Nuclear contribution   :     -1.84416      -1.44355       0.68611
                        -----------------------------------------
Total Dipole Moment    :     -2.04982      -1.53659       0.39255
                        -----------------------------------------
Magnitude (a.u.)       :      2.59171
Magnitude (Debye)      :      6.58760

Rotational constants in cm-1:     0.045052     0.019832     0.017146
Rotational constants in MHz :  1350.624709   594.554706   514.014781

                             ****ORCA TERMINATED NORMALLY****
TOTAL RUN TIME: 0 days 0 hours 2 minutes 20 seconds 219 msec
