                         Program Version 4.2.0 -  RELEASE  -
|  1> # 12h2o.su.etal.mol1,2,6,10,11
|  2> ! MP2 def2-TZVP EnGrad TightSCF
|  3>
|  4> %pal
|  5>     nprocs 6
|  6> end
|  7>
|  8> %maxcore 8000
|  9>
| 10> %scf
| 11>     ConvForced true
| 12> end
| 13>
| 14> *xyz 0 1
| 15> O  -1.794470000  -0.923410000   2.768350000
| 16> H  -2.338250000  -1.359750000   3.430940000
| 17> H  -0.879480000  -1.303000000   2.865760000
| 18> O   0.923410000  -1.794470000  -2.768350000
| 19> H   1.359750000  -2.338250000  -3.430940000
| 20> H   1.303000000  -0.879480000  -2.865760000
| 21> O   1.737840000   0.885520000  -0.052730000
| 22> H   2.090180000   1.032320000   0.841890000
| 23> H   0.839590000   1.284090000  -0.017130000
| 24> O  -0.923410000   1.794470000  -2.768350000
| 25> H  -1.359750000   2.338250000  -3.430940000
| 26> H  -1.303000000   0.879480000  -2.865760000
| 27> O  -0.741530000   1.752130000   2.896280000
| 28> H  -0.920500000   2.036450000   1.984040000
| 29> H  -1.242140000   0.921210000   2.984230000
| 30> *
| 31>
| 32>                          ****END OF INPUT****

CARTESIAN COORDINATES (ANGSTROEM)
---------------------------------
  O     -1.794470   -0.923410    2.768350
  H     -2.338250   -1.359750    3.430940
  H     -0.879480   -1.303000    2.865760
  O      0.923410   -1.794470   -2.768350
  H      1.359750   -2.338250   -3.430940
  H      1.303000   -0.879480   -2.865760
  O      1.737840    0.885520   -0.052730
  H      2.090180    1.032320    0.841890
  H      0.839590    1.284090   -0.017130
  O     -0.923410    1.794470   -2.768350
  H     -1.359750    2.338250   -3.430940
  H     -1.303000    0.879480   -2.865760
  O     -0.741530    1.752130    2.896280
  H     -0.920500    2.036450    1.984040
  H     -1.242140    0.921210    2.984230

 Total Charge           Charge          ....    0
 Multiplicity           Mult            ....    1
 Number of Electrons    NEL             ....   50
 Basis Dimension        Dim             ....  215

ORBITAL ENERGIES
----------------

  NO   OCC          E(Eh)            E(eV)
   0   2.0000     -20.589735      -560.2752
   1   2.0000     -20.564805      -559.5968
   2   2.0000     -20.551566      -559.2365
   3   2.0000     -20.548918      -559.1645
   4   2.0000     -20.537967      -558.8665
   5   2.0000      -1.367431       -37.2097
   6   2.0000      -1.340094       -36.4658
   7   2.0000      -1.326962       -36.1085
   8   2.0000      -1.324823       -36.0503
   9   2.0000      -1.320011       -35.9193
  10   2.0000      -0.734624       -19.9901
  11   2.0000      -0.708473       -19.2785
  12   2.0000      -0.694871       -18.9084
  13   2.0000      -0.689348       -18.7581
  14   2.0000      -0.686475       -18.6799
  15   2.0000      -0.607354       -16.5270
  16   2.0000      -0.576705       -15.6930
  17   2.0000      -0.565349       -15.3839
  18   2.0000      -0.563423       -15.3315
  19   2.0000      -0.561279       -15.2732
  20   2.0000      -0.527127       -14.3439
  21   2.0000      -0.508264       -13.8306
  22   2.0000      -0.495110       -13.4726
  23   2.0000      -0.491822       -13.3831
  24   2.0000      -0.484963       -13.1965
  25   0.0000       0.101444         2.7604
  26   0.0000       0.117659         3.2017
  27   0.0000       0.143947         3.9170
  28   0.0000       0.148935         4.0527
  29   0.0000       0.179837         4.8936

MULLIKEN ATOMIC CHARGES
-----------------------
   0 O :   -0.694389
   1 H :    0.353278
   2 H :    0.362786
   3 O :   -0.691421
   4 H :    0.333484
   5 H :    0.357002
   6 O :   -0.680601
   7 H :    0.338020
   8 H :    0.339241
   9 O :   -0.690597
  10 H :    0.339863
  11 H :    0.352206
  12 O :   -0.703432
  13 H :    0.325547
  14 H :    0.359012
Sum of atomic charges:   -0.0000000

LOEWDIN ATOMIC CHARGES
----------------------
   0 O :   -0.309997
   1 H :    0.163941
   2 H :    0.189434
   3 O :   -0.341842
   4 H :    0.155666
   5 H :    0.184849
   6 O :   -0.337404
   7 H :    0.164759
   8 H :    0.169887
   9 O :   -0.340795
  10 H :    0.158691
  11 H :    0.183773
  12 O :   -0.345917
  13 H :    0.156993
  14 H :    0.147962

  Mayer bond orders larger than 0.100000
B(  0-O ,  1-H ) :   0.8412 B(  0-O ,  2-H ) :   0.8292 B(  3-O ,  4-H ) :   0.8556
B(  3-O ,  5-H ) :   0.8334 B(  6-O ,  7-H ) :   0.8514 B(  6-O ,  8-H ) :   0.8463
B(  9-O , 10-H ) :   0.8520 B(  9-O , 11-H ) :   0.8371 B( 12-O , 13-H ) :   0.8586
B( 12-O , 14-H ) :   0.8152

MP2 TOTAL ENERGY:     -381.577243970 Eh
FINAL SINGLE POINT ENERGY      -381.577243969991

DIPOLE MOMENT
-------------
                                X             Y             Z
Electronic contribution:      0.02867      -0.08186       0.11470
Nuclear contribution   :     -0.71107      -0.68017      -0.54442
                        -----------------------------------------
Total Dipole Moment    :     -0.68240      -0.76204      -0.42972
                        -----------------------------------------
Magnitude (a.u.)       :      1.10952
Magnitude (Debye)      :      2.82016

Rotational constants in cm-1:     0.055173     0.022988     0.020901
Rotational constants in MHz :  1654.048754   689.156454   626.581511

                             ****ORCA TERMINATED NORMALLY****
TOTAL RUN TIME: 0 days 0 hours 0 minutes 23 seconds 809 msec
