                         Program Version 4.2.0 -  RELEASE  -
|  1> # 12mecn.remya.etal.2.mol1,3,6
|  2> ! MP2 def2-TZVP EnGrad TightSCF
|  3>
|  4> %pal
|  5>     nprocs 6
|  6> end
|  7>
|  8> %maxcore 8000
|  9>
| 10> %scf
| 11>     ConvForced true
| 12> end
| 13>
| 14> *xyz 0 1
| 15> C  -4.697980000  -0.249690000   1.746215000
| 16> H  -4.927570000   0.755530000   2.111799000
| 17> H  -3.709180000  -0.561560000   2.093253000
| 18> H  -5.432280000  -0.961520000   2.128066000
| 19> C  -4.714100000  -0.247110000   0.301670000
| 20> N  -4.729750000  -0.234960000  -0.865260000
| 21> C  -5.181310000   2.853865000  -1.626100000
| 22> H  -5.488260000   3.811434000  -2.053310000
| 23> H  -5.857590000   2.068112000  -1.968630000
| 24> H  -4.170750000   2.611402000  -1.966640000
| 25> C  -5.187260000   2.919160000  -0.181450000
| 26> N  -5.181700000   2.970641000   0.983640000
| 27> C   5.300864000  -2.920090000   1.401103000
| 28> H   5.986071000  -2.139770000   1.737487000
| 29> H   5.636642000  -3.888750000   1.778233000
| 30> H   4.307359000  -2.697240000   1.799307000
| 31> C   5.234791000  -2.933140000  -0.043290000
| 32> N   5.170868000  -2.941760000  -1.207750000
| 33> *
| 34>
| 35>                          ****END OF INPUT****

CARTESIAN COORDINATES (ANGSTROEM)
---------------------------------
  C     -4.697980   -0.249690    1.746215
  H     -4.927570    0.755530    2.111799
  H     -3.709180   -0.561560    2.093253
  H     -5.432280   -0.961520    2.128066
  C     -4.714100   -0.247110    0.301670
  N     -4.729750   -0.234960   -0.865260
  C     -5.181310    2.853865   -1.626100
  H     -5.488260    3.811434   -2.053310
  H     -5.857590    2.068112   -1.968630
  H     -4.170750    2.611402   -1.966640
  C     -5.187260    2.919160   -0.181450
  N     -5.181700    2.970641    0.983640
  C      5.300864   -2.920090    1.401103
  H      5.986071   -2.139770    1.737487
  H      5.636642   -3.888750    1.778233
  H      4.307359   -2.697240    1.799307
  C      5.234791   -2.933140   -0.043290
  N      5.170868   -2.941760   -1.207750

 Total Charge           Charge          ....    0
 Multiplicity           Mult            ....    1
 Number of Electrons    NEL             ....   66
 Basis Dimension        Dim             ....  333

ORBITAL ENERGIES
----------------

  NO   OCC          E(Eh)            E(eV)
   0   2.0000     -15.573546      -423.7777
   1   2.0000     -15.570965      -423.7075
   2   2.0000     -15.570212      -423.6870
   3   2.0000     -11.285411      -307.0916
   4   2.0000     -11.282649      -307.0165
   5   2.0000     -11.282567      -307.0143
   6   2.0000     -11.280454      -306.9568
   7   2.0000     -11.272240      -306.7332
   8   2.0000     -11.271800      -306.7213
   9   2.0000      -1.218047       -33.1448
  10   2.0000      -1.215129       -33.0653
  11   2.0000      -1.213211       -33.0132
  12   2.0000      -1.044405       -28.4197
  13   2.0000      -1.036633       -28.2082
  14   2.0000      -1.033203       -28.1149
  15   2.0000      -0.701754       -19.0957
  16   2.0000      -0.695110       -18.9149
  17   2.0000      -0.691120       -18.8063
  18   2.0000      -0.633414       -17.2361
  19   2.0000      -0.631672       -17.1887
  20   2.0000      -0.630680       -17.1617
  21   2.0000      -0.621992       -16.9253
  22   2.0000      -0.618094       -16.8192
  23   2.0000      -0.616054       -16.7637
  24   2.0000      -0.558831       -15.2066
  25   2.0000      -0.556324       -15.1384
  26   2.0000      -0.555741       -15.1225
  27   2.0000      -0.463239       -12.6054
  28   2.0000      -0.458507       -12.4766
  29   2.0000      -0.458275       -12.4703
  30   2.0000      -0.457919       -12.4606
  31   2.0000      -0.456894       -12.4327
  32   2.0000      -0.452421       -12.3110
  33   0.0000       0.118470         3.2237
  34   0.0000       0.126403         3.4396
  35   0.0000       0.144719         3.9380
  36   0.0000       0.170759         4.6466
  37   0.0000       0.170952         4.6518

MULLIKEN ATOMIC CHARGES
-----------------------
   0 C :   -0.286670
   1 H :    0.205874
   2 H :    0.164817
   3 H :    0.166571
   4 C :   -0.111475
   5 N :   -0.139771
   6 C :   -0.263582
   7 H :    0.171205
   8 H :    0.184974
   9 H :    0.173138
  10 C :   -0.115539
  11 N :   -0.149543
  12 C :   -0.280634
  13 H :    0.172250
  14 H :    0.172470
  15 H :    0.171542
  16 C :   -0.145696
  17 N :   -0.089931
Sum of atomic charges:    0.0000000

LOEWDIN ATOMIC CHARGES
----------------------
   0 C :   -0.282429
   1 H :    0.157184
   2 H :    0.151991
   3 H :    0.150488
   4 C :   -0.209542
   5 N :    0.035041
   6 C :   -0.284442
   7 H :    0.148703
   8 H :    0.156113
   9 H :    0.156911
  10 C :   -0.208529
  11 N :    0.028511
  12 C :   -0.283980
  13 H :    0.151560
  14 H :    0.151385
  15 H :    0.152882
  16 C :   -0.218962
  17 N :    0.047114

  Mayer bond orders larger than 0.100000
B(  0-C ,  1-H ) :   0.9014 B(  0-C ,  2-H ) :   0.9155 B(  0-C ,  3-H ) :   0.9168
B(  0-C ,  4-C ) :   0.8998 B(  4-C ,  5-N ) :   2.7891 B(  6-C ,  7-H ) :   0.9104
B(  6-C ,  8-H ) :   0.9101 B(  6-C ,  9-H ) :   0.9138 B(  6-C , 10-C ) :   0.9123
B( 10-C , 11-N ) :   2.7735 B( 12-C , 13-H ) :   0.9169 B( 12-C , 14-H ) :   0.9162
B( 12-C , 15-H ) :   0.9169 B( 12-C , 16-C ) :   0.9027 B( 16-C , 17-N ) :   2.8366

MP2 TOTAL ENERGY:     -397.459057396 Eh
FINAL SINGLE POINT ENERGY      -397.459057395658

DIPOLE MOMENT
-------------
                                X             Y             Z
Electronic contribution:     -0.20328       0.13702      -3.13516
Nuclear contribution   :      0.29713      -0.19777       4.64138
                        -----------------------------------------
Total Dipole Moment    :      0.09385      -0.06075       1.50622
                        -----------------------------------------
Magnitude (a.u.)       :      1.51037
Magnitude (Debye)      :      3.83905

Rotational constants in cm-1:     0.051595     0.004784     0.004676
Rotational constants in MHz :  1546.792686   143.421428   140.174488

                             ****ORCA TERMINATED NORMALLY****
TOTAL RUN TIME: 0 days 0 hours 2 minutes 28 seconds 1 msec
