                         Program Version 4.2.0 -  RELEASE  -
|  1> # 12meoh.boyd.etal.mol3,6
|  2> ! MP2 def2-TZVP EnGrad TightSCF
|  3>
|  4> %pal
|  5>     nprocs 6
|  6> end
|  7>
|  8> %maxcore 8000
|  9>
| 10> %scf
| 11>     ConvForced true
| 12> end
| 13>
| 14> *xyz 0 1
| 15> O  -3.821405976  -2.118091637   0.596795346
| 16> H  -4.342989117  -1.344303030   0.251966383
| 17> C  -3.443883586  -1.809641231   1.934889393
| 18> H  -2.831494349  -2.637429600   2.305201764
| 19> H  -4.325601146  -1.719364371   2.585074667
| 20> H  -2.858527126  -0.882644791   1.996110694
| 21> O   2.622209273  -1.703002590  -1.445859723
| 22> H   1.828551432  -1.986513781  -0.909754968
| 23> C   2.781117675  -2.615822239  -2.525472890
| 24> H   3.691063626  -2.339003544  -3.065143454
| 25> H   1.934727323  -2.559520367  -3.223226661
| 26> H   2.879948338  -3.653846211  -2.177750170
| 27> *
| 28>
| 29>                          ****END OF INPUT****

CARTESIAN COORDINATES (ANGSTROEM)
---------------------------------
  O     -3.821406   -2.118092    0.596795
  H     -4.342989   -1.344303    0.251966
  C     -3.443884   -1.809641    1.934889
  H     -2.831494   -2.637430    2.305202
  H     -4.325601   -1.719364    2.585075
  H     -2.858527   -0.882645    1.996111
  O      2.622209   -1.703003   -1.445860
  H      1.828551   -1.986514   -0.909755
  C      2.781118   -2.615822   -2.525473
  H      3.691064   -2.339004   -3.065143
  H      1.934727   -2.559520   -3.223227
  H      2.879948   -3.653846   -2.177750

 Total Charge           Charge          ....    0
 Multiplicity           Mult            ....    1
 Number of Electrons    NEL             ....   36
 Basis Dimension        Dim             ....  172

ORBITAL ENERGIES
----------------

  NO   OCC          E(Eh)            E(eV)
   0   2.0000     -20.560674      -559.4844
   1   2.0000     -20.555429      -559.3416
   2   2.0000     -11.274425      -306.7927
   3   2.0000     -11.269309      -306.6535
   4   2.0000      -1.349764       -36.7289
   5   2.0000      -1.343557       -36.5600
   6   2.0000      -0.921984       -25.0885
   7   2.0000      -0.917016       -24.9533
   8   2.0000      -0.684102       -18.6154
   9   2.0000      -0.678526       -18.4636
  10   2.0000      -0.620386       -16.8816
  11   2.0000      -0.614658       -16.7257
  12   2.0000      -0.593037       -16.1374
  13   2.0000      -0.588897       -16.0247
  14   2.0000      -0.503669       -13.7055
  15   2.0000      -0.497515       -13.5381
  16   2.0000      -0.452411       -12.3107
  17   2.0000      -0.446621       -12.1532
  18   0.0000       0.131383         3.5751
  19   0.0000       0.138322         3.7639
  20   0.0000       0.173370         4.7176
  21   0.0000       0.178127         4.8471
  22   0.0000       0.226162         6.1542

MULLIKEN ATOMIC CHARGES
-----------------------
   0 O :   -0.496366
   1 H :    0.322020
   2 C :   -0.175947
   3 H :    0.128273
   4 H :    0.110915
   5 H :    0.111107
   6 O :   -0.499423
   7 H :    0.323173
   8 C :   -0.171517
   9 H :    0.128368
  10 H :    0.110022
  11 H :    0.109375
Sum of atomic charges:   -0.0000000

LOEWDIN ATOMIC CHARGES
----------------------
   0 O :   -0.110466
   1 H :    0.191061
   2 C :   -0.382216
   3 H :    0.110060
   4 H :    0.096055
   5 H :    0.095506
   6 O :   -0.111633
   7 H :    0.193230
   8 C :   -0.382458
   9 H :    0.109941
  10 H :    0.095453
  11 H :    0.095468

  Mayer bond orders larger than 0.100000
B(  0-O ,  1-H ) :   0.8424 B(  0-O ,  2-C ) :   0.9258 B(  2-C ,  3-H ) :   0.9377
B(  2-C ,  4-H ) :   0.9394 B(  2-C ,  5-H ) :   0.9383 B(  6-O ,  7-H ) :   0.8405
B(  6-O ,  8-C ) :   0.9263 B(  8-C ,  9-H ) :   0.9374 B(  8-C , 10-H ) :   0.9391
B(  8-C , 11-H ) :   0.9391

MP2 TOTAL ENERGY:     -231.013356438 Eh
FINAL SINGLE POINT ENERGY      -231.013356437658

DIPOLE MOMENT
-------------
                                X             Y             Z
Electronic contribution:     -0.47310       0.70671      -0.35747
Nuclear contribution   :     -0.12442      -0.65321       0.58472
                        -----------------------------------------
Total Dipole Moment    :     -0.59752       0.05350       0.22725
                        -----------------------------------------
Magnitude (a.u.)       :      0.64151
Magnitude (Debye)      :      1.63060

Rotational constants in cm-1:     0.458015     0.020481     0.019910
Rotational constants in MHz : 13730.955338   614.017069   596.877461

                             ****ORCA TERMINATED NORMALLY****
TOTAL RUN TIME: 0 days 0 hours 0 minutes 16 seconds 856 msec
