                         Program Version 4.2.0 -  RELEASE  -
|  1> # 12meoh.boyd.etal.mol1,4
|  2> ! MP2 def2-TZVP EnGrad TightSCF
|  3>
|  4> %pal
|  5>     nprocs 6
|  6> end
|  7>
|  8> %maxcore 8000
|  9>
| 10> %scf
| 11>     ConvForced true
| 12> end
| 13>
| 14> *xyz 0 1
| 15> O   0.666045193  -2.600503172   0.138317521
| 16> H  -0.227115049  -2.712051982  -0.281868004
| 17> C   0.490021232  -1.851247678   1.341189459
| 18> H   1.466500502  -1.466176022   1.645844415
| 19> H   0.097564527  -2.488364683   2.146902740
| 20> H  -0.187588112  -1.000787499   1.200739571
| 21> O  -1.358578914   1.232360421   1.189721000
| 22> H  -1.058250183   1.216459361   0.238591307
| 23> C  -0.389763452   1.957872567   1.943072362
| 24> H  -0.747220771   2.012806578   2.975200343
| 25> H  -0.260410585   2.982763209   1.565366540
| 26> H   0.585220638   1.453754179   1.934070793
| 27> *
| 28>
| 29>                          ****END OF INPUT****

CARTESIAN COORDINATES (ANGSTROEM)
---------------------------------
  O      0.666045   -2.600503    0.138318
  H     -0.227115   -2.712052   -0.281868
  C      0.490021   -1.851248    1.341189
  H      1.466501   -1.466176    1.645844
  H      0.097565   -2.488365    2.146903
  H     -0.187588   -1.000787    1.200740
  O     -1.358579    1.232360    1.189721
  H     -1.058250    1.216459    0.238591
  C     -0.389763    1.957873    1.943072
  H     -0.747221    2.012807    2.975200
  H     -0.260411    2.982763    1.565367
  H      0.585221    1.453754    1.934071

 Total Charge           Charge          ....    0
 Multiplicity           Mult            ....    1
 Number of Electrons    NEL             ....   36
 Basis Dimension        Dim             ....  172

ORBITAL ENERGIES
----------------

  NO   OCC          E(Eh)            E(eV)
   0   2.0000     -20.566821      -559.6516
   1   2.0000     -20.553219      -559.2815
   2   2.0000     -11.278008      -306.8902
   3   2.0000     -11.264254      -306.5159
   4   2.0000      -1.354458       -36.8567
   5   2.0000      -1.341345       -36.4998
   6   2.0000      -0.926257       -25.2047
   7   2.0000      -0.914381       -24.8816
   8   2.0000      -0.688674       -18.7398
   9   2.0000      -0.676494       -18.4083
  10   2.0000      -0.627353       -17.0711
  11   2.0000      -0.608651       -16.5622
  12   2.0000      -0.597813       -16.2673
  13   2.0000      -0.585721       -15.9383
  14   2.0000      -0.508074       -13.8254
  15   2.0000      -0.496492       -13.5102
  16   2.0000      -0.457588       -12.4516
  17   2.0000      -0.443225       -12.0608
  18   0.0000       0.122436         3.3317
  19   0.0000       0.148595         4.0435
  20   0.0000       0.167134         4.5479
  21   0.0000       0.189440         5.1549
  22   0.0000       0.217745         5.9251

MULLIKEN ATOMIC CHARGES
-----------------------
   0 O :   -0.503010
   1 H :    0.321694
   2 C :   -0.172382
   3 H :    0.120138
   4 H :    0.108177
   5 H :    0.108211
   6 O :   -0.494679
   7 H :    0.327450
   8 C :   -0.178946
   9 H :    0.132267
  10 H :    0.118947
  11 H :    0.112133
Sum of atomic charges:    0.0000000

LOEWDIN ATOMIC CHARGES
----------------------
   0 O :   -0.114513
   1 H :    0.189033
   2 C :   -0.382902
   3 H :    0.106523
   4 H :    0.096608
   5 H :    0.097675
   6 O :   -0.107857
   7 H :    0.192196
   8 C :   -0.381754
   9 H :    0.111546
  10 H :    0.098541
  11 H :    0.094907

  Mayer bond orders larger than 0.100000
B(  0-O ,  1-H ) :   0.8435 B(  0-O ,  2-C ) :   0.9167 B(  2-C ,  3-H ) :   0.9363
B(  2-C ,  4-H ) :   0.9361 B(  2-C ,  5-H ) :   0.9366 B(  6-O ,  7-H ) :   0.8382
B(  6-O ,  8-C ) :   0.9092 B(  8-C ,  9-H ) :   0.9380 B(  8-C , 10-H ) :   0.9392
B(  8-C , 11-H ) :   0.9372

MP2 TOTAL ENERGY:     -231.015074754 Eh
FINAL SINGLE POINT ENERGY      -231.015074753697

DIPOLE MOMENT
-------------
                                X             Y             Z
Electronic contribution:     -0.97916      -1.78185      -2.28028
Nuclear contribution   :      0.87938       2.40157       2.24762
                        -----------------------------------------
Total Dipole Moment    :     -0.09978       0.61972      -0.03266
                        -----------------------------------------
Magnitude (a.u.)       :      0.62855
Magnitude (Debye)      :      1.59766

Rotational constants in cm-1:     0.525396     0.056348     0.053450
Rotational constants in MHz : 15750.961130  1689.280522  1602.398817

                             ****ORCA TERMINATED NORMALLY****
TOTAL RUN TIME: 0 days 0 hours 0 minutes 25 seconds 353 msec
