                         Program Version 4.2.0 -  RELEASE  -
|  1> # 12h2o.su.etal.mol2,5,8,9,10
|  2> ! MP2 def2-TZVP EnGrad TightSCF
|  3>
|  4> %pal
|  5>     nprocs 6
|  6> end
|  7>
|  8> %maxcore 8000
|  9>
| 10> %scf
| 11>     ConvForced true
| 12> end
| 13>
| 14> *xyz 0 1
| 15> O   0.923410000  -1.794470000  -2.768350000
| 16> H   1.359750000  -2.338250000  -3.430940000
| 17> H   1.303000000  -0.879480000  -2.865760000
| 18> O   0.885520000  -1.737840000   0.052730000
| 19> H   1.284090000  -0.839590000   0.017130000
| 20> H   1.032320000  -2.090180000  -0.841890000
| 21> O   1.752130000   0.741530000  -2.896280000
| 22> H   2.036450000   0.920500000  -1.984040000
| 23> H   0.921210000   1.242140000  -2.984230000
| 24> O   0.741530000  -1.752130000   2.896280000
| 25> H   0.920500000  -2.036450000   1.984040000
| 26> H   1.242140000  -0.921210000   2.984230000
| 27> O  -0.923410000   1.794470000  -2.768350000
| 28> H  -1.359750000   2.338250000  -3.430940000
| 29> H  -1.303000000   0.879480000  -2.865760000
| 30> *
| 31>
| 32>                          ****END OF INPUT****

CARTESIAN COORDINATES (ANGSTROEM)
---------------------------------
  O      0.923410   -1.794470   -2.768350
  H      1.359750   -2.338250   -3.430940
  H      1.303000   -0.879480   -2.865760
  O      0.885520   -1.737840    0.052730
  H      1.284090   -0.839590    0.017130
  H      1.032320   -2.090180   -0.841890
  O      1.752130    0.741530   -2.896280
  H      2.036450    0.920500   -1.984040
  H      0.921210    1.242140   -2.984230
  O      0.741530   -1.752130    2.896280
  H      0.920500   -2.036450    1.984040
  H      1.242140   -0.921210    2.984230
  O     -0.923410    1.794470   -2.768350
  H     -1.359750    2.338250   -3.430940
  H     -1.303000    0.879480   -2.865760

 Total Charge           Charge          ....    0
 Multiplicity           Mult            ....    1
 Number of Electrons    NEL             ....   50
 Basis Dimension        Dim             ....  215

ORBITAL ENERGIES
----------------

  NO   OCC          E(Eh)            E(eV)
   0   2.0000     -20.605492      -560.7039
   1   2.0000     -20.591092      -560.3121
   2   2.0000     -20.553527      -559.2899
   3   2.0000     -20.553444      -559.2876
   4   2.0000     -20.520489      -558.3909
   5   2.0000      -1.387052       -37.7436
   6   2.0000      -1.376366       -37.4528
   7   2.0000      -1.341596       -36.5067
   8   2.0000      -1.330511       -36.2050
   9   2.0000      -1.302058       -35.4308
  10   2.0000      -0.753305       -20.4985
  11   2.0000      -0.737720       -20.0744
  12   2.0000      -0.721615       -19.6361
  13   2.0000      -0.703406       -19.1407
  14   2.0000      -0.669721       -18.2240
  15   2.0000      -0.636038       -17.3075
  16   2.0000      -0.611664       -16.6442
  17   2.0000      -0.589830       -16.0501
  18   2.0000      -0.572524       -15.5792
  19   2.0000      -0.546920       -14.8825
  20   2.0000      -0.537852       -14.6357
  21   2.0000      -0.526951       -14.3391
  22   2.0000      -0.502685       -13.6787
  23   2.0000      -0.497967       -13.5504
  24   2.0000      -0.466894       -12.7048
  25   0.0000       0.087195         2.3727
  26   0.0000       0.117341         3.1930
  27   0.0000       0.150614         4.0984
  28   0.0000       0.161670         4.3993
  29   0.0000       0.183051         4.9811

MULLIKEN ATOMIC CHARGES
-----------------------
   0 O :   -0.740577
   1 H :    0.339655
   2 H :    0.367155
   3 O :   -0.701371
   4 H :    0.308586
   5 H :    0.379247
   6 O :   -0.695518
   7 H :    0.346356
   8 H :    0.380100
   9 O :   -0.695112
  10 H :    0.373224
  11 H :    0.311796
  12 O :   -0.704183
  13 H :    0.358982
  14 H :    0.371660
Sum of atomic charges:   -0.0000000

LOEWDIN ATOMIC CHARGES
----------------------
   0 O :   -0.342455
   1 H :    0.155026
   2 H :    0.141880
   3 O :   -0.324852
   4 H :    0.157240
   5 H :    0.154435
   6 O :   -0.278359
   7 H :    0.166769
   8 H :    0.155919
   9 O :   -0.342006
  10 H :    0.152952
  11 H :    0.154368
  12 O :   -0.310722
  13 H :    0.166986
  14 H :    0.192819

  Mayer bond orders larger than 0.100000
B(  0-O ,  1-H ) :   0.8492 B(  0-O ,  2-H ) :   0.7602 B(  3-O ,  4-H ) :   0.8603
B(  3-O ,  5-H ) :   0.7972 B(  6-O ,  7-H ) :   0.8443 B(  6-O ,  8-H ) :   0.7906
B(  9-O , 10-H ) :   0.8153 B(  9-O , 11-H ) :   0.8672 B( 12-O , 13-H ) :   0.8379
B( 12-O , 14-H ) :   0.8220

MP2 TOTAL ENERGY:     -381.598478088 Eh
FINAL SINGLE POINT ENERGY      -381.598478088256

DIPOLE MOMENT
-------------
                                X             Y             Z
Electronic contribution:     -0.29104       0.10410      -0.15155
Nuclear contribution   :      0.56463       1.47502      -2.03947
                        -----------------------------------------
Total Dipole Moment    :      0.27360       1.57912      -2.19102
                        -----------------------------------------
Magnitude (a.u.)       :      2.71460
Magnitude (Debye)      :      6.89996

Rotational constants in cm-1:     0.091425     0.027651     0.023956
Rotational constants in MHz :  2740.841048   828.967040   718.196530

                             ****ORCA TERMINATED NORMALLY****
TOTAL RUN TIME: 0 days 0 hours 0 minutes 29 seconds 212 msec
