                         Program Version 4.2.0 -  RELEASE  -
|  1> # 12meoh.boyd.etal.mol5,6,7
|  2> ! MP2 def2-TZVP EnGrad TightSCF
|  3>
|  4> %pal
|  5>     nprocs 6
|  6> end
|  7>
|  8> %maxcore 8000
|  9>
| 10> %scf
| 11>     ConvForced true
| 12> end
| 13>
| 14> *xyz 0 1
| 15> O  -0.662721750   1.449094618  -1.383082065
| 16> H   0.064188300   2.119867608  -1.465650660
| 17> C  -0.353319239   0.341218776  -2.229326771
| 18> H  -1.072358530  -0.454743281  -2.019906495
| 19> H   0.657636746  -0.044472139  -2.042736771
| 20> H  -0.434616607   0.624733901  -3.287793021
| 21> O   2.622209273  -1.703002590  -1.445859723
| 22> H   1.828551432  -1.986513781  -0.909754968
| 23> C   2.781117675  -2.615822239  -2.525472890
| 24> H   3.691063626  -2.339003544  -3.065143454
| 25> H   1.934727323  -2.559520367  -3.223226661
| 26> H   2.879948338  -3.653846211  -2.177750170
| 27> O   4.310535586  -1.588322800   0.656128299
| 28> H   3.804372199  -1.630404735  -0.196849819
| 29> C   4.312298137  -2.894980854   1.222112691
| 30> H   4.713177833  -2.819907076   2.237066773
| 31> H   4.957796734  -3.574699304   0.648211180
| 32> H   3.302735989  -3.324433205   1.269756773
| 33> *
| 34>
| 35>                          ****END OF INPUT****

CARTESIAN COORDINATES (ANGSTROEM)
---------------------------------
  O     -0.662722    1.449095   -1.383082
  H      0.064188    2.119868   -1.465651
  C     -0.353319    0.341219   -2.229327
  H     -1.072359   -0.454743   -2.019906
  H      0.657637   -0.044472   -2.042737
  H     -0.434617    0.624734   -3.287793
  O      2.622209   -1.703003   -1.445860
  H      1.828551   -1.986514   -0.909755
  C      2.781118   -2.615822   -2.525473
  H      3.691064   -2.339004   -3.065143
  H      1.934727   -2.559520   -3.223227
  H      2.879948   -3.653846   -2.177750
  O      4.310536   -1.588323    0.656128
  H      3.804372   -1.630405   -0.196850
  C      4.312298   -2.894981    1.222113
  H      4.713178   -2.819907    2.237067
  H      4.957797   -3.574699    0.648211
  H      3.302736   -3.324433    1.269757

 Total Charge           Charge          ....    0
 Multiplicity           Mult            ....    1
 Number of Electrons    NEL             ....   54
 Basis Dimension        Dim             ....  258

ORBITAL ENERGIES
----------------

  NO   OCC          E(Eh)            E(eV)
   0   2.0000     -20.596963      -560.4719
   1   2.0000     -20.556312      -559.3657
   2   2.0000     -20.521027      -558.4055
   3   2.0000     -11.297268      -307.4143
   4   2.0000     -11.272507      -306.7405
   5   2.0000     -11.257798      -306.3403
   6   2.0000      -1.389295       -37.8047
   7   2.0000      -1.344678       -36.5905
   8   2.0000      -1.318083       -35.8669
   9   2.0000      -0.949365       -25.8335
  10   2.0000      -0.921560       -25.0769
  11   2.0000      -0.903570       -24.5874
  12   2.0000      -0.718004       -19.5379
  13   2.0000      -0.684654       -18.6304
  14   2.0000      -0.680251       -18.5106
  15   2.0000      -0.640952       -17.4412
  16   2.0000      -0.618760       -16.8373
  17   2.0000      -0.616518       -16.7763
  18   2.0000      -0.599001       -16.2997
  19   2.0000      -0.591524       -16.0962
  20   2.0000      -0.568762       -15.4768
  21   2.0000      -0.533101       -14.5064
  22   2.0000      -0.502869       -13.6838
  23   2.0000      -0.495236       -13.4761
  24   2.0000      -0.463920       -12.6239
  25   2.0000      -0.448358       -12.2004
  26   2.0000      -0.424128       -11.5411
  27   0.0000       0.106855         2.9077
  28   0.0000       0.139770         3.8033
  29   0.0000       0.153232         4.1696
  30   0.0000       0.159596         4.3428
  31   0.0000       0.188808         5.1377

MULLIKEN ATOMIC CHARGES
-----------------------
   0 O :   -0.500006
   1 H :    0.325461
   2 C :   -0.191467
   3 H :    0.123328
   4 H :    0.122819
   5 H :    0.111411
   6 O :   -0.520842
   7 H :    0.347773
   8 C :   -0.188868
   9 H :    0.146358
  10 H :    0.127398
  11 H :    0.130486
  12 O :   -0.522386
  13 H :    0.353965
  14 C :   -0.178774
  15 H :    0.128021
  16 H :    0.101402
  17 H :    0.083920
Sum of atomic charges:   -0.0000000

LOEWDIN ATOMIC CHARGES
----------------------
   0 O :   -0.111018
   1 H :    0.190662
   2 C :   -0.384276
   3 H :    0.107346
   4 H :    0.095848
   5 H :    0.096251
   6 O :   -0.069941
   7 H :    0.201887
   8 C :   -0.376370
   9 H :    0.116655
  10 H :    0.103639
  11 H :    0.102506
  12 O :   -0.119465
  13 H :    0.157622
  14 C :   -0.397051
  15 H :    0.107727
  16 H :    0.091588
  17 H :    0.086389

  Mayer bond orders larger than 0.100000
B(  0-O ,  1-H ) :   0.8405 B(  0-O ,  2-C ) :   0.9225 B(  2-C ,  3-H ) :   0.9345
B(  2-C ,  4-H ) :   0.9373 B(  2-C ,  5-H ) :   0.9363 B(  6-O ,  7-H ) :   0.8220
B(  6-O ,  8-C ) :   0.8653 B(  8-C ,  9-H ) :   0.9399 B(  8-C , 10-H ) :   0.9340
B(  8-C , 11-H ) :   0.9364 B( 12-O , 13-H ) :   0.7947 B( 12-O , 14-C ) :   0.9455
B( 14-C , 15-H ) :   0.9423 B( 14-C , 16-H ) :   0.9406 B( 14-C , 17-H ) :   0.9354

MP2 TOTAL ENERGY:     -346.529326176 Eh
FINAL SINGLE POINT ENERGY      -346.529326176001

DIPOLE MOMENT
-------------
                                X             Y             Z
Electronic contribution:     -0.62978       4.26265       1.50823
Nuclear contribution   :      0.35836      -5.36141      -2.62248
                        -----------------------------------------
Total Dipole Moment    :     -0.27143      -1.09876      -1.11425
                        -----------------------------------------
Magnitude (a.u.)       :      1.58824
Magnitude (Debye)      :      4.03698

Rotational constants in cm-1:     0.110855     0.024498     0.020886
Rotational constants in MHz :  3323.334466   734.420156   626.156372

                             ****ORCA TERMINATED NORMALLY****
TOTAL RUN TIME: 0 days 0 hours 1 minutes 38 seconds 604 msec
