                         Program Version 3.0.3 - RELEASE   -
|  1> ! B3LYP Def2-TZVP def2-TZVP/J RIJCOSX TightSCF Grid4 D3BJ
|  2>
|  3> %pal nprocs 12 end
|  4>
|  5> %scf
|  6>         maxiter 400
|  7> end
|  8>
|  9> * xyz  0  1
| 10> O  1.859564	0.397019	0.274746
| 11> H  1.390834	0.129123	-0.562454
| 12> H  2.440986	-0.352296	0.463463
| 13> O  0.359035	-0.389193	-1.782078
| 14> H  -0.518355	-0.450512	-1.315457
| 15> H  0.218420	0.274116	-2.470899
| 16> O  -0.351615	0.394840	1.792929
| 17> H  0.526501	0.399612	1.323415
| 18> H  -0.481612	1.315755	2.057465
| 19> O  -1.852869	-0.387030	-0.280741
| 20> H  -2.190508	-1.262445	-0.047154
| 21> H  -1.400382	-0.068990	0.546765
| 22> **                         ****END OF INPUT****

CARTESIAN COORDINATES (ANGSTROEM)
---------------------------------
  O      1.859564    0.397019    0.274746
  H      1.390834    0.129123   -0.562454
  H      2.440986   -0.352296    0.463463
  O      0.359035   -0.389193   -1.782078
  H     -0.518355   -0.450512   -1.315457
  H      0.218420    0.274116   -2.470899
  O     -0.351615    0.394840    1.792929
  H      0.526501    0.399612    1.323415
  H     -0.481612    1.315755    2.057465
  O     -1.852869   -0.387030   -0.280741
  H     -2.190508   -1.262445   -0.047154
  H     -1.400382   -0.068990    0.546765

 Total Charge           Charge          ....    0
 Multiplicity           Mult            ....    1
 Number of Electrons    NEL             ....   40
 Basis Dimension        Dim             ....  172

ORBITAL ENERGIES
----------------

  NO   OCC          E(Eh)            E(eV)
   0   2.0000     -19.124531      -520.4049
   1   2.0000     -19.124207      -520.3961
   2   2.0000     -19.124134      -520.3941
   3   2.0000     -19.123120      -520.3666
   4   2.0000      -1.024278       -27.8720
   5   2.0000      -1.007382       -27.4123
   6   2.0000      -1.006919       -27.3997
   7   2.0000      -0.990405       -26.9503
   8   2.0000      -0.539253       -14.6738
   9   2.0000      -0.527837       -14.3632
  10   2.0000      -0.526525       -14.3275
  11   2.0000      -0.520868       -14.1735
  12   2.0000      -0.436152       -11.8683
  13   2.0000      -0.400624       -10.9015
  14   2.0000      -0.398107       -10.8330
  15   2.0000      -0.365502        -9.9458
  16   2.0000      -0.320654        -8.7254
  17   2.0000      -0.317872        -8.6497
  18   2.0000      -0.317330        -8.6350
  19   2.0000      -0.313526        -8.5315
  20   0.0000       0.009676         0.2633
  21   0.0000       0.047456         1.2913
  22   0.0000       0.047562         1.2942
  23   0.0000       0.065895         1.7931
  24   0.0000       0.179279         4.8784

MULLIKEN ATOMIC CHARGES
-----------------------
   0 O :   -0.681846
   1 H :    0.359091
   2 H :    0.324762
   3 O :   -0.683955
   4 H :    0.357617
   5 H :    0.325610
   6 O :   -0.683372
   7 H :    0.355252
   8 H :    0.325513
   9 O :   -0.682175
  10 H :    0.325242
  11 H :    0.358261
Sum of atomic charges:   -0.0000000

LOEWDIN ATOMIC CHARGES
----------------------
   0 O :   -0.297587
   1 H :    0.138939
   2 H :    0.156514
   3 O :   -0.295100
   4 H :    0.140069
   5 H :    0.156938
   6 O :   -0.297320
   7 H :    0.139922
   8 H :    0.157047
   9 O :   -0.296383
  10 H :    0.156980
  11 H :    0.139980

  Mayer bond orders larger than 0.1
B(  0-O ,  1-H ) :   0.7854 B(  0-O ,  2-H ) :   0.8998 B(  0-O ,  7-H ) :   0.1479
B(  1-H ,  3-O ) :   0.1427 B(  3-O ,  4-H ) :   0.7847 B(  3-O ,  5-H ) :   0.8988
B(  4-H ,  9-O ) :   0.1443 B(  6-O ,  7-H ) :   0.7846 B(  6-O ,  8-H ) :   0.8991
B(  6-O , 11-H ) :   0.1422 B(  9-O , 10-H ) :   0.8991 B(  9-O , 11-H ) :   0.7865

Dispersion correction           -0.008049226
FINAL SINGLE POINT ENERGY      -305.759192502266

DIPOLE MOMENT
-------------
                                X             Y             Z
Electronic contribution:      0.00015       0.00799      -0.00425
Nuclear contribution   :     -0.03525      -0.03905      -0.01213
                        -----------------------------------------
Total Dipole Moment    :     -0.03510      -0.03106      -0.01637
                        -----------------------------------------
Magnitude (a.u.)       :      0.04964
Magnitude (Debye)      :      0.12619

                             ****ORCA TERMINATED NORMALLY****
TOTAL RUN TIME: 0 days 0 hours 0 minutes 51 seconds 352 msec
