                         Program Version 3.0.3 - RELEASE   -
|  1> ! wB97X-D3 MA-Def2-TZVP def2-TZVP/J RIJCOSX TightSCF Grid4
|  2>
|  3> %pal nprocs 1 end
|  4>
|  5> %scf
|  6>         maxiter 400
|  7> end
|  8>
|  9> %cosmo
| 10>         SMD true
| 11>         solvent "WATER"
| 12> end
| 13>
| 14> * xyz  0  1
| 15> O  1.940436	-2.245649	2.391449
| 16> H  1.368513	-2.589788	1.649342
| 17> H  1.311359	-1.727009	2.975650
| 18> O  2.319620	0.468972	-0.729034
| 19> H  2.181661	1.478294	-0.687761
| 20> H  2.847492	0.212664	0.097295
| 21> O  0.602228	-2.936677	-2.299265
| 22> H  1.124992	-2.088913	-2.601957
| 23> H  1.003657	-3.679741	-2.791958
| 24> O  0.931028	3.364393	1.789243
| 25> H  1.323258	2.610084	2.349635
| 26> H  -0.049826	3.170867	1.723929
| 27> O  2.081772	1.492156	3.256882
| 28> H  2.648321	0.937474	2.646457
| 29> H  1.430271	0.813043	3.595248
| 30> O  -1.916022	-0.151471	-1.691839
| 31> H  -2.048948	-1.111177	-2.062827
| 32> H  -1.132708	-0.267037	-1.047004
| 33> O  1.833082	-0.801619	-3.035143
| 34> H  2.139259	-0.359643	-2.188180
| 35> H  1.080796	-0.203031	-3.322645
| 36> O  -1.417972	0.190345	2.105832
| 37> H  -0.782332	0.004379	1.331828
| 38> H  -1.575314	1.190009	2.005153
| 39> O  -3.362176	-0.911964	0.625406
| 40> H  -2.723535	-0.496795	1.287088
| 41> H  -3.050834	-0.528084	-0.235924
| 42> O  -1.670547	2.717776	1.484773
| 43> H  -2.364220	3.245015	1.928313
| 44> H  -1.968997	2.642136	0.490284
| 45> O  1.718908	3.002587	-0.597380
| 46> H  1.416953	3.172667	0.395833
| 47> H  2.460414	3.621755	-0.751898
| 48> O  0.021122	-0.431626	0.033373
| 49> H  0.185576	-1.427619	0.174931
| 50> H  0.928810	-0.043748	-0.253320
| 51> O  0.342178	-3.016950	0.321491
| 52> H  -0.643281	-3.222979	0.379962
| 53> H  0.552568	-3.113010	-0.664447
| 54> O  -2.059185	-2.623190	-2.443528
| 55> H  -2.255560	-2.998065	-1.534306
| 56> H  -1.068997	-2.784377	-2.519223
| 57> O  -0.259372	0.840390	-3.519887
| 58> H  -0.658268	0.824212	-4.413225
| 59> H  -0.974585	0.464763	-2.906175
| 60> O  3.338418	-0.233384	1.576131
| 61> H  4.286306	-0.436442	1.702959
| 62> H  2.828595	-1.086766	1.869136
| 63> O  -0.280855	3.321421	-2.373589
| 64> H  -0.200502	2.474668	-2.897418
| 65> H  0.474830	3.251332	-1.714624
| 66> O  0.397422	-0.549355	3.819012
| 67> H  0.038084	-0.774483	4.699547
| 68> H  -0.403751	-0.266392	3.256978
| 69> O  -2.367536	2.510313	-0.978301
| 70> H  -1.580060	2.885180	-1.512621
| 71> H  -2.391555	1.559513	-1.255814
| 72> O  -2.296339	-3.246329	0.169231
| 73> H  -2.771323	-2.376829	0.441132
| 74> H  -2.847831	-3.976340	0.512879
| 75> **                         ****END OF INPUT****

CARTESIAN COORDINATES (ANGSTROEM)
---------------------------------
  O      1.940436   -2.245649    2.391449
  H      1.368513   -2.589788    1.649342
  H      1.311359   -1.727009    2.975650
  O      2.319620    0.468972   -0.729034
  H      2.181661    1.478294   -0.687761
  H      2.847492    0.212664    0.097295
  O      0.602228   -2.936677   -2.299265
  H      1.124992   -2.088913   -2.601957
  H      1.003657   -3.679741   -2.791958
  O      0.931028    3.364393    1.789243
  H      1.323258    2.610084    2.349635
  H     -0.049826    3.170867    1.723929
  O      2.081772    1.492156    3.256882
  H      2.648321    0.937474    2.646457
  H      1.430271    0.813043    3.595248
  O     -1.916022   -0.151471   -1.691839
  H     -2.048948   -1.111177   -2.062827
  H     -1.132708   -0.267037   -1.047004
  O      1.833082   -0.801619   -3.035143
  H      2.139259   -0.359643   -2.188180
  H      1.080796   -0.203031   -3.322645
  O     -1.417972    0.190345    2.105832
  H     -0.782332    0.004379    1.331828
  H     -1.575314    1.190009    2.005153
  O     -3.362176   -0.911964    0.625406
  H     -2.723535   -0.496795    1.287088
  H     -3.050834   -0.528084   -0.235924
  O     -1.670547    2.717776    1.484773
  H     -2.364220    3.245015    1.928313
  H     -1.968997    2.642136    0.490284
  O      1.718908    3.002587   -0.597380
  H      1.416953    3.172667    0.395833
  H      2.460414    3.621755   -0.751898
  O      0.021122   -0.431626    0.033373
  H      0.185576   -1.427619    0.174931
  H      0.928810   -0.043748   -0.253320
  O      0.342178   -3.016950    0.321491
  H     -0.643281   -3.222979    0.379962
  H      0.552568   -3.113010   -0.664447
  O     -2.059185   -2.623190   -2.443528
  H     -2.255560   -2.998065   -1.534306
  H     -1.068997   -2.784377   -2.519223
  O     -0.259372    0.840390   -3.519887
  H     -0.658268    0.824212   -4.413225
  H     -0.974585    0.464763   -2.906175
  O      3.338418   -0.233384    1.576131
  H      4.286306   -0.436442    1.702959
  H      2.828595   -1.086766    1.869136
  O     -0.280855    3.321421   -2.373589
  H     -0.200502    2.474668   -2.897418
  H      0.474830    3.251332   -1.714624
  O      0.397422   -0.549355    3.819012
  H      0.038084   -0.774483    4.699547
  H     -0.403751   -0.266392    3.256978
  O     -2.367536    2.510313   -0.978301
  H     -1.580060    2.885180   -1.512621
  H     -2.391555    1.559513   -1.255814
  O     -2.296339   -3.246329    0.169231
  H     -2.771323   -2.376829    0.441132
  H     -2.847831   -3.976340    0.512879

 Total Charge           Charge          ....    0
 Multiplicity           Mult            ....    1
 Number of Electrons    NEL             ....  200
 Basis Dimension        Dim             ....  940

ORBITAL ENERGIES
----------------

  NO   OCC          E(Eh)            E(eV)
   0   2.0000     -19.248323      -523.7735
   1   2.0000     -19.244425      -523.6674
   2   2.0000     -19.241806      -523.5962
   3   2.0000     -19.241489      -523.5875
   4   2.0000     -19.241474      -523.5871
   5   2.0000     -19.240887      -523.5712
   6   2.0000     -19.239021      -523.5204
   7   2.0000     -19.238421      -523.5040
   8   2.0000     -19.237982      -523.4921
   9   2.0000     -19.236544      -523.4530
  10   2.0000     -19.236530      -523.4526
  11   2.0000     -19.233880      -523.3805
  12   2.0000     -19.233508      -523.3704
  13   2.0000     -19.232053      -523.3308
  14   2.0000     -19.231575      -523.3178
  15   2.0000     -19.231387      -523.3126
  16   2.0000     -19.230482      -523.2880
  17   2.0000     -19.226306      -523.1744
  18   2.0000     -19.226183      -523.1710
  19   2.0000     -19.224967      -523.1380
  20   2.0000      -1.156193       -31.4616
  21   2.0000      -1.143512       -31.1165
  22   2.0000      -1.142076       -31.0775
  23   2.0000      -1.141012       -31.0485
  24   2.0000      -1.134517       -30.8718
  25   2.0000      -1.132952       -30.8292
  26   2.0000      -1.132354       -30.8129
  27   2.0000      -1.128497       -30.7080
  28   2.0000      -1.125438       -30.6247
  29   2.0000      -1.124926       -30.6108
  30   2.0000      -1.119101       -30.4523
  31   2.0000      -1.115938       -30.3662
  32   2.0000      -1.113240       -30.2928
  33   2.0000      -1.109950       -30.2033
  34   2.0000      -1.102652       -30.0047
  35   2.0000      -1.098672       -29.8964
  36   2.0000      -1.097724       -29.8706
  37   2.0000      -1.095393       -29.8072
  38   2.0000      -1.092645       -29.7324
  39   2.0000      -1.089315       -29.6418
  40   2.0000      -0.652903       -17.7664
  41   2.0000      -0.648328       -17.6419
  42   2.0000      -0.644598       -17.5404
  43   2.0000      -0.644178       -17.5290
  44   2.0000      -0.641889       -17.4667
  45   2.0000      -0.640757       -17.4359
  46   2.0000      -0.639262       -17.3952
  47   2.0000      -0.637502       -17.3473
  48   2.0000      -0.635570       -17.2947
  49   2.0000      -0.633536       -17.2394
  50   2.0000      -0.632735       -17.2176
  51   2.0000      -0.631114       -17.1735
  52   2.0000      -0.629344       -17.1253
  53   2.0000      -0.627392       -17.0722
  54   2.0000      -0.625880       -17.0311
  55   2.0000      -0.623132       -16.9563
  56   2.0000      -0.622190       -16.9307
  57   2.0000      -0.619465       -16.8565
  58   2.0000      -0.618174       -16.8214
  59   2.0000      -0.615020       -16.7355
  60   2.0000      -0.576211       -15.6795
  61   2.0000      -0.564805       -15.3691
  62   2.0000      -0.559390       -15.2218
  63   2.0000      -0.552881       -15.0446
  64   2.0000      -0.552366       -15.0306
  65   2.0000      -0.547729       -14.9045
  66   2.0000      -0.527948       -14.3662
  67   2.0000      -0.523368       -14.2416
  68   2.0000      -0.520591       -14.1660
  69   2.0000      -0.509913       -13.8754
  70   2.0000      -0.503292       -13.6953
  71   2.0000      -0.500437       -13.6176
  72   2.0000      -0.498231       -13.5576
  73   2.0000      -0.491784       -13.3821
  74   2.0000      -0.490125       -13.3370
  75   2.0000      -0.486283       -13.2324
  76   2.0000      -0.473363       -12.8809
  77   2.0000      -0.472105       -12.8466
  78   2.0000      -0.466863       -12.7040
  79   2.0000      -0.453365       -12.3367
  80   2.0000      -0.430487       -11.7142
  81   2.0000      -0.429279       -11.6813
  82   2.0000      -0.428861       -11.6699
  83   2.0000      -0.427961       -11.6454
  84   2.0000      -0.425695       -11.5838
  85   2.0000      -0.425330       -11.5738
  86   2.0000      -0.424585       -11.5536
  87   2.0000      -0.423589       -11.5264
  88   2.0000      -0.421986       -11.4828
  89   2.0000      -0.421661       -11.4740
  90   2.0000      -0.421126       -11.4594
  91   2.0000      -0.418155       -11.3786
  92   2.0000      -0.417729       -11.3670
  93   2.0000      -0.415742       -11.3129
  94   2.0000      -0.414963       -11.2917
  95   2.0000      -0.413305       -11.2466
  96   2.0000      -0.411891       -11.2081
  97   2.0000      -0.411106       -11.1868
  98   2.0000      -0.409831       -11.1521
  99   2.0000      -0.409152       -11.1336
 100   0.0000       0.056142         1.5277
 101   0.0000       0.077781         2.1165
 102   0.0000       0.080465         2.1896
 103   0.0000       0.082380         2.2417
 104   0.0000       0.100983         2.7479

MULLIKEN ATOMIC CHARGES
-----------------------
   0 O :   -0.834053
   1 H :    0.434164
   2 H :    0.422832
   3 O :   -0.873597
   4 H :    0.444581
   5 H :    0.446182
   6 O :   -0.865752
   7 H :    0.437016
   8 H :    0.420915
   9 O :   -0.856276
  10 H :    0.445819
  11 H :    0.424812
  12 O :   -0.835399
  13 H :    0.416815
  14 H :    0.420314
  15 O :   -1.084852
  16 H :    0.501419
  17 H :    0.426574
  18 O :   -0.842271
  19 H :    0.427231
  20 H :    0.427675
  21 O :   -0.926135
  22 H :    0.397462
  23 H :    0.476002
  24 O :   -0.828022
  25 H :    0.453081
  26 H :    0.409612
  27 O :   -0.831180
  28 H :    0.421860
  29 H :    0.442099
  30 O :   -0.821320
  31 H :    0.430445
  32 H :    0.417648
  33 O :   -0.837690
  34 H :    0.358319
  35 H :    0.400513
  36 O :   -0.846792
  37 H :    0.456843
  38 H :    0.445699
  39 O :   -0.798393
  40 H :    0.425269
  41 H :    0.421886
  42 O :   -0.804543
  43 H :    0.427124
  44 H :    0.432639
  45 O :   -0.856617
  46 H :    0.420769
  47 H :    0.428124
  48 O :   -0.842054
  49 H :    0.407381
  50 H :    0.419505
  51 O :   -0.866765
  52 H :    0.420307
  53 H :    0.443301
  54 O :   -0.867329
  55 H :    0.449371
  56 H :    0.430267
  57 O :   -0.876122
  58 H :    0.438364
  59 H :    0.424925
Sum of atomic charges:    0.0000000

LOEWDIN ATOMIC CHARGES
----------------------
   0 O :   -0.401185
   1 H :    0.199886
   2 H :    0.199778
   3 O :   -0.402198
   4 H :    0.195248
   5 H :    0.196991
   6 O :   -0.388698
   7 H :    0.196425
   8 H :    0.220789
   9 O :   -0.405184
  10 H :    0.195021
  11 H :    0.195265
  12 O :   -0.427167
  13 H :    0.198052
  14 H :    0.197299
  15 O :   -0.464871
  16 H :    0.197655
  17 H :    0.189168
  18 O :   -0.402465
  19 H :    0.199510
  20 H :    0.198936
  21 O :   -0.411479
  22 H :    0.190594
  23 H :    0.197924
  24 O :   -0.403754
  25 H :    0.199637
  26 H :    0.201109
  27 O :   -0.382043
  28 H :    0.221303
  29 H :    0.195837
  30 O :   -0.383902
  31 H :    0.191523
  32 H :    0.219851
  33 O :   -0.410777
  34 H :    0.191405
  35 H :    0.193219
  36 O :   -0.407545
  37 H :    0.202377
  38 H :    0.200775
  39 O :   -0.410444
  40 H :    0.199322
  41 H :    0.198327
  42 O :   -0.373151
  43 H :    0.224439
  44 H :    0.199858
  45 O :   -0.382861
  46 H :    0.220228
  47 H :    0.197881
  48 O :   -0.426282
  49 H :    0.195702
  50 H :    0.194902
  51 O :   -0.383646
  52 H :    0.220889
  53 H :    0.198171
  54 O :   -0.404949
  55 H :    0.198088
  56 H :    0.201777
  57 O :   -0.384340
  58 H :    0.199771
  59 H :    0.222007

  Mayer bond orders larger than 0.1
B(  0-O ,  1-H ) :   0.8209 B(  0-O ,  2-H ) :   0.8017 B(  0-O , 47-H ) :   0.1237
B(  3-O ,  4-H ) :   0.7579 B(  3-O ,  5-H ) :   0.7592 B(  3-O , 35-H ) :   0.2049
B(  4-H , 30-O ) :   0.1052 B(  6-O ,  7-H ) :   0.7163 B(  6-O ,  8-H ) :   0.8320
B(  7-H , 18-O ) :   0.1385 B(  9-O , 10-H ) :   0.7731 B(  9-O , 11-H ) :   0.8019
B(  9-O , 31-H ) :   0.1597 B( 12-O , 13-H ) :   0.8038 B( 12-O , 14-H ) :   0.8011
B( 15-O , 16-H ) :   0.7239 B( 15-O , 17-H ) :   0.7888 B( 15-O , 33-O ) :  -0.1211
B( 15-O , 39-O ) :   0.1350 B( 17-H , 33-O ) :   0.1234 B( 18-O , 19-H ) :   0.8082
B( 18-O , 20-H ) :   0.8091 B( 21-O , 22-H ) :   0.8101 B( 21-O , 23-H ) :   0.7513
B( 24-O , 25-H ) :   0.7754 B( 24-O , 26-H ) :   0.8295 B( 24-O , 58-H ) :   0.1070
B( 27-O , 28-H ) :   0.8319 B( 27-O , 29-H ) :   0.7292 B( 29-H , 54-O ) :   0.1124
B( 30-O , 31-H ) :   0.7053 B( 30-O , 32-H ) :   0.8365 B( 33-O , 34-H ) :   0.7311
B( 33-O , 35-H ) :   0.7087 B( 34-H , 36-O ) :   0.2171 B( 36-O , 37-H ) :   0.7800
B( 36-O , 38-H ) :   0.7694 B( 39-O , 40-H ) :   0.8054 B( 39-O , 41-H ) :   0.8034
B( 42-O , 43-H ) :   0.8340 B( 42-O , 44-H ) :   0.7940 B( 45-O , 46-H ) :   0.8322
B( 45-O , 47-H ) :   0.7369 B( 48-O , 49-H ) :   0.8181 B( 48-O , 50-H ) :   0.7996
B( 48-O , 55-H ) :   0.1005 B( 51-O , 52-H ) :   0.8298 B( 51-O , 53-H ) :   0.7661
B( 54-O , 55-H ) :   0.7472 B( 54-O , 56-H ) :   0.8224 B( 57-O , 58-H ) :   0.7421
B( 57-O , 59-H ) :   0.8281

Dispersion correction           -0.042649368
FINAL SINGLE POINT ENERGY     -1529.199315259730

DIPOLE MOMENT
-------------
                                X             Y             Z
Electronic contribution:      0.20439      -0.26815       0.12066
Nuclear contribution   :      0.28872      -2.09796       0.28512
                        -----------------------------------------
Total Dipole Moment    :      0.49311      -2.36611       0.40578
                        -----------------------------------------
Magnitude (a.u.)       :      2.45077
Magnitude (Debye)      :      6.22937

                             ****ORCA TERMINATED NORMALLY****
TOTAL RUN TIME: 0 days 0 hours 52 minutes 54 seconds 443 msec
