                         Program Version 3.0.3 - RELEASE   -
|  1> ! wB97X-D3 MA-Def2-TZVP def2-TZVP/J RIJCOSX TightSCF Grid4
|  2>
|  3> %pal nprocs 1 end
|  4>
|  5> %scf
|  6>         maxiter 400
|  7> end
|  8>
|  9> * xyz  0  1
| 10> O  1.947631	-2.231361	2.381999
| 11> H  1.388019	-2.622649	1.654987
| 12> H  1.303873	-1.756352	2.978585
| 13> O  2.320459	0.484100	-0.720342
| 14> H  2.244026	1.503086	-0.693792
| 15> H  2.872240	0.203207	0.076254
| 16> O  0.670263	-2.968967	-2.295467
| 17> H  1.152354	-2.061792	-2.581531
| 18> H  1.098226	-3.666273	-2.825786
| 19> O  0.918402	3.349678	1.684387
| 20> H  1.338784	2.644696	2.289210
| 21> H  -0.063647	3.166236	1.674604
| 22> O  2.025679	1.481285	3.164127
| 23> H  2.626867	0.915953	2.609920
| 24> H  1.396693	0.815836	3.546348
| 25> O  -1.933141	-0.115006	-1.694218
| 26> H  -2.033825	-1.091476	-2.046397
| 27> H  -1.159997	-0.196114	-1.035121
| 28> O  1.772323	-0.817555	-2.990342
| 29> H  2.119351	-0.335515	-2.180999
| 30> H  1.045825	-0.218088	-3.324335
| 31> O  -1.422996	0.204606	2.121245
| 32> H  -0.778674	0.043993	1.345263
| 33> H  -1.608404	1.202125	2.035280
| 34> O  -3.294975	-1.013981	0.645290
| 35> H  -2.692078	-0.557738	1.312481
| 36> H  -3.062884	-0.563386	-0.206347
| 37> O  -1.717846	2.716111	1.503256
| 38> H  -2.379298	3.314760	1.896434
| 39> H  -1.980933	2.644639	0.462034
| 40> O  1.817829	3.024409	-0.599716
| 41> H  1.420993	3.184029	0.404960
| 42> H  2.501655	3.708263	-0.725976
| 43> O  0.007314	-0.383870	0.042580
| 44> H  0.168545	-1.381437	0.173333
| 45> H  0.915109	0.008410	-0.236174
| 46> O  0.333353	-2.973768	0.321522
| 47> H  -0.637825	-3.229757	0.381757
| 48> H  0.573068	-3.119652	-0.648174
| 49> O  -2.009392	-2.578358	-2.427389
| 50> H  -2.237756	-3.013625	-1.560270
| 51> H  -1.032487	-2.777699	-2.513846
| 52> O  -0.340482	0.799219	-3.571091
| 53> H  -0.790366	0.786386	-4.436674
| 54> H  -1.033453	0.454926	-2.901123
| 55> O  3.381487	-0.306751	1.556016
| 56> H  4.313031	-0.522062	1.744999
| 57> H  2.825975	-1.141770	1.873191
| 58> O  -0.259151	3.284300	-2.328393
| 59> H  -0.176387	2.477827	-2.899056
| 60> H  0.535446	3.226364	-1.722176
| 61> O  0.329211	-0.588456	3.831346
| 62> H  -0.037245	-0.779008	4.713659
| 63> H  -0.458795	-0.278223	3.249541
| 64> O  -2.322304	2.561852	-0.917575
| 65> H  -1.534179	2.923322	-1.474834
| 66> H  -2.413167	1.628185	-1.226772
| 67> O  -2.299513	-3.307434	0.180263
| 68> H  -2.748578	-2.393546	0.435732
| 69> H  -2.868755	-4.006208	0.550424
| 70> **                         ****END OF INPUT****

CARTESIAN COORDINATES (ANGSTROEM)
---------------------------------
  O      1.947631   -2.231361    2.381999
  H      1.388019   -2.622649    1.654987
  H      1.303873   -1.756352    2.978585
  O      2.320459    0.484100   -0.720342
  H      2.244026    1.503086   -0.693792
  H      2.872240    0.203207    0.076254
  O      0.670263   -2.968967   -2.295467
  H      1.152354   -2.061792   -2.581531
  H      1.098226   -3.666273   -2.825786
  O      0.918402    3.349678    1.684387
  H      1.338784    2.644696    2.289210
  H     -0.063647    3.166236    1.674604
  O      2.025679    1.481285    3.164127
  H      2.626867    0.915953    2.609920
  H      1.396693    0.815836    3.546348
  O     -1.933141   -0.115006   -1.694218
  H     -2.033825   -1.091476   -2.046397
  H     -1.159997   -0.196114   -1.035121
  O      1.772323   -0.817555   -2.990342
  H      2.119351   -0.335515   -2.180999
  H      1.045825   -0.218088   -3.324335
  O     -1.422996    0.204606    2.121245
  H     -0.778674    0.043993    1.345263
  H     -1.608404    1.202125    2.035280
  O     -3.294975   -1.013981    0.645290
  H     -2.692078   -0.557738    1.312481
  H     -3.062884   -0.563386   -0.206347
  O     -1.717846    2.716111    1.503256
  H     -2.379298    3.314760    1.896434
  H     -1.980933    2.644639    0.462034
  O      1.817829    3.024409   -0.599716
  H      1.420993    3.184029    0.404960
  H      2.501655    3.708263   -0.725976
  O      0.007314   -0.383870    0.042580
  H      0.168545   -1.381437    0.173333
  H      0.915109    0.008410   -0.236174
  O      0.333353   -2.973768    0.321522
  H     -0.637825   -3.229757    0.381757
  H      0.573068   -3.119652   -0.648174
  O     -2.009392   -2.578358   -2.427389
  H     -2.237756   -3.013625   -1.560270
  H     -1.032487   -2.777699   -2.513846
  O     -0.340482    0.799219   -3.571091
  H     -0.790366    0.786386   -4.436674
  H     -1.033453    0.454926   -2.901123
  O      3.381487   -0.306751    1.556016
  H      4.313031   -0.522062    1.744999
  H      2.825975   -1.141770    1.873191
  O     -0.259151    3.284300   -2.328393
  H     -0.176387    2.477827   -2.899056
  H      0.535446    3.226364   -1.722176
  O      0.329211   -0.588456    3.831346
  H     -0.037245   -0.779008    4.713659
  H     -0.458795   -0.278223    3.249541
  O     -2.322304    2.561852   -0.917575
  H     -1.534179    2.923322   -1.474834
  H     -2.413167    1.628185   -1.226772
  O     -2.299513   -3.307434    0.180263
  H     -2.748578   -2.393546    0.435732
  H     -2.868755   -4.006208    0.550424

 Total Charge           Charge          ....    0
 Multiplicity           Mult            ....    1
 Number of Electrons    NEL             ....  200
 Basis Dimension        Dim             ....  940

ORBITAL ENERGIES
----------------

  NO   OCC          E(Eh)            E(eV)
   0   2.0000     -19.259253      -524.0709
   1   2.0000     -19.255907      -523.9799
   2   2.0000     -19.255465      -523.9678
   3   2.0000     -19.251017      -523.8468
   4   2.0000     -19.249144      -523.7959
   5   2.0000     -19.244443      -523.6679
   6   2.0000     -19.243461      -523.6412
   7   2.0000     -19.242820      -523.6238
   8   2.0000     -19.241991      -523.6012
   9   2.0000     -19.240704      -523.5662
  10   2.0000     -19.238710      -523.5119
  11   2.0000     -19.236758      -523.4588
  12   2.0000     -19.236456      -523.4506
  13   2.0000     -19.234883      -523.4078
  14   2.0000     -19.234519      -523.3979
  15   2.0000     -19.233155      -523.3608
  16   2.0000     -19.228410      -523.2316
  17   2.0000     -19.222215      -523.0631
  18   2.0000     -19.220386      -523.0133
  19   2.0000     -19.218296      -522.9564
  20   2.0000      -1.162021       -31.6202
  21   2.0000      -1.151291       -31.3282
  22   2.0000      -1.149204       -31.2714
  23   2.0000      -1.146775       -31.2053
  24   2.0000      -1.140567       -31.0364
  25   2.0000      -1.140394       -31.0317
  26   2.0000      -1.136201       -30.9176
  27   2.0000      -1.132849       -30.8264
  28   2.0000      -1.130664       -30.7669
  29   2.0000      -1.129138       -30.7254
  30   2.0000      -1.121133       -30.5076
  31   2.0000      -1.118135       -30.4260
  32   2.0000      -1.113173       -30.2910
  33   2.0000      -1.112188       -30.2642
  34   2.0000      -1.107032       -30.1239
  35   2.0000      -1.104125       -30.0448
  36   2.0000      -1.101005       -29.9599
  37   2.0000      -1.095822       -29.8188
  38   2.0000      -1.091470       -29.7004
  39   2.0000      -1.088004       -29.6061
  40   2.0000      -0.664365       -18.0783
  41   2.0000      -0.659824       -17.9547
  42   2.0000      -0.657009       -17.8781
  43   2.0000      -0.654512       -17.8102
  44   2.0000      -0.653011       -17.7693
  45   2.0000      -0.650527       -17.7017
  46   2.0000      -0.647692       -17.6246
  47   2.0000      -0.644339       -17.5334
  48   2.0000      -0.643160       -17.5013
  49   2.0000      -0.641138       -17.4463
  50   2.0000      -0.638058       -17.3624
  51   2.0000      -0.635868       -17.3028
  52   2.0000      -0.634559       -17.2672
  53   2.0000      -0.631144       -17.1743
  54   2.0000      -0.629320       -17.1247
  55   2.0000      -0.626965       -17.0606
  56   2.0000      -0.624774       -17.0010
  57   2.0000      -0.619892       -16.8681
  58   2.0000      -0.616100       -16.7649
  59   2.0000      -0.615780       -16.7562
  60   2.0000      -0.584356       -15.9011
  61   2.0000      -0.571523       -15.5519
  62   2.0000      -0.563020       -15.3206
  63   2.0000      -0.558316       -15.1925
  64   2.0000      -0.557525       -15.1710
  65   2.0000      -0.549265       -14.9463
  66   2.0000      -0.534656       -14.5487
  67   2.0000      -0.523902       -14.2561
  68   2.0000      -0.519314       -14.1313
  69   2.0000      -0.511125       -13.9084
  70   2.0000      -0.508513       -13.8373
  71   2.0000      -0.500066       -13.6075
  72   2.0000      -0.494745       -13.4627
  73   2.0000      -0.491803       -13.3826
  74   2.0000      -0.491171       -13.3654
  75   2.0000      -0.484563       -13.1856
  76   2.0000      -0.475863       -12.9489
  77   2.0000      -0.471456       -12.8290
  78   2.0000      -0.465007       -12.6535
  79   2.0000      -0.448821       -12.2130
  80   2.0000      -0.439214       -11.9516
  81   2.0000      -0.436686       -11.8828
  82   2.0000      -0.436131       -11.8677
  83   2.0000      -0.434101       -11.8125
  84   2.0000      -0.432139       -11.7591
  85   2.0000      -0.430369       -11.7109
  86   2.0000      -0.428687       -11.6652
  87   2.0000      -0.427675       -11.6376
  88   2.0000      -0.427303       -11.6275
  89   2.0000      -0.423628       -11.5275
  90   2.0000      -0.420925       -11.4539
  91   2.0000      -0.419738       -11.4216
  92   2.0000      -0.418635       -11.3916
  93   2.0000      -0.417923       -11.3723
  94   2.0000      -0.414051       -11.2669
  95   2.0000      -0.413269       -11.2456
  96   2.0000      -0.411263       -11.1910
  97   2.0000      -0.406365       -11.0577
  98   2.0000      -0.400868       -10.9082
  99   2.0000      -0.398605       -10.8466
 100   0.0000       0.045165         1.2290
 101   0.0000       0.063300         1.7225
 102   0.0000       0.065968         1.7951
 103   0.0000       0.070844         1.9278
 104   0.0000       0.080510         2.1908

MULLIKEN ATOMIC CHARGES
-----------------------
   0 O :   -0.762197
   1 H :    0.429951
   2 H :    0.409076
   3 O :   -0.844556
   4 H :    0.437243
   5 H :    0.432140
   6 O :   -0.872101
   7 H :    0.433691
   8 H :    0.365442
   9 O :   -0.789548
  10 H :    0.461545
  11 H :    0.412034
  12 O :   -0.768638
  13 H :    0.397817
  14 H :    0.402706
  15 O :   -1.085191
  16 H :    0.490599
  17 H :    0.443592
  18 O :   -0.766596
  19 H :    0.423097
  20 H :    0.417546
  21 O :   -0.885448
  22 H :    0.401277
  23 H :    0.462054
  24 O :   -0.745536
  25 H :    0.435796
  26 H :    0.390484
  27 O :   -0.841672
  28 H :    0.364798
  29 H :    0.443466
  30 O :   -0.834840
  31 H :    0.431003
  32 H :    0.359661
  33 O :   -0.845542
  34 H :    0.366605
  35 H :    0.405433
  36 O :   -0.817693
  37 H :    0.445099
  38 H :    0.432293
  39 O :   -0.717478
  40 H :    0.404393
  41 H :    0.402075
  42 O :   -0.792133
  43 H :    0.369003
  44 H :    0.421337
  45 O :   -0.853179
  46 H :    0.364136
  47 H :    0.420490
  48 O :   -0.770578
  49 H :    0.384481
  50 H :    0.404569
  51 O :   -0.844227
  52 H :    0.362720
  53 H :    0.422102
  54 O :   -0.812940
  55 H :    0.465057
  56 H :    0.412857
  57 O :   -0.870909
  58 H :    0.426182
  59 H :    0.367153
Sum of atomic charges:   -0.0000000

LOEWDIN ATOMIC CHARGES
----------------------
   0 O :   -0.355503
   1 H :    0.200697
   2 H :    0.198877
   3 O :   -0.397595
   4 H :    0.195393
   5 H :    0.196720
   6 O :   -0.420597
   7 H :    0.191049
   8 H :    0.195540
   9 O :   -0.337889
  10 H :    0.198465
  11 H :    0.195674
  12 O :   -0.385720
  13 H :    0.195672
  14 H :    0.195256
  15 O :   -0.463993
  16 H :    0.194973
  17 H :    0.189354
  18 O :   -0.348272
  19 H :    0.201473
  20 H :    0.199451
  21 O :   -0.404889
  22 H :    0.192212
  23 H :    0.197465
  24 O :   -0.352330
  25 H :    0.199817
  26 H :    0.201607
  27 O :   -0.415533
  28 H :    0.195691
  29 H :    0.189705
  30 O :   -0.421832
  31 H :    0.184402
  32 H :    0.193609
  33 O :   -0.412893
  34 H :    0.191850
  35 H :    0.194241
  36 O :   -0.397773
  37 H :    0.200412
  38 H :    0.198889
  39 O :   -0.368411
  40 H :    0.196723
  41 H :    0.195851
  42 O :   -0.392065
  43 H :    0.200140
  44 H :    0.197084
  45 O :   -0.409547
  46 H :    0.195584
  47 H :    0.192606
  48 O :   -0.378478
  49 H :    0.192428
  50 H :    0.193333
  51 O :   -0.401628
  52 H :    0.196188
  53 H :    0.194182
  54 O :   -0.351302
  55 H :    0.199580
  56 H :    0.199928
  57 O :   -0.414357
  58 H :    0.192592
  59 H :    0.195895

  Mayer bond orders larger than 0.1
B(  0-O ,  1-H ) :   0.8323 B(  0-O ,  2-H ) :   0.8356 B(  0-O , 47-H ) :   0.1741
B(  3-O ,  4-H ) :   0.7611 B(  3-O ,  5-H ) :   0.7845 B(  3-O , 33-O ) :  -0.1048
B(  3-O , 35-H ) :   0.2022 B(  4-H , 30-O ) :   0.1081 B(  6-O ,  7-H ) :   0.6673
B(  6-O ,  8-H ) :   0.8733 B(  7-H , 18-O ) :   0.2059 B(  9-O , 10-H ) :   0.7728
B(  9-O , 11-H ) :   0.8290 B(  9-O , 31-H ) :   0.2544 B( 12-O , 13-H ) :   0.8451
B( 12-O , 14-H ) :   0.8460 B( 15-O , 16-H ) :   0.7280 B( 15-O , 17-H ) :   0.7993
B( 15-O , 33-O ) :  -0.1197 B( 15-O , 39-O ) :   0.1506 B( 16-H , 39-O ) :   0.1129
B( 17-H , 33-O ) :   0.1082 B( 18-O , 19-H ) :   0.8167 B( 18-O , 20-H ) :   0.8365
B( 21-O , 22-H ) :   0.8031 B( 21-O , 23-H ) :   0.7606 B( 24-O , 25-H ) :   0.7936
B( 24-O , 26-H ) :   0.8476 B( 24-O , 58-H ) :   0.1761 B( 27-O , 28-H ) :   0.8732
B( 27-O , 29-H ) :   0.6626 B( 29-H , 54-O ) :   0.2010 B( 30-O , 31-H ) :   0.6307
B( 30-O , 32-H ) :   0.8771 B( 33-O , 34-H ) :   0.7357 B( 33-O , 35-H ) :   0.7092
B( 34-H , 36-O ) :   0.2008 B( 36-O , 37-H ) :   0.7995 B( 36-O , 38-H ) :   0.7919
B( 39-O , 40-H ) :   0.8472 B( 39-O , 41-H ) :   0.8414 B( 42-O , 43-H ) :   0.8768
B( 42-O , 44-H ) :   0.7791 B( 45-O , 46-H ) :   0.8738 B( 45-O , 47-H ) :   0.7038
B( 48-O , 49-H ) :   0.8632 B( 48-O , 50-H ) :   0.8311 B( 48-O , 55-H ) :   0.1013
B( 51-O , 52-H ) :   0.8719 B( 51-O , 53-H ) :   0.7535 B( 54-O , 55-H ) :   0.7407
B( 54-O , 56-H ) :   0.8448 B( 57-O , 58-H ) :   0.7001 B( 57-O , 59-H ) :   0.8707

Dispersion correction           -0.042666570
FINAL SINGLE POINT ENERGY     -1529.143209820566

DIPOLE MOMENT
-------------
                                X             Y             Z
Electronic contribution:      0.00636       0.33859       0.01726
Nuclear contribution   :      0.21895      -1.74815       0.32846
                        -----------------------------------------
Total Dipole Moment    :      0.22531      -1.40956       0.34572
                        -----------------------------------------
Magnitude (a.u.)       :      1.46873
Magnitude (Debye)      :      3.73321

                             ****ORCA TERMINATED NORMALLY****
TOTAL RUN TIME: 0 days 0 hours 49 minutes 31 seconds 524 msec
