                         Program Version 3.0.3 - RELEASE   -
|  1> ! B3LYP Def2-TZVP def2-TZVP/J RIJCOSX TightSCF Grid4 D3BJ COSMO
|  2>
|  3> %pal nprocs 12 end
|  4>
|  5> %scf
|  6>         maxiter 400
|  7> end
|  8>
|  9> %cosmo
| 10>         SMD true
| 11>         solvent "WATER"
| 12> end
| 13>
| 14> * xyz  0  1
| 15> O  1.940436	-2.245649	2.391449
| 16> H  1.368513	-2.589788	1.649342
| 17> H  1.311359	-1.727009	2.975650
| 18> O  2.319620	0.468972	-0.729034
| 19> H  2.181661	1.478294	-0.687761
| 20> H  2.847492	0.212664	0.097295
| 21> O  0.602228	-2.936677	-2.299265
| 22> H  1.124992	-2.088913	-2.601957
| 23> H  1.003657	-3.679741	-2.791958
| 24> O  0.931028	3.364393	1.789243
| 25> H  1.323258	2.610084	2.349635
| 26> H  -0.049826	3.170867	1.723929
| 27> O  2.081772	1.492156	3.256882
| 28> H  2.648321	0.937474	2.646457
| 29> H  1.430271	0.813043	3.595248
| 30> O  -1.916022	-0.151471	-1.691839
| 31> H  -2.048948	-1.111177	-2.062827
| 32> H  -1.132708	-0.267037	-1.047004
| 33> O  1.833082	-0.801619	-3.035143
| 34> H  2.139259	-0.359643	-2.188180
| 35> H  1.080796	-0.203031	-3.322645
| 36> O  -1.417972	0.190345	2.105832
| 37> H  -0.782332	0.004379	1.331828
| 38> H  -1.575314	1.190009	2.005153
| 39> O  -3.362176	-0.911964	0.625406
| 40> H  -2.723535	-0.496795	1.287088
| 41> H  -3.050834	-0.528084	-0.235924
| 42> O  -1.670547	2.717776	1.484773
| 43> H  -2.364220	3.245015	1.928313
| 44> H  -1.968997	2.642136	0.490284
| 45> O  1.718908	3.002587	-0.597380
| 46> H  1.416953	3.172667	0.395833
| 47> H  2.460414	3.621755	-0.751898
| 48> O  0.021122	-0.431626	0.033373
| 49> H  0.185576	-1.427619	0.174931
| 50> H  0.928810	-0.043748	-0.253320
| 51> O  0.342178	-3.016950	0.321491
| 52> H  -0.643281	-3.222979	0.379962
| 53> H  0.552568	-3.113010	-0.664447
| 54> O  -2.059185	-2.623190	-2.443528
| 55> H  -2.255560	-2.998065	-1.534306
| 56> H  -1.068997	-2.784377	-2.519223
| 57> O  -0.259372	0.840390	-3.519887
| 58> H  -0.658268	0.824212	-4.413225
| 59> H  -0.974585	0.464763	-2.906175
| 60> O  3.338418	-0.233384	1.576131
| 61> H  4.286306	-0.436442	1.702959
| 62> H  2.828595	-1.086766	1.869136
| 63> O  -0.280855	3.321421	-2.373589
| 64> H  -0.200502	2.474668	-2.897418
| 65> H  0.474830	3.251332	-1.714624
| 66> O  0.397422	-0.549355	3.819012
| 67> H  0.038084	-0.774483	4.699547
| 68> H  -0.403751	-0.266392	3.256978
| 69> O  -2.367536	2.510313	-0.978301
| 70> H  -1.580060	2.885180	-1.512621
| 71> H  -2.391555	1.559513	-1.255814
| 72> O  -2.296339	-3.246329	0.169231
| 73> H  -2.771323	-2.376829	0.441132
| 74> H  -2.847831	-3.976340	0.512879
| 75> **                         ****END OF INPUT****

CARTESIAN COORDINATES (ANGSTROEM)
---------------------------------
  O      1.940436   -2.245649    2.391449
  H      1.368513   -2.589788    1.649342
  H      1.311359   -1.727009    2.975650
  O      2.319620    0.468972   -0.729034
  H      2.181661    1.478294   -0.687761
  H      2.847492    0.212664    0.097295
  O      0.602228   -2.936677   -2.299265
  H      1.124992   -2.088913   -2.601957
  H      1.003657   -3.679741   -2.791958
  O      0.931028    3.364393    1.789243
  H      1.323258    2.610084    2.349635
  H     -0.049826    3.170867    1.723929
  O      2.081772    1.492156    3.256882
  H      2.648321    0.937474    2.646457
  H      1.430271    0.813043    3.595248
  O     -1.916022   -0.151471   -1.691839
  H     -2.048948   -1.111177   -2.062827
  H     -1.132708   -0.267037   -1.047004
  O      1.833082   -0.801619   -3.035143
  H      2.139259   -0.359643   -2.188180
  H      1.080796   -0.203031   -3.322645
  O     -1.417972    0.190345    2.105832
  H     -0.782332    0.004379    1.331828
  H     -1.575314    1.190009    2.005153
  O     -3.362176   -0.911964    0.625406
  H     -2.723535   -0.496795    1.287088
  H     -3.050834   -0.528084   -0.235924
  O     -1.670547    2.717776    1.484773
  H     -2.364220    3.245015    1.928313
  H     -1.968997    2.642136    0.490284
  O      1.718908    3.002587   -0.597380
  H      1.416953    3.172667    0.395833
  H      2.460414    3.621755   -0.751898
  O      0.021122   -0.431626    0.033373
  H      0.185576   -1.427619    0.174931
  H      0.928810   -0.043748   -0.253320
  O      0.342178   -3.016950    0.321491
  H     -0.643281   -3.222979    0.379962
  H      0.552568   -3.113010   -0.664447
  O     -2.059185   -2.623190   -2.443528
  H     -2.255560   -2.998065   -1.534306
  H     -1.068997   -2.784377   -2.519223
  O     -0.259372    0.840390   -3.519887
  H     -0.658268    0.824212   -4.413225
  H     -0.974585    0.464763   -2.906175
  O      3.338418   -0.233384    1.576131
  H      4.286306   -0.436442    1.702959
  H      2.828595   -1.086766    1.869136
  O     -0.280855    3.321421   -2.373589
  H     -0.200502    2.474668   -2.897418
  H      0.474830    3.251332   -1.714624
  O      0.397422   -0.549355    3.819012
  H      0.038084   -0.774483    4.699547
  H     -0.403751   -0.266392    3.256978
  O     -2.367536    2.510313   -0.978301
  H     -1.580060    2.885180   -1.512621
  H     -2.391555    1.559513   -1.255814
  O     -2.296339   -3.246329    0.169231
  H     -2.771323   -2.376829    0.441132
  H     -2.847831   -3.976340    0.512879

 Total Charge           Charge          ....    0
 Multiplicity           Mult            ....    1
 Number of Electrons    NEL             ....  200
 Basis Dimension        Dim             ....  860

ORBITAL ENERGIES
----------------

  NO   OCC          E(Eh)            E(eV)
   0   2.0000     -19.138718      -520.7910
   1   2.0000     -19.134572      -520.6782
   2   2.0000     -19.131954      -520.6069
   3   2.0000     -19.131730      -520.6008
   4   2.0000     -19.131646      -520.5986
   5   2.0000     -19.131078      -520.5831
   6   2.0000     -19.128793      -520.5209
   7   2.0000     -19.127700      -520.4912
   8   2.0000     -19.126914      -520.4698
   9   2.0000     -19.126216      -520.4508
  10   2.0000     -19.125918      -520.4427
  11   2.0000     -19.123507      -520.3771
  12   2.0000     -19.121868      -520.3325
  13   2.0000     -19.120995      -520.3087
  14   2.0000     -19.120626      -520.2987
  15   2.0000     -19.120252      -520.2885
  16   2.0000     -19.119081      -520.2566
  17   2.0000     -19.114654      -520.1362
  18   2.0000     -19.114432      -520.1301
  19   2.0000     -19.112913      -520.0888
  20   2.0000      -1.037400       -28.2291
  21   2.0000      -1.025315       -27.9002
  22   2.0000      -1.023967       -27.8636
  23   2.0000      -1.022746       -27.8303
  24   2.0000      -1.016738       -27.6668
  25   2.0000      -1.015083       -27.6218
  26   2.0000      -1.014448       -27.6045
  27   2.0000      -1.010537       -27.4981
  28   2.0000      -1.007552       -27.4169
  29   2.0000      -1.007076       -27.4039
  30   2.0000      -1.000961       -27.2375
  31   2.0000      -0.998356       -27.1666
  32   2.0000      -0.995065       -27.0771
  33   2.0000      -0.992181       -26.9986
  34   2.0000      -0.985073       -26.8052
  35   2.0000      -0.981293       -26.7023
  36   2.0000      -0.980406       -26.6782
  37   2.0000      -0.977892       -26.6098
  38   2.0000      -0.974900       -26.5284
  39   2.0000      -0.972051       -26.4509
  40   2.0000      -0.545506       -14.8440
  41   2.0000      -0.541446       -14.7335
  42   2.0000      -0.538241       -14.6463
  43   2.0000      -0.537969       -14.6389
  44   2.0000      -0.536052       -14.5867
  45   2.0000      -0.534416       -14.5422
  46   2.0000      -0.533362       -14.5135
  47   2.0000      -0.531408       -14.4603
  48   2.0000      -0.529462       -14.4074
  49   2.0000      -0.527736       -14.3604
  50   2.0000      -0.527049       -14.3417
  51   2.0000      -0.524208       -14.2644
  52   2.0000      -0.523207       -14.2372
  53   2.0000      -0.521287       -14.1849
  54   2.0000      -0.519871       -14.1464
  55   2.0000      -0.516919       -14.0661
  56   2.0000      -0.516264       -14.0482
  57   2.0000      -0.514009       -13.9869
  58   2.0000      -0.512474       -13.9451
  59   2.0000      -0.509112       -13.8536
  60   2.0000      -0.468589       -12.7509
  61   2.0000      -0.458390       -12.4734
  62   2.0000      -0.453024       -12.3274
  63   2.0000      -0.447019       -12.1640
  64   2.0000      -0.446333       -12.1453
  65   2.0000      -0.441944       -12.0259
  66   2.0000      -0.423150       -11.5145
  67   2.0000      -0.418273       -11.3818
  68   2.0000      -0.416199       -11.3254
  69   2.0000      -0.406396       -11.0586
  70   2.0000      -0.400850       -10.9077
  71   2.0000      -0.397451       -10.8152
  72   2.0000      -0.394071       -10.7232
  73   2.0000      -0.389838       -10.6080
  74   2.0000      -0.388199       -10.5634
  75   2.0000      -0.383538       -10.4366
  76   2.0000      -0.372323       -10.1314
  77   2.0000      -0.370506       -10.0820
  78   2.0000      -0.365158        -9.9364
  79   2.0000      -0.352186        -9.5835
  80   2.0000      -0.330431        -8.9915
  81   2.0000      -0.329505        -8.9663
  82   2.0000      -0.328452        -8.9376
  83   2.0000      -0.328011        -8.9256
  84   2.0000      -0.326085        -8.8732
  85   2.0000      -0.325201        -8.8492
  86   2.0000      -0.324292        -8.8244
  87   2.0000      -0.323419        -8.8007
  88   2.0000      -0.321955        -8.7608
  89   2.0000      -0.321437        -8.7467
  90   2.0000      -0.321109        -8.7378
  91   2.0000      -0.318829        -8.6758
  92   2.0000      -0.318120        -8.6565
  93   2.0000      -0.316125        -8.6022
  94   2.0000      -0.315350        -8.5811
  95   2.0000      -0.313448        -8.5294
  96   2.0000      -0.311951        -8.4886
  97   2.0000      -0.311395        -8.4735
  98   2.0000      -0.309437        -8.4202
  99   2.0000      -0.308499        -8.3947
 100   0.0000       0.004599         0.1251
 101   0.0000       0.034168         0.9297
 102   0.0000       0.037824         1.0293
 103   0.0000       0.043733         1.1900
 104   0.0000       0.057881         1.5750

MULLIKEN ATOMIC CHARGES
-----------------------
   0 O :   -0.751398
   1 H :    0.396054
   2 H :    0.372037
   3 O :   -0.782057
   4 H :    0.389634
   5 H :    0.387898
   6 O :   -0.755443
   7 H :    0.378563
   8 H :    0.389239
   9 O :   -0.762065
  10 H :    0.380757
  11 H :    0.378051
  12 O :   -0.769524
  13 H :    0.373218
  14 H :    0.369329
  15 O :   -0.855875
  16 H :    0.404852
  17 H :    0.384024
  18 O :   -0.756046
  19 H :    0.394777
  20 H :    0.379036
  21 O :   -0.791275
  22 H :    0.381150
  23 H :    0.391843
  24 O :   -0.750435
  25 H :    0.391111
  26 H :    0.367435
  27 O :   -0.753829
  28 H :    0.389250
  29 H :    0.382996
  30 O :   -0.753559
  31 H :    0.379649
  32 H :    0.387195
  33 O :   -0.798153
  34 H :    0.364085
  35 H :    0.385378
  36 O :   -0.769923
  37 H :    0.391257
  38 H :    0.386147
  39 O :   -0.754894
  40 H :    0.368700
  41 H :    0.371448
  42 O :   -0.741809
  43 H :    0.391104
  44 H :    0.383324
  45 O :   -0.749307
  46 H :    0.387303
  47 H :    0.380725
  48 O :   -0.771136
  49 H :    0.373139
  50 H :    0.376216
  51 O :   -0.748118
  52 H :    0.386773
  53 H :    0.397459
  54 O :   -0.756968
  55 H :    0.381216
  56 H :    0.380075
  57 O :   -0.751291
  58 H :    0.379879
  59 H :    0.390776
Sum of atomic charges:    0.0000000

LOEWDIN ATOMIC CHARGES
----------------------
   0 O :   -0.314527
   1 H :    0.149071
   2 H :    0.146991
   3 O :   -0.290734
   4 H :    0.141748
   5 H :    0.143233
   6 O :   -0.284248
   7 H :    0.145921
   8 H :    0.186968
   9 O :   -0.319898
  10 H :    0.143585
  11 H :    0.142904
  12 O :   -0.342375
  13 H :    0.145130
  14 H :    0.144236
  15 O :   -0.332789
  16 H :    0.141771
  17 H :    0.127537
  18 O :   -0.316291
  19 H :    0.146767
  20 H :    0.146742
  21 O :   -0.298728
  22 H :    0.133372
  23 H :    0.144298
  24 O :   -0.317979
  25 H :    0.146377
  26 H :    0.147211
  27 O :   -0.280079
  28 H :    0.187522
  29 H :    0.145664
  30 O :   -0.281222
  31 H :    0.142130
  32 H :    0.185142
  33 O :   -0.284889
  34 H :    0.134347
  35 H :    0.135257
  36 O :   -0.299686
  37 H :    0.147181
  38 H :    0.145842
  39 O :   -0.324721
  40 H :    0.145260
  41 H :    0.143991
  42 O :   -0.274602
  43 H :    0.192044
  44 H :    0.148210
  45 O :   -0.280573
  46 H :    0.186771
  47 H :    0.147830
  48 O :   -0.343381
  49 H :    0.144599
  50 H :    0.143436
  51 O :   -0.282742
  52 H :    0.188377
  53 H :    0.148104
  54 O :   -0.317069
  55 H :    0.146557
  56 H :    0.147839
  57 O :   -0.282555
  58 H :    0.149697
  59 H :    0.189428

  Mayer bond orders larger than 0.1
B(  0-O ,  1-H ) :   0.7996 B(  0-O ,  2-H ) :   0.7877 B(  0-O , 47-H ) :   0.1900
B(  2-H , 51-O ) :   0.1198 B(  3-O ,  4-H ) :   0.7321 B(  3-O ,  5-H ) :   0.7466
B(  3-O , 35-H ) :   0.2206 B(  4-H , 30-O ) :   0.1628 B(  5-H , 45-O ) :   0.1498
B(  6-O ,  7-H ) :   0.7002 B(  6-O ,  8-H ) :   0.8493 B(  6-O , 38-H ) :   0.1458
B(  6-O , 41-H ) :   0.1315 B(  7-H , 18-O ) :   0.2057 B(  9-O , 10-H ) :   0.7529
B(  9-O , 11-H ) :   0.7863 B(  9-O , 31-H ) :   0.2276 B( 10-H , 12-O ) :   0.1534
B( 11-H , 27-O ) :   0.1150 B( 12-O , 13-H ) :   0.7940 B( 12-O , 14-H ) :   0.7938
B( 13-H , 45-O ) :   0.1157 B( 14-H , 51-O ) :   0.1207 B( 15-O , 16-H ) :   0.6976
B( 15-O , 17-H ) :   0.7334 B( 15-O , 44-H ) :   0.1202 B( 16-H , 39-O ) :   0.1984
B( 17-H , 33-O ) :   0.1384 B( 18-O , 19-H ) :   0.7888 B( 18-O , 20-H ) :   0.7897
B( 20-H , 42-O ) :   0.1129 B( 21-O , 22-H ) :   0.7554 B( 21-O , 23-H ) :   0.7407
B( 21-O , 25-H ) :   0.1214 B( 21-O , 53-H ) :   0.1212 B( 22-H , 33-O ) :   0.1315
B( 23-H , 27-O ) :   0.1528 B( 24-O , 25-H ) :   0.7724 B( 24-O , 26-H ) :   0.8268
B( 24-O , 58-H ) :   0.1703 B( 27-O , 28-H ) :   0.8488 B( 27-O , 29-H ) :   0.7035
B( 29-H , 54-O ) :   0.1951 B( 30-O , 31-H ) :   0.6816 B( 30-O , 32-H ) :   0.8507
B( 30-O , 50-H ) :   0.1258 B( 33-O , 34-H ) :   0.7244 B( 33-O , 35-H ) :   0.6941
B( 34-H , 36-O ) :   0.1985 B( 36-O , 37-H ) :   0.7646 B( 36-O , 38-H ) :   0.7564
B( 37-H , 57-O ) :   0.1271 B( 39-O , 40-H ) :   0.7916 B( 39-O , 41-H ) :   0.7836
B( 40-H , 57-O ) :   0.1254 B( 42-O , 43-H ) :   0.8473 B( 42-O , 44-H ) :   0.7587
B( 42-O , 49-H ) :   0.1043 B( 45-O , 46-H ) :   0.8499 B( 45-O , 47-H ) :   0.7130
B( 48-O , 49-H ) :   0.8020 B( 48-O , 50-H ) :   0.7813 B( 48-O , 55-H ) :   0.1738
B( 51-O , 52-H ) :   0.8496 B( 51-O , 53-H ) :   0.7487 B( 54-O , 55-H ) :   0.7403
B( 54-O , 56-H ) :   0.8264 B( 57-O , 58-H ) :   0.7288 B( 57-O , 59-H ) :   0.8470

Dispersion correction           -0.079034132
FINAL SINGLE POINT ENERGY     -1528.966188017144

DIPOLE MOMENT
-------------
                                X             Y             Z
Electronic contribution:      0.22269      -0.26947       0.12709
Nuclear contribution   :      0.28872      -2.09796       0.28512
                        -----------------------------------------
Total Dipole Moment    :      0.51141      -2.36743       0.41220
                        -----------------------------------------
Magnitude (a.u.)       :      2.45686
Magnitude (Debye)      :      6.24485

                             ****ORCA TERMINATED NORMALLY****
TOTAL RUN TIME: 0 days 0 hours 2 minutes 52 seconds 675 msec
