                         Program Version 3.0.3 - RELEASE   -
|  1> ! wB97X-D3 Def2-TZVP def2-TZVP/J RIJCOSX TightSCF Grid4 COSMO
|  2>
|  3> %pal nprocs 12 end
|  4>
|  5> %scf
|  6>         maxiter 400
|  7> end
|  8>
|  9> %cosmo
| 10>         SMD true
| 11>         solvent "WATER"
| 12> end
| 13>
| 14> * xyz  0  1
| 15> O  1.940436	-2.245649	2.391449
| 16> H  1.368513	-2.589788	1.649342
| 17> H  1.311359	-1.727009	2.975650
| 18> O  2.319620	0.468972	-0.729034
| 19> H  2.181661	1.478294	-0.687761
| 20> H  2.847492	0.212664	0.097295
| 21> O  0.602228	-2.936677	-2.299265
| 22> H  1.124992	-2.088913	-2.601957
| 23> H  1.003657	-3.679741	-2.791958
| 24> O  0.931028	3.364393	1.789243
| 25> H  1.323258	2.610084	2.349635
| 26> H  -0.049826	3.170867	1.723929
| 27> O  2.081772	1.492156	3.256882
| 28> H  2.648321	0.937474	2.646457
| 29> H  1.430271	0.813043	3.595248
| 30> O  -1.916022	-0.151471	-1.691839
| 31> H  -2.048948	-1.111177	-2.062827
| 32> H  -1.132708	-0.267037	-1.047004
| 33> O  1.833082	-0.801619	-3.035143
| 34> H  2.139259	-0.359643	-2.188180
| 35> H  1.080796	-0.203031	-3.322645
| 36> O  -1.417972	0.190345	2.105832
| 37> H  -0.782332	0.004379	1.331828
| 38> H  -1.575314	1.190009	2.005153
| 39> O  -3.362176	-0.911964	0.625406
| 40> H  -2.723535	-0.496795	1.287088
| 41> H  -3.050834	-0.528084	-0.235924
| 42> O  -1.670547	2.717776	1.484773
| 43> H  -2.364220	3.245015	1.928313
| 44> H  -1.968997	2.642136	0.490284
| 45> O  1.718908	3.002587	-0.597380
| 46> H  1.416953	3.172667	0.395833
| 47> H  2.460414	3.621755	-0.751898
| 48> O  0.021122	-0.431626	0.033373
| 49> H  0.185576	-1.427619	0.174931
| 50> H  0.928810	-0.043748	-0.253320
| 51> O  0.342178	-3.016950	0.321491
| 52> H  -0.643281	-3.222979	0.379962
| 53> H  0.552568	-3.113010	-0.664447
| 54> O  -2.059185	-2.623190	-2.443528
| 55> H  -2.255560	-2.998065	-1.534306
| 56> H  -1.068997	-2.784377	-2.519223
| 57> O  -0.259372	0.840390	-3.519887
| 58> H  -0.658268	0.824212	-4.413225
| 59> H  -0.974585	0.464763	-2.906175
| 60> O  3.338418	-0.233384	1.576131
| 61> H  4.286306	-0.436442	1.702959
| 62> H  2.828595	-1.086766	1.869136
| 63> O  -0.280855	3.321421	-2.373589
| 64> H  -0.200502	2.474668	-2.897418
| 65> H  0.474830	3.251332	-1.714624
| 66> O  0.397422	-0.549355	3.819012
| 67> H  0.038084	-0.774483	4.699547
| 68> H  -0.403751	-0.266392	3.256978
| 69> O  -2.367536	2.510313	-0.978301
| 70> H  -1.580060	2.885180	-1.512621
| 71> H  -2.391555	1.559513	-1.255814
| 72> O  -2.296339	-3.246329	0.169231
| 73> H  -2.771323	-2.376829	0.441132
| 74> H  -2.847831	-3.976340	0.512879
| 75> **                         ****END OF INPUT****

CARTESIAN COORDINATES (ANGSTROEM)
---------------------------------
  O      1.940436   -2.245649    2.391449
  H      1.368513   -2.589788    1.649342
  H      1.311359   -1.727009    2.975650
  O      2.319620    0.468972   -0.729034
  H      2.181661    1.478294   -0.687761
  H      2.847492    0.212664    0.097295
  O      0.602228   -2.936677   -2.299265
  H      1.124992   -2.088913   -2.601957
  H      1.003657   -3.679741   -2.791958
  O      0.931028    3.364393    1.789243
  H      1.323258    2.610084    2.349635
  H     -0.049826    3.170867    1.723929
  O      2.081772    1.492156    3.256882
  H      2.648321    0.937474    2.646457
  H      1.430271    0.813043    3.595248
  O     -1.916022   -0.151471   -1.691839
  H     -2.048948   -1.111177   -2.062827
  H     -1.132708   -0.267037   -1.047004
  O      1.833082   -0.801619   -3.035143
  H      2.139259   -0.359643   -2.188180
  H      1.080796   -0.203031   -3.322645
  O     -1.417972    0.190345    2.105832
  H     -0.782332    0.004379    1.331828
  H     -1.575314    1.190009    2.005153
  O     -3.362176   -0.911964    0.625406
  H     -2.723535   -0.496795    1.287088
  H     -3.050834   -0.528084   -0.235924
  O     -1.670547    2.717776    1.484773
  H     -2.364220    3.245015    1.928313
  H     -1.968997    2.642136    0.490284
  O      1.718908    3.002587   -0.597380
  H      1.416953    3.172667    0.395833
  H      2.460414    3.621755   -0.751898
  O      0.021122   -0.431626    0.033373
  H      0.185576   -1.427619    0.174931
  H      0.928810   -0.043748   -0.253320
  O      0.342178   -3.016950    0.321491
  H     -0.643281   -3.222979    0.379962
  H      0.552568   -3.113010   -0.664447
  O     -2.059185   -2.623190   -2.443528
  H     -2.255560   -2.998065   -1.534306
  H     -1.068997   -2.784377   -2.519223
  O     -0.259372    0.840390   -3.519887
  H     -0.658268    0.824212   -4.413225
  H     -0.974585    0.464763   -2.906175
  O      3.338418   -0.233384    1.576131
  H      4.286306   -0.436442    1.702959
  H      2.828595   -1.086766    1.869136
  O     -0.280855    3.321421   -2.373589
  H     -0.200502    2.474668   -2.897418
  H      0.474830    3.251332   -1.714624
  O      0.397422   -0.549355    3.819012
  H      0.038084   -0.774483    4.699547
  H     -0.403751   -0.266392    3.256978
  O     -2.367536    2.510313   -0.978301
  H     -1.580060    2.885180   -1.512621
  H     -2.391555    1.559513   -1.255814
  O     -2.296339   -3.246329    0.169231
  H     -2.771323   -2.376829    0.441132
  H     -2.847831   -3.976340    0.512879

 Total Charge           Charge          ....    0
 Multiplicity           Mult            ....    1
 Number of Electrons    NEL             ....  200
 Basis Dimension        Dim             ....  860

ORBITAL ENERGIES
----------------

  NO   OCC          E(Eh)            E(eV)
   0   2.0000     -19.247058      -523.7391
   1   2.0000     -19.242803      -523.6233
   2   2.0000     -19.240165      -523.5515
   3   2.0000     -19.239912      -523.5446
   4   2.0000     -19.239904      -523.5444
   5   2.0000     -19.239310      -523.5282
   6   2.0000     -19.237885      -523.4895
   7   2.0000     -19.236886      -523.4623
   8   2.0000     -19.236266      -523.4454
   9   2.0000     -19.235760      -523.4316
  10   2.0000     -19.235230      -523.4172
  11   2.0000     -19.232745      -523.3496
  12   2.0000     -19.231294      -523.3101
  13   2.0000     -19.230236      -523.2813
  14   2.0000     -19.229833      -523.2704
  15   2.0000     -19.229489      -523.2610
  16   2.0000     -19.228286      -523.2283
  17   2.0000     -19.223820      -523.1067
  18   2.0000     -19.223623      -523.1014
  19   2.0000     -19.222210      -523.0629
  20   2.0000      -1.155413       -31.4404
  21   2.0000      -1.142551       -31.0904
  22   2.0000      -1.141100       -31.0509
  23   2.0000      -1.140072       -31.0229
  24   2.0000      -1.133539       -30.8452
  25   2.0000      -1.132025       -30.8040
  26   2.0000      -1.131465       -30.7887
  27   2.0000      -1.127447       -30.6794
  28   2.0000      -1.124491       -30.5990
  29   2.0000      -1.123941       -30.5840
  30   2.0000      -1.117837       -30.4179
  31   2.0000      -1.114948       -30.3393
  32   2.0000      -1.111911       -30.2566
  33   2.0000      -1.108888       -30.1744
  34   2.0000      -1.101576       -29.9754
  35   2.0000      -1.097638       -29.8683
  36   2.0000      -1.096800       -29.8454
  37   2.0000      -1.094262       -29.7764
  38   2.0000      -1.091266       -29.6949
  39   2.0000      -1.088449       -29.6182
  40   2.0000      -0.652236       -17.7482
  41   2.0000      -0.647658       -17.6237
  42   2.0000      -0.643693       -17.5158
  43   2.0000      -0.643342       -17.5062
  44   2.0000      -0.641072       -17.4445
  45   2.0000      -0.639889       -17.4123
  46   2.0000      -0.638424       -17.3724
  47   2.0000      -0.636686       -17.3251
  48   2.0000      -0.634662       -17.2700
  49   2.0000      -0.632668       -17.2158
  50   2.0000      -0.631739       -17.1905
  51   2.0000      -0.629955       -17.1419
  52   2.0000      -0.628405       -17.0998
  53   2.0000      -0.626402       -17.0453
  54   2.0000      -0.624920       -17.0049
  55   2.0000      -0.622064       -16.9272
  56   2.0000      -0.621241       -16.9048
  57   2.0000      -0.618547       -16.8315
  58   2.0000      -0.617131       -16.7930
  59   2.0000      -0.613891       -16.7048
  60   2.0000      -0.575222       -15.6526
  61   2.0000      -0.563845       -15.3430
  62   2.0000      -0.558635       -15.2012
  63   2.0000      -0.551813       -15.0156
  64   2.0000      -0.551410       -15.0046
  65   2.0000      -0.546649       -14.8751
  66   2.0000      -0.526974       -14.3397
  67   2.0000      -0.522280       -14.2120
  68   2.0000      -0.519542       -14.1375
  69   2.0000      -0.508950       -13.8492
  70   2.0000      -0.502207       -13.6658
  71   2.0000      -0.499425       -13.5901
  72   2.0000      -0.496997       -13.5240
  73   2.0000      -0.490838       -13.3564
  74   2.0000      -0.489044       -13.3076
  75   2.0000      -0.485334       -13.2066
  76   2.0000      -0.472262       -12.8509
  77   2.0000      -0.470902       -12.8139
  78   2.0000      -0.465671       -12.6716
  79   2.0000      -0.452204       -12.3051
  80   2.0000      -0.429558       -11.6889
  81   2.0000      -0.428363       -11.6563
  82   2.0000      -0.427795       -11.6409
  83   2.0000      -0.427154       -11.6235
  84   2.0000      -0.424827       -11.5601
  85   2.0000      -0.424408       -11.5487
  86   2.0000      -0.423572       -11.5260
  87   2.0000      -0.422453       -11.4955
  88   2.0000      -0.420982       -11.4555
  89   2.0000      -0.420649       -11.4464
  90   2.0000      -0.420025       -11.4294
  91   2.0000      -0.417269       -11.3545
  92   2.0000      -0.416766       -11.3408
  93   2.0000      -0.414598       -11.2818
  94   2.0000      -0.414048       -11.2668
  95   2.0000      -0.412201       -11.2165
  96   2.0000      -0.410700       -11.1757
  97   2.0000      -0.410130       -11.1602
  98   2.0000      -0.408347       -11.1117
  99   2.0000      -0.407784       -11.0964
 100   0.0000       0.082161         2.2357
 101   0.0000       0.117129         3.1873
 102   0.0000       0.121176         3.2974
 103   0.0000       0.127661         3.4738
 104   0.0000       0.145443         3.9577

MULLIKEN ATOMIC CHARGES
-----------------------
   0 O :   -0.757537
   1 H :    0.400876
   2 H :    0.377050
   3 O :   -0.791350
   4 H :    0.396592
   5 H :    0.397842
   6 O :   -0.783692
   7 H :    0.381932
   8 H :    0.410679
   9 O :   -0.767312
  10 H :    0.382761
  11 H :    0.382378
  12 O :   -0.778224
  13 H :    0.379319
  14 H :    0.376517
  15 O :   -0.864302
  16 H :    0.419885
  17 H :    0.359426
  18 O :   -0.764379
  19 H :    0.400728
  20 H :    0.385058
  21 O :   -0.800042
  22 H :    0.367199
  23 H :    0.403117
  24 O :   -0.760844
  25 H :    0.400464
  26 H :    0.374890
  27 O :   -0.779222
  28 H :    0.409937
  29 H :    0.384371
  30 O :   -0.780282
  31 H :    0.384281
  32 H :    0.407494
  33 O :   -0.780707
  34 H :    0.348954
  35 H :    0.380274
  36 O :   -0.778999
  37 H :    0.401838
  38 H :    0.396844
  39 O :   -0.765807
  40 H :    0.377023
  41 H :    0.377764
  42 O :   -0.764651
  43 H :    0.411758
  44 H :    0.382333
  45 O :   -0.776912
  46 H :    0.408385
  47 H :    0.383699
  48 O :   -0.778405
  49 H :    0.379105
  50 H :    0.380210
  51 O :   -0.775978
  52 H :    0.407915
  53 H :    0.403318
  54 O :   -0.765309
  55 H :    0.387765
  56 H :    0.388187
  57 O :   -0.780808
  58 H :    0.384205
  59 H :    0.412389
Sum of atomic charges:    0.0000000

LOEWDIN ATOMIC CHARGES
----------------------
   0 O :   -0.315620
   1 H :    0.149945
   2 H :    0.148032
   3 O :   -0.294264
   4 H :    0.143296
   5 H :    0.144951
   6 O :   -0.289782
   7 H :    0.147012
   8 H :    0.190355
   9 O :   -0.320945
  10 H :    0.144789
  11 H :    0.143933
  12 O :   -0.343461
  13 H :    0.146272
  14 H :    0.145500
  15 O :   -0.338076
  16 H :    0.144282
  17 H :    0.128029
  18 O :   -0.317567
  19 H :    0.147924
  20 H :    0.147976
  21 O :   -0.303138
  22 H :    0.133925
  23 H :    0.146154
  24 O :   -0.319230
  25 H :    0.148279
  26 H :    0.148812
  27 O :   -0.285180
  28 H :    0.190696
  29 H :    0.146678
  30 O :   -0.286651
  31 H :    0.143387
  32 H :    0.188330
  33 O :   -0.288082
  34 H :    0.135431
  35 H :    0.137090
  36 O :   -0.302948
  37 H :    0.148782
  38 H :    0.147563
  39 O :   -0.326320
  40 H :    0.146831
  41 H :    0.145363
  42 O :   -0.279535
  43 H :    0.195185
  44 H :    0.148999
  45 O :   -0.285829
  46 H :    0.190072
  47 H :    0.148777
  48 O :   -0.344338
  49 H :    0.145828
  50 H :    0.144415
  51 O :   -0.287733
  52 H :    0.191645
  53 H :    0.149273
  54 O :   -0.318169
  55 H :    0.148263
  56 H :    0.149062
  57 O :   -0.287881
  58 H :    0.150811
  59 H :    0.192803

  Mayer bond orders larger than 0.1
B(  0-O ,  1-H ) :   0.8015 B(  0-O ,  2-H ) :   0.7894 B(  0-O , 47-H ) :   0.1832
B(  2-H , 51-O ) :   0.1125 B(  3-O ,  4-H ) :   0.7347 B(  3-O ,  5-H ) :   0.7466
B(  3-O , 35-H ) :   0.2227 B(  4-H , 30-O ) :   0.1554 B(  5-H , 45-O ) :   0.1410
B(  6-O ,  7-H ) :   0.7056 B(  6-O ,  8-H ) :   0.8361 B(  6-O , 38-H ) :   0.1361
B(  6-O , 41-H ) :   0.1223 B(  7-H , 18-O ) :   0.1993 B(  9-O , 10-H ) :   0.7573
B(  9-O , 11-H ) :   0.7888 B(  9-O , 31-H ) :   0.2210 B( 10-H , 12-O ) :   0.1465
B( 11-H , 27-O ) :   0.1083 B( 12-O , 13-H ) :   0.7949 B( 12-O , 14-H ) :   0.7943
B( 13-H , 45-O ) :   0.1079 B( 14-H , 51-O ) :   0.1123 B( 15-O , 16-H ) :   0.6930
B( 15-O , 17-H ) :   0.7439 B( 15-O , 44-H ) :   0.1143 B( 16-H , 39-O ) :   0.1897
B( 17-H , 33-O ) :   0.1504 B( 18-O , 19-H ) :   0.7897 B( 18-O , 20-H ) :   0.7909
B( 20-H , 42-O ) :   0.1043 B( 21-O , 22-H ) :   0.7631 B( 21-O , 23-H ) :   0.7397
B( 21-O , 25-H ) :   0.1101 B( 21-O , 53-H ) :   0.1124 B( 22-H , 33-O ) :   0.1374
B( 23-H , 27-O ) :   0.1438 B( 24-O , 25-H ) :   0.7726 B( 24-O , 26-H ) :   0.8262
B( 24-O , 58-H ) :   0.1637 B( 27-O , 28-H ) :   0.8363 B( 27-O , 29-H ) :   0.7092
B( 29-H , 54-O ) :   0.1904 B( 30-O , 31-H ) :   0.6862 B( 30-O , 32-H ) :   0.8385
B( 30-O , 50-H ) :   0.1178 B( 33-O , 34-H ) :   0.7315 B( 33-O , 35-H ) :   0.6984
B( 34-H , 36-O ) :   0.2042 B( 36-O , 37-H ) :   0.7634 B( 36-O , 38-H ) :   0.7559
B( 37-H , 57-O ) :   0.1187 B( 39-O , 40-H ) :   0.7917 B( 39-O , 41-H ) :   0.7848
B( 40-H , 57-O ) :   0.1153 B( 42-O , 43-H ) :   0.8347 B( 42-O , 44-H ) :   0.7671
B( 45-O , 46-H ) :   0.8372 B( 45-O , 47-H ) :   0.7184 B( 48-O , 49-H ) :   0.8036
B( 48-O , 50-H ) :   0.7846 B( 48-O , 55-H ) :   0.1643 B( 51-O , 52-H ) :   0.8369
B( 51-O , 53-H ) :   0.7538 B( 54-O , 55-H ) :   0.7418 B( 54-O , 56-H ) :   0.8260
B( 57-O , 58-H ) :   0.7335 B( 57-O , 59-H ) :   0.8338

Dispersion correction           -0.042649368
FINAL SINGLE POINT ENERGY     -1529.190644887307

DIPOLE MOMENT
-------------
                                X             Y             Z
Electronic contribution:      0.21516      -0.27782       0.12696
Nuclear contribution   :      0.28872      -2.09796       0.28512
                        -----------------------------------------
Total Dipole Moment    :      0.50388      -2.37578       0.41207
                        -----------------------------------------
Magnitude (a.u.)       :      2.46334
Magnitude (Debye)      :      6.26130

                             ****ORCA TERMINATED NORMALLY****
TOTAL RUN TIME: 0 days 0 hours 2 minutes 57 seconds 787 msec
