                         Program Version 4.2.0 -  RELEASE  -
|  1> # 12h2o.su.etal.mol0,5,6,7,9
|  2> ! MP2 def2-TZVP EnGrad TightSCF
|  3>
|  4> %pal
|  5>     nprocs 6
|  6> end
|  7>
|  8> %maxcore 8000
|  9>
| 10> %scf
| 11>     ConvForced true
| 12> end
| 13>
| 14> *xyz 0 1
| 15> O   1.794470000   0.923410000   2.768350000
| 16> H   2.338250000   1.359750000   3.430940000
| 17> H   0.879480000   1.303000000   2.865760000
| 18> O   0.885520000  -1.737840000   0.052730000
| 19> H   1.284090000  -0.839590000   0.017130000
| 20> H   1.032320000  -2.090180000  -0.841890000
| 21> O   1.737840000   0.885520000  -0.052730000
| 22> H   2.090180000   1.032320000   0.841890000
| 23> H   0.839590000   1.284090000  -0.017130000
| 24> O  -1.737840000  -0.885520000  -0.052730000
| 25> H  -2.090180000  -1.032320000   0.841890000
| 26> H  -0.839590000  -1.284090000  -0.017130000
| 27> O   0.741530000  -1.752130000   2.896280000
| 28> H   0.920500000  -2.036450000   1.984040000
| 29> H   1.242140000  -0.921210000   2.984230000
| 30> *
| 31>
| 32>                          ****END OF INPUT****

CARTESIAN COORDINATES (ANGSTROEM)
---------------------------------
  O      1.794470    0.923410    2.768350
  H      2.338250    1.359750    3.430940
  H      0.879480    1.303000    2.865760
  O      0.885520   -1.737840    0.052730
  H      1.284090   -0.839590    0.017130
  H      1.032320   -2.090180   -0.841890
  O      1.737840    0.885520   -0.052730
  H      2.090180    1.032320    0.841890
  H      0.839590    1.284090   -0.017130
  O     -1.737840   -0.885520   -0.052730
  H     -2.090180   -1.032320    0.841890
  H     -0.839590   -1.284090   -0.017130
  O      0.741530   -1.752130    2.896280
  H      0.920500   -2.036450    1.984040
  H      1.242140   -0.921210    2.984230

 Total Charge           Charge          ....    0
 Multiplicity           Mult            ....    1
 Number of Electrons    NEL             ....   50
 Basis Dimension        Dim             ....  215

ORBITAL ENERGIES
----------------

  NO   OCC          E(Eh)            E(eV)
   0   2.0000     -20.626195      -561.2673
   1   2.0000     -20.585139      -560.1501
   2   2.0000     -20.571647      -559.7830
   3   2.0000     -20.523877      -558.4831
   4   2.0000     -20.519053      -558.3518
   5   2.0000      -1.406742       -38.2794
   6   2.0000      -1.372530       -37.3484
   7   2.0000      -1.355754       -36.8919
   8   2.0000      -1.305050       -35.5122
   9   2.0000      -1.303888       -35.4806
  10   2.0000      -0.772074       -21.0092
  11   2.0000      -0.732428       -19.9304
  12   2.0000      -0.726915       -19.7804
  13   2.0000      -0.686018       -18.6675
  14   2.0000      -0.679444       -18.4886
  15   2.0000      -0.648781       -17.6542
  16   2.0000      -0.612076       -16.6554
  17   2.0000      -0.605786       -16.4843
  18   2.0000      -0.566887       -15.4258
  19   2.0000      -0.556455       -15.1419
  20   2.0000      -0.534387       -14.5414
  21   2.0000      -0.523846       -14.2546
  22   2.0000      -0.507383       -13.8066
  23   2.0000      -0.472632       -12.8610
  24   2.0000      -0.468325       -12.7438
  25   0.0000       0.082476         2.2443
  26   0.0000       0.133257         3.6261
  27   0.0000       0.153864         4.1868
  28   0.0000       0.177505         4.8302
  29   0.0000       0.188766         5.1366

MULLIKEN ATOMIC CHARGES
-----------------------
   0 O :   -0.717351
   1 H :    0.369651
   2 H :    0.370902
   3 O :   -0.733389
   4 H :    0.370059
   5 H :    0.356712
   6 O :   -0.698020
   7 H :    0.379741
   8 H :    0.352118
   9 O :   -0.725021
  10 H :    0.331635
  11 H :    0.355649
  12 O :   -0.721064
  13 H :    0.369101
  14 H :    0.339278
Sum of atomic charges:   -0.0000000

LOEWDIN ATOMIC CHARGES
----------------------
   0 O :   -0.287670
   1 H :    0.170305
   2 H :    0.192279
   3 O :   -0.296156
   4 H :    0.146371
   5 H :    0.170453
   6 O :   -0.294071
   7 H :    0.152939
   8 H :    0.175706
   9 O :   -0.365549
  10 H :    0.158804
  11 H :    0.139348
  12 O :   -0.351354
  13 H :    0.149705
  14 H :    0.138890

  Mayer bond orders larger than 0.100000
B(  0-O ,  1-H ) :   0.8288 B(  0-O ,  2-H ) :   0.8201 B(  3-O ,  4-H ) :   0.7616
B(  3-O ,  5-H ) :   0.8360 B(  6-O ,  7-H ) :   0.8050 B(  6-O ,  8-H ) :   0.8350
B(  9-O , 10-H ) :   0.8553 B(  9-O , 11-H ) :   0.7969 B( 12-O , 13-H ) :   0.8226
B( 12-O , 14-H ) :   0.8392

MP2 TOTAL ENERGY:     -381.604405742 Eh
FINAL SINGLE POINT ENERGY      -381.604405741922

DIPOLE MOMENT
-------------
                                X             Y             Z
Electronic contribution:      0.30574       0.07226      -0.06191
Nuclear contribution   :      0.71062       1.58851       0.72077
                        -----------------------------------------
Total Dipole Moment    :      1.01636       1.66077       0.65885
                        -----------------------------------------
Magnitude (a.u.)       :      2.05554
Magnitude (Debye)      :      5.22476

Rotational constants in cm-1:     0.080164     0.053977     0.042827
Rotational constants in MHz :  2403.267961  1618.192310  1283.923107

                             ****ORCA TERMINATED NORMALLY****
TOTAL RUN TIME: 0 days 0 hours 0 minutes 37 seconds 23 msec
