                         Program Version 4.2.0 -  RELEASE  -
|  1> # 12h2o.su.etal.mol0,2,4,9,10
|  2> ! MP2 def2-TZVP EnGrad TightSCF
|  3>
|  4> %pal
|  5>     nprocs 6
|  6> end
|  7>
|  8> %maxcore 8000
|  9>
| 10> %scf
| 11>     ConvForced true
| 12> end
| 13>
| 14> *xyz 0 1
| 15> O   1.794470000   0.923410000   2.768350000
| 16> H   2.338250000   1.359750000   3.430940000
| 17> H   0.879480000   1.303000000   2.865760000
| 18> O   0.923410000  -1.794470000  -2.768350000
| 19> H   1.359750000  -2.338250000  -3.430940000
| 20> H   1.303000000  -0.879480000  -2.865760000
| 21> O  -0.885520000   1.737840000   0.052730000
| 22> H  -1.032320000   2.090180000  -0.841890000
| 23> H  -1.284090000   0.839590000   0.017130000
| 24> O   0.741530000  -1.752130000   2.896280000
| 25> H   0.920500000  -2.036450000   1.984040000
| 26> H   1.242140000  -0.921210000   2.984230000
| 27> O  -0.923410000   1.794470000  -2.768350000
| 28> H  -1.359750000   2.338250000  -3.430940000
| 29> H  -1.303000000   0.879480000  -2.865760000
| 30> *
| 31>
| 32>                          ****END OF INPUT****

CARTESIAN COORDINATES (ANGSTROEM)
---------------------------------
  O      1.794470    0.923410    2.768350
  H      2.338250    1.359750    3.430940
  H      0.879480    1.303000    2.865760
  O      0.923410   -1.794470   -2.768350
  H      1.359750   -2.338250   -3.430940
  H      1.303000   -0.879480   -2.865760
  O     -0.885520    1.737840    0.052730
  H     -1.032320    2.090180   -0.841890
  H     -1.284090    0.839590    0.017130
  O      0.741530   -1.752130    2.896280
  H      0.920500   -2.036450    1.984040
  H      1.242140   -0.921210    2.984230
  O     -0.923410    1.794470   -2.768350
  H     -1.359750    2.338250   -3.430940
  H     -1.303000    0.879480   -2.865760

 Total Charge           Charge          ....    0
 Multiplicity           Mult            ....    1
 Number of Electrons    NEL             ....   50
 Basis Dimension        Dim             ....  215

ORBITAL ENERGIES
----------------

  NO   OCC          E(Eh)            E(eV)
   0   2.0000     -20.593627      -560.3811
   1   2.0000     -20.571206      -559.7710
   2   2.0000     -20.568794      -559.7053
   3   2.0000     -20.533619      -558.7482
   4   2.0000     -20.519071      -558.3523
   5   2.0000      -1.371468       -37.3195
   6   2.0000      -1.348940       -36.7065
   7   2.0000      -1.344096       -36.5747
   8   2.0000      -1.312584       -35.7172
   9   2.0000      -1.301411       -35.4132
  10   2.0000      -0.738281       -20.0897
  11   2.0000      -0.715921       -19.4812
  12   2.0000      -0.712246       -19.3812
  13   2.0000      -0.682429       -18.5698
  14   2.0000      -0.670403       -18.2426
  15   2.0000      -0.608411       -16.5557
  16   2.0000      -0.588919       -16.0253
  17   2.0000      -0.580576       -15.7983
  18   2.0000      -0.561887       -15.2897
  19   2.0000      -0.543152       -14.7799
  20   2.0000      -0.527048       -14.3417
  21   2.0000      -0.512111       -13.9352
  22   2.0000      -0.508583       -13.8393
  23   2.0000      -0.479190       -13.0394
  24   2.0000      -0.466924       -12.7056
  25   0.0000       0.095011         2.5854
  26   0.0000       0.126966         3.4549
  27   0.0000       0.133075         3.6211
  28   0.0000       0.162649         4.4259
  29   0.0000       0.184519         5.0210

MULLIKEN ATOMIC CHARGES
-----------------------
   0 O :   -0.694219
   1 H :    0.345927
   2 H :    0.369090
   3 O :   -0.690886
   4 H :    0.341038
   5 H :    0.350579
   6 O :   -0.698592
   7 H :    0.365388
   8 H :    0.323896
   9 O :   -0.710113
  10 H :    0.331361
  11 H :    0.356378
  12 O :   -0.697460
  13 H :    0.350955
  14 H :    0.356657
Sum of atomic charges:   -0.0000000

LOEWDIN ATOMIC CHARGES
----------------------
   0 O :   -0.309967
   1 H :    0.160653
   2 H :    0.191172
   3 O :   -0.341693
   4 H :    0.159122
   5 H :    0.182935
   6 O :   -0.348717
   7 H :    0.148854
   8 H :    0.164434
   9 O :   -0.351440
  10 H :    0.161011
  11 H :    0.146766
  12 O :   -0.311460
  13 H :    0.162917
  14 H :    0.185415

  Mayer bond orders larger than 0.100000
B(  0-O ,  1-H ) :   0.8452 B(  0-O ,  2-H ) :   0.8235 B(  3-O ,  4-H ) :   0.8516
B(  3-O ,  5-H ) :   0.8386 B(  6-O ,  7-H ) :   0.8211 B(  6-O ,  8-H ) :   0.8576
B(  9-O , 10-H ) :   0.8570 B(  9-O , 11-H ) :   0.8172 B( 12-O , 13-H ) :   0.8421
B( 12-O , 14-H ) :   0.8304

MP2 TOTAL ENERGY:     -381.581217707 Eh
FINAL SINGLE POINT ENERGY      -381.581217706735

DIPOLE MOMENT
-------------
                                X             Y             Z
Electronic contribution:      0.11497       0.13144       0.11527
Nuclear contribution   :     -0.19727       0.67972      -2.09298
                        -----------------------------------------
Total Dipole Moment    :     -0.08230       0.81117      -1.97771
                        -----------------------------------------
Magnitude (a.u.)       :      2.13919
Magnitude (Debye)      :      5.43738

Rotational constants in cm-1:     0.055667     0.025379     0.019207
Rotational constants in MHz :  1668.851080   760.842374   575.798256

                             ****ORCA TERMINATED NORMALLY****
TOTAL RUN TIME: 0 days 0 hours 0 minutes 23 seconds 662 msec
