                         Program Version 4.2.0 -  RELEASE  -
|  1> # 12meoh.boyd.etal.mol4,6,11
|  2> ! MP2 def2-TZVP EnGrad TightSCF
|  3>
|  4> %pal
|  5>     nprocs 6
|  6> end
|  7>
|  8> %maxcore 8000
|  9>
| 10> %scf
| 11>     ConvForced true
| 12> end
| 13>
| 14> *xyz 0 1
| 15> O  -1.358578914   1.232360421   1.189721000
| 16> H  -1.058250183   1.216459361   0.238591307
| 17> C  -0.389763452   1.957872567   1.943072362
| 18> H  -0.747220771   2.012806578   2.975200343
| 19> H  -0.260410585   2.982763209   1.565366540
| 20> H   0.585220638   1.453754179   1.934070793
| 21> O   2.622209273  -1.703002590  -1.445859723
| 22> H   1.828551432  -1.986513781  -0.909754968
| 23> C   2.781117675  -2.615822239  -2.525472890
| 24> H   3.691063626  -2.339003544  -3.065143454
| 25> H   1.934727323  -2.559520367  -3.223226661
| 26> H   2.879948338  -3.653846211  -2.177750170
| 27> O   3.252955559   0.588596242   1.858934315
| 28> H   3.621209177  -0.251605199   1.476063364
| 29> C   4.040824528   0.944288422   2.989639460
| 30> H   3.670521436   1.902573549   3.363847391
| 31> H   5.103749934   1.055868619   2.734277559
| 32> H   3.948540682   0.200279590   3.792908518
| 33> *
| 34>
| 35>                          ****END OF INPUT****

CARTESIAN COORDINATES (ANGSTROEM)
---------------------------------
  O     -1.358579    1.232360    1.189721
  H     -1.058250    1.216459    0.238591
  C     -0.389763    1.957873    1.943072
  H     -0.747221    2.012807    2.975200
  H     -0.260411    2.982763    1.565367
  H      0.585221    1.453754    1.934071
  O      2.622209   -1.703003   -1.445860
  H      1.828551   -1.986514   -0.909755
  C      2.781118   -2.615822   -2.525473
  H      3.691064   -2.339004   -3.065143
  H      1.934727   -2.559520   -3.223227
  H      2.879948   -3.653846   -2.177750
  O      3.252956    0.588596    1.858934
  H      3.621209   -0.251605    1.476063
  C      4.040825    0.944288    2.989639
  H      3.670521    1.902574    3.363847
  H      5.103750    1.055869    2.734278
  H      3.948541    0.200280    3.792909

 Total Charge           Charge          ....    0
 Multiplicity           Mult            ....    1
 Number of Electrons    NEL             ....   54
 Basis Dimension        Dim             ....  258

ORBITAL ENERGIES
----------------

  NO   OCC          E(Eh)            E(eV)
   0   2.0000     -20.563349      -559.5572
   1   2.0000     -20.556344      -559.3666
   2   2.0000     -20.546045      -559.0863
   3   2.0000     -11.275803      -306.8302
   4   2.0000     -11.271278      -306.7071
   5   2.0000     -11.255764      -306.2849
   6   2.0000      -1.351280       -36.7702
   7   2.0000      -1.345792       -36.6209
   8   2.0000      -1.333451       -36.2850
   9   2.0000      -0.923741       -25.1363
  10   2.0000      -0.919237       -25.0137
  11   2.0000      -0.904821       -24.6214
  12   2.0000      -0.685843       -18.6627
  13   2.0000      -0.681232       -18.5373
  14   2.0000      -0.667435       -18.1618
  15   2.0000      -0.621614       -16.9150
  16   2.0000      -0.616658       -16.7801
  17   2.0000      -0.602931       -16.4066
  18   2.0000      -0.596188       -16.2231
  19   2.0000      -0.589810       -16.0496
  20   2.0000      -0.577565       -15.7163
  21   2.0000      -0.504663       -13.7326
  22   2.0000      -0.500539       -13.6204
  23   2.0000      -0.486734       -13.2447
  24   2.0000      -0.454034       -12.3549
  25   2.0000      -0.448791       -12.2122
  26   2.0000      -0.435485       -11.8501
  27   0.0000       0.115553         3.1444
  28   0.0000       0.142872         3.8877
  29   0.0000       0.152428         4.1478
  30   0.0000       0.167461         4.5568
  31   0.0000       0.189141         5.1468

MULLIKEN ATOMIC CHARGES
-----------------------
   0 O :   -0.508056
   1 H :    0.320440
   2 C :   -0.184982
   3 H :    0.118925
   4 H :    0.104025
   5 H :    0.141713
   6 O :   -0.502249
   7 H :    0.326251
   8 C :   -0.173653
   9 H :    0.130309
  10 H :    0.111720
  11 H :    0.110616
  12 O :   -0.497568
  13 H :    0.327085
  14 C :   -0.174380
  15 H :    0.127530
  16 H :    0.112557
  17 H :    0.109718
Sum of atomic charges:    0.0000000

LOEWDIN ATOMIC CHARGES
----------------------
   0 O :   -0.117155
   1 H :    0.190742
   2 C :   -0.383051
   3 H :    0.107305
   4 H :    0.094540
   5 H :    0.101732
   6 O :   -0.113229
   7 H :    0.194005
   8 C :   -0.381341
   9 H :    0.110590
  10 H :    0.096358
  11 H :    0.095849
  12 O :   -0.107295
  13 H :    0.192172
  14 C :   -0.382776
  15 H :    0.109311
  16 H :    0.096945
  17 H :    0.095297

  Mayer bond orders larger than 0.100000
B(  0-O ,  1-H ) :   0.8431 B(  0-O ,  2-C ) :   0.9106 B(  2-C ,  3-H ) :   0.9349
B(  2-C ,  4-H ) :   0.9395 B(  2-C ,  5-H ) :   0.9353 B(  6-O ,  7-H ) :   0.8376
B(  6-O ,  8-C ) :   0.9213 B(  8-C ,  9-H ) :   0.9378 B(  8-C , 10-H ) :   0.9383
B(  8-C , 11-H ) :   0.9389 B( 12-O , 13-H ) :   0.8337 B( 12-O , 14-C ) :   0.9229
B( 14-C , 15-H ) :   0.9393 B( 14-C , 16-H ) :   0.9356 B( 14-C , 17-H ) :   0.9386

MP2 TOTAL ENERGY:     -346.523531809 Eh
FINAL SINGLE POINT ENERGY      -346.523531808763

DIPOLE MOMENT
-------------
                                X             Y             Z
Electronic contribution:     -2.33637      -0.08269      -0.95009
Nuclear contribution   :      3.13992      -0.59665       0.74361
                        -----------------------------------------
Total Dipole Moment    :      0.80355      -0.67934      -0.20648
                        -----------------------------------------
Magnitude (a.u.)       :      1.07230
Magnitude (Debye)      :      2.72557

Rotational constants in cm-1:     0.046925     0.025140     0.016593
Rotational constants in MHz :  1406.786364   753.678657   497.451824

                             ****ORCA TERMINATED NORMALLY****
TOTAL RUN TIME: 0 days 0 hours 1 minutes 0 seconds 165 msec
