                         Program Version 4.2.0 -  RELEASE  -
|  1> # 12h2o.su.etal.mol0,4,5,8,9
|  2> ! MP2 def2-TZVP EnGrad TightSCF
|  3>
|  4> %pal
|  5>     nprocs 6
|  6> end
|  7>
|  8> %maxcore 8000
|  9>
| 10> %scf
| 11>     ConvForced true
| 12> end
| 13>
| 14> *xyz 0 1
| 15> O   1.794470000   0.923410000   2.768350000
| 16> H   2.338250000   1.359750000   3.430940000
| 17> H   0.879480000   1.303000000   2.865760000
| 18> O  -0.885520000   1.737840000   0.052730000
| 19> H  -1.032320000   2.090180000  -0.841890000
| 20> H  -1.284090000   0.839590000   0.017130000
| 21> O   0.885520000  -1.737840000   0.052730000
| 22> H   1.284090000  -0.839590000   0.017130000
| 23> H   1.032320000  -2.090180000  -0.841890000
| 24> O   1.752130000   0.741530000  -2.896280000
| 25> H   2.036450000   0.920500000  -1.984040000
| 26> H   0.921210000   1.242140000  -2.984230000
| 27> O   0.741530000  -1.752130000   2.896280000
| 28> H   0.920500000  -2.036450000   1.984040000
| 29> H   1.242140000  -0.921210000   2.984230000
| 30> *
| 31>
| 32>                          ****END OF INPUT****

CARTESIAN COORDINATES (ANGSTROEM)
---------------------------------
  O      1.794470    0.923410    2.768350
  H      2.338250    1.359750    3.430940
  H      0.879480    1.303000    2.865760
  O     -0.885520    1.737840    0.052730
  H     -1.032320    2.090180   -0.841890
  H     -1.284090    0.839590    0.017130
  O      0.885520   -1.737840    0.052730
  H      1.284090   -0.839590    0.017130
  H      1.032320   -2.090180   -0.841890
  O      1.752130    0.741530   -2.896280
  H      2.036450    0.920500   -1.984040
  H      0.921210    1.242140   -2.984230
  O      0.741530   -1.752130    2.896280
  H      0.920500   -2.036450    1.984040
  H      1.242140   -0.921210    2.984230

 Total Charge           Charge          ....    0
 Multiplicity           Mult            ....    1
 Number of Electrons    NEL             ....   50
 Basis Dimension        Dim             ....  215

ORBITAL ENERGIES
----------------

  NO   OCC          E(Eh)            E(eV)
   0   2.0000     -20.583758      -560.1125
   1   2.0000     -20.583608      -560.1085
   2   2.0000     -20.581340      -560.0467
   3   2.0000     -20.580274      -560.0177
   4   2.0000     -20.500826      -557.8558
   5   2.0000      -1.361417       -37.0460
   6   2.0000      -1.360425       -37.0190
   7   2.0000      -1.359481       -36.9934
   8   2.0000      -1.358241       -36.9596
   9   2.0000      -1.286204       -34.9994
  10   2.0000      -0.728387       -19.8204
  11   2.0000      -0.723693       -19.6927
  12   2.0000      -0.721559       -19.6346
  13   2.0000      -0.719568       -19.5804
  14   2.0000      -0.664669       -18.0866
  15   2.0000      -0.607450       -16.5295
  16   2.0000      -0.599758       -16.3203
  17   2.0000      -0.597128       -16.2487
  18   2.0000      -0.590495       -16.0682
  19   2.0000      -0.538948       -14.6655
  20   2.0000      -0.527867       -14.3640
  21   2.0000      -0.524255       -14.2657
  22   2.0000      -0.523141       -14.2354
  23   2.0000      -0.508028       -13.8242
  24   2.0000      -0.450811       -12.2672
  25   0.0000       0.075224         2.0470
  26   0.0000       0.120000         3.2654
  27   0.0000       0.131538         3.5793
  28   0.0000       0.152595         4.1523
  29   0.0000       0.177274         4.8239

MULLIKEN ATOMIC CHARGES
-----------------------
   0 O :   -0.701498
   1 H :    0.351480
   2 H :    0.368127
   3 O :   -0.682917
   4 H :    0.330989
   5 H :    0.353902
   6 O :   -0.694903
   7 H :    0.344736
   8 H :    0.350672
   9 O :   -0.668567
  10 H :    0.337154
  11 H :    0.332698
  12 O :   -0.726227
  13 H :    0.363721
  14 H :    0.340635
Sum of atomic charges:    0.0000000

LOEWDIN ATOMIC CHARGES
----------------------
   0 O :   -0.313814
   1 H :    0.162884
   2 H :    0.190433
   3 O :   -0.336342
   4 H :    0.161577
   5 H :    0.177357
   6 O :   -0.316272
   7 H :    0.170654
   8 H :    0.169852
   9 O :   -0.326318
  10 H :    0.162905
  11 H :    0.164076
  12 O :   -0.356135
  13 H :    0.149071
  14 H :    0.140071

  Mayer bond orders larger than 0.100000
B(  0-O ,  1-H ) :   0.8423 B(  0-O ,  2-H ) :   0.8242 B(  3-O ,  4-H ) :   0.8549
B(  3-O ,  5-H ) :   0.8372 B(  6-O ,  7-H ) :   0.8367 B(  6-O ,  8-H ) :   0.8405
B(  9-O , 10-H ) :   0.8512 B(  9-O , 11-H ) :   0.8544 B( 12-O , 13-H ) :   0.8294
B( 12-O , 14-H ) :   0.8317

MP2 TOTAL ENERGY:     -381.582802811 Eh
FINAL SINGLE POINT ENERGY      -381.582802811329

DIPOLE MOMENT
-------------
                                X             Y             Z
Electronic contribution:      0.06769      -0.10882       0.00819
Nuclear contribution   :     -0.19829       1.69977      -0.91596
                        -----------------------------------------
Total Dipole Moment    :     -0.13061       1.59095      -0.90777
                        -----------------------------------------
Magnitude (a.u.)       :      1.83636
Magnitude (Debye)      :      4.66766

Rotational constants in cm-1:     0.066920     0.032664     0.027780
Rotational constants in MHz :  2006.201118   979.243353   832.826826

                             ****ORCA TERMINATED NORMALLY****
TOTAL RUN TIME: 0 days 0 hours 0 minutes 39 seconds 46 msec
