                         Program Version 4.2.0 -  RELEASE  -
|  1> # 12h2o.su.etal.mol0,3,4,5,8,9,11
|  2> ! MP2 def2-TZVP EnGrad TightSCF
|  3>
|  4> %pal
|  5>     nprocs 6
|  6> end
|  7>
|  8> %maxcore 8000
|  9>
| 10> %scf
| 11>     ConvForced true
| 12> end
| 13>
| 14> *xyz 0 1
| 15> O   1.794470000   0.923410000   2.768350000
| 16> H   2.338250000   1.359750000   3.430940000
| 17> H   0.879480000   1.303000000   2.865760000
| 18> O  -1.752130000  -0.741530000  -2.896280000
| 19> H  -2.036450000  -0.920500000  -1.984040000
| 20> H  -0.921210000  -1.242140000  -2.984230000
| 21> O  -0.885520000   1.737840000   0.052730000
| 22> H  -1.032320000   2.090180000  -0.841890000
| 23> H  -1.284090000   0.839590000   0.017130000
| 24> O   0.885520000  -1.737840000   0.052730000
| 25> H   1.284090000  -0.839590000   0.017130000
| 26> H   1.032320000  -2.090180000  -0.841890000
| 27> O   1.752130000   0.741530000  -2.896280000
| 28> H   2.036450000   0.920500000  -1.984040000
| 29> H   0.921210000   1.242140000  -2.984230000
| 30> O   0.741530000  -1.752130000   2.896280000
| 31> H   0.920500000  -2.036450000   1.984040000
| 32> H   1.242140000  -0.921210000   2.984230000
| 33> O  -0.741530000   1.752130000   2.896280000
| 34> H  -0.920500000   2.036450000   1.984040000
| 35> H  -1.242140000   0.921210000   2.984230000
| 36> *
| 37>
| 38>                          ****END OF INPUT****

CARTESIAN COORDINATES (ANGSTROEM)
---------------------------------
  O      1.794470    0.923410    2.768350
  H      2.338250    1.359750    3.430940
  H      0.879480    1.303000    2.865760
  O     -1.752130   -0.741530   -2.896280
  H     -2.036450   -0.920500   -1.984040
  H     -0.921210   -1.242140   -2.984230
  O     -0.885520    1.737840    0.052730
  H     -1.032320    2.090180   -0.841890
  H     -1.284090    0.839590    0.017130
  O      0.885520   -1.737840    0.052730
  H      1.284090   -0.839590    0.017130
  H      1.032320   -2.090180   -0.841890
  O      1.752130    0.741530   -2.896280
  H      2.036450    0.920500   -1.984040
  H      0.921210    1.242140   -2.984230
  O      0.741530   -1.752130    2.896280
  H      0.920500   -2.036450    1.984040
  H      1.242140   -0.921210    2.984230
  O     -0.741530    1.752130    2.896280
  H     -0.920500    2.036450    1.984040
  H     -1.242140    0.921210    2.984230

 Total Charge           Charge          ....    0
 Multiplicity           Mult            ....    1
 Number of Electrons    NEL             ....   70
 Basis Dimension        Dim             ....  301

ORBITAL ENERGIES
----------------

  NO   OCC          E(Eh)            E(eV)
   0   2.0000     -20.614306      -560.9438
   1   2.0000     -20.594933      -560.4166
   2   2.0000     -20.589372      -560.2653
   3   2.0000     -20.586274      -560.1810
   4   2.0000     -20.577544      -559.9434
   5   2.0000     -20.540388      -558.9324
   6   2.0000     -20.504004      -557.9423
   7   2.0000      -1.393032       -37.9063
   8   2.0000      -1.373008       -37.3614
   9   2.0000      -1.368255       -37.2321
  10   2.0000      -1.365903       -37.1681
  11   2.0000      -1.365094       -37.1461
  12   2.0000      -1.324074       -36.0299
  13   2.0000      -1.288918       -35.0732
  14   2.0000      -0.755996       -20.5717
  15   2.0000      -0.734891       -19.9974
  16   2.0000      -0.731207       -19.8972
  17   2.0000      -0.727309       -19.7911
  18   2.0000      -0.726368       -19.7655
  19   2.0000      -0.708089       -19.2681
  20   2.0000      -0.667916       -18.1749
  21   2.0000      -0.639135       -17.3917
  22   2.0000      -0.613560       -16.6958
  23   2.0000      -0.605759       -16.4836
  24   2.0000      -0.602728       -16.4010
  25   2.0000      -0.600662       -16.3448
  26   2.0000      -0.568366       -15.4660
  27   2.0000      -0.557700       -15.1758
  28   2.0000      -0.542613       -14.7652
  29   2.0000      -0.534903       -14.5554
  30   2.0000      -0.528118       -14.3708
  31   2.0000      -0.525120       -14.2892
  32   2.0000      -0.512013       -13.9326
  33   2.0000      -0.486849       -13.2478
  34   2.0000      -0.454139       -12.3577
  35   0.0000       0.057615         1.5678
  36   0.0000       0.111847         3.0435
  37   0.0000       0.114374         3.1123
  38   0.0000       0.130383         3.5479
  39   0.0000       0.159357         4.3363

MULLIKEN ATOMIC CHARGES
-----------------------
   0 O :   -0.744707
   1 H :    0.338385
   2 H :    0.382961
   3 O :   -0.674983
   4 H :    0.332636
   5 H :    0.344492
   6 O :   -0.698509
   7 H :    0.355680
   8 H :    0.347218
   9 O :   -0.697276
  10 H :    0.351322
  11 H :    0.344406
  12 O :   -0.674911
  13 H :    0.337634
  14 H :    0.339700
  15 O :   -0.734730
  16 H :    0.361508
  17 H :    0.348608
  18 O :   -0.698828
  19 H :    0.385069
  20 H :    0.354324
Sum of atomic charges:   -0.0000000

LOEWDIN ATOMIC CHARGES
----------------------
   0 O :   -0.343773
   1 H :    0.154337
   2 H :    0.145615
   3 O :   -0.326702
   4 H :    0.160817
   5 H :    0.167198
   6 O :   -0.314590
   7 H :    0.171621
   8 H :    0.173248
   9 O :   -0.315753
  10 H :    0.173632
  11 H :    0.165695
  12 O :   -0.326535
  13 H :    0.163002
  14 H :    0.165029
  15 O :   -0.358784
  16 H :    0.147492
  17 H :    0.141436
  18 O :   -0.274498
  19 H :    0.158926
  20 H :    0.172589

  Mayer bond orders larger than 0.100000
B(  0-O ,  1-H ) :   0.8500 B(  0-O ,  2-H ) :   0.7576 B(  3-O ,  4-H ) :   0.8537
B(  3-O ,  5-H ) :   0.8446 B(  6-O ,  7-H ) :   0.8377 B(  6-O ,  8-H ) :   0.8349
B(  9-O , 10-H ) :   0.8316 B(  9-O , 11-H ) :   0.8430 B( 12-O , 13-H ) :   0.8507
B( 12-O , 14-H ) :   0.8477 B( 15-O , 16-H ) :   0.8325 B( 15-O , 17-H ) :   0.8163
B( 18-O , 19-H ) :   0.8055 B( 18-O , 20-H ) :   0.8354

MP2 TOTAL ENERGY:     -534.231769949 Eh
FINAL SINGLE POINT ENERGY      -534.231769949311

DIPOLE MOMENT
-------------
                                X             Y             Z
Electronic contribution:     -0.18469       0.17678      -0.17682
Nuclear contribution   :     -0.30898       0.67915      -0.91596
                        -----------------------------------------
Total Dipole Moment    :     -0.49368       0.85593      -1.09278
                        -----------------------------------------
Magnitude (a.u.)       :      1.47327
Magnitude (Debye)      :      3.74474

Rotational constants in cm-1:     0.037565     0.018559     0.016947
Rotational constants in MHz :  1126.159207   556.378595   508.068581

                             ****ORCA TERMINATED NORMALLY****
TOTAL RUN TIME: 0 days 0 hours 1 minutes 39 seconds 156 msec
