                         Program Version 4.2.0 -  RELEASE  -
|  1> # 12h2o.su.etal.mol0,1,3,8,11
|  2> ! MP2 def2-TZVP EnGrad TightSCF
|  3>
|  4> %pal
|  5>     nprocs 6
|  6> end
|  7>
|  8> %maxcore 8000
|  9>
| 10> %scf
| 11>     ConvForced true
| 12> end
| 13>
| 14> *xyz 0 1
| 15> O   1.794470000   0.923410000   2.768350000
| 16> H   2.338250000   1.359750000   3.430940000
| 17> H   0.879480000   1.303000000   2.865760000
| 18> O  -1.794470000  -0.923410000   2.768350000
| 19> H  -2.338250000  -1.359750000   3.430940000
| 20> H  -0.879480000  -1.303000000   2.865760000
| 21> O  -1.752130000  -0.741530000  -2.896280000
| 22> H  -2.036450000  -0.920500000  -1.984040000
| 23> H  -0.921210000  -1.242140000  -2.984230000
| 24> O   1.752130000   0.741530000  -2.896280000
| 25> H   2.036450000   0.920500000  -1.984040000
| 26> H   0.921210000   1.242140000  -2.984230000
| 27> O  -0.741530000   1.752130000   2.896280000
| 28> H  -0.920500000   2.036450000   1.984040000
| 29> H  -1.242140000   0.921210000   2.984230000
| 30> *
| 31>
| 32>                          ****END OF INPUT****

CARTESIAN COORDINATES (ANGSTROEM)
---------------------------------
  O      1.794470    0.923410    2.768350
  H      2.338250    1.359750    3.430940
  H      0.879480    1.303000    2.865760
  O     -1.794470   -0.923410    2.768350
  H     -2.338250   -1.359750    3.430940
  H     -0.879480   -1.303000    2.865760
  O     -1.752130   -0.741530   -2.896280
  H     -2.036450   -0.920500   -1.984040
  H     -0.921210   -1.242140   -2.984230
  O      1.752130    0.741530   -2.896280
  H      2.036450    0.920500   -1.984040
  H      0.921210    1.242140   -2.984230
  O     -0.741530    1.752130    2.896280
  H     -0.920500    2.036450    1.984040
  H     -1.242140    0.921210    2.984230

 Total Charge           Charge          ....    0
 Multiplicity           Mult            ....    1
 Number of Electrons    NEL             ....   50
 Basis Dimension        Dim             ....  215

ORBITAL ENERGIES
----------------

  NO   OCC          E(Eh)            E(eV)
   0   2.0000     -20.604163      -560.6678
   1   2.0000     -20.576139      -559.9052
   2   2.0000     -20.562008      -559.5207
   3   2.0000     -20.557968      -559.4107
   4   2.0000     -20.522984      -558.4588
   5   2.0000      -1.382844       -37.6291
   6   2.0000      -1.363864       -37.1126
   7   2.0000      -1.341238       -36.4969
   8   2.0000      -1.337146       -36.3856
   9   2.0000      -1.304955       -35.5096
  10   2.0000      -0.749931       -20.4066
  11   2.0000      -0.725562       -19.7435
  12   2.0000      -0.704126       -19.1602
  13   2.0000      -0.699343       -19.0301
  14   2.0000      -0.692836       -18.8530
  15   2.0000      -0.627115       -17.0647
  16   2.0000      -0.599087       -16.3020
  17   2.0000      -0.579109       -15.7584
  18   2.0000      -0.575093       -15.6491
  19   2.0000      -0.556152       -15.1337
  20   2.0000      -0.542888       -14.7727
  21   2.0000      -0.507937       -13.8217
  22   2.0000      -0.507467       -13.8089
  23   2.0000      -0.500661       -13.6237
  24   2.0000      -0.473804       -12.8929
  25   0.0000       0.095607         2.6016
  26   0.0000       0.117691         3.2025
  27   0.0000       0.144431         3.9302
  28   0.0000       0.155521         4.2320
  29   0.0000       0.169745         4.6190

MULLIKEN ATOMIC CHARGES
-----------------------
   0 O :   -0.740673
   1 H :    0.327245
   2 H :    0.363871
   3 O :   -0.705831
   4 H :    0.358341
   5 H :    0.370952
   6 O :   -0.683052
   7 H :    0.336011
   8 H :    0.346787
   9 O :   -0.684306
  10 H :    0.341371
  11 H :    0.342858
  12 O :   -0.698414
  13 H :    0.351525
  14 H :    0.373313
Sum of atomic charges:   -0.0000000

LOEWDIN ATOMIC CHARGES
----------------------
   0 O :   -0.377322
   1 H :    0.149188
   2 H :    0.140394
   3 O :   -0.312287
   4 H :    0.166483
   5 H :    0.192380
   6 O :   -0.333442
   7 H :    0.164685
   8 H :    0.168593
   9 O :   -0.333768
  10 H :    0.166944
  11 H :    0.166793
  12 O :   -0.282492
  13 H :    0.170612
  14 H :    0.153239

  Mayer bond orders larger than 0.100000
B(  0-O ,  1-H ) :   0.8596 B(  0-O ,  2-H ) :   0.7777 B(  3-O ,  4-H ) :   0.8383
B(  3-O ,  5-H ) :   0.8221 B(  6-O ,  7-H ) :   0.8535 B(  6-O ,  8-H ) :   0.8440
B(  9-O , 10-H ) :   0.8503 B(  9-O , 11-H ) :   0.8464 B( 12-O , 13-H ) :   0.8418
B( 12-O , 14-H ) :   0.7986

MP2 TOTAL ENERGY:     -381.587919243 Eh
FINAL SINGLE POINT ENERGY      -381.587919242607

DIPOLE MOMENT
-------------
                                X             Y             Z
Electronic contribution:     -0.29785      -0.04833      -0.28031
Nuclear contribution   :     -0.56566      -0.45497       1.95129
                        -----------------------------------------
Total Dipole Moment    :     -0.86350      -0.50330       1.67099
                        -----------------------------------------
Magnitude (a.u.)       :      1.94709
Magnitude (Debye)      :      4.94910

Rotational constants in cm-1:     0.052030     0.022363     0.017075
Rotational constants in MHz :  1559.818104   670.417582   511.892863

                             ****ORCA TERMINATED NORMALLY****
TOTAL RUN TIME: 0 days 0 hours 0 minutes 25 seconds 36 msec
