                         Program Version 4.2.0 -  RELEASE  -
|  1> # 12h2o.su.etal.mol0,4,5,6,9,11
|  2> ! MP2 def2-TZVP EnGrad TightSCF
|  3>
|  4> %pal
|  5>     nprocs 6
|  6> end
|  7>
|  8> %maxcore 8000
|  9>
| 10> %scf
| 11>     ConvForced true
| 12> end
| 13>
| 14> *xyz 0 1
| 15> O   1.794470000   0.923410000   2.768350000
| 16> H   2.338250000   1.359750000   3.430940000
| 17> H   0.879480000   1.303000000   2.865760000
| 18> O  -0.885520000   1.737840000   0.052730000
| 19> H  -1.032320000   2.090180000  -0.841890000
| 20> H  -1.284090000   0.839590000   0.017130000
| 21> O   0.885520000  -1.737840000   0.052730000
| 22> H   1.284090000  -0.839590000   0.017130000
| 23> H   1.032320000  -2.090180000  -0.841890000
| 24> O   1.737840000   0.885520000  -0.052730000
| 25> H   2.090180000   1.032320000   0.841890000
| 26> H   0.839590000   1.284090000  -0.017130000
| 27> O   0.741530000  -1.752130000   2.896280000
| 28> H   0.920500000  -2.036450000   1.984040000
| 29> H   1.242140000  -0.921210000   2.984230000
| 30> O  -0.741530000   1.752130000   2.896280000
| 31> H  -0.920500000   2.036450000   1.984040000
| 32> H  -1.242140000   0.921210000   2.984230000
| 33> *
| 34>
| 35>                          ****END OF INPUT****

CARTESIAN COORDINATES (ANGSTROEM)
---------------------------------
  O      1.794470    0.923410    2.768350
  H      2.338250    1.359750    3.430940
  H      0.879480    1.303000    2.865760
  O     -0.885520    1.737840    0.052730
  H     -1.032320    2.090180   -0.841890
  H     -1.284090    0.839590    0.017130
  O      0.885520   -1.737840    0.052730
  H      1.284090   -0.839590    0.017130
  H      1.032320   -2.090180   -0.841890
  O      1.737840    0.885520   -0.052730
  H      2.090180    1.032320    0.841890
  H      0.839590    1.284090   -0.017130
  O      0.741530   -1.752130    2.896280
  H      0.920500   -2.036450    1.984040
  H      1.242140   -0.921210    2.984230
  O     -0.741530    1.752130    2.896280
  H     -0.920500    2.036450    1.984040
  H     -1.242140    0.921210    2.984230

 Total Charge           Charge          ....    0
 Multiplicity           Mult            ....    1
 Number of Electrons    NEL             ....   60
 Basis Dimension        Dim             ....  258

ORBITAL ENERGIES
----------------

  NO   OCC          E(Eh)            E(eV)
   0   2.0000     -20.633078      -561.4546
   1   2.0000     -20.588462      -560.2405
   2   2.0000     -20.561511      -559.5072
   3   2.0000     -20.545028      -559.0586
   4   2.0000     -20.541062      -558.9507
   5   2.0000     -20.497610      -557.7683
   6   2.0000      -1.416460       -38.5438
   7   2.0000      -1.378058       -37.4989
   8   2.0000      -1.348749       -36.7013
   9   2.0000      -1.335987       -36.3540
  10   2.0000      -1.320467       -35.9317
  11   2.0000      -1.282498       -34.8985
  12   2.0000      -0.775128       -21.0923
  13   2.0000      -0.738774       -20.1031
  14   2.0000      -0.728772       -19.8309
  15   2.0000      -0.711998       -19.3744
  16   2.0000      -0.696127       -18.9426
  17   2.0000      -0.662081       -18.0161
  18   2.0000      -0.658800       -17.9269
  19   2.0000      -0.618637       -16.8340
  20   2.0000      -0.608109       -16.5475
  21   2.0000      -0.578734       -15.7482
  22   2.0000      -0.574623       -15.6363
  23   2.0000      -0.552557       -15.0358
  24   2.0000      -0.529835       -14.4175
  25   2.0000      -0.520338       -14.1591
  26   2.0000      -0.501525       -13.6472
  27   2.0000      -0.493954       -13.4412
  28   2.0000      -0.486271       -13.2321
  29   2.0000      -0.447772       -12.1845
  30   0.0000       0.084864         2.3093
  31   0.0000       0.136434         3.7125
  32   0.0000       0.153793         4.1849
  33   0.0000       0.157969         4.2985
  34   0.0000       0.191123         5.2007

MULLIKEN ATOMIC CHARGES
-----------------------
   0 O :   -0.750153
   1 H :    0.348676
   2 H :    0.382236
   3 O :   -0.720268
   4 H :    0.376172
   5 H :    0.375514
   6 O :   -0.734475
   7 H :    0.359051
   8 H :    0.332589
   9 O :   -0.723626
  10 H :    0.379554
  11 H :    0.349480
  12 O :   -0.736910
  13 H :    0.368990
  14 H :    0.345160
  15 O :   -0.698543
  16 H :    0.384321
  17 H :    0.362231
Sum of atomic charges:   -0.0000000

LOEWDIN ATOMIC CHARGES
----------------------
   0 O :   -0.313314
   1 H :    0.158402
   2 H :    0.146352
   3 O :   -0.278334
   4 H :    0.181674
   5 H :    0.186376
   6 O :   -0.346788
   7 H :    0.142473
   8 H :    0.160100
   9 O :   -0.315490
  10 H :    0.150315
  11 H :    0.136744
  12 O :   -0.360006
  13 H :    0.150487
  14 H :    0.139137
  15 O :   -0.271937
  16 H :    0.157495
  17 H :    0.176315

  Mayer bond orders larger than 0.100000
B(  0-O ,  1-H ) :   0.8413 B(  0-O ,  2-H ) :   0.7452 B(  3-O ,  4-H ) :   0.8248
B(  3-O ,  5-H ) :   0.8163 B(  6-O ,  7-H ) :   0.7652 B(  6-O ,  8-H ) :   0.8518
B(  7-H ,  9-O ) :   0.1078 B(  9-O , 10-H ) :   0.8004 B(  9-O , 11-H ) :   0.8069
B( 12-O , 13-H ) :   0.8202 B( 12-O , 14-H ) :   0.8274 B( 15-O , 16-H ) :   0.8085
B( 15-O , 17-H ) :   0.8300

MP2 TOTAL ENERGY:     -457.937996507 Eh
FINAL SINGLE POINT ENERGY      -457.937996506860

DIPOLE MOMENT
-------------
                                X             Y             Z
Electronic contribution:     -0.25507       0.39946       0.13159
Nuclear contribution   :     -0.76337       1.13309      -1.51390
                        -----------------------------------------
Total Dipole Moment    :     -1.01844       1.53256      -1.38231
                        -----------------------------------------
Magnitude (a.u.)       :      2.30146
Magnitude (Debye)      :      5.84986

Rotational constants in cm-1:     0.052711     0.046209     0.034499
Rotational constants in MHz :  1580.237396  1385.300995  1034.250069

                             ****ORCA TERMINATED NORMALLY****
TOTAL RUN TIME: 0 days 0 hours 1 minutes 21 seconds 90 msec
