                         Program Version 4.2.0 -  RELEASE  -
|  1> # 12h2o.su.etal.mol0,2,7,8,9,11
|  2> ! MP2 def2-TZVP EnGrad TightSCF
|  3>
|  4> %pal
|  5>     nprocs 6
|  6> end
|  7>
|  8> %maxcore 8000
|  9>
| 10> %scf
| 11>     ConvForced true
| 12> end
| 13>
| 14> *xyz 0 1
| 15> O   1.794470000   0.923410000   2.768350000
| 16> H   2.338250000   1.359750000   3.430940000
| 17> H   0.879480000   1.303000000   2.865760000
| 18> O   0.923410000  -1.794470000  -2.768350000
| 19> H   1.359750000  -2.338250000  -3.430940000
| 20> H   1.303000000  -0.879480000  -2.865760000
| 21> O  -1.737840000  -0.885520000  -0.052730000
| 22> H  -2.090180000  -1.032320000   0.841890000
| 23> H  -0.839590000  -1.284090000  -0.017130000
| 24> O   1.752130000   0.741530000  -2.896280000
| 25> H   2.036450000   0.920500000  -1.984040000
| 26> H   0.921210000   1.242140000  -2.984230000
| 27> O   0.741530000  -1.752130000   2.896280000
| 28> H   0.920500000  -2.036450000   1.984040000
| 29> H   1.242140000  -0.921210000   2.984230000
| 30> O  -0.741530000   1.752130000   2.896280000
| 31> H  -0.920500000   2.036450000   1.984040000
| 32> H  -1.242140000   0.921210000   2.984230000
| 33> *
| 34>
| 35>                          ****END OF INPUT****

CARTESIAN COORDINATES (ANGSTROEM)
---------------------------------
  O      1.794470    0.923410    2.768350
  H      2.338250    1.359750    3.430940
  H      0.879480    1.303000    2.865760
  O      0.923410   -1.794470   -2.768350
  H      1.359750   -2.338250   -3.430940
  H      1.303000   -0.879480   -2.865760
  O     -1.737840   -0.885520   -0.052730
  H     -2.090180   -1.032320    0.841890
  H     -0.839590   -1.284090   -0.017130
  O      1.752130    0.741530   -2.896280
  H      2.036450    0.920500   -1.984040
  H      0.921210    1.242140   -2.984230
  O      0.741530   -1.752130    2.896280
  H      0.920500   -2.036450    1.984040
  H      1.242140   -0.921210    2.984230
  O     -0.741530    1.752130    2.896280
  H     -0.920500    2.036450    1.984040
  H     -1.242140    0.921210    2.984230

 Total Charge           Charge          ....    0
 Multiplicity           Mult            ....    1
 Number of Electrons    NEL             ....   60
 Basis Dimension        Dim             ....  258

ORBITAL ENERGIES
----------------

  NO   OCC          E(Eh)            E(eV)
   0   2.0000     -20.608149      -560.7762
   1   2.0000     -20.600091      -560.5570
   2   2.0000     -20.565512      -559.6160
   3   2.0000     -20.555330      -559.3390
   4   2.0000     -20.541054      -558.9505
   5   2.0000     -20.521968      -558.4311
   6   2.0000      -1.393910       -37.9302
   7   2.0000      -1.385397       -37.6986
   8   2.0000      -1.341192       -36.4957
   9   2.0000      -1.340369       -36.4733
  10   2.0000      -1.322012       -35.9738
  11   2.0000      -1.304213       -35.4894
  12   2.0000      -0.750584       -20.4244
  13   2.0000      -0.742800       -20.2126
  14   2.0000      -0.724784       -19.7224
  15   2.0000      -0.703129       -19.1331
  16   2.0000      -0.694936       -18.9102
  17   2.0000      -0.691124       -18.8064
  18   2.0000      -0.633458       -17.2373
  19   2.0000      -0.620434       -16.8829
  20   2.0000      -0.590906       -16.0794
  21   2.0000      -0.580768       -15.8035
  22   2.0000      -0.561939       -15.2911
  23   2.0000      -0.561543       -15.2804
  24   2.0000      -0.536493       -14.5987
  25   2.0000      -0.518110       -14.0985
  26   2.0000      -0.508293       -13.8313
  27   2.0000      -0.504073       -13.7165
  28   2.0000      -0.488162       -13.2836
  29   2.0000      -0.472257       -12.8508
  30   0.0000       0.083101         2.2613
  31   0.0000       0.111223         3.0265
  32   0.0000       0.139440         3.7944
  33   0.0000       0.147220         4.0061
  34   0.0000       0.170843         4.6489

MULLIKEN ATOMIC CHARGES
-----------------------
   0 O :   -0.740665
   1 H :    0.342796
   2 H :    0.377802
   3 O :   -0.731796
   4 H :    0.327083
   5 H :    0.364430
   6 O :   -0.678944
   7 H :    0.329621
   8 H :    0.346096
   9 O :   -0.678757
  10 H :    0.360081
  11 H :    0.361997
  12 O :   -0.712354
  13 H :    0.325732
  14 H :    0.363542
  15 O :   -0.682978
  16 H :    0.362527
  17 H :    0.363786
Sum of atomic charges:    0.0000000

LOEWDIN ATOMIC CHARGES
----------------------
   0 O :   -0.340855
   1 H :    0.156369
   2 H :    0.144683
   3 O :   -0.371961
   4 H :    0.149950
   5 H :    0.141585
   6 O :   -0.335456
   7 H :    0.159698
   8 H :    0.173033
   9 O :   -0.270607
  10 H :    0.175562
  11 H :    0.178002
  12 O :   -0.348749
  13 H :    0.156526
  14 H :    0.147887
  15 O :   -0.268214
  16 H :    0.176088
  17 H :    0.176459

  Mayer bond orders larger than 0.100000
B(  0-O ,  1-H ) :   0.8475 B(  0-O ,  2-H ) :   0.7653 B(  3-O ,  4-H ) :   0.8594
B(  3-O ,  5-H ) :   0.7878 B(  6-O ,  7-H ) :   0.8552 B(  6-O ,  8-H ) :   0.8405
B(  9-O , 10-H ) :   0.8358 B(  9-O , 11-H ) :   0.8344 B( 12-O , 13-H ) :   0.8580
B( 12-O , 14-H ) :   0.8036 B( 15-O , 16-H ) :   0.8334 B( 15-O , 17-H ) :   0.8293

MP2 TOTAL ENERGY:     -457.909895361 Eh
FINAL SINGLE POINT ENERGY      -457.909895360716

DIPOLE MOMENT
-------------
                                X             Y             Z
Electronic contribution:     -0.18628       0.39134      -0.03511
Nuclear contribution   :      0.36959       1.09984       0.08817
                        -----------------------------------------
Total Dipole Moment    :      0.18331       1.49118       0.05306
                        -----------------------------------------
Magnitude (a.u.)       :      1.50334
Magnitude (Debye)      :      3.82118

Rotational constants in cm-1:     0.046976     0.019008     0.017939
Rotational constants in MHz :  1408.304941   569.849458   537.810576

                             ****ORCA TERMINATED NORMALLY****
TOTAL RUN TIME: 0 days 0 hours 0 minutes 49 seconds 245 msec
