                         Program Version 4.2.0 -  RELEASE  -
|  1> # 12meoh.boyd.etal.mol6,8,9
|  2> ! MP2 def2-TZVP EnGrad TightSCF
|  3>
|  4> %pal
|  5>     nprocs 6
|  6> end
|  7>
|  8> %maxcore 8000
|  9>
| 10> %scf
| 11>     ConvForced true
| 12> end
| 13>
| 14> *xyz 0 1
| 15> O   2.622209273  -1.703002590  -1.445859723
| 16> H   1.828551432  -1.986513781  -0.909754968
| 17> C   2.781117675  -2.615822239  -2.525472890
| 18> H   3.691063626  -2.339003544  -3.065143454
| 19> H   1.934727323  -2.559520367  -3.223226661
| 20> H   2.879948338  -3.653846211  -2.177750170
| 21> O   3.570084754   2.361662577  -0.202416728
| 22> H   3.393280933   1.755669977   0.560634073
| 23> C   4.368082883   1.644741793  -1.143112807
| 24> H   4.552851717   2.311801738  -1.989632421
| 25> H   3.862427494   0.740851663  -1.508095690
| 26> H   5.333949674   1.357289092  -0.706288100
| 27> O   1.390610024   3.194080770  -1.536658882
| 28> H   2.162932299   2.881562730  -0.993525056
| 29> C   1.202977189   4.580367182  -1.302880219
| 30> H   0.374773115   4.915764831  -1.934164643
| 31> H   2.098649340   5.157710875  -1.570472348
| 32> H   0.950320401   4.800436015  -0.254328827
| 33> *
| 34>
| 35>                          ****END OF INPUT****

CARTESIAN COORDINATES (ANGSTROEM)
---------------------------------
  O      2.622209   -1.703003   -1.445860
  H      1.828551   -1.986514   -0.909755
  C      2.781118   -2.615822   -2.525473
  H      3.691064   -2.339004   -3.065143
  H      1.934727   -2.559520   -3.223227
  H      2.879948   -3.653846   -2.177750
  O      3.570085    2.361663   -0.202417
  H      3.393281    1.755670    0.560634
  C      4.368083    1.644742   -1.143113
  H      4.552852    2.311802   -1.989632
  H      3.862427    0.740852   -1.508096
  H      5.333950    1.357289   -0.706288
  O      1.390610    3.194081   -1.536659
  H      2.162932    2.881563   -0.993525
  C      1.202977    4.580367   -1.302880
  H      0.374773    4.915765   -1.934165
  H      2.098649    5.157711   -1.570472
  H      0.950320    4.800436   -0.254329

 Total Charge           Charge          ....    0
 Multiplicity           Mult            ....    1
 Number of Electrons    NEL             ....   54
 Basis Dimension        Dim             ....  258

ORBITAL ENERGIES
----------------

  NO   OCC          E(Eh)            E(eV)
   0   2.0000     -20.577990      -559.9556
   1   2.0000     -20.566087      -559.6317
   2   2.0000     -20.507894      -558.0482
   3   2.0000     -11.277381      -306.8731
   4   2.0000     -11.273204      -306.7595
   5   2.0000     -11.243358      -305.9473
   6   2.0000      -1.371436       -37.3187
   7   2.0000      -1.354128       -36.8477
   8   2.0000      -1.306016       -35.5385
   9   2.0000      -0.926860       -25.2212
  10   2.0000      -0.925465       -25.1832
  11   2.0000      -0.889897       -24.2153
  12   2.0000      -0.705475       -19.1970
  13   2.0000      -0.688736       -18.7415
  14   2.0000      -0.663013       -18.0415
  15   2.0000      -0.623476       -16.9656
  16   2.0000      -0.619846       -16.8669
  17   2.0000      -0.598760       -16.2931
  18   2.0000      -0.598196       -16.2777
  19   2.0000      -0.584728       -15.9113
  20   2.0000      -0.556682       -15.1481
  21   2.0000      -0.516933       -14.0665
  22   2.0000      -0.507006       -13.7963
  23   2.0000      -0.476504       -12.9663
  24   2.0000      -0.456277       -12.4159
  25   2.0000      -0.447109       -12.1665
  26   2.0000      -0.410479       -11.1697
  27   0.0000       0.120129         3.2689
  28   0.0000       0.139703         3.8015
  29   0.0000       0.166996         4.5442
  30   0.0000       0.177361         4.8263
  31   0.0000       0.179978         4.8974

MULLIKEN ATOMIC CHARGES
-----------------------
   0 O :   -0.499958
   1 H :    0.323725
   2 C :   -0.171722
   3 H :    0.128435
   4 H :    0.116839
   5 H :    0.111736
   6 O :   -0.521256
   7 H :    0.339628
   8 C :   -0.200232
   9 H :    0.137503
  10 H :    0.157625
  11 H :    0.117615
  12 O :   -0.534543
  13 H :    0.344570
  14 C :   -0.156236
  15 H :    0.116438
  16 H :    0.095709
  17 H :    0.094122
Sum of atomic charges:    0.0000000

LOEWDIN ATOMIC CHARGES
----------------------
   0 O :   -0.111030
   1 H :    0.194430
   2 C :   -0.380567
   3 H :    0.110051
   4 H :    0.097994
   5 H :    0.096739
   6 O :   -0.079924
   7 H :    0.196009
   8 C :   -0.373299
   9 H :    0.113917
  10 H :    0.108231
  11 H :    0.101714
  12 O :   -0.121452
  13 H :    0.158500
  14 C :   -0.397660
  15 H :    0.104250
  16 H :    0.091422
  17 H :    0.090676

  Mayer bond orders larger than 0.100000
B(  0-O ,  1-H ) :   0.8379 B(  0-O ,  2-C ) :   0.9166 B(  2-C ,  3-H ) :   0.9388
B(  2-C ,  4-H ) :   0.9385 B(  2-C ,  5-H ) :   0.9359 B(  6-O ,  7-H ) :   0.8304
B(  6-O ,  8-C ) :   0.8565 B(  8-C ,  9-H ) :   0.9380 B(  8-C , 10-H ) :   0.9331
B(  8-C , 11-H ) :   0.9343 B( 12-O , 13-H ) :   0.7853 B( 12-O , 14-C ) :   0.9484
B( 14-C , 15-H ) :   0.9409 B( 14-C , 16-H ) :   0.9366 B( 14-C , 17-H ) :   0.9422

MP2 TOTAL ENERGY:     -346.532749802 Eh
FINAL SINGLE POINT ENERGY      -346.532749802038

DIPOLE MOMENT
-------------
                                X             Y             Z
Electronic contribution:     -0.66751       0.11357       2.06184
Nuclear contribution   :      1.15278      -1.31907      -1.60148
                        -----------------------------------------
Total Dipole Moment    :      0.48526      -1.20549       0.46036
                        -----------------------------------------
Magnitude (a.u.)       :      1.37863
Magnitude (Debye)      :      3.50421

Rotational constants in cm-1:     0.114355     0.024277     0.021174
Rotational constants in MHz :  3428.283254   727.799867   634.779564

                             ****ORCA TERMINATED NORMALLY****
TOTAL RUN TIME: 0 days 0 hours 1 minutes 13 seconds 906 msec
