                         Program Version 4.2.0 -  RELEASE  -
|  1> # 12h2o.su.etal.mol0,5,7,8,10
|  2> ! MP2 def2-TZVP EnGrad TightSCF
|  3>
|  4> %pal
|  5>     nprocs 6
|  6> end
|  7>
|  8> %maxcore 8000
|  9>
| 10> %scf
| 11>     ConvForced true
| 12> end
| 13>
| 14> *xyz 0 1
| 15> O   1.794470000   0.923410000   2.768350000
| 16> H   2.338250000   1.359750000   3.430940000
| 17> H   0.879480000   1.303000000   2.865760000
| 18> O   0.885520000  -1.737840000   0.052730000
| 19> H   1.284090000  -0.839590000   0.017130000
| 20> H   1.032320000  -2.090180000  -0.841890000
| 21> O  -1.737840000  -0.885520000  -0.052730000
| 22> H  -2.090180000  -1.032320000   0.841890000
| 23> H  -0.839590000  -1.284090000  -0.017130000
| 24> O   1.752130000   0.741530000  -2.896280000
| 25> H   2.036450000   0.920500000  -1.984040000
| 26> H   0.921210000   1.242140000  -2.984230000
| 27> O  -0.923410000   1.794470000  -2.768350000
| 28> H  -1.359750000   2.338250000  -3.430940000
| 29> H  -1.303000000   0.879480000  -2.865760000
| 30> *
| 31>
| 32>                          ****END OF INPUT****

CARTESIAN COORDINATES (ANGSTROEM)
---------------------------------
  O      1.794470    0.923410    2.768350
  H      2.338250    1.359750    3.430940
  H      0.879480    1.303000    2.865760
  O      0.885520   -1.737840    0.052730
  H      1.284090   -0.839590    0.017130
  H      1.032320   -2.090180   -0.841890
  O     -1.737840   -0.885520   -0.052730
  H     -2.090180   -1.032320    0.841890
  H     -0.839590   -1.284090   -0.017130
  O      1.752130    0.741530   -2.896280
  H      2.036450    0.920500   -1.984040
  H      0.921210    1.242140   -2.984230
  O     -0.923410    1.794470   -2.768350
  H     -1.359750    2.338250   -3.430940
  H     -1.303000    0.879480   -2.865760

 Total Charge           Charge          ....    0
 Multiplicity           Mult            ....    1
 Number of Electrons    NEL             ....   50
 Basis Dimension        Dim             ....  215

ORBITAL ENERGIES
----------------

  NO   OCC          E(Eh)            E(eV)
   0   2.0000     -20.582774      -560.0857
   1   2.0000     -20.581483      -560.0506
   2   2.0000     -20.570098      -559.7408
   3   2.0000     -20.539472      -558.9075
   4   2.0000     -20.527701      -558.5872
   5   2.0000      -1.363425       -37.1007
   6   2.0000      -1.359333       -36.9893
   7   2.0000      -1.345359       -36.6091
   8   2.0000      -1.321329       -35.9552
   9   2.0000      -1.308640       -35.6099
  10   2.0000      -0.726484       -19.7686
  11   2.0000      -0.721044       -19.6206
  12   2.0000      -0.713624       -19.4187
  13   2.0000      -0.689610       -18.7652
  14   2.0000      -0.683932       -18.6107
  15   2.0000      -0.603985       -16.4353
  16   2.0000      -0.600719       -16.3464
  17   2.0000      -0.582057       -15.8386
  18   2.0000      -0.560749       -15.2588
  19   2.0000      -0.559461       -15.2237
  20   2.0000      -0.520701       -14.1690
  21   2.0000      -0.513364       -13.9693
  22   2.0000      -0.512619       -13.9491
  23   2.0000      -0.486663       -13.2428
  24   2.0000      -0.476074       -12.9546
  25   0.0000       0.097225         2.6456
  26   0.0000       0.121636         3.3099
  27   0.0000       0.139653         3.8002
  28   0.0000       0.160481         4.3669
  29   0.0000       0.178940         4.8692

MULLIKEN ATOMIC CHARGES
-----------------------
   0 O :   -0.687488
   1 H :    0.342498
   2 H :    0.346862
   3 O :   -0.681697
   4 H :    0.358280
   5 H :    0.357662
   6 O :   -0.720617
   7 H :    0.327546
   8 H :    0.354662
   9 O :   -0.704073
  10 H :    0.323006
  11 H :    0.361511
  12 O :   -0.696941
  13 H :    0.349479
  14 H :    0.369310
Sum of atomic charges:   -0.0000000

LOEWDIN ATOMIC CHARGES
----------------------
   0 O :   -0.340430
   1 H :    0.159753
   2 H :    0.182541
   3 O :   -0.287743
   4 H :    0.178020
   5 H :    0.172717
   6 O :   -0.366324
   7 H :    0.158479
   8 H :    0.141622
   9 O :   -0.346491
  10 H :    0.155639
  11 H :    0.148938
  12 O :   -0.310520
  13 H :    0.162423
  14 H :    0.191376

  Mayer bond orders larger than 0.100000
B(  0-O ,  1-H ) :   0.8509 B(  0-O ,  2-H ) :   0.8425 B(  3-O ,  4-H ) :   0.8301
B(  3-O ,  5-H ) :   0.8363 B(  6-O ,  7-H ) :   0.8589 B(  6-O ,  8-H ) :   0.7957
B(  9-O , 10-H ) :   0.8602 B(  9-O , 11-H ) :   0.8111 B( 12-O , 13-H ) :   0.8432
B( 12-O , 14-H ) :   0.8229

MP2 TOTAL ENERGY:     -381.585666175 Eh
FINAL SINGLE POINT ENERGY      -381.585666175281

DIPOLE MOMENT
-------------
                                X             Y             Z
Electronic contribution:      0.14708      -0.13268      -0.10543
Nuclear contribution   :     -0.53476       0.93627       0.68611
                        -----------------------------------------
Total Dipole Moment    :     -0.38768       0.80359       0.58068
                        -----------------------------------------
Magnitude (a.u.)       :      1.06454
Magnitude (Debye)      :      2.70585

Rotational constants in cm-1:     0.055289     0.030518     0.026728
Rotational constants in MHz :  1657.530236   914.911600   801.277277

                             ****ORCA TERMINATED NORMALLY****
TOTAL RUN TIME: 0 days 0 hours 0 minutes 25 seconds 701 msec
