                         Program Version 4.2.0 -  RELEASE  -
|  1> # 12h2o.su.etal.mol0,1,3,6,7,8,10
|  2> ! MP2 def2-TZVP EnGrad TightSCF
|  3>
|  4> %pal
|  5>     nprocs 6
|  6> end
|  7>
|  8> %maxcore 8000
|  9>
| 10> %scf
| 11>     ConvForced true
| 12> end
| 13>
| 14> *xyz 0 1
| 15> O   1.794470000   0.923410000   2.768350000
| 16> H   2.338250000   1.359750000   3.430940000
| 17> H   0.879480000   1.303000000   2.865760000
| 18> O  -1.794470000  -0.923410000   2.768350000
| 19> H  -2.338250000  -1.359750000   3.430940000
| 20> H  -0.879480000  -1.303000000   2.865760000
| 21> O  -1.752130000  -0.741530000  -2.896280000
| 22> H  -2.036450000  -0.920500000  -1.984040000
| 23> H  -0.921210000  -1.242140000  -2.984230000
| 24> O   1.737840000   0.885520000  -0.052730000
| 25> H   2.090180000   1.032320000   0.841890000
| 26> H   0.839590000   1.284090000  -0.017130000
| 27> O  -1.737840000  -0.885520000  -0.052730000
| 28> H  -2.090180000  -1.032320000   0.841890000
| 29> H  -0.839590000  -1.284090000  -0.017130000
| 30> O   1.752130000   0.741530000  -2.896280000
| 31> H   2.036450000   0.920500000  -1.984040000
| 32> H   0.921210000   1.242140000  -2.984230000
| 33> O  -0.923410000   1.794470000  -2.768350000
| 34> H  -1.359750000   2.338250000  -3.430940000
| 35> H  -1.303000000   0.879480000  -2.865760000
| 36> *
| 37>
| 38>                          ****END OF INPUT****

CARTESIAN COORDINATES (ANGSTROEM)
---------------------------------
  O      1.794470    0.923410    2.768350
  H      2.338250    1.359750    3.430940
  H      0.879480    1.303000    2.865760
  O     -1.794470   -0.923410    2.768350
  H     -2.338250   -1.359750    3.430940
  H     -0.879480   -1.303000    2.865760
  O     -1.752130   -0.741530   -2.896280
  H     -2.036450   -0.920500   -1.984040
  H     -0.921210   -1.242140   -2.984230
  O      1.737840    0.885520   -0.052730
  H      2.090180    1.032320    0.841890
  H      0.839590    1.284090   -0.017130
  O     -1.737840   -0.885520   -0.052730
  H     -2.090180   -1.032320    0.841890
  H     -0.839590   -1.284090   -0.017130
  O      1.752130    0.741530   -2.896280
  H      2.036450    0.920500   -1.984040
  H      0.921210    1.242140   -2.984230
  O     -0.923410    1.794470   -2.768350
  H     -1.359750    2.338250   -3.430940
  H     -1.303000    0.879480   -2.865760

 Total Charge           Charge          ....    0
 Multiplicity           Mult            ....    1
 Number of Electrons    NEL             ....   70
 Basis Dimension        Dim             ....  301

ORBITAL ENERGIES
----------------

  NO   OCC          E(Eh)            E(eV)
   0   2.0000     -20.609313      -560.8079
   1   2.0000     -20.603416      -560.6475
   2   2.0000     -20.566419      -559.6407
   3   2.0000     -20.556356      -559.3669
   4   2.0000     -20.546731      -559.1050
   5   2.0000     -20.521551      -558.4198
   6   2.0000     -20.482735      -557.3636
   7   2.0000      -1.387310       -37.7506
   8   2.0000      -1.381282       -37.5866
   9   2.0000      -1.351647       -36.7802
  10   2.0000      -1.341220       -36.4965
  11   2.0000      -1.328058       -36.1383
  12   2.0000      -1.305040       -35.5119
  13   2.0000      -1.267708       -34.4961
  14   2.0000      -0.754374       -20.5276
  15   2.0000      -0.747790       -20.3484
  16   2.0000      -0.719890       -19.5892
  17   2.0000      -0.701813       -19.0973
  18   2.0000      -0.697414       -18.9776
  19   2.0000      -0.688864       -18.7449
  20   2.0000      -0.644088       -17.5265
  21   2.0000      -0.627628       -17.0786
  22   2.0000      -0.618588       -16.8326
  23   2.0000      -0.602454       -16.3936
  24   2.0000      -0.581874       -15.8336
  25   2.0000      -0.573999       -15.6193
  26   2.0000      -0.552256       -15.0277
  27   2.0000      -0.544900       -14.8275
  28   2.0000      -0.538034       -14.6406
  29   2.0000      -0.513524       -13.9737
  30   2.0000      -0.509843       -13.8735
  31   2.0000      -0.492655       -13.4058
  32   2.0000      -0.489445       -13.3185
  33   2.0000      -0.467534       -12.7223
  34   2.0000      -0.433228       -11.7887
  35   0.0000       0.077907         2.1200
  36   0.0000       0.113580         3.0907
  37   0.0000       0.136121         3.7040
  38   0.0000       0.165072         4.4918
  39   0.0000       0.169625         4.6157

MULLIKEN ATOMIC CHARGES
-----------------------
   0 O :   -0.701249
   1 H :    0.355570
   2 H :    0.357565
   3 O :   -0.701483
   4 H :    0.356817
   5 H :    0.359045
   6 O :   -0.704463
   7 H :    0.385978
   8 H :    0.352781
   9 O :   -0.715454
  10 H :    0.368534
  11 H :    0.341660
  12 O :   -0.715300
  13 H :    0.376654
  14 H :    0.337827
  15 O :   -0.740618
  16 H :    0.363639
  17 H :    0.346193
  18 O :   -0.738980
  19 H :    0.331584
  20 H :    0.383701
Sum of atomic charges:   -0.0000000

LOEWDIN ATOMIC CHARGES
----------------------
   0 O :   -0.312904
   1 H :    0.165157
   2 H :    0.185516
   3 O :   -0.312032
   4 H :    0.165883
   5 H :    0.186375
   6 O :   -0.278721
   7 H :    0.158493
   8 H :    0.171633
   9 O :   -0.327102
  10 H :    0.150384
  11 H :    0.169492
  12 O :   -0.325469
  13 H :    0.154324
  14 H :    0.168974
  15 O :   -0.363337
  16 H :    0.147540
  17 H :    0.140428
  18 O :   -0.341971
  19 H :    0.151188
  20 H :    0.146146

  Mayer bond orders larger than 0.100000
B(  0-O ,  1-H ) :   0.8396 B(  0-O ,  2-H ) :   0.8305 B(  3-O ,  4-H ) :   0.8390
B(  3-O ,  5-H ) :   0.8295 B(  6-O ,  7-H ) :   0.7988 B(  6-O ,  8-H ) :   0.8364
B(  9-O , 10-H ) :   0.8136 B(  9-O , 11-H ) :   0.8388 B( 12-O , 13-H ) :   0.8071
B( 12-O , 14-H ) :   0.8418 B( 15-O , 16-H ) :   0.8265 B( 15-O , 17-H ) :   0.8181
B( 18-O , 19-H ) :   0.8536 B( 18-O , 20-H ) :   0.7567

MP2 TOTAL ENERGY:     -534.242353088 Eh
FINAL SINGLE POINT ENERGY      -534.242353088028

DIPOLE MOMENT
-------------
                                X             Y             Z
Electronic contribution:     -0.17381      -0.20298       0.19666
Nuclear contribution   :     -0.67915      -0.30898       3.55336
                        -----------------------------------------
Total Dipole Moment    :     -0.85295      -0.51196       3.75003
                        -----------------------------------------
Magnitude (a.u.)       :      3.87973
Magnitude (Debye)      :      9.86150

Rotational constants in cm-1:     0.035807     0.021880     0.014927
Rotational constants in MHz :  1073.452597   655.943411   447.502174

                             ****ORCA TERMINATED NORMALLY****
TOTAL RUN TIME: 0 days 0 hours 1 minutes 29 seconds 138 msec
