                         Program Version 4.2.0 -  RELEASE  -
|  1> # 12h2o.su.etal.mol0,1,2,3,8,9,10,11
|  2> ! MP2 def2-TZVP EnGrad TightSCF
|  3>
|  4> %pal
|  5>     nprocs 6
|  6> end
|  7>
|  8> %maxcore 8000
|  9>
| 10> %scf
| 11>     ConvForced true
| 12> end
| 13>
| 14> *xyz 0 1
| 15> O   1.794470000   0.923410000   2.768350000
| 16> H   2.338250000   1.359750000   3.430940000
| 17> H   0.879480000   1.303000000   2.865760000
| 18> O  -1.794470000  -0.923410000   2.768350000
| 19> H  -2.338250000  -1.359750000   3.430940000
| 20> H  -0.879480000  -1.303000000   2.865760000
| 21> O   0.923410000  -1.794470000  -2.768350000
| 22> H   1.359750000  -2.338250000  -3.430940000
| 23> H   1.303000000  -0.879480000  -2.865760000
| 24> O  -1.752130000  -0.741530000  -2.896280000
| 25> H  -2.036450000  -0.920500000  -1.984040000
| 26> H  -0.921210000  -1.242140000  -2.984230000
| 27> O   1.752130000   0.741530000  -2.896280000
| 28> H   2.036450000   0.920500000  -1.984040000
| 29> H   0.921210000   1.242140000  -2.984230000
| 30> O   0.741530000  -1.752130000   2.896280000
| 31> H   0.920500000  -2.036450000   1.984040000
| 32> H   1.242140000  -0.921210000   2.984230000
| 33> O  -0.923410000   1.794470000  -2.768350000
| 34> H  -1.359750000   2.338250000  -3.430940000
| 35> H  -1.303000000   0.879480000  -2.865760000
| 36> O  -0.741530000   1.752130000   2.896280000
| 37> H  -0.920500000   2.036450000   1.984040000
| 38> H  -1.242140000   0.921210000   2.984230000
| 39> *
| 40>
| 41>                          ****END OF INPUT****

CARTESIAN COORDINATES (ANGSTROEM)
---------------------------------
  O      1.794470    0.923410    2.768350
  H      2.338250    1.359750    3.430940
  H      0.879480    1.303000    2.865760
  O     -1.794470   -0.923410    2.768350
  H     -2.338250   -1.359750    3.430940
  H     -0.879480   -1.303000    2.865760
  O      0.923410   -1.794470   -2.768350
  H      1.359750   -2.338250   -3.430940
  H      1.303000   -0.879480   -2.865760
  O     -1.752130   -0.741530   -2.896280
  H     -2.036450   -0.920500   -1.984040
  H     -0.921210   -1.242140   -2.984230
  O      1.752130    0.741530   -2.896280
  H      2.036450    0.920500   -1.984040
  H      0.921210    1.242140   -2.984230
  O      0.741530   -1.752130    2.896280
  H      0.920500   -2.036450    1.984040
  H      1.242140   -0.921210    2.984230
  O     -0.923410    1.794470   -2.768350
  H     -1.359750    2.338250   -3.430940
  H     -1.303000    0.879480   -2.865760
  O     -0.741530    1.752130    2.896280
  H     -0.920500    2.036450    1.984040
  H     -1.242140    0.921210    2.984230

 Total Charge           Charge          ....    0
 Multiplicity           Mult            ....    1
 Number of Electrons    NEL             ....   80
 Basis Dimension        Dim             ....  344

ORBITAL ENERGIES
----------------

  NO   OCC          E(Eh)            E(eV)
   0   2.0000     -20.569747      -559.7313
   1   2.0000     -20.569747      -559.7313
   2   2.0000     -20.569747      -559.7313
   3   2.0000     -20.569746      -559.7313
   4   2.0000     -20.549852      -559.1899
   5   2.0000     -20.549852      -559.1899
   6   2.0000     -20.549852      -559.1899
   7   2.0000     -20.549852      -559.1899
   8   2.0000      -1.365401       -37.1545
   9   2.0000      -1.365396       -37.1543
  10   2.0000      -1.358031       -36.9539
  11   2.0000      -1.358031       -36.9539
  12   2.0000      -1.334074       -36.3020
  13   2.0000      -1.334074       -36.3020
  14   2.0000      -1.327063       -36.1112
  15   2.0000      -1.327060       -36.1111
  16   2.0000      -0.724833       -19.7237
  17   2.0000      -0.724829       -19.7236
  18   2.0000      -0.722646       -19.6642
  19   2.0000      -0.722646       -19.6642
  20   2.0000      -0.713189       -19.4069
  21   2.0000      -0.713163       -19.4061
  22   2.0000      -0.709250       -19.2997
  23   2.0000      -0.709250       -19.2997
  24   2.0000      -0.622975       -16.9520
  25   2.0000      -0.622801       -16.9473
  26   2.0000      -0.596076       -16.2201
  27   2.0000      -0.596076       -16.2201
  28   2.0000      -0.582602       -15.8534
  29   2.0000      -0.582602       -15.8534
  30   2.0000      -0.558114       -15.1871
  31   2.0000      -0.558011       -15.1843
  32   2.0000      -0.510530       -13.8922
  33   2.0000      -0.510520       -13.8919
  34   2.0000      -0.510390       -13.8884
  35   2.0000      -0.510390       -13.8884
  36   2.0000      -0.500890       -13.6299
  37   2.0000      -0.500890       -13.6299
  38   2.0000      -0.499330       -13.5874
  39   2.0000      -0.499300       -13.5866
  40   0.0000       0.105875         2.8810
  41   0.0000       0.130919         3.5625
  42   0.0000       0.151762         4.1296
  43   0.0000       0.151762         4.1296
  44   0.0000       0.164382         4.4731

MULLIKEN ATOMIC CHARGES
-----------------------
   0 O :   -0.745715
   1 H :    0.342202
   2 H :    0.379395
   3 O :   -0.745715
   4 H :    0.342202
   5 H :    0.379395
   6 O :   -0.745715
   7 H :    0.342202
   8 H :    0.379395
   9 O :   -0.709795
  10 H :    0.355805
  11 H :    0.378107
  12 O :   -0.709795
  13 H :    0.355805
  14 H :    0.378107
  15 O :   -0.709795
  16 H :    0.355805
  17 H :    0.378107
  18 O :   -0.745715
  19 H :    0.342202
  20 H :    0.379395
  21 O :   -0.709795
  22 H :    0.355805
  23 H :    0.378107
Sum of atomic charges:    0.0000000

LOEWDIN ATOMIC CHARGES
----------------------
   0 O :   -0.342832
   1 H :    0.155996
   2 H :    0.144976
   3 O :   -0.342832
   4 H :    0.155996
   5 H :    0.144976
   6 O :   -0.342832
   7 H :    0.155996
   8 H :    0.144976
   9 O :   -0.284549
  10 H :    0.172133
  11 H :    0.154276
  12 O :   -0.284549
  13 H :    0.172133
  14 H :    0.154276
  15 O :   -0.284549
  16 H :    0.172133
  17 H :    0.154276
  18 O :   -0.342832
  19 H :    0.155996
  20 H :    0.144976
  21 O :   -0.284549
  22 H :    0.172133
  23 H :    0.154276

  Mayer bond orders larger than 0.100000
B(  0-O ,  1-H ) :   0.8479 B(  0-O ,  2-H ) :   0.7485 B(  2-H , 21-O ) :   0.1101
B(  3-O ,  4-H ) :   0.8479 B(  3-O ,  5-H ) :   0.7485 B(  5-H , 15-O ) :   0.1101
B(  6-O ,  7-H ) :   0.8479 B(  6-O ,  8-H ) :   0.7485 B(  8-H , 12-O ) :   0.1101
B(  9-O , 10-H ) :   0.8388 B(  9-O , 11-H ) :   0.7819 B(  9-O , 20-H ) :   0.1101
B( 12-O , 13-H ) :   0.8388 B( 12-O , 14-H ) :   0.7819 B( 15-O , 16-H ) :   0.8388
B( 15-O , 17-H ) :   0.7819 B( 18-O , 19-H ) :   0.8479 B( 18-O , 20-H ) :   0.7485
B( 21-O , 22-H ) :   0.8388 B( 21-O , 23-H ) :   0.7819

MP2 TOTAL ENERGY:     -610.597296100 Eh
FINAL SINGLE POINT ENERGY      -610.597296100475

DIPOLE MOMENT
-------------
                                X             Y             Z
Electronic contribution:      0.00000       0.00000       0.00000
Nuclear contribution   :     -0.00000      -0.00000       0.00000
                        -----------------------------------------
Total Dipole Moment    :      0.00000       0.00000       0.00000
                        -----------------------------------------
Magnitude (a.u.)       :      0.00000
Magnitude (Debye)      :      0.00000

Rotational constants in cm-1:     0.030020     0.011703     0.011703
Rotational constants in MHz :   899.985374   350.860066   350.860066

                             ****ORCA TERMINATED NORMALLY****
TOTAL RUN TIME: 0 days 0 hours 2 minutes 6 seconds 890 msec
