                         Program Version 4.2.0 -  RELEASE  -
|  1> # 12h2o.su.etal.mol2,3,4,5,8,10
|  2> ! MP2 def2-TZVP EnGrad TightSCF
|  3>
|  4> %pal
|  5>     nprocs 6
|  6> end
|  7>
|  8> %maxcore 8000
|  9>
| 10> %scf
| 11>     ConvForced true
| 12> end
| 13>
| 14> *xyz 0 1
| 15> O   0.923410000  -1.794470000  -2.768350000
| 16> H   1.359750000  -2.338250000  -3.430940000
| 17> H   1.303000000  -0.879480000  -2.865760000
| 18> O  -1.752130000  -0.741530000  -2.896280000
| 19> H  -2.036450000  -0.920500000  -1.984040000
| 20> H  -0.921210000  -1.242140000  -2.984230000
| 21> O  -0.885520000   1.737840000   0.052730000
| 22> H  -1.032320000   2.090180000  -0.841890000
| 23> H  -1.284090000   0.839590000   0.017130000
| 24> O   0.885520000  -1.737840000   0.052730000
| 25> H   1.284090000  -0.839590000   0.017130000
| 26> H   1.032320000  -2.090180000  -0.841890000
| 27> O   1.752130000   0.741530000  -2.896280000
| 28> H   2.036450000   0.920500000  -1.984040000
| 29> H   0.921210000   1.242140000  -2.984230000
| 30> O  -0.923410000   1.794470000  -2.768350000
| 31> H  -1.359750000   2.338250000  -3.430940000
| 32> H  -1.303000000   0.879480000  -2.865760000
| 33> *
| 34>
| 35>                          ****END OF INPUT****

CARTESIAN COORDINATES (ANGSTROEM)
---------------------------------
  O      0.923410   -1.794470   -2.768350
  H      1.359750   -2.338250   -3.430940
  H      1.303000   -0.879480   -2.865760
  O     -1.752130   -0.741530   -2.896280
  H     -2.036450   -0.920500   -1.984040
  H     -0.921210   -1.242140   -2.984230
  O     -0.885520    1.737840    0.052730
  H     -1.032320    2.090180   -0.841890
  H     -1.284090    0.839590    0.017130
  O      0.885520   -1.737840    0.052730
  H      1.284090   -0.839590    0.017130
  H      1.032320   -2.090180   -0.841890
  O      1.752130    0.741530   -2.896280
  H      2.036450    0.920500   -1.984040
  H      0.921210    1.242140   -2.984230
  O     -0.923410    1.794470   -2.768350
  H     -1.359750    2.338250   -3.430940
  H     -1.303000    0.879480   -2.865760

 Total Charge           Charge          ....    0
 Multiplicity           Mult            ....    1
 Number of Electrons    NEL             ....   60
 Basis Dimension        Dim             ....  258

ORBITAL ENERGIES
----------------

  NO   OCC          E(Eh)            E(eV)
   0   2.0000     -20.589181      -560.2601
   1   2.0000     -20.589181      -560.2601
   2   2.0000     -20.580211      -560.0160
   3   2.0000     -20.580210      -560.0160
   4   2.0000     -20.542584      -558.9921
   5   2.0000     -20.542583      -558.9921
   6   2.0000      -1.388401       -37.7803
   7   2.0000      -1.378294       -37.5053
   8   2.0000      -1.366266       -37.1780
   9   2.0000      -1.356580       -36.9144
  10   2.0000      -1.321559       -35.9614
  11   2.0000      -1.320952       -35.9449
  12   2.0000      -0.749198       -20.3867
  13   2.0000      -0.748493       -20.3675
  14   2.0000      -0.738680       -20.1005
  15   2.0000      -0.733096       -19.9486
  16   2.0000      -0.692698       -18.8493
  17   2.0000      -0.689686       -18.7673
  18   2.0000      -0.646532       -17.5930
  19   2.0000      -0.620430       -16.8827
  20   2.0000      -0.610264       -16.6061
  21   2.0000      -0.589318       -16.0362
  22   2.0000      -0.568110       -15.4591
  23   2.0000      -0.562799       -15.3145
  24   2.0000      -0.532890       -14.5007
  25   2.0000      -0.530616       -14.4388
  26   2.0000      -0.524494       -14.2722
  27   2.0000      -0.522754       -14.2249
  28   2.0000      -0.490300       -13.3418
  29   2.0000      -0.485789       -13.2190
  30   0.0000       0.092063         2.5052
  31   0.0000       0.130718         3.5570
  32   0.0000       0.140203         3.8151
  33   0.0000       0.146296         3.9809
  34   0.0000       0.208059         5.6616

MULLIKEN ATOMIC CHARGES
-----------------------
   0 O :   -0.757303
   1 H :    0.354655
   2 H :    0.380286
   3 O :   -0.705479
   4 H :    0.355085
   5 H :    0.383707
   6 O :   -0.695305
   7 H :    0.364803
   8 H :    0.319550
   9 O :   -0.695305
  10 H :    0.319550
  11 H :    0.364803
  12 O :   -0.705479
  13 H :    0.355085
  14 H :    0.383707
  15 O :   -0.757303
  16 H :    0.354655
  17 H :    0.380286
Sum of atomic charges:   -0.0000000

LOEWDIN ATOMIC CHARGES
----------------------
   0 O :   -0.315064
   1 H :    0.161035
   2 H :    0.145192
   3 O :   -0.278479
   4 H :    0.170212
   5 H :    0.155803
   6 O :   -0.345289
   7 H :    0.146794
   8 H :    0.159797
   9 O :   -0.345289
  10 H :    0.159797
  11 H :    0.146794
  12 O :   -0.278479
  13 H :    0.170212
  14 H :    0.155803
  15 O :   -0.315064
  16 H :    0.161035
  17 H :    0.145192

  Mayer bond orders larger than 0.100000
B(  0-O ,  1-H ) :   0.8379 B(  0-O ,  2-H ) :   0.7346 B(  2-H , 12-O ) :   0.1122
B(  3-O ,  4-H ) :   0.8373 B(  3-O ,  5-H ) :   0.7844 B(  3-O , 17-H ) :   0.1122
B(  6-O ,  7-H ) :   0.8177 B(  6-O ,  8-H ) :   0.8569 B(  9-O , 10-H ) :   0.8569
B(  9-O , 11-H ) :   0.8177 B( 12-O , 13-H ) :   0.8373 B( 12-O , 14-H ) :   0.7844
B( 15-O , 16-H ) :   0.8379 B( 15-O , 17-H ) :   0.7346

MP2 TOTAL ENERGY:     -457.939326417 Eh
FINAL SINGLE POINT ENERGY      -457.939326417416

DIPOLE MOMENT
-------------
                                X             Y             Z
Electronic contribution:      0.00000      -0.00000      -0.13460
Nuclear contribution   :     -0.00000      -0.00000      -1.44153
                        -----------------------------------------
Total Dipole Moment    :      0.00000      -0.00000      -1.57613
                        -----------------------------------------
Magnitude (a.u.)       :      1.57613
Magnitude (Debye)      :      4.00620

Rotational constants in cm-1:     0.051528     0.040310     0.034821
Rotational constants in MHz :  1544.783701  1208.463347  1043.903119

                             ****ORCA TERMINATED NORMALLY****
TOTAL RUN TIME: 0 days 0 hours 1 minutes 18 seconds 370 msec
