                         Program Version 4.2.0 -  RELEASE  -
|  1> # 12h2o.su.etal.mol1,2,5,6,7,8,10,11
|  2> ! MP2 def2-TZVP EnGrad TightSCF
|  3>
|  4> %pal
|  5>     nprocs 6
|  6> end
|  7>
|  8> %maxcore 8000
|  9>
| 10> %scf
| 11>     ConvForced true
| 12> end
| 13>
| 14> *xyz 0 1
| 15> O  -1.794470000  -0.923410000   2.768350000
| 16> H  -2.338250000  -1.359750000   3.430940000
| 17> H  -0.879480000  -1.303000000   2.865760000
| 18> O   0.923410000  -1.794470000  -2.768350000
| 19> H   1.359750000  -2.338250000  -3.430940000
| 20> H   1.303000000  -0.879480000  -2.865760000
| 21> O   0.885520000  -1.737840000   0.052730000
| 22> H   1.284090000  -0.839590000   0.017130000
| 23> H   1.032320000  -2.090180000  -0.841890000
| 24> O   1.737840000   0.885520000  -0.052730000
| 25> H   2.090180000   1.032320000   0.841890000
| 26> H   0.839590000   1.284090000  -0.017130000
| 27> O  -1.737840000  -0.885520000  -0.052730000
| 28> H  -2.090180000  -1.032320000   0.841890000
| 29> H  -0.839590000  -1.284090000  -0.017130000
| 30> O   1.752130000   0.741530000  -2.896280000
| 31> H   2.036450000   0.920500000  -1.984040000
| 32> H   0.921210000   1.242140000  -2.984230000
| 33> O  -0.923410000   1.794470000  -2.768350000
| 34> H  -1.359750000   2.338250000  -3.430940000
| 35> H  -1.303000000   0.879480000  -2.865760000
| 36> O  -0.741530000   1.752130000   2.896280000
| 37> H  -0.920500000   2.036450000   1.984040000
| 38> H  -1.242140000   0.921210000   2.984230000
| 39> *
| 40>
| 41>                          ****END OF INPUT****

CARTESIAN COORDINATES (ANGSTROEM)
---------------------------------
  O     -1.794470   -0.923410    2.768350
  H     -2.338250   -1.359750    3.430940
  H     -0.879480   -1.303000    2.865760
  O      0.923410   -1.794470   -2.768350
  H      1.359750   -2.338250   -3.430940
  H      1.303000   -0.879480   -2.865760
  O      0.885520   -1.737840    0.052730
  H      1.284090   -0.839590    0.017130
  H      1.032320   -2.090180   -0.841890
  O      1.737840    0.885520   -0.052730
  H      2.090180    1.032320    0.841890
  H      0.839590    1.284090   -0.017130
  O     -1.737840   -0.885520   -0.052730
  H     -2.090180   -1.032320    0.841890
  H     -0.839590   -1.284090   -0.017130
  O      1.752130    0.741530   -2.896280
  H      2.036450    0.920500   -1.984040
  H      0.921210    1.242140   -2.984230
  O     -0.923410    1.794470   -2.768350
  H     -1.359750    2.338250   -3.430940
  H     -1.303000    0.879480   -2.865760
  O     -0.741530    1.752130    2.896280
  H     -0.920500    2.036450    1.984040
  H     -1.242140    0.921210    2.984230

 Total Charge           Charge          ....    0
 Multiplicity           Mult            ....    1
 Number of Electrons    NEL             ....   80
 Basis Dimension        Dim             ....  344

ORBITAL ENERGIES
----------------

  NO   OCC          E(Eh)            E(eV)
   0   2.0000     -20.610867      -560.8502
   1   2.0000     -20.603371      -560.6462
   2   2.0000     -20.587475      -560.2137
   3   2.0000     -20.553954      -559.3015
   4   2.0000     -20.545865      -559.0814
   5   2.0000     -20.533702      -558.7504
   6   2.0000     -20.528101      -558.5980
   7   2.0000     -20.499188      -557.8113
   8   2.0000      -1.394176       -37.9375
   9   2.0000      -1.383636       -37.6507
  10   2.0000      -1.366044       -37.1719
  11   2.0000      -1.346175       -36.6313
  12   2.0000      -1.327893       -36.1338
  13   2.0000      -1.322714       -35.9929
  14   2.0000      -1.311410       -35.6853
  15   2.0000      -1.282540       -34.8997
  16   2.0000      -0.752597       -20.4792
  17   2.0000      -0.749308       -20.3897
  18   2.0000      -0.733306       -19.9543
  19   2.0000      -0.711778       -19.3685
  20   2.0000      -0.700464       -19.0606
  21   2.0000      -0.697418       -18.9777
  22   2.0000      -0.693968       -18.8838
  23   2.0000      -0.667159       -18.1543
  24   2.0000      -0.640612       -17.4319
  25   2.0000      -0.619911       -16.8686
  26   2.0000      -0.606921       -16.5152
  27   2.0000      -0.591264       -16.0891
  28   2.0000      -0.582688       -15.8558
  29   2.0000      -0.574860       -15.6427
  30   2.0000      -0.551564       -15.0088
  31   2.0000      -0.547588       -14.9006
  32   2.0000      -0.533439       -14.5156
  33   2.0000      -0.527505       -14.3541
  34   2.0000      -0.517372       -14.0784
  35   2.0000      -0.496025       -13.4975
  36   2.0000      -0.493137       -13.4189
  37   2.0000      -0.482623       -13.1328
  38   2.0000      -0.471236       -12.8230
  39   2.0000      -0.450143       -12.2490
  40   0.0000       0.092141         2.5073
  41   0.0000       0.116212         3.1623
  42   0.0000       0.129481         3.5234
  43   0.0000       0.155955         4.2437
  44   0.0000       0.166725         4.5368

MULLIKEN ATOMIC CHARGES
-----------------------
   0 O :   -0.714123
   1 H :    0.360240
   2 H :    0.375449
   3 O :   -0.739528
   4 H :    0.333096
   5 H :    0.369173
   6 O :   -0.736091
   7 H :    0.348454
   8 H :    0.379792
   9 O :   -0.719285
  10 H :    0.373936
  11 H :    0.372289
  12 O :   -0.746438
  13 H :    0.350253
  14 H :    0.352206
  15 O :   -0.715639
  16 H :    0.380464
  17 H :    0.366758
  18 O :   -0.711958
  19 H :    0.353760
  20 H :    0.382369
  21 O :   -0.705862
  22 H :    0.328125
  23 H :    0.362559
Sum of atomic charges:    0.0000000

LOEWDIN ATOMIC CHARGES
----------------------
   0 O :   -0.287236
   1 H :    0.165992
   2 H :    0.193332
   3 O :   -0.342689
   4 H :    0.151888
   5 H :    0.143003
   6 O :   -0.323403
   7 H :    0.136268
   8 H :    0.151214
   9 O :   -0.276854
  10 H :    0.179497
  11 H :    0.182549
  12 O :   -0.375224
  13 H :    0.139326
  14 H :    0.136546
  15 O :   -0.285626
  16 H :    0.154700
  17 H :    0.150056
  18 O :   -0.314226
  19 H :    0.164542
  20 H :    0.196172
  21 O :   -0.345695
  22 H :    0.157329
  23 H :    0.148541

  Mayer bond orders larger than 0.100000
B(  0-O ,  1-H ) :   0.8339 B(  0-O ,  2-H ) :   0.8166 B(  3-O ,  4-H ) :   0.8525
B(  3-O ,  5-H ) :   0.7523 B(  5-H , 15-O ) :   0.1096 B(  6-O ,  7-H ) :   0.8045
B(  6-O ,  8-H ) :   0.7969 B(  9-O , 10-H ) :   0.8247 B(  9-O , 11-H ) :   0.8145
B( 12-O , 13-H ) :   0.8373 B( 12-O , 14-H ) :   0.7872 B( 15-O , 16-H ) :   0.8134
B( 15-O , 17-H ) :   0.8017 B( 18-O , 19-H ) :   0.8409 B( 18-O , 20-H ) :   0.8126
B( 21-O , 22-H ) :   0.8564 B( 21-O , 23-H ) :   0.8162

MP2 TOTAL ENERGY:     -610.576543829 Eh
FINAL SINGLE POINT ENERGY      -610.576543828609

DIPOLE MOMENT
-------------
                                X             Y             Z
Electronic contribution:      0.13067       0.32677       0.03501
Nuclear contribution   :     -0.25770      -0.11407       0.14168
                        -----------------------------------------
Total Dipole Moment    :     -0.12703       0.21271       0.17669
                        -----------------------------------------
Magnitude (a.u.)       :      0.30430
Magnitude (Debye)      :      0.77347

Rotational constants in cm-1:     0.035828     0.017086     0.015600
Rotational constants in MHz :  1074.089378   512.217077   467.666817

                             ****ORCA TERMINATED NORMALLY****
TOTAL RUN TIME: 0 days 0 hours 3 minutes 0 seconds 491 msec
