                         Program Version 4.2.0 -  RELEASE  -
|  1> # 12h2o.su.etal.mol1,3,6,7,9
|  2> ! MP2 def2-TZVP EnGrad TightSCF
|  3>
|  4> %pal
|  5>     nprocs 6
|  6> end
|  7>
|  8> %maxcore 8000
|  9>
| 10> %scf
| 11>     ConvForced true
| 12> end
| 13>
| 14> *xyz 0 1
| 15> O  -1.794470000  -0.923410000   2.768350000
| 16> H  -2.338250000  -1.359750000   3.430940000
| 17> H  -0.879480000  -1.303000000   2.865760000
| 18> O  -1.752130000  -0.741530000  -2.896280000
| 19> H  -2.036450000  -0.920500000  -1.984040000
| 20> H  -0.921210000  -1.242140000  -2.984230000
| 21> O   1.737840000   0.885520000  -0.052730000
| 22> H   2.090180000   1.032320000   0.841890000
| 23> H   0.839590000   1.284090000  -0.017130000
| 24> O  -1.737840000  -0.885520000  -0.052730000
| 25> H  -2.090180000  -1.032320000   0.841890000
| 26> H  -0.839590000  -1.284090000  -0.017130000
| 27> O   0.741530000  -1.752130000   2.896280000
| 28> H   0.920500000  -2.036450000   1.984040000
| 29> H   1.242140000  -0.921210000   2.984230000
| 30> *
| 31>
| 32>                          ****END OF INPUT****

CARTESIAN COORDINATES (ANGSTROEM)
---------------------------------
  O     -1.794470   -0.923410    2.768350
  H     -2.338250   -1.359750    3.430940
  H     -0.879480   -1.303000    2.865760
  O     -1.752130   -0.741530   -2.896280
  H     -2.036450   -0.920500   -1.984040
  H     -0.921210   -1.242140   -2.984230
  O      1.737840    0.885520   -0.052730
  H      2.090180    1.032320    0.841890
  H      0.839590    1.284090   -0.017130
  O     -1.737840   -0.885520   -0.052730
  H     -2.090180   -1.032320    0.841890
  H     -0.839590   -1.284090   -0.017130
  O      0.741530   -1.752130    2.896280
  H      0.920500   -2.036450    1.984040
  H      1.242140   -0.921210    2.984230

 Total Charge           Charge          ....    0
 Multiplicity           Mult            ....    1
 Number of Electrons    NEL             ....   50
 Basis Dimension        Dim             ....  215

ORBITAL ENERGIES
----------------

  NO   OCC          E(Eh)            E(eV)
   0   2.0000     -20.624314      -561.2161
   1   2.0000     -20.580763      -560.0310
   2   2.0000     -20.560169      -559.4707
   3   2.0000     -20.559703      -559.4580
   4   2.0000     -20.521733      -558.4248
   5   2.0000      -1.409702       -38.3599
   6   2.0000      -1.356514       -36.9126
   7   2.0000      -1.348601       -36.6973
   8   2.0000      -1.337017       -36.3821
   9   2.0000      -1.303427       -35.4680
  10   2.0000      -0.766896       -20.8683
  11   2.0000      -0.731235       -19.8979
  12   2.0000      -0.718270       -19.5451
  13   2.0000      -0.709075       -19.2949
  14   2.0000      -0.671534       -18.2734
  15   2.0000      -0.647437       -17.6176
  16   2.0000      -0.601021       -16.3546
  17   2.0000      -0.595567       -16.2062
  18   2.0000      -0.582741       -15.8572
  19   2.0000      -0.549481       -14.9521
  20   2.0000      -0.539136       -14.6706
  21   2.0000      -0.523628       -14.2486
  22   2.0000      -0.508859       -13.8467
  23   2.0000      -0.503581       -13.7031
  24   2.0000      -0.468198       -12.7403
  25   0.0000       0.067249         1.8299
  26   0.0000       0.122488         3.3331
  27   0.0000       0.142032         3.8649
  28   0.0000       0.149181         4.0594
  29   0.0000       0.178004         4.8437

MULLIKEN ATOMIC CHARGES
-----------------------
   0 O :   -0.735810
   1 H :    0.341999
   2 H :    0.367652
   3 O :   -0.696325
   4 H :    0.372102
   5 H :    0.315422
   6 O :   -0.680504
   7 H :    0.324998
   8 H :    0.357587
   9 O :   -0.705074
  10 H :    0.379986
  11 H :    0.311972
  12 O :   -0.671441
  13 H :    0.358496
  14 H :    0.358937
Sum of atomic charges:   -0.0000000

LOEWDIN ATOMIC CHARGES
----------------------
   0 O :   -0.339149
   1 H :    0.156357
   2 H :    0.142608
   3 O :   -0.342181
   4 H :    0.152391
   5 H :    0.155971
   6 O :   -0.335573
   7 H :    0.158520
   8 H :    0.179123
   9 O :   -0.324254
  10 H :    0.154612
  11 H :    0.156714
  12 O :   -0.264144
  13 H :    0.172867
  14 H :    0.176139

  Mayer bond orders larger than 0.100000
B(  0-O ,  1-H ) :   0.8480 B(  0-O ,  2-H ) :   0.7724 B(  3-O ,  4-H ) :   0.8170
B(  3-O ,  5-H ) :   0.8652 B(  6-O ,  7-H ) :   0.8583 B(  6-O ,  8-H ) :   0.8347
B(  9-O , 10-H ) :   0.7964 B(  9-O , 11-H ) :   0.8559 B( 12-O , 13-H ) :   0.8356
B( 12-O , 14-H ) :   0.8348

MP2 TOTAL ENERGY:     -381.588865770 Eh
FINAL SINGLE POINT ENERGY      -381.588865769823

DIPOLE MOMENT
-------------
                                X             Y             Z
Electronic contribution:      0.00461       0.11440       0.05416
Nuclear contribution   :      1.32960      -0.78984       2.18115
                        -----------------------------------------
Total Dipole Moment    :      1.33421      -0.67543       2.23531
                        -----------------------------------------
Magnitude (a.u.)       :      2.68942
Magnitude (Debye)      :      6.83595

Rotational constants in cm-1:     0.067869     0.035952     0.025958
Rotational constants in MHz :  2034.651474  1077.819512   778.193796

                             ****ORCA TERMINATED NORMALLY****
TOTAL RUN TIME: 0 days 0 hours 0 minutes 34 seconds 289 msec
