                         Program Version 4.2.0 -  RELEASE  -
|  1> # 12h2o.su.etal.mol5,6,9,10
|  2> ! MP2 def2-TZVP EnGrad TightSCF
|  3>
|  4> %pal
|  5>     nprocs 6
|  6> end
|  7>
|  8> %maxcore 8000
|  9>
| 10> %scf
| 11>     ConvForced true
| 12> end
| 13>
| 14> *xyz 0 1
| 15> O   0.885520000  -1.737840000   0.052730000
| 16> H   1.284090000  -0.839590000   0.017130000
| 17> H   1.032320000  -2.090180000  -0.841890000
| 18> O   1.737840000   0.885520000  -0.052730000
| 19> H   2.090180000   1.032320000   0.841890000
| 20> H   0.839590000   1.284090000  -0.017130000
| 21> O   0.741530000  -1.752130000   2.896280000
| 22> H   0.920500000  -2.036450000   1.984040000
| 23> H   1.242140000  -0.921210000   2.984230000
| 24> O  -0.923410000   1.794470000  -2.768350000
| 25> H  -1.359750000   2.338250000  -3.430940000
| 26> H  -1.303000000   0.879480000  -2.865760000
| 27> *
| 28>
| 29>                          ****END OF INPUT****

CARTESIAN COORDINATES (ANGSTROEM)
---------------------------------
  O      0.885520   -1.737840    0.052730
  H      1.284090   -0.839590    0.017130
  H      1.032320   -2.090180   -0.841890
  O      1.737840    0.885520   -0.052730
  H      2.090180    1.032320    0.841890
  H      0.839590    1.284090   -0.017130
  O      0.741530   -1.752130    2.896280
  H      0.920500   -2.036450    1.984040
  H      1.242140   -0.921210    2.984230
  O     -0.923410    1.794470   -2.768350
  H     -1.359750    2.338250   -3.430940
  H     -1.303000    0.879480   -2.865760

 Total Charge           Charge          ....    0
 Multiplicity           Mult            ....    1
 Number of Electrons    NEL             ....   40
 Basis Dimension        Dim             ....  172

ORBITAL ENERGIES
----------------

  NO   OCC          E(Eh)            E(eV)
   0   2.0000     -20.599595      -560.5435
   1   2.0000     -20.573849      -559.8429
   2   2.0000     -20.551000      -559.2211
   3   2.0000     -20.528845      -558.6183
   4   2.0000      -1.380411       -37.5629
   5   2.0000      -1.349119       -36.7114
   6   2.0000      -1.334778       -36.3212
   7   2.0000      -1.309942       -35.6453
   8   2.0000      -0.737387       -20.0653
   9   2.0000      -0.717528       -19.5249
  10   2.0000      -0.708994       -19.2927
  11   2.0000      -0.678991       -18.4763
  12   2.0000      -0.621606       -16.9148
  13   2.0000      -0.586152       -15.9500
  14   2.0000      -0.585838       -15.9415
  15   2.0000      -0.547227       -14.8908
  16   2.0000      -0.529398       -14.4056
  17   2.0000      -0.517108       -14.0712
  18   2.0000      -0.499676       -13.5969
  19   2.0000      -0.474961       -12.9244
  20   0.0000       0.092038         2.5045
  21   0.0000       0.117776         3.2048
  22   0.0000       0.155247         4.2245
  23   0.0000       0.177355         4.8261
  24   0.0000       0.195505         5.3200

MULLIKEN ATOMIC CHARGES
-----------------------
   0 O :   -0.723607
   1 H :    0.351819
   2 H :    0.338292
   3 O :   -0.678432
   4 H :    0.348297
   5 H :    0.372474
   6 O :   -0.689138
   7 H :    0.374621
   8 H :    0.303804
   9 O :   -0.688305
  10 H :    0.343694
  11 H :    0.346481
Sum of atomic charges:   -0.0000000

LOEWDIN ATOMIC CHARGES
----------------------
   0 O :   -0.341858
   1 H :    0.142249
   2 H :    0.163581
   3 O :   -0.286014
   4 H :    0.168476
   5 H :    0.185776
   6 O :   -0.338987
   7 H :    0.154411
   8 H :    0.150449
   9 O :   -0.340768
  10 H :    0.160321
  11 H :    0.182364

  Mayer bond orders larger than 0.100000
B(  0-O ,  1-H ) :   0.7842 B(  0-O ,  2-H ) :   0.8498 B(  3-O ,  4-H ) :   0.8420
B(  3-O ,  5-H ) :   0.8237 B(  6-O ,  7-H ) :   0.8137 B(  6-O ,  8-H ) :   0.8710
B(  9-O , 10-H ) :   0.8503 B(  9-O , 11-H ) :   0.8428

MP2 TOTAL ENERGY:     -305.267519352 Eh
FINAL SINGLE POINT ENERGY      -305.267519352482

DIPOLE MOMENT
-------------
                                X             Y             Z
Electronic contribution:      0.03415       0.08692      -0.03962
Nuclear contribution   :     -0.11394       1.05433      -1.31870
                        -----------------------------------------
Total Dipole Moment    :     -0.07979       1.14124      -1.35832
                        -----------------------------------------
Magnitude (a.u.)       :      1.77590
Magnitude (Debye)      :      4.51398

Rotational constants in cm-1:     0.182002     0.035179     0.033161
Rotational constants in MHz :  5456.271090  1054.625411   994.127386

                             ****ORCA TERMINATED NORMALLY****
TOTAL RUN TIME: 0 days 0 hours 0 minutes 16 seconds 217 msec
