                         Program Version 4.2.0 -  RELEASE  -
|  1> # 12h2o.su.etal.mol1,2,3,4,6,8,10,11
|  2> ! MP2 def2-TZVP EnGrad TightSCF
|  3>
|  4> %pal
|  5>     nprocs 6
|  6> end
|  7>
|  8> %maxcore 8000
|  9>
| 10> %scf
| 11>     ConvForced true
| 12> end
| 13>
| 14> *xyz 0 1
| 15> O  -1.794470000  -0.923410000   2.768350000
| 16> H  -2.338250000  -1.359750000   3.430940000
| 17> H  -0.879480000  -1.303000000   2.865760000
| 18> O   0.923410000  -1.794470000  -2.768350000
| 19> H   1.359750000  -2.338250000  -3.430940000
| 20> H   1.303000000  -0.879480000  -2.865760000
| 21> O  -1.752130000  -0.741530000  -2.896280000
| 22> H  -2.036450000  -0.920500000  -1.984040000
| 23> H  -0.921210000  -1.242140000  -2.984230000
| 24> O  -0.885520000   1.737840000   0.052730000
| 25> H  -1.032320000   2.090180000  -0.841890000
| 26> H  -1.284090000   0.839590000   0.017130000
| 27> O   1.737840000   0.885520000  -0.052730000
| 28> H   2.090180000   1.032320000   0.841890000
| 29> H   0.839590000   1.284090000  -0.017130000
| 30> O   1.752130000   0.741530000  -2.896280000
| 31> H   2.036450000   0.920500000  -1.984040000
| 32> H   0.921210000   1.242140000  -2.984230000
| 33> O  -0.923410000   1.794470000  -2.768350000
| 34> H  -1.359750000   2.338250000  -3.430940000
| 35> H  -1.303000000   0.879480000  -2.865760000
| 36> O  -0.741530000   1.752130000   2.896280000
| 37> H  -0.920500000   2.036450000   1.984040000
| 38> H  -1.242140000   0.921210000   2.984230000
| 39> *
| 40>
| 41>                          ****END OF INPUT****

CARTESIAN COORDINATES (ANGSTROEM)
---------------------------------
  O     -1.794470   -0.923410    2.768350
  H     -2.338250   -1.359750    3.430940
  H     -0.879480   -1.303000    2.865760
  O      0.923410   -1.794470   -2.768350
  H      1.359750   -2.338250   -3.430940
  H      1.303000   -0.879480   -2.865760
  O     -1.752130   -0.741530   -2.896280
  H     -2.036450   -0.920500   -1.984040
  H     -0.921210   -1.242140   -2.984230
  O     -0.885520    1.737840    0.052730
  H     -1.032320    2.090180   -0.841890
  H     -1.284090    0.839590    0.017130
  O      1.737840    0.885520   -0.052730
  H      2.090180    1.032320    0.841890
  H      0.839590    1.284090   -0.017130
  O      1.752130    0.741530   -2.896280
  H      2.036450    0.920500   -1.984040
  H      0.921210    1.242140   -2.984230
  O     -0.923410    1.794470   -2.768350
  H     -1.359750    2.338250   -3.430940
  H     -1.303000    0.879480   -2.865760
  O     -0.741530    1.752130    2.896280
  H     -0.920500    2.036450    1.984040
  H     -1.242140    0.921210    2.984230

 Total Charge           Charge          ....    0
 Multiplicity           Mult            ....    1
 Number of Electrons    NEL             ....   80
 Basis Dimension        Dim             ....  344

ORBITAL ENERGIES
----------------

  NO   OCC          E(Eh)            E(eV)
   0   2.0000     -20.596609      -560.4622
   1   2.0000     -20.588342      -560.2373
   2   2.0000     -20.584413      -560.1303
   3   2.0000     -20.579273      -559.9905
   4   2.0000     -20.545127      -559.0613
   5   2.0000     -20.542855      -558.9995
   6   2.0000     -20.541112      -558.9521
   7   2.0000     -20.514664      -558.2324
   8   2.0000      -1.382499       -37.6197
   9   2.0000      -1.374666       -37.4066
  10   2.0000      -1.373796       -37.3829
  11   2.0000      -1.358441       -36.9651
  12   2.0000      -1.341067       -36.4923
  13   2.0000      -1.327038       -36.1105
  14   2.0000      -1.317460       -35.8499
  15   2.0000      -1.300007       -35.3750
  16   2.0000      -0.745710       -20.2918
  17   2.0000      -0.741379       -20.1740
  18   2.0000      -0.736722       -20.0472
  19   2.0000      -0.734666       -19.9913
  20   2.0000      -0.706587       -19.2272
  21   2.0000      -0.703790       -19.1511
  22   2.0000      -0.696936       -18.9646
  23   2.0000      -0.678725       -18.4690
  24   2.0000      -0.641221       -17.4485
  25   2.0000      -0.620053       -16.8725
  26   2.0000      -0.607778       -16.5385
  27   2.0000      -0.597974       -16.2717
  28   2.0000      -0.594528       -16.1779
  29   2.0000      -0.575629       -15.6637
  30   2.0000      -0.554740       -15.0953
  31   2.0000      -0.545504       -14.8439
  32   2.0000      -0.527821       -14.3627
  33   2.0000      -0.527336       -14.3495
  34   2.0000      -0.524703       -14.2779
  35   2.0000      -0.518330       -14.1045
  36   2.0000      -0.495856       -13.4929
  37   2.0000      -0.492073       -13.3900
  38   2.0000      -0.486884       -13.2488
  39   2.0000      -0.464453       -12.6384
  40   0.0000       0.088253         2.4015
  41   0.0000       0.114775         3.1232
  42   0.0000       0.143381         3.9016
  43   0.0000       0.155781         4.2390
  44   0.0000       0.158422         4.3109

MULLIKEN ATOMIC CHARGES
-----------------------
   0 O :   -0.701962
   1 H :    0.356654
   2 H :    0.364336
   3 O :   -0.746687
   4 H :    0.338652
   5 H :    0.385580
   6 O :   -0.704917
   7 H :    0.346054
   8 H :    0.384765
   9 O :   -0.718746
  10 H :    0.389209
  11 H :    0.345573
  12 O :   -0.734695
  13 H :    0.345997
  14 H :    0.361583
  15 O :   -0.725473
  16 H :    0.389551
  17 H :    0.362582
  18 O :   -0.759505
  19 H :    0.356177
  20 H :    0.382605
  21 O :   -0.725961
  22 H :    0.365408
  23 H :    0.343220
Sum of atomic charges:   -0.0000000

LOEWDIN ATOMIC CHARGES
----------------------
   0 O :   -0.314016
   1 H :    0.165245
   2 H :    0.189687
   3 O :   -0.342288
   4 H :    0.154513
   5 H :    0.146160
   6 O :   -0.280095
   7 H :    0.166088
   8 H :    0.157213
   9 O :   -0.280870
  10 H :    0.155927
  11 H :    0.171426
  12 O :   -0.342378
  13 H :    0.166630
  14 H :    0.143814
  15 O :   -0.288670
  16 H :    0.159163
  17 H :    0.146776
  18 O :   -0.315506
  19 H :    0.161873
  20 H :    0.145613
  21 O :   -0.354351
  22 H :    0.147041
  23 H :    0.141005

  Mayer bond orders larger than 0.100000
B(  0-O ,  1-H ) :   0.8395 B(  0-O ,  2-H ) :   0.8279 B(  3-O ,  4-H ) :   0.8495
B(  3-O ,  5-H ) :   0.7383 B(  5-H , 15-O ) :   0.1170 B(  6-O ,  7-H ) :   0.8445
B(  6-O ,  8-H ) :   0.7690 B(  6-O , 20-H ) :   0.1149 B(  9-O , 10-H ) :   0.7867
B(  9-O , 11-H ) :   0.8350 B( 12-O , 13-H ) :   0.8442 B( 12-O , 14-H ) :   0.7813
B( 15-O , 16-H ) :   0.7960 B( 15-O , 17-H ) :   0.8080 B( 18-O , 19-H ) :   0.8377
B( 18-O , 20-H ) :   0.7326 B( 21-O , 22-H ) :   0.8277 B( 21-O , 23-H ) :   0.8298

MP2 TOTAL ENERGY:     -610.590790877 Eh
FINAL SINGLE POINT ENERGY      -610.590790877356

DIPOLE MOMENT
-------------
                                X             Y             Z
Electronic contribution:     -0.02011       0.09132      -0.14556
Nuclear contribution   :     -1.16501      -1.13457       0.05351
                        -----------------------------------------
Total Dipole Moment    :     -1.18512      -1.04325      -0.09204
                        -----------------------------------------
Magnitude (a.u.)       :      1.58157
Magnitude (Debye)      :      4.02002

Rotational constants in cm-1:     0.035481     0.015904     0.015120
Rotational constants in MHz :  1063.683026   476.797796   453.276942

                             ****ORCA TERMINATED NORMALLY****
TOTAL RUN TIME: 0 days 0 hours 2 minutes 45 seconds 673 msec
