                         Program Version 4.2.0 -  RELEASE  -
|  1> # 12mecn.remya.etal.2.mol4
|  2> ! MP2 def2-TZVP EnGrad TightSCF
|  3>
|  4> %pal
|  5>     nprocs 6
|  6> end
|  7>
|  8> %maxcore 8000
|  9>
| 10> %scf
| 11>     ConvForced true
| 12> end
| 13>
| 14> *xyz 0 1
| 15> C  -1.509690000  -0.693960000  -1.610140000
| 16> H  -1.327010000  -1.692700000  -2.017370000
| 17> H  -0.742170000  -0.000650000  -1.964400000
| 18> H  -2.491920000  -0.334310000  -1.929350000
| 19> C  -1.473570000  -0.748120000  -0.167200000
| 20> N  -1.447490000  -0.793720000   0.998938000
| 21> *
| 22>
| 23>                          ****END OF INPUT****

CARTESIAN COORDINATES (ANGSTROEM)
---------------------------------
  C     -1.509690   -0.693960   -1.610140
  H     -1.327010   -1.692700   -2.017370
  H     -0.742170   -0.000650   -1.964400
  H     -2.491920   -0.334310   -1.929350
  C     -1.473570   -0.748120   -0.167200
  N     -1.447490   -0.793720    0.998938

 Total Charge           Charge          ....    0
 Multiplicity           Mult            ....    1
 Number of Electrons    NEL             ....   22
 Basis Dimension        Dim             ....  111

ORBITAL ENERGIES
----------------

  NO   OCC          E(Eh)            E(eV)
   0   2.0000     -15.573367      -423.7729
   1   2.0000     -11.285579      -307.0962
   2   2.0000     -11.280292      -306.9523
   3   2.0000      -1.214413       -33.0459
   4   2.0000      -1.044720       -28.4283
   5   2.0000      -0.699543       -19.0355
   6   2.0000      -0.633822       -17.2472
   7   2.0000      -0.632127       -17.2011
   8   2.0000      -0.555872       -15.1260
   9   2.0000      -0.457672       -12.4539
  10   2.0000      -0.457382       -12.4460
  11   0.0000       0.118692         3.2298
  12   0.0000       0.171101         4.6559
  13   0.0000       0.171161         4.6575
  14   0.0000       0.202397         5.5075
  15   0.0000       0.224076         6.0974

MULLIKEN ATOMIC CHARGES
-----------------------
   0 C :   -0.277719
   1 H :    0.172211
   2 H :    0.171972
   3 H :    0.172012
   4 C :   -0.146051
   5 N :   -0.092426
Sum of atomic charges:    0.0000000

LOEWDIN ATOMIC CHARGES
----------------------
   0 C :   -0.283653
   1 H :    0.152728
   2 H :    0.152669
   3 H :    0.152987
   4 C :   -0.220495
   5 N :    0.045765

  Mayer bond orders larger than 0.100000
B(  0-C ,  1-H ) :   0.9162 B(  0-C ,  2-H ) :   0.9167 B(  0-C ,  3-H ) :   0.9167
B(  0-C ,  4-C ) :   0.9006 B(  4-C ,  5-N ) :   2.8367

MP2 TOTAL ENERGY:     -132.483058008 Eh
FINAL SINGLE POINT ENERGY      -132.483058008035

DIPOLE MOMENT
-------------
                                X             Y             Z
Electronic contribution:      0.08011      -0.12635       3.09676
Nuclear contribution   :     -0.11714       0.18724      -4.62561
                        -----------------------------------------
Total Dipole Moment    :     -0.03703       0.06088      -1.52884
                        -----------------------------------------
Magnitude (a.u.)       :      1.53050
Magnitude (Debye)      :      3.89023

Rotational constants in cm-1:     5.230451     0.308839     0.308707
Rotational constants in MHz : 156804.982904  9258.756620  9254.789546

                             ****ORCA TERMINATED NORMALLY****
TOTAL RUN TIME: 0 days 0 hours 0 minutes 11 seconds 701 msec
