                         Program Version 4.2.0 -  RELEASE  -
|  1> # 12mecn.remya.etal.2.mol2,3
|  2> ! MP2 def2-TZVP EnGrad TightSCF
|  3>
|  4> %pal
|  5>     nprocs 6
|  6> end
|  7>
|  8> %maxcore 8000
|  9>
| 10> %scf
| 11>     ConvForced true
| 12> end
| 13>
| 14> *xyz 0 1
| 15> C  -4.219070000  -3.477410000  -1.501740000
| 16> H  -3.251530000  -3.803540000  -1.893830000
| 17> H  -4.452920000  -2.481700000  -1.890840000
| 18> H  -4.992170000  -4.178130000  -1.824640000
| 19> C  -4.154550000  -3.418790000  -0.058340000
| 20> N  -4.091140000  -3.354840000   1.104432000
| 21> C  -5.181310000   2.853865000  -1.626100000
| 22> H  -5.488260000   3.811434000  -2.053310000
| 23> H  -5.857590000   2.068112000  -1.968630000
| 24> H  -4.170750000   2.611402000  -1.966640000
| 25> C  -5.187260000   2.919160000  -0.181450000
| 26> N  -5.181700000   2.970641000   0.983640000
| 27> *
| 28>
| 29>                          ****END OF INPUT****

CARTESIAN COORDINATES (ANGSTROEM)
---------------------------------
  C     -4.219070   -3.477410   -1.501740
  H     -3.251530   -3.803540   -1.893830
  H     -4.452920   -2.481700   -1.890840
  H     -4.992170   -4.178130   -1.824640
  C     -4.154550   -3.418790   -0.058340
  N     -4.091140   -3.354840    1.104432
  C     -5.181310    2.853865   -1.626100
  H     -5.488260    3.811434   -2.053310
  H     -5.857590    2.068112   -1.968630
  H     -4.170750    2.611402   -1.966640
  C     -5.187260    2.919160   -0.181450
  N     -5.181700    2.970641    0.983640

 Total Charge           Charge          ....    0
 Multiplicity           Mult            ....    1
 Number of Electrons    NEL             ....   44
 Basis Dimension        Dim             ....  222

ORBITAL ENERGIES
----------------

  NO   OCC          E(Eh)            E(eV)
   0   2.0000     -15.573750      -423.7833
   1   2.0000     -15.573558      -423.7781
   2   2.0000     -11.287610      -307.1515
   3   2.0000     -11.287109      -307.1378
   4   2.0000     -11.280183      -306.9494
   5   2.0000     -11.280000      -306.9444
   6   2.0000      -1.215082       -33.0641
   7   2.0000      -1.214833       -33.0573
   8   2.0000      -1.045601       -28.4522
   9   2.0000      -1.045454       -28.4482
  10   2.0000      -0.702739       -19.1225
  11   2.0000      -0.702306       -19.1107
  12   2.0000      -0.634540       -17.2667
  13   2.0000      -0.634168       -17.2566
  14   2.0000      -0.633358       -17.2345
  15   2.0000      -0.632308       -17.2060
  16   2.0000      -0.555965       -15.1286
  17   2.0000      -0.555803       -15.1242
  18   2.0000      -0.458292       -12.4708
  19   2.0000      -0.458235       -12.4692
  20   2.0000      -0.458081       -12.4650
  21   2.0000      -0.457767       -12.4565
  22   0.0000       0.103686         2.8214
  23   0.0000       0.124720         3.3938
  24   0.0000       0.164794         4.4843
  25   0.0000       0.169794         4.6203
  26   0.0000       0.169891         4.6230

MULLIKEN ATOMIC CHARGES
-----------------------
   0 C :   -0.279667
   1 H :    0.172694
   2 H :    0.165989
   3 H :    0.172856
   4 C :   -0.145976
   5 N :   -0.085890
   6 C :   -0.283121
   7 H :    0.173390
   8 H :    0.169054
   9 H :    0.171199
  10 C :   -0.144777
  11 N :   -0.085751
Sum of atomic charges:   -0.0000000

LOEWDIN ATOMIC CHARGES
----------------------
   0 C :   -0.284868
   1 H :    0.152613
   2 H :    0.151109
   3 H :    0.151032
   4 C :   -0.220186
   5 N :    0.050301
   6 C :   -0.285157
   7 H :    0.151608
   8 H :    0.150241
   9 H :    0.152338
  10 C :   -0.219549
  11 N :    0.050517

  Mayer bond orders larger than 0.100000
B(  0-C ,  1-H ) :   0.9168 B(  0-C ,  2-H ) :   0.9181 B(  0-C ,  3-H ) :   0.9168
B(  0-C ,  4-C ) :   0.9024 B(  4-C ,  5-N ) :   2.8338 B(  6-C ,  7-H ) :   0.9160
B(  6-C ,  8-H ) :   0.9180 B(  6-C ,  9-H ) :   0.9176 B(  6-C , 10-C ) :   0.9022
B( 10-C , 11-N ) :   2.8338

MP2 TOTAL ENERGY:     -264.965235582 Eh
FINAL SINGLE POINT ENERGY      -264.965235582222

DIPOLE MOMENT
-------------
                                X             Y             Z
Electronic contribution:      0.11124       0.27772       6.29056
Nuclear contribution   :     -0.18083      -0.41966      -9.29688
                        -----------------------------------------
Total Dipole Moment    :     -0.06959      -0.14194      -3.00632
                        -----------------------------------------
Magnitude (a.u.)       :      3.01048
Magnitude (Debye)      :      7.65202

Rotational constants in cm-1:     0.154201     0.019811     0.017675
Rotational constants in MHz :  4622.828254   593.904431   529.873485

                             ****ORCA TERMINATED NORMALLY****
TOTAL RUN TIME: 0 days 0 hours 0 minutes 40 seconds 770 msec
