                         Program Version 4.2.0 -  RELEASE  -
|  1> # 12mecn.remya.etal.2.mol1,2,4
|  2> ! MP2 def2-TZVP EnGrad TightSCF
|  3>
|  4> %pal
|  5>     nprocs 6
|  6> end
|  7>
|  8> %maxcore 8000
|  9>
| 10> %scf
| 11>     ConvForced true
| 12> end
| 13>
| 14> *xyz 0 1
| 15> C  -4.697980000  -0.249690000   1.746215000
| 16> H  -4.927570000   0.755530000   2.111799000
| 17> H  -3.709180000  -0.561560000   2.093253000
| 18> H  -5.432280000  -0.961520000   2.128066000
| 19> C  -4.714100000  -0.247110000   0.301670000
| 20> N  -4.729750000  -0.234960000  -0.865260000
| 21> C  -4.219070000  -3.477410000  -1.501740000
| 22> H  -3.251530000  -3.803540000  -1.893830000
| 23> H  -4.452920000  -2.481700000  -1.890840000
| 24> H  -4.992170000  -4.178130000  -1.824640000
| 25> C  -4.154550000  -3.418790000  -0.058340000
| 26> N  -4.091140000  -3.354840000   1.104432000
| 27> C  -1.509690000  -0.693960000  -1.610140000
| 28> H  -1.327010000  -1.692700000  -2.017370000
| 29> H  -0.742170000  -0.000650000  -1.964400000
| 30> H  -2.491920000  -0.334310000  -1.929350000
| 31> C  -1.473570000  -0.748120000  -0.167200000
| 32> N  -1.447490000  -0.793720000   0.998938000
| 33> *
| 34>
| 35>                          ****END OF INPUT****

CARTESIAN COORDINATES (ANGSTROEM)
---------------------------------
  C     -4.697980   -0.249690    1.746215
  H     -4.927570    0.755530    2.111799
  H     -3.709180   -0.561560    2.093253
  H     -5.432280   -0.961520    2.128066
  C     -4.714100   -0.247110    0.301670
  N     -4.729750   -0.234960   -0.865260
  C     -4.219070   -3.477410   -1.501740
  H     -3.251530   -3.803540   -1.893830
  H     -4.452920   -2.481700   -1.890840
  H     -4.992170   -4.178130   -1.824640
  C     -4.154550   -3.418790   -0.058340
  N     -4.091140   -3.354840    1.104432
  C     -1.509690   -0.693960   -1.610140
  H     -1.327010   -1.692700   -2.017370
  H     -0.742170   -0.000650   -1.964400
  H     -2.491920   -0.334310   -1.929350
  C     -1.473570   -0.748120   -0.167200
  N     -1.447490   -0.793720    0.998938

 Total Charge           Charge          ....    0
 Multiplicity           Mult            ....    1
 Number of Electrons    NEL             ....   66
 Basis Dimension        Dim             ....  333

ORBITAL ENERGIES
----------------

  NO   OCC          E(Eh)            E(eV)
   0   2.0000     -15.569813      -423.6762
   1   2.0000     -15.569741      -423.6742
   2   2.0000     -15.569533      -423.6685
   3   2.0000     -11.286140      -307.1115
   4   2.0000     -11.279532      -306.9317
   5   2.0000     -11.279283      -306.9249
   6   2.0000     -11.276563      -306.8509
   7   2.0000     -11.276210      -306.8413
   8   2.0000     -11.261569      -306.4429
   9   2.0000      -1.219596       -33.1869
  10   2.0000      -1.212764       -33.0010
  11   2.0000      -1.212329       -32.9891
  12   2.0000      -1.039941       -28.2982
  13   2.0000      -1.037024       -28.2189
  14   2.0000      -1.027696       -27.9650
  15   2.0000      -0.697408       -18.9774
  16   2.0000      -0.693522       -18.8717
  17   2.0000      -0.686190       -18.6722
  18   2.0000      -0.636105       -17.3093
  19   2.0000      -0.632091       -17.2001
  20   2.0000      -0.626831       -17.0569
  21   2.0000      -0.620676       -16.8894
  22   2.0000      -0.613316       -16.6892
  23   2.0000      -0.607961       -16.5435
  24   2.0000      -0.560042       -15.2395
  25   2.0000      -0.554444       -15.0872
  26   2.0000      -0.553687       -15.0666
  27   2.0000      -0.465305       -12.6616
  28   2.0000      -0.460529       -12.5316
  29   2.0000      -0.458071       -12.4648
  30   2.0000      -0.455220       -12.3872
  31   2.0000      -0.452799       -12.3213
  32   2.0000      -0.448201       -12.1962
  33   0.0000       0.113024         3.0755
  34   0.0000       0.148907         4.0520
  35   0.0000       0.154907         4.2152
  36   0.0000       0.159333         4.3357
  37   0.0000       0.166113         4.5202

MULLIKEN ATOMIC CHARGES
-----------------------
   0 C :   -0.268519
   1 H :    0.167045
   2 H :    0.210607
   3 H :    0.173686
   4 C :   -0.082713
   5 N :   -0.200320
   6 C :   -0.295561
   7 H :    0.159682
   8 H :    0.200499
   9 H :    0.176804
  10 C :   -0.126267
  11 N :   -0.114905
  12 C :   -0.290574
  13 H :    0.157056
  14 H :    0.176194
  15 H :    0.203011
  16 C :   -0.116957
  17 N :   -0.128767
Sum of atomic charges:   -0.0000000

LOEWDIN ATOMIC CHARGES
----------------------
   0 C :   -0.282325
   1 H :    0.150397
   2 H :    0.160942
   3 H :    0.154780
   4 C :   -0.200565
   5 N :    0.014864
   6 C :   -0.287041
   7 H :    0.148730
   8 H :    0.154789
   9 H :    0.151181
  10 C :   -0.214607
  11 N :    0.049778
  12 C :   -0.286652
  13 H :    0.148589
  14 H :    0.152257
  15 H :    0.155618
  16 C :   -0.214299
  17 N :    0.043563

  Mayer bond orders larger than 0.100000
B(  0-C ,  1-H ) :   0.9077 B(  0-C ,  2-H ) :   0.8995 B(  0-C ,  3-H ) :   0.9125
B(  0-C ,  4-C ) :   0.9099 B(  4-C ,  5-N ) :   2.7102 B(  6-C ,  7-H ) :   0.9222
B(  6-C ,  8-H ) :   0.9060 B(  6-C ,  9-H ) :   0.9099 B(  6-C , 10-C ) :   0.8968
B( 10-C , 11-N ) :   2.7888 B( 12-C , 13-H ) :   0.9195 B( 12-C , 14-H ) :   0.9110
B( 12-C , 15-H ) :   0.9070 B( 12-C , 16-C ) :   0.8952 B( 16-C , 17-N ) :   2.7718

MP2 TOTAL ENERGY:     -397.466632551 Eh
FINAL SINGLE POINT ENERGY      -397.466632550571

DIPOLE MOMENT
-------------
                                X             Y             Z
Electronic contribution:      0.16273       0.03252       3.27910
Nuclear contribution   :     -0.26166      -0.03772      -4.62794
                        -----------------------------------------
Total Dipole Moment    :     -0.09894      -0.00520      -1.34884
                        -----------------------------------------
Magnitude (a.u.)       :      1.35248
Magnitude (Debye)      :      3.43772

Rotational constants in cm-1:     0.045756     0.038875     0.031514
Rotational constants in MHz :  1371.722556  1165.436301   944.760548

                             ****ORCA TERMINATED NORMALLY****
TOTAL RUN TIME: 0 days 0 hours 4 minutes 48 seconds 958 msec
