                         Program Version 4.2.0 -  RELEASE  -
|  1> # 12h2o.su.etal.mol0,1,8,10
|  2> ! MP2 def2-TZVP EnGrad TightSCF
|  3>
|  4> %pal
|  5>     nprocs 6
|  6> end
|  7>
|  8> %maxcore 8000
|  9>
| 10> %scf
| 11>     ConvForced true
| 12> end
| 13>
| 14> *xyz 0 1
| 15> O   1.794470000   0.923410000   2.768350000
| 16> H   2.338250000   1.359750000   3.430940000
| 17> H   0.879480000   1.303000000   2.865760000
| 18> O  -1.794470000  -0.923410000   2.768350000
| 19> H  -2.338250000  -1.359750000   3.430940000
| 20> H  -0.879480000  -1.303000000   2.865760000
| 21> O   1.752130000   0.741530000  -2.896280000
| 22> H   2.036450000   0.920500000  -1.984040000
| 23> H   0.921210000   1.242140000  -2.984230000
| 24> O  -0.923410000   1.794470000  -2.768350000
| 25> H  -1.359750000   2.338250000  -3.430940000
| 26> H  -1.303000000   0.879480000  -2.865760000
| 27> *
| 28>
| 29>                          ****END OF INPUT****

CARTESIAN COORDINATES (ANGSTROEM)
---------------------------------
  O      1.794470    0.923410    2.768350
  H      2.338250    1.359750    3.430940
  H      0.879480    1.303000    2.865760
  O     -1.794470   -0.923410    2.768350
  H     -2.338250   -1.359750    3.430940
  H     -0.879480   -1.303000    2.865760
  O      1.752130    0.741530   -2.896280
  H      2.036450    0.920500   -1.984040
  H      0.921210    1.242140   -2.984230
  O     -0.923410    1.794470   -2.768350
  H     -1.359750    2.338250   -3.430940
  H     -1.303000    0.879480   -2.865760

 Total Charge           Charge          ....    0
 Multiplicity           Mult            ....    1
 Number of Electrons    NEL             ....   40
 Basis Dimension        Dim             ....  172

ORBITAL ENERGIES
----------------

  NO   OCC          E(Eh)            E(eV)
   0   2.0000     -20.584720      -560.1387
   1   2.0000     -20.563997      -559.5748
   2   2.0000     -20.563649      -559.5653
   3   2.0000     -20.522840      -558.4549
   4   2.0000      -1.362351       -37.0715
   5   2.0000      -1.339427       -36.4477
   6   2.0000      -1.338880       -36.4328
   7   2.0000      -1.305330       -35.5198
   8   2.0000      -0.729472       -19.8499
   9   2.0000      -0.708887       -19.2898
  10   2.0000      -0.705833       -19.2067
  11   2.0000      -0.675007       -18.3679
  12   2.0000      -0.600940       -16.3524
  13   2.0000      -0.575803       -15.6684
  14   2.0000      -0.575001       -15.6466
  15   2.0000      -0.549860       -14.9625
  16   2.0000      -0.519584       -14.1386
  17   2.0000      -0.508216       -13.8293
  18   2.0000      -0.506144       -13.7729
  19   2.0000      -0.470677       -12.8078
  20   0.0000       0.112017         3.0481
  21   0.0000       0.117383         3.1942
  22   0.0000       0.143053         3.8927
  23   0.0000       0.180434         4.9098
  24   0.0000       0.192177         5.2294

MULLIKEN ATOMIC CHARGES
-----------------------
   0 O :   -0.688911
   1 H :    0.338990
   2 H :    0.350078
   3 O :   -0.688796
   4 H :    0.338399
   5 H :    0.350391
   6 O :   -0.708694
   7 H :    0.334009
   8 H :    0.354317
   9 O :   -0.692343
  10 H :    0.351282
  11 H :    0.361279
Sum of atomic charges:    0.0000000

LOEWDIN ATOMIC CHARGES
----------------------
   0 O :   -0.340901
   1 H :    0.158139
   2 H :    0.182849
   3 O :   -0.340845
   4 H :    0.157835
   5 H :    0.183006
   6 O :   -0.350359
   7 H :    0.162380
   8 H :    0.145914
   9 O :   -0.309799
  10 H :    0.162949
  11 H :    0.188833

  Mayer bond orders larger than 0.100000
B(  0-O ,  1-H ) :   0.8527 B(  0-O ,  2-H ) :   0.8388 B(  3-O ,  4-H ) :   0.8531
B(  3-O ,  5-H ) :   0.8387 B(  6-O ,  7-H ) :   0.8555 B(  6-O ,  8-H ) :   0.8209
B(  9-O , 10-H ) :   0.8424 B(  9-O , 11-H ) :   0.8304

MP2 TOTAL ENERGY:     -305.260607203 Eh
FINAL SINGLE POINT ENERGY      -305.260607203300

DIPOLE MOMENT
-------------
                                X             Y             Z
Electronic contribution:     -0.01184       0.02658      -0.19883
Nuclear contribution   :     -1.13412       0.25668       1.31870
                        -----------------------------------------
Total Dipole Moment    :     -1.14595       0.28325       1.11987
                        -----------------------------------------
Magnitude (a.u.)       :      1.62713
Magnitude (Debye)      :      4.13583

Rotational constants in cm-1:     0.076098     0.026083     0.021071
Rotational constants in MHz :  2281.363865   781.936377   631.692189

                             ****ORCA TERMINATED NORMALLY****
TOTAL RUN TIME: 0 days 0 hours 0 minutes 12 seconds 557 msec
