                         Program Version 4.2.0 -  RELEASE  -
|  1> # 12h2o.su.etal.mol2,3,4,5,8,11
|  2> ! MP2 def2-TZVP EnGrad TightSCF
|  3>
|  4> %pal
|  5>     nprocs 6
|  6> end
|  7>
|  8> %maxcore 8000
|  9>
| 10> %scf
| 11>     ConvForced true
| 12> end
| 13>
| 14> *xyz 0 1
| 15> O   0.923410000  -1.794470000  -2.768350000
| 16> H   1.359750000  -2.338250000  -3.430940000
| 17> H   1.303000000  -0.879480000  -2.865760000
| 18> O  -1.752130000  -0.741530000  -2.896280000
| 19> H  -2.036450000  -0.920500000  -1.984040000
| 20> H  -0.921210000  -1.242140000  -2.984230000
| 21> O  -0.885520000   1.737840000   0.052730000
| 22> H  -1.032320000   2.090180000  -0.841890000
| 23> H  -1.284090000   0.839590000   0.017130000
| 24> O   0.885520000  -1.737840000   0.052730000
| 25> H   1.284090000  -0.839590000   0.017130000
| 26> H   1.032320000  -2.090180000  -0.841890000
| 27> O   1.752130000   0.741530000  -2.896280000
| 28> H   2.036450000   0.920500000  -1.984040000
| 29> H   0.921210000   1.242140000  -2.984230000
| 30> O  -0.741530000   1.752130000   2.896280000
| 31> H  -0.920500000   2.036450000   1.984040000
| 32> H  -1.242140000   0.921210000   2.984230000
| 33> *
| 34>
| 35>                          ****END OF INPUT****

CARTESIAN COORDINATES (ANGSTROEM)
---------------------------------
  O      0.923410   -1.794470   -2.768350
  H      1.359750   -2.338250   -3.430940
  H      1.303000   -0.879480   -2.865760
  O     -1.752130   -0.741530   -2.896280
  H     -2.036450   -0.920500   -1.984040
  H     -0.921210   -1.242140   -2.984230
  O     -0.885520    1.737840    0.052730
  H     -1.032320    2.090180   -0.841890
  H     -1.284090    0.839590    0.017130
  O      0.885520   -1.737840    0.052730
  H      1.284090   -0.839590    0.017130
  H      1.032320   -2.090180   -0.841890
  O      1.752130    0.741530   -2.896280
  H      2.036450    0.920500   -1.984040
  H      0.921210    1.242140   -2.984230
  O     -0.741530    1.752130    2.896280
  H     -0.920500    2.036450    1.984040
  H     -1.242140    0.921210    2.984230

 Total Charge           Charge          ....    0
 Multiplicity           Mult            ....    1
 Number of Electrons    NEL             ....   60
 Basis Dimension        Dim             ....  258

ORBITAL ENERGIES
----------------

  NO   OCC          E(Eh)            E(eV)
   0   2.0000     -20.625062      -561.2365
   1   2.0000     -20.602249      -560.6157
   2   2.0000     -20.582724      -560.0844
   3   2.0000     -20.555097      -559.3326
   4   2.0000     -20.550155      -559.1981
   5   2.0000     -20.534059      -558.7601
   6   2.0000      -1.411251       -38.4021
   7   2.0000      -1.380386       -37.5622
   8   2.0000      -1.369305       -37.2607
   9   2.0000      -1.336820       -36.3767
  10   2.0000      -1.328607       -36.1532
  11   2.0000      -1.315958       -35.8090
  12   2.0000      -0.767211       -20.8769
  13   2.0000      -0.751382       -20.4461
  14   2.0000      -0.742732       -20.2108
  15   2.0000      -0.706261       -19.2183
  16   2.0000      -0.698131       -18.9971
  17   2.0000      -0.686791       -18.6885
  18   2.0000      -0.652560       -17.7571
  19   2.0000      -0.619563       -16.8592
  20   2.0000      -0.614223       -16.7139
  21   2.0000      -0.583991       -15.8912
  22   2.0000      -0.571042       -15.5388
  23   2.0000      -0.556869       -15.1532
  24   2.0000      -0.553362       -15.0577
  25   2.0000      -0.540514       -14.7081
  26   2.0000      -0.525783       -14.3073
  27   2.0000      -0.502436       -13.6720
  28   2.0000      -0.495236       -13.4760
  29   2.0000      -0.480360       -13.0713
  30   0.0000       0.065594         1.7849
  31   0.0000       0.116260         3.1636
  32   0.0000       0.129553         3.5253
  33   0.0000       0.138971         3.7816
  34   0.0000       0.162697         4.4272

MULLIKEN ATOMIC CHARGES
-----------------------
   0 O :   -0.750955
   1 H :    0.354713
   2 H :    0.379864
   3 O :   -0.710379
   4 H :    0.326854
   5 H :    0.366084
   6 O :   -0.696230
   7 H :    0.347282
   8 H :    0.347824
   9 O :   -0.692714
  10 H :    0.314567
  11 H :    0.367636
  12 O :   -0.678685
  13 H :    0.361066
  14 H :    0.366100
  15 O :   -0.692362
  16 H :    0.366861
  17 H :    0.322474
Sum of atomic charges:   -0.0000000

LOEWDIN ATOMIC CHARGES
----------------------
   0 O :   -0.312337
   1 H :    0.161335
   2 H :    0.145318
   3 O :   -0.346322
   4 H :    0.156653
   5 H :    0.148131
   6 O :   -0.315874
   7 H :    0.167131
   8 H :    0.173569
   9 O :   -0.344066
  10 H :    0.157491
  11 H :    0.148131
  12 O :   -0.263505
  13 H :    0.174105
  14 H :    0.177688
  15 O :   -0.338662
  16 H :    0.151674
  17 H :    0.159541

  Mayer bond orders larger than 0.100000
B(  0-O ,  1-H ) :   0.8378 B(  0-O ,  2-H ) :   0.7516 B(  3-O ,  4-H ) :   0.8571
B(  3-O ,  5-H ) :   0.8080 B(  6-O ,  7-H ) :   0.8420 B(  6-O ,  8-H ) :   0.8329
B(  9-O , 10-H ) :   0.8604 B(  9-O , 11-H ) :   0.8148 B( 12-O , 13-H ) :   0.8337
B( 12-O , 14-H ) :   0.8279 B( 15-O , 16-H ) :   0.8258 B( 15-O , 17-H ) :   0.8614

MP2 TOTAL ENERGY:     -457.913685279 Eh
FINAL SINGLE POINT ENERGY      -457.913685279002

DIPOLE MOMENT
-------------
                                X             Y             Z
Electronic contribution:      0.26475       0.21187      -0.13165
Nuclear contribution   :      0.11349      -0.14599      -1.49504
                        -----------------------------------------
Total Dipole Moment    :      0.37824       0.06588      -1.62669
                        -----------------------------------------
Magnitude (a.u.)       :      1.67139
Magnitude (Debye)      :      4.24833

Rotational constants in cm-1:     0.057949     0.022885     0.021938
Rotational constants in MHz :  1737.266125   686.076962   657.693952

                             ****ORCA TERMINATED NORMALLY****
TOTAL RUN TIME: 0 days 0 hours 1 minutes 1 seconds 682 msec
