                         Program Version 4.2.0 -  RELEASE  -
|  1> ! MP2 def2-TZVP EnGrad TightSCF FrozenCore
|  2>
|  3> %pal
|  4>     nprocs 12
|  5> end
|  6>
|  7> %maxcore 8000
|  8>
|  9> %scf
| 10>     ConvForced true
| 11> end
| 12>
| 13> *xyz 0 1
| 14> C     1.844001     2.771086     0.545222
| 15> H     2.656471     3.499595     0.481013
| 16> H     2.014522     2.099193     1.391316
| 17> H     0.891502     3.284208     0.694774
| 18> C     1.786973     1.980229    -0.680998
| 19> N     1.757853     1.355197    -1.660670
| 20> C    -0.981530    -0.241612    -2.172307
| 21> H    -1.947113    -0.638987    -2.497014
| 22> H    -0.382889     0.058156    -3.035671
| 23> H    -1.132705     0.637162    -1.536896
| 24> C    -0.264819    -1.257482    -1.406786
| 25> N     0.304632    -2.069456    -0.801226
| 26> C    -0.635406    -1.210088     2.210079
| 27> H    -0.879046    -1.137257     3.273188
| 28> H     0.385125    -1.581029     2.088785
| 29> H    -1.331653    -1.893099     1.714488
| 30> C    -0.741924     0.105413     1.587800
| 31> N    -0.853684     1.150674     1.089877
| 32> C    -3.973748     1.236392    -0.228034
| 33> H    -4.878001     1.533432     0.309192
| 34> H    -4.114288     1.435243    -1.294279
| 35> H    -3.123593     1.818576     0.140664
| 36> C    -3.703488    -0.183712    -0.015842
| 37> N    -3.467210    -1.309648     0.146758
| 38> C     3.432704    -1.520352    -0.650369
| 39> H     3.073620    -0.924254    -1.494499
| 40> H     3.003773    -2.522222    -0.724710
| 41> H     4.524176    -1.575608    -0.673095
| 42> C     2.989878    -0.892995     0.591364
| 43> N     2.647587    -0.385965     1.579828
| 44> *
| 45>
| 46>                          ****END OF INPUT****

CARTESIAN COORDINATES (ANGSTROEM)
---------------------------------
  C      1.844001    2.771086    0.545222
  H      2.656471    3.499595    0.481013
  H      2.014522    2.099193    1.391316
  H      0.891502    3.284208    0.694774
  C      1.786973    1.980229   -0.680998
  N      1.757853    1.355197   -1.660670
  C     -0.981530   -0.241612   -2.172307
  H     -1.947113   -0.638987   -2.497014
  H     -0.382889    0.058156   -3.035671
  H     -1.132705    0.637162   -1.536896
  C     -0.264819   -1.257482   -1.406786
  N      0.304632   -2.069456   -0.801226
  C     -0.635406   -1.210088    2.210079
  H     -0.879046   -1.137257    3.273188
  H      0.385125   -1.581029    2.088785
  H     -1.331653   -1.893099    1.714488
  C     -0.741924    0.105413    1.587800
  N     -0.853684    1.150674    1.089877
  C     -3.973748    1.236392   -0.228034
  H     -4.878001    1.533432    0.309192
  H     -4.114288    1.435243   -1.294279
  H     -3.123593    1.818576    0.140664
  C     -3.703488   -0.183712   -0.015842
  N     -3.467210   -1.309648    0.146758
  C      3.432704   -1.520352   -0.650369
  H      3.073620   -0.924254   -1.494499
  H      3.003773   -2.522222   -0.724710
  H      4.524176   -1.575608   -0.673095
  C      2.989878   -0.892995    0.591364
  N      2.647587   -0.385965    1.579828

 Total Charge           Charge          ....    0
 Multiplicity           Mult            ....    1
 Number of Electrons    NEL             ....  110
 Basis Dimension        Dim             ....  555

ORBITAL ENERGIES
----------------

  NO   OCC          E(Eh)            E(eV)
   0   2.0000     -15.572882      -423.7597
   1   2.0000     -15.561790      -423.4578
   2   2.0000     -15.561288      -423.4442
   3   2.0000     -15.559193      -423.3872
   4   2.0000     -15.557003      -423.3276
   5   2.0000     -11.283444      -307.0381
   6   2.0000     -11.280006      -306.9446
   7   2.0000     -11.279825      -306.9396
   8   2.0000     -11.276820      -306.8579
   9   2.0000     -11.274337      -306.7903
  10   2.0000     -11.271519      -306.7136
  11   2.0000     -11.261991      -306.4543
  12   2.0000     -11.261277      -306.4349
  13   2.0000     -11.259386      -306.3835
  14   2.0000     -11.253583      -306.2256
  15   2.0000      -1.220792       -33.2194
  16   2.0000      -1.213950       -33.0333
  17   2.0000      -1.211117       -32.9562
  18   2.0000      -1.207938       -32.8697
  19   2.0000      -1.205696       -32.8087
  20   2.0000      -1.036859       -28.2144
  21   2.0000      -1.021292       -27.7908
  22   2.0000      -1.020298       -27.7637
  23   2.0000      -1.018222       -27.7072
  24   2.0000      -1.015180       -27.6245
  25   2.0000      -0.695761       -18.9326
  26   2.0000      -0.681498       -18.5445
  27   2.0000      -0.680047       -18.5050
  28   2.0000      -0.677208       -18.4278
  29   2.0000      -0.675111       -18.3707
  30   2.0000      -0.630969       -17.1695
  31   2.0000      -0.627961       -17.0877
  32   2.0000      -0.620227       -16.8772
  33   2.0000      -0.614459       -16.7203
  34   2.0000      -0.612213       -16.6592
  35   2.0000      -0.611106       -16.6290
  36   2.0000      -0.608925       -16.5697
  37   2.0000      -0.601748       -16.3744
  38   2.0000      -0.598739       -16.2925
  39   2.0000      -0.598060       -16.2740
  40   2.0000      -0.558785       -15.2053
  41   2.0000      -0.552883       -15.0447
  42   2.0000      -0.551145       -14.9974
  43   2.0000      -0.548192       -14.9171
  44   2.0000      -0.545053       -14.8316
  45   2.0000      -0.464597       -12.6423
  46   2.0000      -0.463929       -12.6242
  47   2.0000      -0.461518       -12.5585
  48   2.0000      -0.456079       -12.4105
  49   2.0000      -0.454356       -12.3637
  50   2.0000      -0.453137       -12.3305
  51   2.0000      -0.450099       -12.2478
  52   2.0000      -0.446994       -12.1633
  53   2.0000      -0.445700       -12.1281
  54   2.0000      -0.443360       -12.0645
  55   0.0000       0.118822         3.2333
  56   0.0000       0.142768         3.8849
  57   0.0000       0.157190         4.2774
  58   0.0000       0.162939         4.4338
  59   0.0000       0.164969         4.4890

MULLIKEN ATOMIC CHARGES
-----------------------
   0 C :   -0.273834
   1 H :    0.166458
   2 H :    0.196940
   3 H :    0.172857
   4 C :   -0.084756
   5 N :   -0.178435
   6 C :   -0.286254
   7 H :    0.175270
   8 H :    0.184932
   9 H :    0.174567
  10 C :   -0.083424
  11 N :   -0.164178
  12 C :   -0.274819
  13 H :    0.162574
  14 H :    0.193774
  15 H :    0.197906
  16 C :   -0.038817
  17 N :   -0.236788
  18 C :   -0.300660
  19 H :    0.174489
  20 H :    0.166015
  21 H :    0.201881
  22 C :   -0.123107
  23 N :   -0.119698
  24 C :   -0.285632
  25 H :    0.191855
  26 H :    0.183763
  27 H :    0.166330
  28 C :   -0.074751
  29 N :   -0.184457
Sum of atomic charges:    0.0000000

LOEWDIN ATOMIC CHARGES
----------------------
   0 C :   -0.286171
   1 H :    0.146227
   2 H :    0.156113
   3 H :    0.151236
   4 C :   -0.200592
   5 N :    0.029295
   6 C :   -0.287481
   7 H :    0.147914
   8 H :    0.152274
   9 H :    0.151695
  10 C :   -0.198818
  11 N :    0.040934
  12 C :   -0.279760
  13 H :    0.147875
  14 H :    0.155039
  15 H :    0.156863
  16 C :   -0.190923
  17 N :    0.018520
  18 C :   -0.286608
  19 H :    0.150241
  20 H :    0.148917
  21 H :    0.154493
  22 C :   -0.214618
  23 N :    0.044867
  24 C :   -0.285885
  25 H :    0.154945
  26 H :    0.154079
  27 H :    0.145790
  28 C :   -0.201496
  29 N :    0.025036

  Mayer bond orders larger than 0.100000
B(  0-C ,  1-H ) :   0.9104 B(  0-C ,  2-H ) :   0.9078 B(  0-C ,  3-H ) :   0.9151
B(  0-C ,  4-C ) :   0.8963 B(  4-C ,  5-N ) :   2.7426 B(  6-C ,  7-H ) :   0.9110
B(  6-C ,  8-H ) :   0.9063 B(  6-C ,  9-H ) :   0.9164 B(  6-C , 10-C ) :   0.9037
B( 10-C , 11-N ) :   2.7448 B( 12-C , 13-H ) :   0.9077 B( 12-C , 14-H ) :   0.9090
B( 12-C , 15-H ) :   0.9071 B( 12-C , 16-C ) :   0.9004 B( 16-C , 17-N ) :   2.6568
B( 18-C , 19-H ) :   0.9137 B( 18-C , 20-H ) :   0.9189 B( 18-C , 21-H ) :   0.9067
B( 18-C , 22-C ) :   0.8906 B( 22-C , 23-N ) :   2.7733 B( 24-C , 25-H ) :   0.9107
B( 24-C , 26-H ) :   0.9144 B( 24-C , 27-H ) :   0.9104 B( 24-C , 28-C ) :   0.8927
B( 28-C , 29-N ) :   2.7310

MP2 TOTAL ENERGY:     -662.459478765 Eh
FINAL SINGLE POINT ENERGY      -662.459478764532

DIPOLE MOMENT
-------------
                                X             Y             Z
Electronic contribution:      0.83759      -2.91608       0.86849
Nuclear contribution   :     -1.24579       4.11205      -1.16814
                        -----------------------------------------
Total Dipole Moment    :     -0.40821       1.19598      -0.29965
                        -----------------------------------------
Magnitude (a.u.)       :      1.29876
Magnitude (Debye)      :      3.30119

Rotational constants in cm-1:     0.022536     0.011468     0.010845
Rotational constants in MHz :   675.624659   343.791644   325.114743

                             ****ORCA TERMINATED NORMALLY****
TOTAL RUN TIME: 0 days 0 hours 23 minutes 26 seconds 44 msec
