                         Program Version 4.2.0 -  RELEASE  -
|  1> ! RI-MP2 def2-TZVP EnGrad def2/J def2-TZVP/C TightSCF FrozenCore
|  2>
|  3> %pal
|  4>     nprocs 24
|  5> end
|  6>
|  7> %maxcore 8000
|  8>
|  9> %scf
| 10>     ConvForced true
| 11> end
| 12>
| 13> *xyz 0 1
| 14> C  -4.271749760  -3.667121641  -1.573818522
| 15> H  -3.984429760  -2.696691641  -1.986208522
| 16> H  -5.229439760  -3.974021641  -2.000858522
| 17> H  -3.508699760  -4.410401641  -1.823458522
| 18> C  -4.373099760  -3.562941641  -0.136548522
| 19> N  -4.441749760  -3.481791641   1.025492478
| 20> C   0.571988240  -4.873041641  -1.512468522
| 21> H   1.546120240  -4.656691641  -1.961168522
| 22> H  -0.172089760  -4.156671641  -1.874348522
| 23> H   0.245952240  -5.877821641  -1.790238522
| 24> C   0.674606240  -4.762581641  -0.075538522
| 25> N   0.767969240  -4.661371641   1.083299478
| 26> C  -2.235409760  -5.791661641   2.024902478
| 27> H  -3.012989760  -5.073281641   2.301677478
| 28> H  -1.255689760  -5.409791641   2.328833478
| 29> H  -2.423289760  -6.737501641   2.538194478
| 30> C  -2.247309760  -5.980371641   0.591423478
| 31> N  -2.249489760  -6.120941641  -0.566358522
| 32> C   3.768482240  -3.553701641   1.573175478
| 33> H   4.764974240  -3.218391641   1.876085478
| 34> H   3.566717240  -4.541911641   1.991396478
| 35> H   3.006556240  -2.863151641   1.945378478
| 36> C   3.697552240  -3.602391641   0.131048478
| 37> N   3.646349240  -3.639391641  -1.034038522
| 38> C  -1.359539760  -2.150531641   1.696637478
| 39> H  -2.321429760  -2.476791641   2.103527478
| 40> H  -1.155509760  -1.123161641   2.010018478
| 41> H  -0.560239760  -2.804051641   2.057794478
| 42> C  -1.405509760  -2.205961641   0.254029478
| 43> N  -1.448639760  -2.248841641  -0.911748522
| 44> C   1.612991240  -1.048491641  -1.735508522
| 45> H   2.408473240  -1.704711641  -2.100048522
| 46> H   1.796394240  -0.030431641  -2.089738522
| 47> H   0.644011240  -1.404111641  -2.100178522
| 48> C   1.609928240  -1.057971641  -0.291438522
| 49> N   1.597683240  -1.069111641   0.875749478
| 50> C   4.654876240   0.145018359   1.528686478
| 51> H   5.445135240  -0.551721641   1.823739478
| 52> H   3.690728240  -0.216331641   1.901085478
| 53> H   4.857100240   1.134677359   1.947972478
| 54> C   4.606316240   0.230677359   0.086984478
| 55> N   4.567844240   0.301640359  -1.077218522
| 56> C   6.477276240  -2.212811641  -1.998258522
| 57> H   5.628757240  -2.839501641  -2.287788522
| 58> H   7.384166240  -2.573791641  -2.488978522
| 59> H   6.268074240  -1.188181641  -2.315768522
| 60> C   6.622338240  -2.253091641  -0.560318522
| 61> N   6.724013240  -2.285651641   0.600978478
| 62> C   4.272429240   3.665396359  -1.574768522
| 63> H   3.983960240   2.694367359  -1.984998522
| 64> H   5.230450240   3.970347359  -2.002598522
| 65> H   3.510147240   4.408941359  -1.825898522
| 66> C   4.373701240   3.564122359  -0.137258522
| 67> N   4.442067240   3.485207359   1.024958478
| 68> C  -0.571859760   4.872674359  -1.511078522
| 69> H  -1.545889760   4.656852359  -1.960338522
| 70> H   0.172183240   4.156414359  -1.873098522
| 71> H  -0.245439760   5.877550359  -1.788328522
| 72> C  -0.675029760   4.761511359  -0.074298522
| 73> N  -0.769059760   4.659650359   1.084463478
| 74> C   2.237366240   5.791592359   2.024150478
| 75> H   3.014908240   5.072773359   2.299876478
| 76> H   1.257761240   5.410050359   2.328840478
| 77> H   2.426141240   6.737147359   2.537612478
| 78> C   2.248053240   5.980884359   0.590747478
| 79> N   2.249329240   6.121927359  -0.566988522
| 80> C  -3.769129760   3.554068359   1.572799478
| 81> H  -4.765379760   3.219130359   1.876870478
| 82> H  -3.566539760   4.542296359   1.990653478
| 83> H  -3.007039760   2.863347359   1.944311478
| 84> C  -3.699719760   3.602526359   0.130588478
| 85> N  -3.649619760   3.639515359  -1.034538522
| 86> C   1.361684240   2.150848359   1.697414478
| 87> H   2.323475240   2.477255359   2.104440478
| 88> H   1.156867240   1.123981359   2.012034478
| 89> H   0.562529240   2.805297359   2.057245478
| 90> C   1.408370240   2.204362359   0.254718478
| 91> N   1.451772240   2.245741359  -0.911128522
| 92> C  -1.610389760   1.048987359  -1.734348522
| 93> H  -2.406389760   1.704151359  -2.099708522
| 94> H  -1.791359760   0.030856359  -2.089818522
| 95> H  -0.641319760   1.406572359  -2.096978522
| 96> C  -1.609869760   1.057261359  -0.290258522
| 97> N  -1.599659760   1.067632359   0.876980478
| 98> C  -4.657049760  -0.143211641   1.528984478
| 99> H  -5.447459760   0.553172359   1.824422478
|100> H  -3.692889760   0.218627359   1.900806478
|101> H  -4.858479760  -1.132941641   1.948487478
|102> C  -4.609159760  -0.229081641   0.087265478
|103> N  -4.570989760  -0.300491641  -1.076898522
|104> C  -6.476379760   2.213435359  -1.999318522
|105> H  -5.628549760   2.841265359  -2.288478522
|106> H  -7.383669760   2.573545359  -2.489948522
|107> H  -6.265929760   1.189153359  -2.317198522
|108> C  -6.621729760   2.252879359  -0.561358522
|109> N  -6.723669760   2.284770359   0.599930478
|110> *
|111>
|112>                          ****END OF INPUT****

CARTESIAN COORDINATES (ANGSTROEM)
---------------------------------
  C     -4.271750   -3.667122   -1.573819
  H     -3.984430   -2.696692   -1.986209
  H     -5.229440   -3.974022   -2.000859
  H     -3.508700   -4.410402   -1.823459
  C     -4.373100   -3.562942   -0.136549
  N     -4.441750   -3.481792    1.025492
  C      0.571988   -4.873042   -1.512469
  H      1.546120   -4.656692   -1.961169
  H     -0.172090   -4.156672   -1.874349
  H      0.245952   -5.877822   -1.790239
  C      0.674606   -4.762582   -0.075539
  N      0.767969   -4.661372    1.083299
  C     -2.235410   -5.791662    2.024902
  H     -3.012990   -5.073282    2.301677
  H     -1.255690   -5.409792    2.328833
  H     -2.423290   -6.737502    2.538194
  C     -2.247310   -5.980372    0.591423
  N     -2.249490   -6.120942   -0.566359
  C      3.768482   -3.553702    1.573175
  H      4.764974   -3.218392    1.876085
  H      3.566717   -4.541912    1.991396
  H      3.006556   -2.863152    1.945378
  C      3.697552   -3.602392    0.131048
  N      3.646349   -3.639392   -1.034039
  C     -1.359540   -2.150532    1.696637
  H     -2.321430   -2.476792    2.103527
  H     -1.155510   -1.123162    2.010018
  H     -0.560240   -2.804052    2.057794
  C     -1.405510   -2.205962    0.254029
  N     -1.448640   -2.248842   -0.911749
  C      1.612991   -1.048492   -1.735509
  H      2.408473   -1.704712   -2.100049
  H      1.796394   -0.030432   -2.089739
  H      0.644011   -1.404112   -2.100179
  C      1.609928   -1.057972   -0.291439
  N      1.597683   -1.069112    0.875749
  C      4.654876    0.145018    1.528686
  H      5.445135   -0.551722    1.823739
  H      3.690728   -0.216332    1.901085
  H      4.857100    1.134677    1.947972
  C      4.606316    0.230677    0.086984
  N      4.567844    0.301640   -1.077219
  C      6.477276   -2.212812   -1.998259
  H      5.628757   -2.839502   -2.287789
  H      7.384166   -2.573792   -2.488979
  H      6.268074   -1.188182   -2.315769
  C      6.622338   -2.253092   -0.560319
  N      6.724013   -2.285652    0.600978
  C      4.272429    3.665396   -1.574769
  H      3.983960    2.694367   -1.984999
  H      5.230450    3.970347   -2.002599
  H      3.510147    4.408941   -1.825899
  C      4.373701    3.564122   -0.137259
  N      4.442067    3.485207    1.024958
  C     -0.571860    4.872674   -1.511079
  H     -1.545890    4.656852   -1.960339
  H      0.172183    4.156414   -1.873099
  H     -0.245440    5.877550   -1.788329
  C     -0.675030    4.761511   -0.074299
  N     -0.769060    4.659650    1.084463
  C      2.237366    5.791592    2.024150
  H      3.014908    5.072773    2.299876
  H      1.257761    5.410050    2.328840
  H      2.426141    6.737147    2.537612
  C      2.248053    5.980884    0.590747
  N      2.249329    6.121927   -0.566989
  C     -3.769130    3.554068    1.572799
  H     -4.765380    3.219130    1.876870
  H     -3.566540    4.542296    1.990653
  H     -3.007040    2.863347    1.944311
  C     -3.699720    3.602526    0.130588
  N     -3.649620    3.639515   -1.034539
  C      1.361684    2.150848    1.697414
  H      2.323475    2.477255    2.104440
  H      1.156867    1.123981    2.012034
  H      0.562529    2.805297    2.057245
  C      1.408370    2.204362    0.254718
  N      1.451772    2.245741   -0.911129
  C     -1.610390    1.048987   -1.734349
  H     -2.406390    1.704151   -2.099709
  H     -1.791360    0.030856   -2.089819
  H     -0.641320    1.406572   -2.096979
  C     -1.609870    1.057261   -0.290259
  N     -1.599660    1.067632    0.876980
  C     -4.657050   -0.143212    1.528984
  H     -5.447460    0.553172    1.824422
  H     -3.692890    0.218627    1.900806
  H     -4.858480   -1.132942    1.948487
  C     -4.609160   -0.229082    0.087265
  N     -4.570990   -0.300492   -1.076899
  C     -6.476380    2.213435   -1.999319
  H     -5.628550    2.841265   -2.288479
  H     -7.383670    2.573545   -2.489949
  H     -6.265930    1.189153   -2.317199
  C     -6.621730    2.252879   -0.561359
  N     -6.723670    2.284770    0.599930

 Total Charge           Charge          ....    0
 Multiplicity           Mult            ....    1
 Number of Electrons    NEL             ....  352
 Basis Dimension        Dim             .... 1776

ORBITAL ENERGIES
----------------

  NO   OCC          E(Eh)            E(eV)
   0   2.0000     -15.567831      -423.6222
   1   2.0000     -15.567768      -423.6205
   2   2.0000     -15.566638      -423.5897
   3   2.0000     -15.566491      -423.5858
   4   2.0000     -15.566250      -423.5792
   5   2.0000     -15.566229      -423.5786
   6   2.0000     -15.565614      -423.5619
   7   2.0000     -15.565498      -423.5587
   8   2.0000     -15.565188      -423.5503
   9   2.0000     -15.565058      -423.5468
  10   2.0000     -15.564728      -423.5378
  11   2.0000     -15.564589      -423.5340
  12   2.0000     -15.564548      -423.5329
  13   2.0000     -15.564503      -423.5317
  14   2.0000     -15.564445      -423.5301
  15   2.0000     -15.564276      -423.5255
  16   2.0000     -11.284828      -307.0758
  17   2.0000     -11.284797      -307.0749
  18   2.0000     -11.284250      -307.0601
  19   2.0000     -11.284218      -307.0592
  20   2.0000     -11.284090      -307.0557
  21   2.0000     -11.284053      -307.0547
  22   2.0000     -11.283965      -307.0523
  23   2.0000     -11.283925      -307.0512
  24   2.0000     -11.283124      -307.0294
  25   2.0000     -11.283021      -307.0266
  26   2.0000     -11.282123      -307.0022
  27   2.0000     -11.282071      -307.0008
  28   2.0000     -11.281992      -306.9986
  29   2.0000     -11.281869      -306.9952
  30   2.0000     -11.280698      -306.9634
  31   2.0000     -11.280539      -306.9591
  32   2.0000     -11.264055      -306.5105
  33   2.0000     -11.264018      -306.5095
  34   2.0000     -11.261432      -306.4392
  35   2.0000     -11.261268      -306.4347
  36   2.0000     -11.256816      -306.3135
  37   2.0000     -11.256774      -306.3124
  38   2.0000     -11.255720      -306.2837
  39   2.0000     -11.255515      -306.2781
  40   2.0000     -11.255143      -306.2680
  41   2.0000     -11.255011      -306.2644
  42   2.0000     -11.254329      -306.2459
  43   2.0000     -11.254225      -306.2430
  44   2.0000     -11.253919      -306.2347
  45   2.0000     -11.253749      -306.2301
  46   2.0000     -11.253684      -306.2283
  47   2.0000     -11.253598      -306.2260
  48   2.0000      -1.223060       -33.2811
  49   2.0000      -1.220787       -33.2193
  50   2.0000      -1.219901       -33.1952
  51   2.0000      -1.218281       -33.1511
  52   2.0000      -1.217649       -33.1339
  53   2.0000      -1.216480       -33.1021
  54   2.0000      -1.215227       -33.0680
  55   2.0000      -1.215157       -33.0661
  56   2.0000      -1.214922       -33.0597
  57   2.0000      -1.214352       -33.0442
  58   2.0000      -1.213266       -33.0146
  59   2.0000      -1.212730       -33.0001
  60   2.0000      -1.211573       -32.9686
  61   2.0000      -1.210868       -32.9494
  62   2.0000      -1.210045       -32.9270
  63   2.0000      -1.209314       -32.9071
  64   2.0000      -1.031335       -28.0641
  65   2.0000      -1.030928       -28.0530
  66   2.0000      -1.029272       -28.0079
  67   2.0000      -1.029105       -28.0034
  68   2.0000      -1.026891       -27.9431
  69   2.0000      -1.025650       -27.9094
  70   2.0000      -1.025110       -27.8947
  71   2.0000      -1.024634       -27.8817
  72   2.0000      -1.023571       -27.8528
  73   2.0000      -1.022474       -27.8229
  74   2.0000      -1.022295       -27.8181
  75   2.0000      -1.021823       -27.8052
  76   2.0000      -1.021363       -27.7927
  77   2.0000      -1.021254       -27.7897
  78   2.0000      -1.020528       -27.7700
  79   2.0000      -1.020420       -27.7671
  80   2.0000      -0.693464       -18.8701
  81   2.0000      -0.692030       -18.8311
  82   2.0000      -0.690983       -18.8026
  83   2.0000      -0.690347       -18.7853
  84   2.0000      -0.687587       -18.7102
  85   2.0000      -0.685733       -18.6597
  86   2.0000      -0.685134       -18.6434
  87   2.0000      -0.685067       -18.6416
  88   2.0000      -0.682400       -18.5691
  89   2.0000      -0.682176       -18.5629
  90   2.0000      -0.681399       -18.5418
  91   2.0000      -0.680734       -18.5237
  92   2.0000      -0.679465       -18.4892
  93   2.0000      -0.678872       -18.4730
  94   2.0000      -0.678012       -18.4497
  95   2.0000      -0.677246       -18.4288
  96   2.0000      -0.633586       -17.2408
  97   2.0000      -0.632907       -17.2223
  98   2.0000      -0.632154       -17.2018
  99   2.0000      -0.630736       -17.1632
 100   2.0000      -0.629062       -17.1177
 101   2.0000      -0.628646       -17.1063
 102   2.0000      -0.627931       -17.0869
 103   2.0000      -0.625576       -17.0228
 104   2.0000      -0.625437       -17.0190
 105   2.0000      -0.622380       -16.9358
 106   2.0000      -0.620721       -16.8907
 107   2.0000      -0.620685       -16.8897
 108   2.0000      -0.618126       -16.8201
 109   2.0000      -0.616345       -16.7716
 110   2.0000      -0.613953       -16.7065
 111   2.0000      -0.612512       -16.6673
 112   2.0000      -0.612407       -16.6644
 113   2.0000      -0.610340       -16.6082
 114   2.0000      -0.608812       -16.5666
 115   2.0000      -0.606672       -16.5084
 116   2.0000      -0.605567       -16.4783
 117   2.0000      -0.604933       -16.4611
 118   2.0000      -0.604694       -16.4546
 119   2.0000      -0.601255       -16.3610
 120   2.0000      -0.601043       -16.3552
 121   2.0000      -0.599874       -16.3234
 122   2.0000      -0.599678       -16.3181
 123   2.0000      -0.598558       -16.2876
 124   2.0000      -0.597626       -16.2622
 125   2.0000      -0.597132       -16.2488
 126   2.0000      -0.595481       -16.2039
 127   2.0000      -0.594159       -16.1679
 128   2.0000      -0.565579       -15.3902
 129   2.0000      -0.561119       -15.2688
 130   2.0000      -0.560602       -15.2547
 131   2.0000      -0.557351       -15.1663
 132   2.0000      -0.556554       -15.1446
 133   2.0000      -0.556261       -15.1366
 134   2.0000      -0.556097       -15.1322
 135   2.0000      -0.555949       -15.1281
 136   2.0000      -0.554294       -15.0831
 137   2.0000      -0.553394       -15.0586
 138   2.0000      -0.553023       -15.0485
 139   2.0000      -0.552613       -15.0374
 140   2.0000      -0.551856       -15.0168
 141   2.0000      -0.551237       -14.9999
 142   2.0000      -0.550727       -14.9860
 143   2.0000      -0.550677       -14.9847
 144   2.0000      -0.465939       -12.6789
 145   2.0000      -0.465268       -12.6606
 146   2.0000      -0.463432       -12.6106
 147   2.0000      -0.463382       -12.6093
 148   2.0000      -0.463078       -12.6010
 149   2.0000      -0.462806       -12.5936
 150   2.0000      -0.462436       -12.5835
 151   2.0000      -0.460776       -12.5384
 152   2.0000      -0.459602       -12.5064
 153   2.0000      -0.458771       -12.4838
 154   2.0000      -0.457376       -12.4458
 155   2.0000      -0.456826       -12.4309
 156   2.0000      -0.456776       -12.4295
 157   2.0000      -0.456254       -12.4153
 158   2.0000      -0.456102       -12.4112
 159   2.0000      -0.455801       -12.4030
 160   2.0000      -0.455459       -12.3937
 161   2.0000      -0.455060       -12.3828
 162   2.0000      -0.454479       -12.3670
 163   2.0000      -0.453713       -12.3462
 164   2.0000      -0.453130       -12.3303
 165   2.0000      -0.453082       -12.3290
 166   2.0000      -0.451340       -12.2816
 167   2.0000      -0.450579       -12.2609
 168   2.0000      -0.450341       -12.2544
 169   2.0000      -0.448976       -12.2173
 170   2.0000      -0.448825       -12.2132
 171   2.0000      -0.447964       -12.1897
 172   2.0000      -0.447279       -12.1711
 173   2.0000      -0.446557       -12.1514
 174   2.0000      -0.445344       -12.1184
 175   2.0000      -0.445057       -12.1106
 176   0.0000       0.127898         3.4803
 177   0.0000       0.139244         3.7890
 178   0.0000       0.140927         3.8348
 179   0.0000       0.144966         3.9447
 180   0.0000       0.149131         4.0581

MULLIKEN ATOMIC CHARGES
-----------------------
   0 C :   -0.279222
   1 H :    0.195822
   2 H :    0.166257
   3 H :    0.196380
   4 C :   -0.052912
   5 N :   -0.228043
   6 C :   -0.288729
   7 H :    0.197489
   8 H :    0.184252
   9 H :    0.185314
  10 C :   -0.044338
  11 N :   -0.234351
  12 C :   -0.296705
  13 H :    0.192273
  14 H :    0.191523
  15 H :    0.172769
  16 C :   -0.084064
  17 N :   -0.175381
  18 C :   -0.274895
  19 H :    0.200921
  20 H :    0.177386
  21 H :    0.184907
  22 C :   -0.038549
  23 N :   -0.249417
  24 C :   -0.323496
  25 H :    0.190936
  26 H :    0.199651
  27 H :    0.202182
  28 C :    0.021194
  29 N :   -0.292100
  30 C :   -0.323740
  31 H :    0.201004
  32 H :    0.200006
  33 H :    0.191418
  34 C :    0.032965
  35 N :   -0.297425
  36 C :   -0.325162
  37 H :    0.204822
  38 H :    0.182725
  39 H :    0.202389
  40 C :   -0.033970
  41 N :   -0.228930
  42 C :   -0.293837
  43 H :    0.193135
  44 H :    0.168370
  45 H :    0.188668
  46 C :   -0.076585
  47 N :   -0.182874
  48 C :   -0.279282
  49 H :    0.195973
  50 H :    0.166276
  51 H :    0.196304
  52 C :   -0.052856
  53 N :   -0.228125
  54 C :   -0.288792
  55 H :    0.197522
  56 H :    0.184158
  57 H :    0.185461
  58 C :   -0.044366
  59 N :   -0.234321
  60 C :   -0.296664
  61 H :    0.192342
  62 H :    0.191434
  63 H :    0.172782
  64 C :   -0.084199
  65 N :   -0.175287
  66 C :   -0.274729
  67 H :    0.200910
  68 H :    0.177364
  69 H :    0.184945
  70 C :   -0.038783
  71 N :   -0.249341
  72 C :   -0.323728
  73 H :    0.190913
  74 H :    0.199665
  75 H :    0.202314
  76 C :    0.021418
  77 N :   -0.292199
  78 C :   -0.323895
  79 H :    0.201054
  80 H :    0.199897
  81 H :    0.191511
  82 C :    0.033366
  83 N :   -0.297680
  84 C :   -0.325047
  85 H :    0.204783
  86 H :    0.182712
  87 H :    0.202361
  88 C :   -0.034215
  89 N :   -0.228785
  90 C :   -0.293892
  91 H :    0.193143
  92 H :    0.168280
  93 H :    0.188731
  94 C :   -0.076538
  95 N :   -0.182926
Sum of atomic charges:   -0.0000000

LOEWDIN ATOMIC CHARGES
----------------------
   0 C :   -0.284798
   1 H :    0.155188
   2 H :    0.149727
   3 H :    0.155780
   4 C :   -0.196814
   5 N :    0.014837
   6 C :   -0.287182
   7 H :    0.152655
   8 H :    0.154713
   9 H :    0.154441
  10 C :   -0.199022
  11 N :    0.024819
  12 C :   -0.285662
  13 H :    0.153518
  14 H :    0.153741
  15 H :    0.150219
  16 C :   -0.202279
  17 N :    0.034263
  18 C :   -0.286506
  19 H :    0.152971
  20 H :    0.153886
  21 H :    0.154535
  22 C :   -0.195759
  23 N :    0.019917
  24 C :   -0.290332
  25 H :    0.149959
  26 H :    0.154409
  27 H :    0.154698
  28 C :   -0.198032
  29 N :    0.028311
  30 C :   -0.287728
  31 H :    0.155356
  32 H :    0.154954
  33 H :    0.151174
  34 C :   -0.196512
  35 N :    0.027632
  36 C :   -0.287896
  37 H :    0.154361
  38 H :    0.151394
  39 H :    0.153805
  40 C :   -0.200951
  41 N :    0.032426
  42 C :   -0.285758
  43 H :    0.155923
  44 H :    0.147588
  45 H :    0.155162
  46 C :   -0.201347
  47 N :    0.024227
  48 C :   -0.284797
  49 H :    0.155197
  50 H :    0.149738
  51 H :    0.155777
  52 C :   -0.196789
  53 N :    0.014829
  54 C :   -0.287162
  55 H :    0.152687
  56 H :    0.154693
  57 H :    0.154496
  58 C :   -0.199028
  59 N :    0.024844
  60 C :   -0.285672
  61 H :    0.153513
  62 H :    0.153727
  63 H :    0.150225
  64 C :   -0.202313
  65 N :    0.034238
  66 C :   -0.286521
  67 H :    0.152970
  68 H :    0.153883
  69 H :    0.154536
  70 C :   -0.195780
  71 N :    0.019909
  72 C :   -0.290277
  73 H :    0.149953
  74 H :    0.154433
  75 H :    0.154739
  76 C :   -0.197983
  77 N :    0.028360
  78 C :   -0.287676
  79 H :    0.155383
  80 H :    0.154986
  81 H :    0.151205
  82 C :   -0.196455
  83 N :    0.027563
  84 C :   -0.287953
  85 H :    0.154324
  86 H :    0.151373
  87 H :    0.153795
  88 C :   -0.200974
  89 N :    0.032317
  90 C :   -0.285820
  91 H :    0.155901
  92 H :    0.147557
  93 H :    0.155163
  94 C :   -0.201344
  95 N :    0.024225

  Mayer bond orders larger than 0.100000
B(  0-C ,  1-H ) :   0.9032 B(  0-C ,  2-H ) :   0.9068 B(  0-C ,  3-H ) :   0.9043
B(  0-C ,  4-C ) :   0.9093 B(  4-C ,  5-N ) :   2.6533 B(  6-C ,  7-H ) :   0.9013
B(  6-C ,  8-H ) :   0.9095 B(  6-C ,  9-H ) :   0.9024 B(  6-C , 10-C ) :   0.9005
B( 10-C , 11-N ) :   2.6362 B( 12-C , 13-H ) :   0.9074 B( 12-C , 14-H ) :   0.9068
B( 12-C , 15-H ) :   0.9067 B( 12-C , 16-C ) :   0.9017 B( 16-C , 17-N ) :   2.7211
B( 18-C , 19-H ) :   0.8986 B( 18-C , 20-H ) :   0.9026 B( 18-C , 21-H ) :   0.9096
B( 18-C , 22-C ) :   0.9070 B( 22-C , 23-N ) :   2.6090 B( 24-C , 25-H ) :   0.9095
B( 24-C , 26-H ) :   0.9017 B( 24-C , 27-H ) :   0.9040 B( 24-C , 28-C ) :   0.8724
B( 28-C , 29-N ) :   2.5014 B( 30-C , 31-H ) :   0.9023 B( 30-C , 32-H ) :   0.9051
B( 30-C , 33-H ) :   0.9081 B( 30-C , 34-C ) :   0.8778 B( 34-C , 35-N ) :   2.4905
B( 36-C , 37-H ) :   0.9008 B( 36-C , 38-H ) :   0.9111 B( 36-C , 39-H ) :   0.9001
B( 36-C , 40-C ) :   0.8834 B( 40-C , 41-N ) :   2.6347 B( 42-C , 43-H ) :   0.9039
B( 42-C , 44-H ) :   0.9128 B( 42-C , 45-H ) :   0.9057 B( 42-C , 46-C ) :   0.9033
B( 46-C , 47-N ) :   2.7186 B( 48-C , 49-H ) :   0.9031 B( 48-C , 50-H ) :   0.9068
B( 48-C , 51-H ) :   0.9044 B( 48-C , 52-C ) :   0.9093 B( 52-C , 53-N ) :   2.6531
B( 54-C , 55-H ) :   0.9013 B( 54-C , 56-H ) :   0.9096 B( 54-C , 57-H ) :   0.9024
B( 54-C , 58-C ) :   0.9005 B( 58-C , 59-N ) :   2.6361 B( 60-C , 61-H ) :   0.9073
B( 60-C , 62-H ) :   0.9068 B( 60-C , 63-H ) :   0.9067 B( 60-C , 64-C ) :   0.9017
B( 64-C , 65-N ) :   2.7213 B( 66-C , 67-H ) :   0.8986 B( 66-C , 68-H ) :   0.9025
B( 66-C , 69-H ) :   0.9096 B( 66-C , 70-C ) :   0.9070 B( 70-C , 71-N ) :   2.6091
B( 72-C , 73-H ) :   0.9095 B( 72-C , 74-H ) :   0.9018 B( 72-C , 75-H ) :   0.9040
B( 72-C , 76-C ) :   0.8723 B( 76-C , 77-N ) :   2.5011 B( 78-C , 79-H ) :   0.9023
B( 78-C , 80-H ) :   0.9052 B( 78-C , 81-H ) :   0.9081 B( 78-C , 82-C ) :   0.8777
B( 82-C , 83-N ) :   2.4901 B( 84-C , 85-H ) :   0.9008 B( 84-C , 86-H ) :   0.9110
B( 84-C , 87-H ) :   0.9000 B( 84-C , 88-C ) :   0.8836 B( 88-C , 89-N ) :   2.6351
B( 90-C , 91-H ) :   0.9039 B( 90-C , 92-H ) :   0.9128 B( 90-C , 93-H ) :   0.9057
B( 90-C , 94-C ) :   0.9032 B( 94-C , 95-N ) :   2.7186

MP2 TOTAL ENERGY:    -2119.932549191 Eh
FINAL SINGLE POINT ENERGY     -2119.932549191062

DIPOLE MOMENT
-------------
                                X             Y             Z
Electronic contribution:     -0.01094      -0.00358      -0.22426
Nuclear contribution   :      0.02008       0.00535       0.01416
                        -----------------------------------------
Total Dipole Moment    :      0.00914       0.00178      -0.21010
                        -----------------------------------------
Magnitude (a.u.)       :      0.21031
Magnitude (Debye)      :      0.53456

Rotational constants in cm-1:     0.001913     0.001712     0.001010
Rotational constants in MHz :    57.342652    51.319499    30.276257

                             ****ORCA TERMINATED NORMALLY****
TOTAL RUN TIME: 0 days 4 hours 31 minutes 53 seconds 662 msec
