                         Program Version 4.2.0 -  RELEASE  -
|  1> ! MP2 def2-TZVP EnGrad TightSCF FrozenCore
|  2>
|  3> %pal
|  4>     nprocs 12
|  5> end
|  6>
|  7> %maxcore 8000
|  8>
|  9> %scf
| 10>     ConvForced true
| 11> end
| 12>
| 13> *xyz 0 1
| 14> C    -2.602699    -1.782761    -0.014956
| 15> H    -2.830784    -2.776613    -0.410127
| 16> H    -2.301850    -1.863099     1.033406
| 17> H    -1.767441    -1.348763    -0.576169
| 18> C    -3.773869    -0.916738    -0.131016
| 19> N    -4.685869    -0.202575    -0.222183
| 20> C     1.006036    -2.989398    -0.109674
| 21> H     1.277267    -4.038093     0.035296
| 22> H     0.526421    -2.860776    -1.083967
| 23> H     0.305176    -2.675449     0.670089
| 24> C     2.195919    -2.145831    -0.041330
| 25> N     3.136626    -1.465605     0.015556
| 26> C     2.315720     1.214322    -2.004013
| 27> H     2.525747     1.376147    -3.064385
| 28> H     3.145261     0.663523    -1.549302
| 29> H     2.193849     2.181082    -1.505495
| 30> C     1.088137     0.439124    -1.850037
| 31> N     0.113733    -0.181627    -1.723150
| 32> C     2.134299     0.985117     1.977581
| 33> H     2.456002     1.214781     0.958872
| 34> H     2.918836     0.407199     2.472044
| 35> H     1.959945     1.924352     2.507891
| 36> C     0.900564     0.205221     1.931963
| 37> N    -0.079650    -0.418958     1.903325
| 38> C    -1.937401     1.908442     0.060729
| 39> H    -2.065875     1.416371    -0.907165
| 40> H    -2.746649     2.627289     0.209611
| 41> H    -1.979682     1.148391     0.846397
| 42> C    -0.637132     2.570427     0.105697
| 43> N     0.407493     3.079639     0.142643
| 44> *
| 45>
| 46>                          ****END OF INPUT****

CARTESIAN COORDINATES (ANGSTROEM)
---------------------------------
  C     -2.602699   -1.782761   -0.014956
  H     -2.830784   -2.776613   -0.410127
  H     -2.301850   -1.863099    1.033406
  H     -1.767441   -1.348763   -0.576169
  C     -3.773869   -0.916738   -0.131016
  N     -4.685869   -0.202575   -0.222183
  C      1.006036   -2.989398   -0.109674
  H      1.277267   -4.038093    0.035296
  H      0.526421   -2.860776   -1.083967
  H      0.305176   -2.675449    0.670089
  C      2.195919   -2.145831   -0.041330
  N      3.136626   -1.465605    0.015556
  C      2.315720    1.214322   -2.004013
  H      2.525747    1.376147   -3.064385
  H      3.145261    0.663523   -1.549302
  H      2.193849    2.181082   -1.505495
  C      1.088137    0.439124   -1.850037
  N      0.113733   -0.181627   -1.723150
  C      2.134299    0.985117    1.977581
  H      2.456002    1.214781    0.958872
  H      2.918836    0.407199    2.472044
  H      1.959945    1.924352    2.507891
  C      0.900564    0.205221    1.931963
  N     -0.079650   -0.418958    1.903325
  C     -1.937401    1.908442    0.060729
  H     -2.065875    1.416371   -0.907165
  H     -2.746649    2.627289    0.209611
  H     -1.979682    1.148391    0.846397
  C     -0.637132    2.570427    0.105697
  N      0.407493    3.079639    0.142643

 Total Charge           Charge          ....    0
 Multiplicity           Mult            ....    1
 Number of Electrons    NEL             ....  110
 Basis Dimension        Dim             ....  555

ORBITAL ENERGIES
----------------

  NO   OCC          E(Eh)            E(eV)
   0   2.0000     -15.578002      -423.8990
   1   2.0000     -15.577456      -423.8841
   2   2.0000     -15.574942      -423.8157
   3   2.0000     -15.570307      -423.6896
   4   2.0000     -15.565063      -423.5469
   5   2.0000     -11.293399      -307.3090
   6   2.0000     -11.291709      -307.2630
   7   2.0000     -11.290543      -307.2313
   8   2.0000     -11.284740      -307.0734
   9   2.0000     -11.279338      -306.9264
  10   2.0000     -11.276537      -306.8502
  11   2.0000     -11.274416      -306.7924
  12   2.0000     -11.273853      -306.7771
  13   2.0000     -11.267646      -306.6082
  14   2.0000     -11.265363      -306.5461
  15   2.0000      -1.230284       -33.4777
  16   2.0000      -1.225864       -33.3574
  17   2.0000      -1.224233       -33.3131
  18   2.0000      -1.219106       -33.1736
  19   2.0000      -1.211459       -32.9655
  20   2.0000      -1.039420       -28.2840
  21   2.0000      -1.036404       -28.2020
  22   2.0000      -1.032420       -28.0936
  23   2.0000      -1.027030       -27.9469
  24   2.0000      -1.024128       -27.8679
  25   2.0000      -0.701264       -19.0824
  26   2.0000      -0.695628       -18.9290
  27   2.0000      -0.693208       -18.8632
  28   2.0000      -0.687516       -18.7083
  29   2.0000      -0.684231       -18.6189
  30   2.0000      -0.638086       -17.3632
  31   2.0000      -0.633320       -17.2335
  32   2.0000      -0.631513       -17.1843
  33   2.0000      -0.626785       -17.0557
  34   2.0000      -0.624222       -16.9859
  35   2.0000      -0.618643       -16.8341
  36   2.0000      -0.614351       -16.7173
  37   2.0000      -0.612497       -16.6669
  38   2.0000      -0.607313       -16.5258
  39   2.0000      -0.605635       -16.4802
  40   2.0000      -0.568418       -15.4674
  41   2.0000      -0.565594       -15.3906
  42   2.0000      -0.564276       -15.3547
  43   2.0000      -0.559712       -15.2305
  44   2.0000      -0.550148       -14.9703
  45   2.0000      -0.479547       -13.0491
  46   2.0000      -0.474093       -12.9007
  47   2.0000      -0.469544       -12.7769
  48   2.0000      -0.466256       -12.6875
  49   2.0000      -0.464463       -12.6387
  50   2.0000      -0.461691       -12.5633
  51   2.0000      -0.460986       -12.5441
  52   2.0000      -0.458691       -12.4816
  53   2.0000      -0.453573       -12.3423
  54   2.0000      -0.452168       -12.3041
  55   0.0000       0.119945         3.2639
  56   0.0000       0.136648         3.7184
  57   0.0000       0.145385         3.9561
  58   0.0000       0.150996         4.1088
  59   0.0000       0.157629         4.2893

MULLIKEN ATOMIC CHARGES
-----------------------
   0 C :   -0.294727
   1 H :    0.167103
   2 H :    0.183046
   3 H :    0.181456
   4 C :   -0.159676
   5 N :   -0.089773
   6 C :   -0.305688
   7 H :    0.176422
   8 H :    0.183118
   9 H :    0.189277
  10 C :   -0.083238
  11 N :   -0.158251
  12 C :   -0.323193
  13 H :    0.177017
  14 H :    0.199583
  15 H :    0.203463
  16 C :   -0.079922
  17 N :   -0.172376
  18 C :   -0.221385
  19 H :    0.159809
  20 H :    0.176901
  21 H :    0.178553
  22 C :   -0.107441
  23 N :   -0.181174
  24 C :   -0.323868
  25 H :    0.185640
  26 H :    0.184391
  27 H :    0.187299
  28 C :   -0.068030
  29 N :   -0.164337
Sum of atomic charges:   -0.0000000

LOEWDIN ATOMIC CHARGES
----------------------
   0 C :   -0.297026
   1 H :    0.146751
   2 H :    0.151920
   3 H :    0.151061
   4 C :   -0.219751
   5 N :    0.037855
   6 C :   -0.282731
   7 H :    0.148543
   8 H :    0.153834
   9 H :    0.154141
  10 C :   -0.201285
  11 N :    0.031425
  12 C :   -0.283921
  13 H :    0.150877
  14 H :    0.154352
  15 H :    0.155031
  16 C :   -0.196741
  17 N :    0.030894
  18 C :   -0.278971
  19 H :    0.151921
  20 H :    0.152821
  21 H :    0.153523
  22 C :   -0.198379
  23 N :    0.025211
  24 C :   -0.280115
  25 H :    0.156066
  26 H :    0.152465
  27 H :    0.155796
  28 C :   -0.200307
  29 N :    0.024738

  Mayer bond orders larger than 0.100000
B(  0-C ,  1-H ) :   0.9078 B(  0-C ,  2-H ) :   0.9067 B(  0-C ,  3-H ) :   0.8985
B(  0-C ,  4-C ) :   0.9315 B(  4-C ,  5-N ) :   2.8431 B(  6-C ,  7-H ) :   0.9122
B(  6-C ,  8-H ) :   0.9113 B(  6-C ,  9-H ) :   0.9087 B(  6-C , 10-C ) :   0.9016
B( 10-C , 11-N ) :   2.7509 B( 12-C , 13-H ) :   0.9072 B( 12-C , 14-H ) :   0.9092
B( 12-C , 15-H ) :   0.9075 B( 12-C , 16-C ) :   0.8852 B( 16-C , 17-N ) :   2.7208
B( 18-C , 19-H ) :   0.9199 B( 18-C , 20-H ) :   0.9072 B( 18-C , 21-H ) :   0.9076
B( 18-C , 22-C ) :   0.9157 B( 22-C , 23-N ) :   2.7175 B( 24-C , 25-H ) :   0.9082
B( 24-C , 26-H ) :   0.9127 B( 24-C , 27-H ) :   0.9082 B( 24-C , 28-C ) :   0.9015
B( 28-C , 29-N ) :   2.7511

MP2 TOTAL ENERGY:     -662.458690473 Eh
FINAL SINGLE POINT ENERGY      -662.458690473428

DIPOLE MOMENT
-------------
                                X             Y             Z
Electronic contribution:     -2.29654       1.85233       0.23433
Nuclear contribution   :      3.63299      -2.61565      -0.36466
                        -----------------------------------------
Total Dipole Moment    :      1.33645      -0.76332      -0.13033
                        -----------------------------------------
Magnitude (a.u.)       :      1.54458
Magnitude (Debye)      :      3.92602

Rotational constants in cm-1:     0.018576     0.012529     0.010291
Rotational constants in MHz :   556.896899   375.614217   308.509804

                             ****ORCA TERMINATED NORMALLY****
TOTAL RUN TIME: 0 days 0 hours 18 minutes 17 seconds 98 msec
