                         Program Version 3.0.3 - RELEASE   -
|  1> ! B3LYP Def2-TZVP def2-TZVP/J RIJCOSX TightSCF Grid4 D3BJ
|  2>
|  3> %pal nprocs 12 end
|  4>
|  5> %scf
|  6>         maxiter 400
|  7> end
|  8>
|  9> * xyz  0  1
| 10> O  1.796407	0.381782	0.275720
| 11> H  1.327718	0.100593	-0.581997
| 12> H  2.388025	-0.369135	0.468304
| 13> O  0.355702	-0.407128	-1.787697
| 14> H  -0.527259	-0.439176	-1.284218
| 15> H  0.219468	0.309069	-2.435643
| 16> O  -0.351462	0.381553	1.801830
| 17> H  0.535858	0.392028	1.304031
| 18> H  -0.509364	1.324103	1.997535
| 19> O  -1.806857	-0.356520	-0.274204
| 20> H  -2.093183	-1.263557	-0.058575
| 21> H  -1.335056	-0.053612	0.574913
| 22> **                         ****END OF INPUT****

CARTESIAN COORDINATES (ANGSTROEM)
---------------------------------
  O      1.796407    0.381782    0.275720
  H      1.327718    0.100593   -0.581997
  H      2.388025   -0.369135    0.468304
  O      0.355702   -0.407128   -1.787697
  H     -0.527259   -0.439176   -1.284218
  H      0.219468    0.309069   -2.435643
  O     -0.351462    0.381553    1.801830
  H      0.535858    0.392028    1.304031
  H     -0.509364    1.324103    1.997535
  O     -1.806857   -0.356520   -0.274204
  H     -2.093183   -1.263557   -0.058575
  H     -1.335056   -0.053612    0.574913

 Total Charge           Charge          ....    0
 Multiplicity           Mult            ....    1
 Number of Electrons    NEL             ....   40
 Basis Dimension        Dim             ....  172

ORBITAL ENERGIES
----------------

  NO   OCC          E(Eh)            E(eV)
   0   2.0000     -19.126679      -520.4634
   1   2.0000     -19.126457      -520.4574
   2   2.0000     -19.126327      -520.4538
   3   2.0000     -19.126085      -520.4472
   4   2.0000      -1.023843       -27.8602
   5   2.0000      -1.004165       -27.3247
   6   2.0000      -1.004111       -27.3233
   7   2.0000      -0.984774       -26.7971
   8   2.0000      -0.535482       -14.5712
   9   2.0000      -0.523134       -14.2352
  10   2.0000      -0.522928       -14.2296
  11   2.0000      -0.517560       -14.0835
  12   2.0000      -0.440947       -11.9988
  13   2.0000      -0.401867       -10.9354
  14   2.0000      -0.401192       -10.9170
  15   2.0000      -0.367930       -10.0119
  16   2.0000      -0.318624        -8.6702
  17   2.0000      -0.318019        -8.6537
  18   2.0000      -0.317840        -8.6489
  19   2.0000      -0.312634        -8.5072
  20   0.0000       0.007334         0.1996
  21   0.0000       0.046301         1.2599
  22   0.0000       0.046338         1.2609
  23   0.0000       0.064365         1.7515
  24   0.0000       0.181276         4.9328

MULLIKEN ATOMIC CHARGES
-----------------------
   0 O :   -0.686292
   1 H :    0.358478
   2 H :    0.327292
   3 O :   -0.685028
   4 H :    0.357302
   5 H :    0.327259
   6 O :   -0.684775
   7 H :    0.359730
   8 H :    0.326917
   9 O :   -0.684774
  10 H :    0.327062
  11 H :    0.356829
Sum of atomic charges:    0.0000000

LOEWDIN ATOMIC CHARGES
----------------------
   0 O :   -0.304947
   1 H :    0.144719
   2 H :    0.160894
   3 O :   -0.305470
   4 H :    0.144515
   5 H :    0.160942
   6 O :   -0.305394
   7 H :    0.144480
   8 H :    0.160755
   9 O :   -0.305837
  10 H :    0.160738
  11 H :    0.144605

  Mayer bond orders larger than 0.1
B(  0-O ,  1-H ) :   0.7625 B(  0-O ,  2-H ) :   0.8968 B(  0-O ,  7-H ) :   0.1675
B(  1-H ,  3-O ) :   0.1686 B(  3-O ,  4-H ) :   0.7629 B(  3-O ,  5-H ) :   0.8969
B(  4-H ,  9-O ) :   0.1696 B(  6-O ,  7-H ) :   0.7625 B(  6-O ,  8-H ) :   0.8974
B(  6-O , 11-H ) :   0.1714 B(  9-O , 10-H ) :   0.8974 B(  9-O , 11-H ) :   0.7619

Dispersion correction           -0.008270338
FINAL SINGLE POINT ENERGY      -305.755892135901

DIPOLE MOMENT
-------------
                                X             Y             Z
Electronic contribution:      0.00125      -0.00097       0.00688
Nuclear contribution   :      0.01550       0.00078      -0.03908
                        -----------------------------------------
Total Dipole Moment    :      0.01676      -0.00018      -0.03220
                        -----------------------------------------
Magnitude (a.u.)       :      0.03630
Magnitude (Debye)      :      0.09227

                             ****ORCA TERMINATED NORMALLY****
TOTAL RUN TIME: 0 days 0 hours 0 minutes 58 seconds 397 msec
