                         Program Version 3.0.3 - RELEASE   -
|  1> ! wB97X-D3 Def2-TZVP def2-TZVP/J RIJCOSX TightSCF Grid4
|  2>
|  3> %pal nprocs 12 end
|  4>
|  5> %scf
|  6>         maxiter 400
|  7> end
|  8>
|  9> * xyz  0  1
| 10> O  1.796407	0.381782	0.275720
| 11> H  1.327718	0.100593	-0.581997
| 12> H  2.388025	-0.369135	0.468304
| 13> O  0.355702	-0.407128	-1.787697
| 14> H  -0.527259	-0.439176	-1.284218
| 15> H  0.219468	0.309069	-2.435643
| 16> O  -0.351462	0.381553	1.801830
| 17> H  0.535858	0.392028	1.304031
| 18> H  -0.509364	1.324103	1.997535
| 19> O  -1.806857	-0.356520	-0.274204
| 20> H  -2.093183	-1.263557	-0.058575
| 21> H  -1.335056	-0.053612	0.574913
| 22> **                         ****END OF INPUT****

CARTESIAN COORDINATES (ANGSTROEM)
---------------------------------
  O      1.796407    0.381782    0.275720
  H      1.327718    0.100593   -0.581997
  H      2.388025   -0.369135    0.468304
  O      0.355702   -0.407128   -1.787697
  H     -0.527259   -0.439176   -1.284218
  H      0.219468    0.309069   -2.435643
  O     -0.351462    0.381553    1.801830
  H      0.535858    0.392028    1.304031
  H     -0.509364    1.324103    1.997535
  O     -1.806857   -0.356520   -0.274204
  H     -2.093183   -1.263557   -0.058575
  H     -1.335056   -0.053612    0.574913

 Total Charge           Charge          ....    0
 Multiplicity           Mult            ....    1
 Number of Electrons    NEL             ....   40
 Basis Dimension        Dim             ....  172

ORBITAL ENERGIES
----------------

  NO   OCC          E(Eh)            E(eV)
   0   2.0000     -19.233613      -523.3732
   1   2.0000     -19.233395      -523.3673
   2   2.0000     -19.233289      -523.3644
   3   2.0000     -19.232966      -523.3556
   4   2.0000      -1.139387       -31.0043
   5   2.0000      -1.119168       -30.4541
   6   2.0000      -1.119086       -30.4519
   7   2.0000      -1.099313       -29.9138
   8   2.0000      -0.638578       -17.3766
   9   2.0000      -0.625326       -17.0160
  10   2.0000      -0.625101       -17.0099
  11   2.0000      -0.620298       -16.8792
  12   2.0000      -0.543628       -14.7929
  13   2.0000      -0.502879       -13.6840
  14   2.0000      -0.502175       -13.6649
  15   2.0000      -0.468477       -12.7479
  16   2.0000      -0.416450       -11.3322
  17   2.0000      -0.416315       -11.3285
  18   2.0000      -0.415848       -11.3158
  19   2.0000      -0.411092       -11.1864
  20   0.0000       0.094891         2.5821
  21   0.0000       0.136591         3.7168
  22   0.0000       0.136651         3.7185
  23   0.0000       0.154893         4.2149
  24   0.0000       0.267978         7.2920

MULLIKEN ATOMIC CHARGES
-----------------------
   0 O :   -0.706747
   1 H :    0.363470
   2 H :    0.342629
   3 O :   -0.705217
   4 H :    0.362349
   5 H :    0.342545
   6 O :   -0.705028
   7 H :    0.364880
   8 H :    0.342037
   9 O :   -0.705162
  10 H :    0.342326
  11 H :    0.361915
Sum of atomic charges:    0.0000000

LOEWDIN ATOMIC CHARGES
----------------------
   0 O :   -0.307806
   1 H :    0.145520
   2 H :    0.162950
   3 O :   -0.308266
   4 H :    0.145331
   5 H :    0.162985
   6 O :   -0.308268
   7 H :    0.145288
   8 H :    0.162753
   9 O :   -0.308714
  10 H :    0.162792
  11 H :    0.145437

  Mayer bond orders larger than 0.1
B(  0-O ,  1-H ) :   0.7670 B(  0-O ,  2-H ) :   0.8900 B(  0-O ,  7-H ) :   0.1568
B(  1-H ,  3-O ) :   0.1582 B(  3-O ,  4-H ) :   0.7675 B(  3-O ,  5-H ) :   0.8901
B(  4-H ,  9-O ) :   0.1590 B(  6-O ,  7-H ) :   0.7671 B(  6-O ,  8-H ) :   0.8907
B(  6-O , 11-H ) :   0.1607 B(  9-O , 10-H ) :   0.8906 B(  9-O , 11-H ) :   0.7665

Dispersion correction           -0.003062766
FINAL SINGLE POINT ENERGY      -305.801344556904

DIPOLE MOMENT
-------------
                                X             Y             Z
Electronic contribution:      0.00144      -0.00127       0.00616
Nuclear contribution   :      0.01550       0.00078      -0.03908
                        -----------------------------------------
Total Dipole Moment    :      0.01694      -0.00049      -0.03292
                        -----------------------------------------
Magnitude (a.u.)       :      0.03702
Magnitude (Debye)      :      0.09411

                             ****ORCA TERMINATED NORMALLY****
TOTAL RUN TIME: 0 days 0 hours 0 minutes 51 seconds 831 msec
