                         Program Version 4.2.0 -  RELEASE  -
|  1> # 12h2o.su.etal.mol6,7,9,10,11
|  2> ! MP2 def2-TZVP EnGrad TightSCF
|  3>
|  4> %pal
|  5>     nprocs 6
|  6> end
|  7>
|  8> %maxcore 8000
|  9>
| 10> %scf
| 11>     ConvForced true
| 12> end
| 13>
| 14> *xyz 0 1
| 15> O   1.737840000   0.885520000  -0.052730000
| 16> H   2.090180000   1.032320000   0.841890000
| 17> H   0.839590000   1.284090000  -0.017130000
| 18> O  -1.737840000  -0.885520000  -0.052730000
| 19> H  -2.090180000  -1.032320000   0.841890000
| 20> H  -0.839590000  -1.284090000  -0.017130000
| 21> O   0.741530000  -1.752130000   2.896280000
| 22> H   0.920500000  -2.036450000   1.984040000
| 23> H   1.242140000  -0.921210000   2.984230000
| 24> O  -0.923410000   1.794470000  -2.768350000
| 25> H  -1.359750000   2.338250000  -3.430940000
| 26> H  -1.303000000   0.879480000  -2.865760000
| 27> O  -0.741530000   1.752130000   2.896280000
| 28> H  -0.920500000   2.036450000   1.984040000
| 29> H  -1.242140000   0.921210000   2.984230000
| 30> *
| 31>
| 32>                          ****END OF INPUT****

CARTESIAN COORDINATES (ANGSTROEM)
---------------------------------
  O      1.737840    0.885520   -0.052730
  H      2.090180    1.032320    0.841890
  H      0.839590    1.284090   -0.017130
  O     -1.737840   -0.885520   -0.052730
  H     -2.090180   -1.032320    0.841890
  H     -0.839590   -1.284090   -0.017130
  O      0.741530   -1.752130    2.896280
  H      0.920500   -2.036450    1.984040
  H      1.242140   -0.921210    2.984230
  O     -0.923410    1.794470   -2.768350
  H     -1.359750    2.338250   -3.430940
  H     -1.303000    0.879480   -2.865760
  O     -0.741530    1.752130    2.896280
  H     -0.920500    2.036450    1.984040
  H     -1.242140    0.921210    2.984230

 Total Charge           Charge          ....    0
 Multiplicity           Mult            ....    1
 Number of Electrons    NEL             ....   50
 Basis Dimension        Dim             ....  215

ORBITAL ENERGIES
----------------

  NO   OCC          E(Eh)            E(eV)
   0   2.0000     -20.579749      -560.0034
   1   2.0000     -20.577924      -559.9538
   2   2.0000     -20.575306      -559.8825
   3   2.0000     -20.567293      -559.6645
   4   2.0000     -20.560461      -559.4786
   5   2.0000      -1.357016       -36.9263
   6   2.0000      -1.355390       -36.8820
   7   2.0000      -1.354160       -36.8486
   8   2.0000      -1.342912       -36.5425
   9   2.0000      -1.335767       -36.3481
  10   2.0000      -0.720540       -19.6069
  11   2.0000      -0.717254       -19.5175
  12   2.0000      -0.716430       -19.4951
  13   2.0000      -0.705046       -19.1853
  14   2.0000      -0.703287       -19.1374
  15   2.0000      -0.596065       -16.2197
  16   2.0000      -0.594219       -16.1695
  17   2.0000      -0.591773       -16.1030
  18   2.0000      -0.582201       -15.8425
  19   2.0000      -0.572548       -15.5798
  20   2.0000      -0.525168       -14.2906
  21   2.0000      -0.521460       -14.1896
  22   2.0000      -0.517057       -14.0698
  23   2.0000      -0.509349       -13.8601
  24   2.0000      -0.503684       -13.7059
  25   0.0000       0.074219         2.0196
  26   0.0000       0.125982         3.4281
  27   0.0000       0.131540         3.5794
  28   0.0000       0.132446         3.6040
  29   0.0000       0.167477         4.5573

MULLIKEN ATOMIC CHARGES
-----------------------
   0 O :   -0.677977
   1 H :    0.330480
   2 H :    0.346254
   3 O :   -0.678405
   4 H :    0.337975
   5 H :    0.340165
   6 O :   -0.677362
   7 H :    0.333511
   8 H :    0.343940
   9 O :   -0.688311
  10 H :    0.337854
  11 H :    0.351373
  12 O :   -0.678090
  13 H :    0.337882
  14 H :    0.340710
Sum of atomic charges:   -0.0000000

LOEWDIN ATOMIC CHARGES
----------------------
   0 O :   -0.333055
   1 H :    0.160237
   2 H :    0.171380
   3 O :   -0.333389
   4 H :    0.163890
   5 H :    0.169884
   6 O :   -0.328081
   7 H :    0.161379
   8 H :    0.166842
   9 O :   -0.340662
  10 H :    0.157638
  11 H :    0.183578
  12 O :   -0.328236
  13 H :    0.163227
  14 H :    0.165369

  Mayer bond orders larger than 0.100000
B(  0-O ,  1-H ) :   0.8544 B(  0-O ,  2-H ) :   0.8397 B(  3-O ,  4-H ) :   0.8506
B(  3-O ,  5-H ) :   0.8447 B(  6-O ,  7-H ) :   0.8527 B(  6-O ,  8-H ) :   0.8449
B(  9-O , 10-H ) :   0.8533 B(  9-O , 11-H ) :   0.8388 B( 12-O , 13-H ) :   0.8501
B( 12-O , 14-H ) :   0.8471

MP2 TOTAL ENERGY:     -381.573917886 Eh
FINAL SINGLE POINT ENERGY      -381.573917885772

DIPOLE MOMENT
-------------
                                X             Y             Z
Electronic contribution:      0.09085       0.06521       0.05590
Nuclear contribution   :     -0.67915      -0.30898      -0.45625
                        -----------------------------------------
Total Dipole Moment    :     -0.58829      -0.24377      -0.40035
                        -----------------------------------------
Magnitude (a.u.)       :      0.75219
Magnitude (Debye)      :      1.91192

Rotational constants in cm-1:     0.061829     0.028467     0.027675
Rotational constants in MHz :  1853.587129   853.410231   829.685662

                             ****ORCA TERMINATED NORMALLY****
TOTAL RUN TIME: 0 days 0 hours 0 minutes 25 seconds 769 msec
