                         Program Version 4.2.0 -  RELEASE  -
|  1> # 12h2o.su.etal.mol0,1,5,6,8,10
|  2> ! MP2 def2-TZVP EnGrad TightSCF
|  3>
|  4> %pal
|  5>     nprocs 6
|  6> end
|  7>
|  8> %maxcore 8000
|  9>
| 10> %scf
| 11>     ConvForced true
| 12> end
| 13>
| 14> *xyz 0 1
| 15> O   1.794470000   0.923410000   2.768350000
| 16> H   2.338250000   1.359750000   3.430940000
| 17> H   0.879480000   1.303000000   2.865760000
| 18> O  -1.794470000  -0.923410000   2.768350000
| 19> H  -2.338250000  -1.359750000   3.430940000
| 20> H  -0.879480000  -1.303000000   2.865760000
| 21> O   0.885520000  -1.737840000   0.052730000
| 22> H   1.284090000  -0.839590000   0.017130000
| 23> H   1.032320000  -2.090180000  -0.841890000
| 24> O   1.737840000   0.885520000  -0.052730000
| 25> H   2.090180000   1.032320000   0.841890000
| 26> H   0.839590000   1.284090000  -0.017130000
| 27> O   1.752130000   0.741530000  -2.896280000
| 28> H   2.036450000   0.920500000  -1.984040000
| 29> H   0.921210000   1.242140000  -2.984230000
| 30> O  -0.923410000   1.794470000  -2.768350000
| 31> H  -1.359750000   2.338250000  -3.430940000
| 32> H  -1.303000000   0.879480000  -2.865760000
| 33> *
| 34>
| 35>                          ****END OF INPUT****

CARTESIAN COORDINATES (ANGSTROEM)
---------------------------------
  O      1.794470    0.923410    2.768350
  H      2.338250    1.359750    3.430940
  H      0.879480    1.303000    2.865760
  O     -1.794470   -0.923410    2.768350
  H     -2.338250   -1.359750    3.430940
  H     -0.879480   -1.303000    2.865760
  O      0.885520   -1.737840    0.052730
  H      1.284090   -0.839590    0.017130
  H      1.032320   -2.090180   -0.841890
  O      1.737840    0.885520   -0.052730
  H      2.090180    1.032320    0.841890
  H      0.839590    1.284090   -0.017130
  O      1.752130    0.741530   -2.896280
  H      2.036450    0.920500   -1.984040
  H      0.921210    1.242140   -2.984230
  O     -0.923410    1.794470   -2.768350
  H     -1.359750    2.338250   -3.430940
  H     -1.303000    0.879480   -2.865760

 Total Charge           Charge          ....    0
 Multiplicity           Mult            ....    1
 Number of Electrons    NEL             ....   60
 Basis Dimension        Dim             ....  258

ORBITAL ENERGIES
----------------

  NO   OCC          E(Eh)            E(eV)
   0   2.0000     -20.599541      -560.5420
   1   2.0000     -20.587243      -560.2074
   2   2.0000     -20.574880      -559.8709
   3   2.0000     -20.556421      -559.3687
   4   2.0000     -20.512451      -558.1722
   5   2.0000     -20.505146      -557.9734
   6   2.0000      -1.378542       -37.5120
   7   2.0000      -1.364915       -37.1412
   8   2.0000      -1.359535       -36.9948
   9   2.0000      -1.331786       -36.2397
  10   2.0000      -1.293546       -35.1992
  11   2.0000      -1.290451       -35.1149
  12   2.0000      -0.744585       -20.2612
  13   2.0000      -0.731961       -19.9177
  14   2.0000      -0.723902       -19.6984
  15   2.0000      -0.699802       -19.0426
  16   2.0000      -0.671967       -18.2851
  17   2.0000      -0.666666       -18.1409
  18   2.0000      -0.623203       -16.9582
  19   2.0000      -0.606029       -16.4909
  20   2.0000      -0.591756       -16.1025
  21   2.0000      -0.568626       -15.4731
  22   2.0000      -0.552990       -15.0476
  23   2.0000      -0.545407       -14.8413
  24   2.0000      -0.533363       -14.5135
  25   2.0000      -0.513967       -13.9858
  26   2.0000      -0.503709       -13.7066
  27   2.0000      -0.499665       -13.5966
  28   2.0000      -0.461028       -12.5452
  29   2.0000      -0.454873       -12.3777
  30   0.0000       0.093957         2.5567
  31   0.0000       0.114113         3.1052
  32   0.0000       0.140613         3.8263
  33   0.0000       0.163125         4.4389
  34   0.0000       0.176444         4.8013

MULLIKEN ATOMIC CHARGES
-----------------------
   0 O :   -0.698259
   1 H :    0.355118
   2 H :    0.360716
   3 O :   -0.693936
   4 H :    0.335481
   5 H :    0.357612
   6 O :   -0.723826
   7 H :    0.360790
   8 H :    0.330368
   9 O :   -0.720831
  10 H :    0.384075
  11 H :    0.353560
  12 O :   -0.726631
  13 H :    0.364489
  14 H :    0.342064
  15 O :   -0.698673
  16 H :    0.353347
  17 H :    0.364535
Sum of atomic charges:    0.0000000

LOEWDIN ATOMIC CHARGES
----------------------
   0 O :   -0.309238
   1 H :    0.165182
   2 H :    0.187451
   3 O :   -0.342994
   4 H :    0.156678
   5 H :    0.185028
   6 O :   -0.364809
   7 H :    0.141540
   8 H :    0.159010
   9 O :   -0.282904
  10 H :    0.155707
  11 H :    0.175905
  12 O :   -0.355192
  13 H :    0.147081
  14 H :    0.140644
  15 O :   -0.312771
  16 H :    0.163778
  17 H :    0.189906

  Mayer bond orders larger than 0.100000
B(  0-O ,  1-H ) :   0.8401 B(  0-O ,  2-H ) :   0.8281 B(  3-O ,  4-H ) :   0.8546
B(  3-O ,  5-H ) :   0.8327 B(  6-O ,  7-H ) :   0.8004 B(  6-O ,  8-H ) :   0.8558
B(  9-O , 10-H ) :   0.7953 B(  9-O , 11-H ) :   0.8324 B( 12-O , 13-H ) :   0.8273
B( 12-O , 14-H ) :   0.8304 B( 15-O , 16-H ) :   0.8413 B( 15-O , 17-H ) :   0.8277

MP2 TOTAL ENERGY:     -457.909663144 Eh
FINAL SINGLE POINT ENERGY      -457.909663144079

DIPOLE MOMENT
-------------
                                X             Y             Z
Electronic contribution:      0.12070       0.09738       0.11470
Nuclear contribution   :     -1.13457       1.16501       1.31870
                        -----------------------------------------
Total Dipole Moment    :     -1.01387       1.26240       1.43340
                        -----------------------------------------
Magnitude (a.u.)       :      2.16245
Magnitude (Debye)      :      5.49652

Rotational constants in cm-1:     0.049336     0.022813     0.020023
Rotational constants in MHz :  1479.063466   683.927602   600.283045

                             ****ORCA TERMINATED NORMALLY****
TOTAL RUN TIME: 0 days 0 hours 0 minutes 56 seconds 331 msec
