                         Program Version 4.2.0 -  RELEASE  -
|  1> # 12meoh.boyd.etal.mol5,9
|  2> ! MP2 def2-TZVP EnGrad TightSCF
|  3>
|  4> %pal
|  5>     nprocs 6
|  6> end
|  7>
|  8> %maxcore 8000
|  9>
| 10> %scf
| 11>     ConvForced true
| 12> end
| 13>
| 14> *xyz 0 1
| 15> O  -0.662721750   1.449094618  -1.383082065
| 16> H   0.064188300   2.119867608  -1.465650660
| 17> C  -0.353319239   0.341218776  -2.229326771
| 18> H  -1.072358530  -0.454743281  -2.019906495
| 19> H   0.657636746  -0.044472139  -2.042736771
| 20> H  -0.434616607   0.624733901  -3.287793021
| 21> O   1.390610024   3.194080770  -1.536658882
| 22> H   2.162932299   2.881562730  -0.993525056
| 23> C   1.202977189   4.580367182  -1.302880219
| 24> H   0.374773115   4.915764831  -1.934164643
| 25> H   2.098649340   5.157710875  -1.570472348
| 26> H   0.950320401   4.800436015  -0.254328827
| 27> *
| 28>
| 29>                          ****END OF INPUT****

CARTESIAN COORDINATES (ANGSTROEM)
---------------------------------
  O     -0.662722    1.449095   -1.383082
  H      0.064188    2.119868   -1.465651
  C     -0.353319    0.341219   -2.229327
  H     -1.072359   -0.454743   -2.019906
  H      0.657637   -0.044472   -2.042737
  H     -0.434617    0.624734   -3.287793
  O      1.390610    3.194081   -1.536659
  H      2.162932    2.881563   -0.993525
  C      1.202977    4.580367   -1.302880
  H      0.374773    4.915765   -1.934165
  H      2.098649    5.157711   -1.570472
  H      0.950320    4.800436   -0.254329

 Total Charge           Charge          ....    0
 Multiplicity           Mult            ....    1
 Number of Electrons    NEL             ....   36
 Basis Dimension        Dim             ....  172

ORBITAL ENERGIES
----------------

  NO   OCC          E(Eh)            E(eV)
   0   2.0000     -20.589865      -560.2787
   1   2.0000     -20.512277      -558.1674
   2   2.0000     -11.289948      -307.2151
   3   2.0000     -11.248657      -306.0915
   4   2.0000      -1.384090       -37.6630
   5   2.0000      -1.307994       -35.5923
   6   2.0000      -0.941942       -25.6315
   7   2.0000      -0.895200       -24.3596
   8   2.0000      -0.716340       -19.4926
   9   2.0000      -0.670940       -18.2572
  10   2.0000      -0.636242       -17.3130
  11   2.0000      -0.610037       -16.5999
  12   2.0000      -0.589529       -16.0419
  13   2.0000      -0.560397       -15.2492
  14   2.0000      -0.527522       -14.3546
  15   2.0000      -0.484046       -13.1716
  16   2.0000      -0.457885       -12.4597
  17   2.0000      -0.415883       -11.3168
  18   0.0000       0.117742         3.2039
  19   0.0000       0.158302         4.3076
  20   0.0000       0.178936         4.8691
  21   0.0000       0.209310         5.6956
  22   0.0000       0.218347         5.9415

MULLIKEN ATOMIC CHARGES
-----------------------
   0 O :   -0.537690
   1 H :    0.347450
   2 C :   -0.157709
   3 H :    0.120304
   4 H :    0.090416
   5 H :    0.100080
   6 O :   -0.522954
   7 H :    0.342217
   8 C :   -0.176333
   9 H :    0.144375
  10 H :    0.123392
  11 H :    0.126451
Sum of atomic charges:   -0.0000000

LOEWDIN ATOMIC CHARGES
----------------------
   0 O :   -0.129146
   1 H :    0.157946
   2 C :   -0.389458
   3 H :    0.104916
   4 H :    0.089715
   5 H :    0.092632
   6 O :   -0.074498
   7 H :    0.199758
   8 C :   -0.374567
   9 H :    0.116727
  10 H :    0.103345
  11 H :    0.102629

  Mayer bond orders larger than 0.100000
B(  0-O ,  1-H ) :   0.7933 B(  0-O ,  2-C ) :   0.9409 B(  2-C ,  3-H ) :   0.9408
B(  2-C ,  4-H ) :   0.9397 B(  2-C ,  5-H ) :   0.9403 B(  6-O ,  7-H ) :   0.8270
B(  6-O ,  8-C ) :   0.8705 B(  8-C ,  9-H ) :   0.9390 B(  8-C , 10-H ) :   0.9345
B(  8-C , 11-H ) :   0.9380

MP2 TOTAL ENERGY:     -231.022179096 Eh
FINAL SINGLE POINT ENERGY      -231.022179096462

DIPOLE MOMENT
-------------
                                X             Y             Z
Electronic contribution:     -0.18206      -0.07677       0.77030
Nuclear contribution   :      1.37716       0.77741      -0.68388
                        -----------------------------------------
Total Dipole Moment    :      1.19510       0.70065       0.08642
                        -----------------------------------------
Magnitude (a.u.)       :      1.38803
Magnitude (Debye)      :      3.52810

Rotational constants in cm-1:     0.715316     0.075910     0.071882
Rotational constants in MHz : 21444.624750  2275.726715  2154.959509

                             ****ORCA TERMINATED NORMALLY****
TOTAL RUN TIME: 0 days 0 hours 0 minutes 26 seconds 829 msec
