                         Program Version 4.2.0 -  RELEASE  -
|  1> # 12h2o.su.etal.mol1,5,10
|  2> ! MP2 def2-TZVP EnGrad TightSCF
|  3>
|  4> %pal
|  5>     nprocs 6
|  6> end
|  7>
|  8> %maxcore 8000
|  9>
| 10> %scf
| 11>     ConvForced true
| 12> end
| 13>
| 14> *xyz 0 1
| 15> O  -1.794470000  -0.923410000   2.768350000
| 16> H  -2.338250000  -1.359750000   3.430940000
| 17> H  -0.879480000  -1.303000000   2.865760000
| 18> O   0.885520000  -1.737840000   0.052730000
| 19> H   1.284090000  -0.839590000   0.017130000
| 20> H   1.032320000  -2.090180000  -0.841890000
| 21> O  -0.923410000   1.794470000  -2.768350000
| 22> H  -1.359750000   2.338250000  -3.430940000
| 23> H  -1.303000000   0.879480000  -2.865760000
| 24> *
| 25>
| 26>                          ****END OF INPUT****

CARTESIAN COORDINATES (ANGSTROEM)
---------------------------------
  O     -1.794470   -0.923410    2.768350
  H     -2.338250   -1.359750    3.430940
  H     -0.879480   -1.303000    2.865760
  O      0.885520   -1.737840    0.052730
  H      1.284090   -0.839590    0.017130
  H      1.032320   -2.090180   -0.841890
  O     -0.923410    1.794470   -2.768350
  H     -1.359750    2.338250   -3.430940
  H     -1.303000    0.879480   -2.865760

 Total Charge           Charge          ....    0
 Multiplicity           Mult            ....    1
 Number of Electrons    NEL             ....   30
 Basis Dimension        Dim             ....  129

ORBITAL ENERGIES
----------------

  NO   OCC          E(Eh)            E(eV)
   0   2.0000     -20.562286      -559.5282
   1   2.0000     -20.561568      -559.5087
   2   2.0000     -20.548493      -559.1529
   3   2.0000      -1.337633       -36.3988
   4   2.0000      -1.337566       -36.3970
   5   2.0000      -1.323876       -36.0245
   6   2.0000      -0.706062       -19.2129
   7   2.0000      -0.699872       -19.0445
   8   2.0000      -0.692013       -18.8306
   9   2.0000      -0.577403       -15.7119
  10   2.0000      -0.573697       -15.6111
  11   2.0000      -0.559895       -15.2355
  12   2.0000      -0.505457       -13.7542
  13   2.0000      -0.504410       -13.7257
  14   2.0000      -0.491592       -13.3769
  15   0.0000       0.111019         3.0210
  16   0.0000       0.134186         3.6514
  17   0.0000       0.149741         4.0747
  18   0.0000       0.193997         5.2789
  19   0.0000       0.204462         5.5637

MULLIKEN ATOMIC CHARGES
-----------------------
   0 O :   -0.682899
   1 H :    0.332752
   2 H :    0.348730
   3 O :   -0.678592
   4 H :    0.344261
   5 H :    0.335990
   6 O :   -0.683001
   7 H :    0.339228
   8 H :    0.343532
Sum of atomic charges:   -0.0000000

LOEWDIN ATOMIC CHARGES
----------------------
   0 O :   -0.339199
   1 H :    0.155112
   2 H :    0.182552
   3 O :   -0.338380
   4 H :    0.175106
   5 H :    0.165004
   6 O :   -0.339379
   7 H :    0.158050
   8 H :    0.181134

  Mayer bond orders larger than 0.100000
B(  0-O ,  1-H ) :   0.8563 B(  0-O ,  2-H ) :   0.8407 B(  3-O ,  4-H ) :   0.8469
B(  3-O ,  5-H ) :   0.8538 B(  6-O ,  7-H ) :   0.8530 B(  6-O ,  8-H ) :   0.8450

MP2 TOTAL ENERGY:     -228.938232787 Eh
FINAL SINGLE POINT ENERGY      -228.938232786661

DIPOLE MOMENT
-------------
                                X             Y             Z
Electronic contribution:     -0.01448       0.09177       0.10339
Nuclear contribution   :      0.08378      -0.53373      -0.77428
                        -----------------------------------------
Total Dipole Moment    :      0.06929      -0.44197      -0.67089
                        -----------------------------------------
Magnitude (a.u.)       :      0.80637
Magnitude (Debye)      :      2.04963

Rotational constants in cm-1:     0.149151     0.045678     0.035257
Rotational constants in MHz :  4471.428338  1369.388388  1056.972452

                             ****ORCA TERMINATED NORMALLY****
TOTAL RUN TIME: 0 days 0 hours 0 minutes 7 seconds 911 msec
