                         Program Version 3.0.3 - RELEASE   -
|  1> ! wB97X-D3 MA-Def2-TZVP def2-TZVP/J RIJCOSX TightSCF Grid4
|  2>
|  3> %pal nprocs 1 end
|  4>
|  5> %scf
|  6>         maxiter 400
|  7> end
|  8>
|  9> %cosmo
| 10>         SMD true
| 11>         solvent "WATER"
| 12> end
| 13>
| 14> * xyz  0  1
| 15> O  3.695002	1.039201	-2.435157
| 16> H  4.356947	1.614596	-2.848226
| 17> H  3.117410	0.707498	-3.180003
| 18> O  -2.160536	0.866132	-0.559598
| 19> H  -1.531555	1.395595	-0.001900
| 20> H  -3.024265	0.976586	-0.096692
| 21> O  -0.113078	0.547552	-2.410302
| 22> H  -0.997620	0.769582	-2.052066
| 23> H  0.518415	1.001936	-1.791993
| 24> O  2.011228	-0.050071	-4.210977
| 25> H  2.137091	-0.967545	-3.867254
| 26> H  1.152704	0.212872	-3.820761
| 27> O  2.327565	-2.381151	-2.816761
| 28> H  3.065549	-2.082428	-2.204963
| 29> H  2.637767	-3.205744	-3.221340
| 30> O  -4.116836	0.908870	1.325437
| 31> H  -3.989389	0.066130	1.846609
| 32> H  -5.069543	1.088298	1.338801
| 33> O  0.048567	-0.270568	2.280170
| 34> H  -0.404456	-0.127759	3.148789
| 35> H  -0.597816	-0.805465	1.749545
| 36> O  -3.448748	-1.278958	2.723880
| 37> H  -2.871424	-0.827983	3.384283
| 38> H  -2.824883	-1.621466	2.050704
| 39> O  -1.711636	0.271829	4.203346
| 40> H  -1.995123	1.152092	3.818512
| 41> H  -1.676570	0.392042	5.164550
| 42> O  1.714817	1.529640	-0.650358
| 43> H  2.492146	1.605498	-1.253948
| 44> H  1.860957	0.657445	-0.199136
| 45> O  -2.463555	2.437855	2.863367
| 46> H  -1.715930	2.575837	2.246652
| 47> H  -3.154498	2.006016	2.304840
| 48> O  -1.666682	-1.539870	0.597202
| 49> H  -1.900327	-0.703730	0.113216
| 50> H  -1.058329	-1.993737	-0.026096
| 51> O  -0.365015	2.079519	1.062408
| 52> H  -0.133149	1.245156	1.552601
| 53> H  0.413560	2.234545	0.486617
| 54> O  4.107365	-1.357024	-1.168877
| 55> H  4.134793	-0.460357	-1.580687
| 56> H  3.501146	-1.238302	-0.405384
| 57> O  1.923449	-0.926097	0.438021
| 58> H  1.470407	-0.779965	1.298319
| 59> H  1.254031	-1.383783	-0.134325
| 60> O  0.165050	-1.953787	-1.354491
| 61> H  0.889844	-2.343103	-1.906284
| 62> H  -0.004849	-1.083426	-1.800290
| 63> **                         ****END OF INPUT****

CARTESIAN COORDINATES (ANGSTROEM)
---------------------------------
  O      3.695002    1.039201   -2.435157
  H      4.356947    1.614596   -2.848226
  H      3.117410    0.707498   -3.180003
  O     -2.160536    0.866132   -0.559598
  H     -1.531555    1.395595   -0.001900
  H     -3.024265    0.976586   -0.096692
  O     -0.113078    0.547552   -2.410302
  H     -0.997620    0.769582   -2.052066
  H      0.518415    1.001936   -1.791993
  O      2.011228   -0.050071   -4.210977
  H      2.137091   -0.967545   -3.867254
  H      1.152704    0.212872   -3.820761
  O      2.327565   -2.381151   -2.816761
  H      3.065549   -2.082428   -2.204963
  H      2.637767   -3.205744   -3.221340
  O     -4.116836    0.908870    1.325437
  H     -3.989389    0.066130    1.846609
  H     -5.069543    1.088298    1.338801
  O      0.048567   -0.270568    2.280170
  H     -0.404456   -0.127759    3.148789
  H     -0.597816   -0.805465    1.749545
  O     -3.448748   -1.278958    2.723880
  H     -2.871424   -0.827983    3.384283
  H     -2.824883   -1.621466    2.050704
  O     -1.711636    0.271829    4.203346
  H     -1.995123    1.152092    3.818512
  H     -1.676570    0.392042    5.164550
  O      1.714817    1.529640   -0.650358
  H      2.492146    1.605498   -1.253948
  H      1.860957    0.657445   -0.199136
  O     -2.463555    2.437855    2.863367
  H     -1.715930    2.575837    2.246652
  H     -3.154498    2.006016    2.304840
  O     -1.666682   -1.539870    0.597202
  H     -1.900327   -0.703730    0.113216
  H     -1.058329   -1.993737   -0.026096
  O     -0.365015    2.079519    1.062408
  H     -0.133149    1.245156    1.552601
  H      0.413560    2.234545    0.486617
  O      4.107365   -1.357024   -1.168877
  H      4.134793   -0.460357   -1.580687
  H      3.501146   -1.238302   -0.405384
  O      1.923449   -0.926097    0.438021
  H      1.470407   -0.779965    1.298319
  H      1.254031   -1.383783   -0.134325
  O      0.165050   -1.953787   -1.354491
  H      0.889844   -2.343103   -1.906284
  H     -0.004849   -1.083426   -1.800290

 Total Charge           Charge          ....    0
 Multiplicity           Mult            ....    1
 Number of Electrons    NEL             ....  160
 Basis Dimension        Dim             ....  752
Dispersion correction           -0.031922224
FINAL SINGLE POINT ENERGY     -1223.367798006665
                             ****ORCA TERMINATED NORMALLY****
TOTAL RUN TIME: 0 days 0 hours 31 minutes 44 seconds 669 msec

ORBITAL ENERGIES
----------------

  NO   OCC          E(Eh)            E(eV)
   0   2.0000     -19.242798      -523.6232
   1   2.0000     -19.241894      -523.5986
   2   2.0000     -19.241845      -523.5972
   3   2.0000     -19.241642      -523.5917
   4   2.0000     -19.239837      -523.5426
   5   2.0000     -19.238858      -523.5159
   6   2.0000     -19.238605      -523.5091
   7   2.0000     -19.237749      -523.4858
   8   2.0000     -19.237427      -523.4770
   9   2.0000     -19.235585      -523.4269
  10   2.0000     -19.234290      -523.3916
  11   2.0000     -19.234176      -523.3885
  12   2.0000     -19.233936      -523.3820
  13   2.0000     -19.233440      -523.3685
  14   2.0000     -19.233035      -523.3575
  15   2.0000     -19.233000      -523.3565
  16   2.0000      -1.156727       -31.4762
  17   2.0000      -1.149258       -31.2729
  18   2.0000      -1.140181       -31.0259
  19   2.0000      -1.138871       -30.9903
  20   2.0000      -1.138350       -30.9761
  21   2.0000      -1.133033       -30.8314
  22   2.0000      -1.131796       -30.7977
  23   2.0000      -1.131686       -30.7947
  24   2.0000      -1.122369       -30.5412
  25   2.0000      -1.121883       -30.5280
  26   2.0000      -1.119726       -30.4693
  27   2.0000      -1.115855       -30.3640
  28   2.0000      -1.114373       -30.3236
  29   2.0000      -1.113797       -30.3079
  30   2.0000      -1.106030       -30.0966
  31   2.0000      -1.098851       -29.9013
  32   2.0000      -0.657604       -17.8943
  33   2.0000      -0.652678       -17.7603
  34   2.0000      -0.651358       -17.7243
  35   2.0000      -0.647720       -17.6253
  36   2.0000      -0.645777       -17.5725
  37   2.0000      -0.644603       -17.5405
  38   2.0000      -0.638817       -17.3831
  39   2.0000      -0.637489       -17.3470
  40   2.0000      -0.636265       -17.3137
  41   2.0000      -0.632035       -17.1985
  42   2.0000      -0.629296       -17.1240
  43   2.0000      -0.628432       -17.1005
  44   2.0000      -0.626227       -17.0405
  45   2.0000      -0.624712       -16.9993
  46   2.0000      -0.622269       -16.9328
  47   2.0000      -0.621060       -16.8999
  48   2.0000      -0.578316       -15.7368
  49   2.0000      -0.563582       -15.3358
  50   2.0000      -0.545981       -14.8569
  51   2.0000      -0.543059       -14.7774
  52   2.0000      -0.527105       -14.3433
  53   2.0000      -0.526464       -14.3258
  54   2.0000      -0.523685       -14.2502
  55   2.0000      -0.519222       -14.1288
  56   2.0000      -0.501307       -13.6413
  57   2.0000      -0.500522       -13.6199
  58   2.0000      -0.499236       -13.5849
  59   2.0000      -0.497994       -13.5511
  60   2.0000      -0.481508       -13.1025
  61   2.0000      -0.478035       -13.0080
  62   2.0000      -0.472743       -12.8640
  63   2.0000      -0.455695       -12.4001
  64   2.0000      -0.435035       -11.8379
  65   2.0000      -0.433970       -11.8089
  66   2.0000      -0.433003       -11.7826
  67   2.0000      -0.429454       -11.6860
  68   2.0000      -0.427095       -11.6218
  69   2.0000      -0.426456       -11.6045
  70   2.0000      -0.426182       -11.5970
  71   2.0000      -0.424085       -11.5399
  72   2.0000      -0.423748       -11.5308
  73   2.0000      -0.422720       -11.5028
  74   2.0000      -0.422162       -11.4876
  75   2.0000      -0.421226       -11.4622
  76   2.0000      -0.421095       -11.4586
  77   2.0000      -0.420356       -11.4385
  78   2.0000      -0.418900       -11.3989
  79   2.0000      -0.416734       -11.3399
  80   0.0000       0.061096         1.6625
  81   0.0000       0.074347         2.0231
  82   0.0000       0.092523         2.5177
  83   0.0000       0.093048         2.5320
  84   0.0000       0.101629         2.7655

MULLIKEN ATOMIC CHARGES
-----------------------
   0 O :   -0.856838
   1 H :    0.416587
   2 H :    0.426676
   3 O :   -0.885284
   4 H :    0.434866
   5 H :    0.436332
   6 O :   -0.898800
   7 H :    0.443042
   8 H :    0.433429
   9 O :   -0.805166
  10 H :    0.419584
  11 H :    0.422739
  12 O :   -0.860021
  13 H :    0.426039
  14 H :    0.415667
  15 O :   -0.844662
  16 H :    0.424512
  17 H :    0.417021
  18 O :   -0.889610
  19 H :    0.448151
  20 H :    0.405442
  21 O :   -0.815079
  22 H :    0.428703
  23 H :    0.417838
  24 O :   -0.845789
  25 H :    0.435226
  26 H :    0.417762
  27 O :   -0.854385
  28 H :    0.433683
  29 H :    0.420801
  30 O :   -0.828317
  31 H :    0.427896
  32 H :    0.419084
  33 O :   -0.873630
  34 H :    0.419583
  35 H :    0.447446
  36 O :   -0.884535
  37 H :    0.438808
  38 H :    0.445931
  39 O :   -0.806596
  40 H :    0.426597
  41 H :    0.427519
  42 O :   -0.923088
  43 H :    0.450852
  44 H :    0.422830
  45 O :   -0.841783
  46 H :    0.432425
  47 H :    0.430510
Sum of atomic charges:   -0.0000000

LOEWDIN ATOMIC CHARGES
----------------------
   0 O :   -0.378158
   1 H :    0.215397
   2 H :    0.195356
   3 O :   -0.414819
   4 H :    0.191384
   5 H :    0.200550
   6 O :   -0.408572
   7 H :    0.205984
   8 H :    0.194271
   9 O :   -0.399625
  10 H :    0.194954
  11 H :    0.202425
  12 O :   -0.370114
  13 H :    0.191398
  14 H :    0.215796
  15 O :   -0.376303
  16 H :    0.195808
  17 H :    0.216099
  18 O :   -0.404474
  19 H :    0.198243
  20 H :    0.191382
  21 O :   -0.400407
  22 H :    0.196173
  23 H :    0.198078
  24 O :   -0.377937
  25 H :    0.195383
  26 H :    0.215208
  27 O :   -0.414458
  28 H :    0.198524
  29 H :    0.189576
  30 O :   -0.397559
  31 H :    0.199429
  32 H :    0.192590
  33 O :   -0.407564
  34 H :    0.193520
  35 H :    0.202927
  36 O :   -0.407396
  37 H :    0.190378
  38 H :    0.205670
  39 O :   -0.394568
  40 H :    0.195879
  41 H :    0.198352
  42 O :   -0.397412
  43 H :    0.203658
  44 H :    0.192689
  45 O :   -0.414944
  46 H :    0.193386
  47 H :    0.193841

  Mayer bond orders larger than 0.1
B(  0-O ,  1-H ) :   0.8322 B(  0-O ,  2-H ) :   0.7821 B(  3-O ,  4-H ) :   0.8087
B(  3-O ,  5-H ) :   0.8129 B(  6-O ,  7-H ) :   0.8205 B(  6-O ,  8-H ) :   0.8066
B(  9-O , 10-H ) :   0.8168 B(  9-O , 11-H ) :   0.8357 B( 12-O , 13-H ) :   0.7697
B( 12-O , 14-H ) :   0.8339 B( 15-O , 16-H ) :   0.7825 B( 15-O , 17-H ) :   0.8329
B( 18-O , 19-H ) :   0.7883 B( 18-O , 20-H ) :   0.8156 B( 21-O , 22-H ) :   0.8175
B( 21-O , 23-H ) :   0.8369 B( 24-O , 25-H ) :   0.7762 B( 24-O , 26-H ) :   0.8312
B( 27-O , 28-H ) :   0.8031 B( 27-O , 29-H ) :   0.8078 B( 30-O , 31-H ) :   0.8259
B( 30-O , 32-H ) :   0.8131 B( 33-O , 34-H ) :   0.8022 B( 33-O , 35-H ) :   0.8151
B( 36-O , 37-H ) :   0.7981 B( 36-O , 38-H ) :   0.8141 B( 39-O , 40-H ) :   0.8202
B( 39-O , 41-H ) :   0.8286 B( 42-O , 43-H ) :   0.8067 B( 42-O , 44-H ) :   0.8028
B( 45-O , 46-H ) :   0.7879 B( 45-O , 47-H ) :   0.8113

Dispersion correction           -0.031922224
FINAL SINGLE POINT ENERGY     -1223.367798006665

DIPOLE MOMENT
-------------
                                X             Y             Z
Electronic contribution:      0.08447      -0.03844       0.04064
Nuclear contribution   :      0.13245       0.19210       0.28140
                        -----------------------------------------
Total Dipole Moment    :      0.21692       0.15366       0.32204
                        -----------------------------------------
Magnitude (a.u.)       :      0.41758
Magnitude (Debye)      :      1.06141

                             ****ORCA TERMINATED NORMALLY****
TOTAL RUN TIME: 0 days 0 hours 28 minutes 47 seconds 768 msec
