                         Program Version 3.0.3 - RELEASE   -
|  1> ! wB97X-D3 Def2-TZVP def2-TZVP/J RIJCOSX TightSCF Grid4
|  2>
|  3> %pal nprocs 12 end
|  4>
|  5> %scf
|  6>         maxiter 400
|  7> end
|  8>
|  9> * xyz  0  1
| 10> O  3.557037	1.159517	-2.553959
| 11> H  4.168122	1.736255	-3.031333
| 12> H  2.963966	0.734875	-3.258050
| 13> O  -2.081329	0.844912	-0.564169
| 14> H  -1.454948	1.344691	0.024348
| 15> H  -2.959478	1.048992	-0.169139
| 16> O  -0.144251	0.348038	-2.407696
| 17> H  -1.032364	0.604327	-2.077402
| 18> H  0.468093	0.862451	-1.817761
| 19> O  1.938364	-0.073544	-4.196108
| 20> H  2.080456	-0.997327	-3.888872
| 21> H  1.052604	0.143665	-3.835204
| 22> O  2.385927	-2.436802	-2.817323
| 23> H  3.076684	-2.021909	-2.198117
| 24> H  2.808036	-3.221447	-3.192269
| 25> O  -4.074453	1.154015	1.239715
| 26> H  -3.977392	0.264661	1.716795
| 27> H  -5.021933	1.344381	1.218908
| 28> O  0.074616	-0.388331	2.358886
| 29> H  -0.392832	-0.292662	3.221176
| 30> H  -0.570741	-0.885864	1.789229
| 31> O  -3.605041	-1.075337	2.489431
| 32> H  -3.030378	-0.797442	3.236504
| 33> H  -2.997389	-1.535398	1.872392
| 34> O  -1.792969	0.140216	4.224976
| 35> H  -1.989034	1.055325	3.834527
| 36> H  -1.844993	0.229736	5.185612
| 37> O  1.612136	1.526034	-0.696436
| 38> H  2.385328	1.668408	-1.286566
| 39> H  1.831805	0.698413	-0.190244
| 40> O  -2.296939	2.366211	2.975247
| 41> H  -1.539356	2.523738	2.372923
| 42> H  -3.025783	2.104371	2.369603
| 43> O  -1.653984	-1.542588	0.623880
| 44> H  -1.867301	-0.713503	0.118059
| 45> H  -1.073354	-2.047560	0.014648
| 46> O  -0.312726	1.981080	1.142634
| 47> H  -0.075216	1.151696	1.635234
| 48> H  0.455254	2.164815	0.560211
| 49> O  4.037511	-1.213720	-1.249477
| 50> H  4.060058	-0.317307	-1.652772
| 51> H  3.545499	-1.095703	-0.408762
| 52> O  2.017549	-0.801537	0.536849
| 53> H  1.573404	-0.739982	1.411681
| 54> H  1.388904	-1.326899	-0.027577
| 55> O  0.304515	-2.014961	-1.183314
| 56> H  0.952630	-2.465411	-1.771997
| 57> H  0.075683	-1.195589	-1.698922
| 58> **                         ****END OF INPUT****

CARTESIAN COORDINATES (ANGSTROEM)
---------------------------------
  O      3.557037    1.159517   -2.553959
  H      4.168122    1.736255   -3.031333
  H      2.963966    0.734875   -3.258050
  O     -2.081329    0.844912   -0.564169
  H     -1.454948    1.344691    0.024348
  H     -2.959478    1.048992   -0.169139
  O     -0.144251    0.348038   -2.407696
  H     -1.032364    0.604327   -2.077402
  H      0.468093    0.862451   -1.817761
  O      1.938364   -0.073544   -4.196108
  H      2.080456   -0.997327   -3.888872
  H      1.052604    0.143665   -3.835204
  O      2.385927   -2.436802   -2.817323
  H      3.076684   -2.021909   -2.198117
  H      2.808036   -3.221447   -3.192269
  O     -4.074453    1.154015    1.239715
  H     -3.977392    0.264661    1.716795
  H     -5.021933    1.344381    1.218908
  O      0.074616   -0.388331    2.358886
  H     -0.392832   -0.292662    3.221176
  H     -0.570741   -0.885864    1.789229
  O     -3.605041   -1.075337    2.489431
  H     -3.030378   -0.797442    3.236504
  H     -2.997389   -1.535398    1.872392
  O     -1.792969    0.140216    4.224976
  H     -1.989034    1.055325    3.834527
  H     -1.844993    0.229736    5.185612
  O      1.612136    1.526034   -0.696436
  H      2.385328    1.668408   -1.286566
  H      1.831805    0.698413   -0.190244
  O     -2.296939    2.366211    2.975247
  H     -1.539356    2.523738    2.372923
  H     -3.025783    2.104371    2.369603
  O     -1.653984   -1.542588    0.623880
  H     -1.867301   -0.713503    0.118059
  H     -1.073354   -2.047560    0.014648
  O     -0.312726    1.981080    1.142634
  H     -0.075216    1.151696    1.635234
  H      0.455254    2.164815    0.560211
  O      4.037511   -1.213720   -1.249477
  H      4.060058   -0.317307   -1.652772
  H      3.545499   -1.095703   -0.408762
  O      2.017549   -0.801537    0.536849
  H      1.573404   -0.739982    1.411681
  H      1.388904   -1.326899   -0.027577
  O      0.304515   -2.014961   -1.183314
  H      0.952630   -2.465411   -1.771997
  H      0.075683   -1.195589   -1.698922

 Total Charge           Charge          ....    0
 Multiplicity           Mult            ....    1
 Number of Electrons    NEL             ....  160
 Basis Dimension        Dim             ....  688

ORBITAL ENERGIES
----------------

  NO   OCC          E(Eh)            E(eV)
   0   2.0000     -19.251794      -523.8679
   1   2.0000     -19.250322      -523.8279
   2   2.0000     -19.249832      -523.8146
   3   2.0000     -19.249275      -523.7994
   4   2.0000     -19.241558      -523.5894
   5   2.0000     -19.239332      -523.5288
   6   2.0000     -19.238202      -523.4981
   7   2.0000     -19.238031      -523.4934
   8   2.0000     -19.237402      -523.4763
   9   2.0000     -19.236735      -523.4582
  10   2.0000     -19.236315      -523.4467
  11   2.0000     -19.235590      -523.4270
  12   2.0000     -19.232660      -523.3473
  13   2.0000     -19.232634      -523.3466
  14   2.0000     -19.231457      -523.3146
  15   2.0000     -19.229752      -523.2682
  16   2.0000      -1.160177       -31.5700
  17   2.0000      -1.154365       -31.4119
  18   2.0000      -1.145612       -31.1737
  19   2.0000      -1.144198       -31.1352
  20   2.0000      -1.143966       -31.1289
  21   2.0000      -1.136751       -30.9326
  22   2.0000      -1.135582       -30.9007
  23   2.0000      -1.135136       -30.8886
  24   2.0000      -1.124662       -30.6036
  25   2.0000      -1.123520       -30.5725
  26   2.0000      -1.122036       -30.5322
  27   2.0000      -1.117356       -30.4048
  28   2.0000      -1.116243       -30.3745
  29   2.0000      -1.115407       -30.3518
  30   2.0000      -1.108435       -30.1620
  31   2.0000      -1.100614       -29.9492
  32   2.0000      -0.663760       -18.0618
  33   2.0000      -0.660225       -17.9656
  34   2.0000      -0.657729       -17.8977
  35   2.0000      -0.656531       -17.8651
  36   2.0000      -0.654233       -17.8026
  37   2.0000      -0.651248       -17.7214
  38   2.0000      -0.647081       -17.6080
  39   2.0000      -0.645621       -17.5682
  40   2.0000      -0.639618       -17.4049
  41   2.0000      -0.638244       -17.3675
  42   2.0000      -0.632445       -17.2097
  43   2.0000      -0.631584       -17.1863
  44   2.0000      -0.627710       -17.0809
  45   2.0000      -0.626263       -17.0415
  46   2.0000      -0.621553       -16.9133
  47   2.0000      -0.621273       -16.9057
  48   2.0000      -0.581930       -15.8351
  49   2.0000      -0.568726       -15.4758
  50   2.0000      -0.546020       -14.8580
  51   2.0000      -0.544588       -14.8190
  52   2.0000      -0.532733       -14.4964
  53   2.0000      -0.527900       -14.3649
  54   2.0000      -0.527051       -14.3418
  55   2.0000      -0.518788       -14.1169
  56   2.0000      -0.504628       -13.7316
  57   2.0000      -0.502576       -13.6758
  58   2.0000      -0.500998       -13.6328
  59   2.0000      -0.498868       -13.5749
  60   2.0000      -0.482027       -13.1166
  61   2.0000      -0.479919       -13.0593
  62   2.0000      -0.470204       -12.7949
  63   2.0000      -0.450887       -12.2692
  64   2.0000      -0.439492       -11.9592
  65   2.0000      -0.438806       -11.9405
  66   2.0000      -0.437784       -11.9127
  67   2.0000      -0.436212       -11.8699
  68   2.0000      -0.430729       -11.7207
  69   2.0000      -0.428731       -11.6664
  70   2.0000      -0.427097       -11.6219
  71   2.0000      -0.425318       -11.5735
  72   2.0000      -0.423849       -11.5335
  73   2.0000      -0.423261       -11.5175
  74   2.0000      -0.422057       -11.4847
  75   2.0000      -0.419540       -11.4163
  76   2.0000      -0.418076       -11.3764
  77   2.0000      -0.417728       -11.3669
  78   2.0000      -0.416608       -11.3365
  79   2.0000      -0.415951       -11.3186
  80   0.0000       0.079744         2.1699
  81   0.0000       0.095678         2.6035
  82   0.0000       0.118036         3.2119
  83   0.0000       0.118378         3.2212
  84   0.0000       0.131265         3.5719

MULLIKEN ATOMIC CHARGES
-----------------------
   0 O :   -0.754710
   1 H :    0.354557
   2 H :    0.369201
   3 O :   -0.744730
   4 H :    0.355394
   5 H :    0.379197
   6 O :   -0.739986
   7 H :    0.390725
   8 H :    0.345816
   9 O :   -0.689143
  10 H :    0.359343
  11 H :    0.379603
  12 O :   -0.755555
  13 H :    0.368023
  14 H :    0.353233
  15 O :   -0.755178
  16 H :    0.371143
  17 H :    0.353898
  18 O :   -0.749677
  19 H :    0.381941
  20 H :    0.350139
  21 O :   -0.692918
  22 H :    0.360803
  23 H :    0.382863
  24 O :   -0.755989
  25 H :    0.375791
  26 H :    0.353140
  27 O :   -0.748927
  28 H :    0.378228
  29 H :    0.351020
  30 O :   -0.699863
  31 H :    0.384207
  32 H :    0.357650
  33 O :   -0.749404
  34 H :    0.349167
  35 H :    0.396115
  36 O :   -0.747369
  37 H :    0.350234
  38 H :    0.392639
  39 O :   -0.693167
  40 H :    0.363006
  41 H :    0.383942
  42 O :   -0.748204
  43 H :    0.398065
  44 H :    0.347727
  45 O :   -0.749018
  46 H :    0.377741
  47 H :    0.359288
Sum of atomic charges:   -0.0000000

LOEWDIN ATOMIC CHARGES
----------------------
   0 O :   -0.302513
   1 H :    0.161408
   2 H :    0.141647
   3 O :   -0.296318
   4 H :    0.135926
   5 H :    0.146199
   6 O :   -0.291556
   7 H :    0.154841
   8 H :    0.136053
   9 O :   -0.273460
  10 H :    0.142470
  11 H :    0.152470
  12 O :   -0.302052
  13 H :    0.136304
  14 H :    0.160331
  15 O :   -0.302468
  16 H :    0.138666
  17 H :    0.160758
  18 O :   -0.293848
  19 H :    0.145849
  20 H :    0.135157
  21 O :   -0.268940
  22 H :    0.143459
  23 H :    0.149924
  24 O :   -0.304914
  25 H :    0.140577
  26 H :    0.160648
  27 O :   -0.297935
  28 H :    0.143700
  29 H :    0.129828
  30 O :   -0.273799
  31 H :    0.149590
  32 H :    0.140677
  33 O :   -0.291525
  34 H :    0.135204
  35 H :    0.152776
  36 O :   -0.289505
  37 H :    0.133189
  38 H :    0.151585
  39 O :   -0.266566
  40 H :    0.141378
  41 H :    0.149148
  42 O :   -0.284969
  43 H :    0.152827
  44 H :    0.136706
  45 O :   -0.298921
  46 H :    0.143984
  47 H :    0.136012

  Mayer bond orders larger than 0.1
B(  0-O ,  1-H ) :   0.8802 B(  0-O ,  2-H ) :   0.7360 B(  2-H ,  9-O ) :   0.1794
B(  3-O ,  4-H ) :   0.7854 B(  3-O ,  5-H ) :   0.8175 B(  3-O , 34-H ) :   0.1415
B(  4-H , 36-O ) :   0.1337 B(  6-O ,  7-H ) :   0.8225 B(  6-O ,  8-H ) :   0.7901
B(  6-O , 47-H ) :   0.1349 B(  8-H , 27-O ) :   0.1334 B(  9-O , 10-H ) :   0.8304
B(  9-O , 11-H ) :   0.8342 B( 12-O , 13-H ) :   0.7293 B( 12-O , 14-H ) :   0.8812
B( 13-H , 39-O ) :   0.1853 B( 15-O , 16-H ) :   0.7346 B( 15-O , 17-H ) :   0.8808
B( 16-H , 21-O ) :   0.1772 B( 18-O , 19-H ) :   0.8077 B( 18-O , 20-H ) :   0.7853
B( 18-O , 37-H ) :   0.1328 B( 20-H , 33-O ) :   0.1347 B( 21-O , 22-H ) :   0.8303
B( 21-O , 23-H ) :   0.8285 B( 24-O , 25-H ) :   0.7363 B( 24-O , 26-H ) :   0.8809
B( 25-H , 30-O ) :   0.1699 B( 27-O , 28-H ) :   0.8156 B( 27-O , 29-H ) :   0.7781
B( 29-H , 42-O ) :   0.1399 B( 30-O , 31-H ) :   0.8256 B( 30-O , 32-H ) :   0.8274
B( 33-O , 34-H ) :   0.7828 B( 33-O , 35-H ) :   0.8154 B( 36-O , 37-H ) :   0.7855
B( 36-O , 38-H ) :   0.8152 B( 39-O , 40-H ) :   0.8260 B( 39-O , 41-H ) :   0.8261
B( 42-O , 43-H ) :   0.8100 B( 42-O , 44-H ) :   0.7839 B( 44-H , 45-O ) :   0.1396
B( 45-O , 46-H ) :   0.8123 B( 45-O , 47-H ) :   0.7824

Dispersion correction           -0.031983429
FINAL SINGLE POINT ENERGY     -1223.322505807896

DIPOLE MOMENT
-------------
                                X             Y             Z
Electronic contribution:      0.00484      -0.02849      -0.04619
Nuclear contribution   :      0.08499       0.06691       0.19193
                        -----------------------------------------
Total Dipole Moment    :      0.08983       0.03842       0.14574
                        -----------------------------------------
Magnitude (a.u.)       :      0.17546
Magnitude (Debye)      :      0.44599

                             ****ORCA TERMINATED NORMALLY****
TOTAL RUN TIME: 0 days 0 hours 2 minutes 7 seconds 815 msec
