                         Program Version 4.2.0 -  RELEASE  -
|  1> # 12h2o.su.etal.mol0,1,2,6
|  2> ! MP2 def2-TZVP EnGrad TightSCF
|  3>
|  4> %pal
|  5>     nprocs 6
|  6> end
|  7>
|  8> %maxcore 8000
|  9>
| 10> %scf
| 11>     ConvForced true
| 12> end
| 13>
| 14> *xyz 0 1
| 15> O   1.794470000   0.923410000   2.768350000
| 16> H   2.338250000   1.359750000   3.430940000
| 17> H   0.879480000   1.303000000   2.865760000
| 18> O  -1.794470000  -0.923410000   2.768350000
| 19> H  -2.338250000  -1.359750000   3.430940000
| 20> H  -0.879480000  -1.303000000   2.865760000
| 21> O   0.923410000  -1.794470000  -2.768350000
| 22> H   1.359750000  -2.338250000  -3.430940000
| 23> H   1.303000000  -0.879480000  -2.865760000
| 24> O   1.737840000   0.885520000  -0.052730000
| 25> H   2.090180000   1.032320000   0.841890000
| 26> H   0.839590000   1.284090000  -0.017130000
| 27> *
| 28>
| 29>                          ****END OF INPUT****

CARTESIAN COORDINATES (ANGSTROEM)
---------------------------------
  O      1.794470    0.923410    2.768350
  H      2.338250    1.359750    3.430940
  H      0.879480    1.303000    2.865760
  O     -1.794470   -0.923410    2.768350
  H     -2.338250   -1.359750    3.430940
  H     -0.879480   -1.303000    2.865760
  O      0.923410   -1.794470   -2.768350
  H      1.359750   -2.338250   -3.430940
  H      1.303000   -0.879480   -2.865760
  O      1.737840    0.885520   -0.052730
  H      2.090180    1.032320    0.841890
  H      0.839590    1.284090   -0.017130

 Total Charge           Charge          ....    0
 Multiplicity           Mult            ....    1
 Number of Electrons    NEL             ....   40
 Basis Dimension        Dim             ....  172

ORBITAL ENERGIES
----------------

  NO   OCC          E(Eh)            E(eV)
   0   2.0000     -20.590593      -560.2985
   1   2.0000     -20.563348      -559.5572
   2   2.0000     -20.541965      -558.9753
   3   2.0000     -20.529427      -558.6341
   4   2.0000      -1.368419       -37.2366
   5   2.0000      -1.338667       -36.4270
   6   2.0000      -1.317363       -35.8473
   7   2.0000      -1.308394       -35.6032
   8   2.0000      -0.735208       -20.0060
   9   2.0000      -0.706824       -19.2337
  10   2.0000      -0.685614       -18.6565
  11   2.0000      -0.678314       -18.4579
  12   2.0000      -0.605078       -16.4650
  13   2.0000      -0.575053       -15.6480
  14   2.0000      -0.557986       -15.1836
  15   2.0000      -0.553370       -15.0580
  16   2.0000      -0.523460       -14.2441
  17   2.0000      -0.506607       -13.7855
  18   2.0000      -0.485169       -13.2021
  19   2.0000      -0.474803       -12.9200
  20   0.0000       0.099449         2.7062
  21   0.0000       0.137437         3.7398
  22   0.0000       0.143522         3.9054
  23   0.0000       0.170521         4.6401
  24   0.0000       0.200172         5.4470

MULLIKEN ATOMIC CHARGES
-----------------------
   0 O :   -0.696157
   1 H :    0.349895
   2 H :    0.356214
   3 O :   -0.689317
   4 H :    0.339094
   5 H :    0.350902
   6 O :   -0.682804
   7 H :    0.330593
   8 H :    0.350467
   9 O :   -0.694684
  10 H :    0.364198
  11 H :    0.321597
Sum of atomic charges:    0.0000000

LOEWDIN ATOMIC CHARGES
----------------------
   0 O :   -0.311003
   1 H :    0.162420
   2 H :    0.185235
   3 O :   -0.341061
   4 H :    0.158245
   5 H :    0.183150
   6 O :   -0.339229
   7 H :    0.154111
   8 H :    0.183220
   9 O :   -0.347230
  10 H :    0.148482
  11 H :    0.163660

  Mayer bond orders larger than 0.100000
B(  0-O ,  1-H ) :   0.8427 B(  0-O ,  2-H ) :   0.8307 B(  3-O ,  4-H ) :   0.8527
B(  3-O ,  5-H ) :   0.8385 B(  6-O ,  7-H ) :   0.8575 B(  6-O ,  8-H ) :   0.8394
B(  9-O , 10-H ) :   0.8220 B(  9-O , 11-H ) :   0.8595

MP2 TOTAL ENERGY:     -305.257769571 Eh
FINAL SINGLE POINT ENERGY      -305.257769571499

DIPOLE MOMENT
-------------
                                X             Y             Z
Electronic contribution:     -0.00133      -0.14738      -0.01402
Nuclear contribution   :      0.22475       0.76293       1.40687
                        -----------------------------------------
Total Dipole Moment    :      0.22342       0.61554       1.39285
                        -----------------------------------------
Magnitude (a.u.)       :      1.53910
Magnitude (Debye)      :      3.91209

Rotational constants in cm-1:     0.078999     0.037508     0.026318
Rotational constants in MHz :  2368.340499  1124.459259   788.996038

                             ****ORCA TERMINATED NORMALLY****
TOTAL RUN TIME: 0 days 0 hours 0 minutes 13 seconds 935 msec
