                         Program Version 4.2.0 -  RELEASE  -
|  1> # 12meoh.boyd.etal.mol2,6
|  2> ! MP2 def2-TZVP EnGrad TightSCF
|  3>
|  4> %pal
|  5>     nprocs 6
|  6> end
|  7>
|  8> %maxcore 8000
|  9>
| 10> %scf
| 11>     ConvForced true
| 12> end
| 13>
| 14> *xyz 0 1
| 15> O  -3.839777402   2.233595098   0.660436763
| 16> H  -2.958345897   1.907036203   0.973588449
| 17> C  -3.600368059   3.168790682  -0.390480452
| 18> H  -4.551709193   3.344148967  -0.901254863
| 19> H  -2.868237594   2.789240199  -1.113617525
| 20> H  -3.243594915   4.128998607   0.009549480
| 21> O   2.622209273  -1.703002590  -1.445859723
| 22> H   1.828551432  -1.986513781  -0.909754968
| 23> C   2.781117675  -2.615822239  -2.525472890
| 24> H   3.691063626  -2.339003544  -3.065143454
| 25> H   1.934727323  -2.559520367  -3.223226661
| 26> H   2.879948338  -3.653846211  -2.177750170
| 27> *
| 28>
| 29>                          ****END OF INPUT****

CARTESIAN COORDINATES (ANGSTROEM)
---------------------------------
  O     -3.839777    2.233595    0.660437
  H     -2.958346    1.907036    0.973588
  C     -3.600368    3.168791   -0.390480
  H     -4.551709    3.344149   -0.901255
  H     -2.868238    2.789240   -1.113618
  H     -3.243595    4.128999    0.009549
  O      2.622209   -1.703003   -1.445860
  H      1.828551   -1.986514   -0.909755
  C      2.781118   -2.615822   -2.525473
  H      3.691064   -2.339004   -3.065143
  H      1.934727   -2.559520   -3.223227
  H      2.879948   -3.653846   -2.177750

 Total Charge           Charge          ....    0
 Multiplicity           Mult            ....    1
 Number of Electrons    NEL             ....   36
 Basis Dimension        Dim             ....  172

ORBITAL ENERGIES
----------------

  NO   OCC          E(Eh)            E(eV)
   0   2.0000     -20.559992      -559.4658
   1   2.0000     -20.557044      -559.3856
   2   2.0000     -11.273421      -306.7654
   3   2.0000     -11.271805      -306.7214
   4   2.0000      -1.348077       -36.6831
   5   2.0000      -1.346504       -36.6402
   6   2.0000      -0.921204       -25.0672
   7   2.0000      -0.919668       -25.0254
   8   2.0000      -0.682956       -18.5842
   9   2.0000      -0.681701       -18.5500
  10   2.0000      -0.618936       -16.8421
  11   2.0000      -0.616751       -16.7827
  12   2.0000      -0.593162       -16.1408
  13   2.0000      -0.589993       -16.0545
  14   2.0000      -0.501778       -13.6541
  15   2.0000      -0.501684       -13.6515
  16   2.0000      -0.451020       -12.2729
  17   2.0000      -0.449276       -12.2254
  18   0.0000       0.132031         3.5927
  19   0.0000       0.135201         3.6790
  20   0.0000       0.173787         4.7290
  21   0.0000       0.176378         4.7995
  22   0.0000       0.227459         6.1895

MULLIKEN ATOMIC CHARGES
-----------------------
   0 O :   -0.496599
   1 H :    0.320976
   2 C :   -0.175458
   3 H :    0.129002
   4 H :    0.111622
   5 H :    0.110458
   6 O :   -0.498333
   7 H :    0.321367
   8 C :   -0.172286
   9 H :    0.129924
  10 H :    0.109225
  11 H :    0.110103
Sum of atomic charges:   -0.0000000

LOEWDIN ATOMIC CHARGES
----------------------
   0 O :   -0.111116
   1 H :    0.187969
   2 C :   -0.378573
   3 H :    0.109728
   4 H :    0.095998
   5 H :    0.095994
   6 O :   -0.111453
   7 H :    0.192384
   8 C :   -0.382313
   9 H :    0.110519
  10 H :    0.095188
  11 H :    0.095675

  Mayer bond orders larger than 0.100000
B(  0-O ,  1-H ) :   0.8441 B(  0-O ,  2-C ) :   0.9260 B(  2-C ,  3-H ) :   0.9380
B(  2-C ,  4-H ) :   0.9411 B(  2-C ,  5-H ) :   0.9377 B(  6-O ,  7-H ) :   0.8414
B(  6-O ,  8-C ) :   0.9253 B(  8-C ,  9-H ) :   0.9374 B(  8-C , 10-H ) :   0.9390
B(  8-C , 11-H ) :   0.9390

MP2 TOTAL ENERGY:     -231.013020255 Eh
FINAL SINGLE POINT ENERGY      -231.013020254699

DIPOLE MOMENT
-------------
                                X             Y             Z
Electronic contribution:     -0.50878       0.05942       2.59106
Nuclear contribution   :      0.73472      -0.43473      -2.94671
                        -----------------------------------------
Total Dipole Moment    :      0.22594      -0.37531      -0.35565
                        -----------------------------------------
Magnitude (a.u.)       :      0.56427
Magnitude (Debye)      :      1.43425

Rotational constants in cm-1:     0.498397     0.015024     0.014873
Rotational constants in MHz : 14941.565149   450.418082   445.871215

                             ****ORCA TERMINATED NORMALLY****
TOTAL RUN TIME: 0 days 0 hours 0 minutes 16 seconds 904 msec
