                         Program Version 4.2.0 -  RELEASE  -
|  1> # 12meoh.boyd.etal.mol2,5
|  2> ! MP2 def2-TZVP EnGrad TightSCF
|  3>
|  4> %pal
|  5>     nprocs 6
|  6> end
|  7>
|  8> %maxcore 8000
|  9>
| 10> %scf
| 11>     ConvForced true
| 12> end
| 13>
| 14> *xyz 0 1
| 15> O  -3.839777402   2.233595098   0.660436763
| 16> H  -2.958345897   1.907036203   0.973588449
| 17> C  -3.600368059   3.168790682  -0.390480452
| 18> H  -4.551709193   3.344148967  -0.901254863
| 19> H  -2.868237594   2.789240199  -1.113617525
| 20> H  -3.243594915   4.128998607   0.009549480
| 21> O  -0.662721750   1.449094618  -1.383082065
| 22> H   0.064188300   2.119867608  -1.465650660
| 23> C  -0.353319239   0.341218776  -2.229326771
| 24> H  -1.072358530  -0.454743281  -2.019906495
| 25> H   0.657636746  -0.044472139  -2.042736771
| 26> H  -0.434616607   0.624733901  -3.287793021
| 27> *
| 28>
| 29>                          ****END OF INPUT****

CARTESIAN COORDINATES (ANGSTROEM)
---------------------------------
  O     -3.839777    2.233595    0.660437
  H     -2.958346    1.907036    0.973588
  C     -3.600368    3.168791   -0.390480
  H     -4.551709    3.344149   -0.901255
  H     -2.868238    2.789240   -1.113618
  H     -3.243595    4.128999    0.009549
  O     -0.662722    1.449095   -1.383082
  H      0.064188    2.119868   -1.465651
  C     -0.353319    0.341219   -2.229327
  H     -1.072359   -0.454743   -2.019906
  H      0.657637   -0.044472   -2.042737
  H     -0.434617    0.624734   -3.287793

 Total Charge           Charge          ....    0
 Multiplicity           Mult            ....    1
 Number of Electrons    NEL             ....   36
 Basis Dimension        Dim             ....  172

ORBITAL ENERGIES
----------------

  NO   OCC          E(Eh)            E(eV)
   0   2.0000     -20.568428      -559.6954
   1   2.0000     -20.540895      -558.9462
   2   2.0000     -11.279923      -306.9423
   3   2.0000     -11.253928      -306.2350
   4   2.0000      -1.356681       -36.9172
   5   2.0000      -1.330138       -36.1949
   6   2.0000      -0.928851       -25.2753
   7   2.0000      -0.903103       -24.5747
   8   2.0000      -0.691330       -18.8121
   9   2.0000      -0.665294       -18.1036
  10   2.0000      -0.626130       -17.0379
  11   2.0000      -0.604456       -16.4481
  12   2.0000      -0.596415       -16.2293
  13   2.0000      -0.574040       -15.6204
  14   2.0000      -0.511016       -13.9054
  15   2.0000      -0.485026       -13.1982
  16   2.0000      -0.459594       -12.5062
  17   2.0000      -0.432533       -11.7698
  18   0.0000       0.121189         3.2977
  19   0.0000       0.162344         4.4176
  20   0.0000       0.172164         4.6848
  21   0.0000       0.188927         5.1410
  22   0.0000       0.221181         6.0187

MULLIKEN ATOMIC CHARGES
-----------------------
   0 O :   -0.506860
   1 H :    0.324583
   2 C :   -0.177686
   3 H :    0.120837
   4 H :    0.126842
   5 H :    0.098734
   6 O :   -0.503205
   7 H :    0.325150
   8 C :   -0.172173
   9 H :    0.135835
  10 H :    0.113801
  11 H :    0.114142
Sum of atomic charges:   -0.0000000

LOEWDIN ATOMIC CHARGES
----------------------
   0 O :   -0.113987
   1 H :    0.188607
   2 C :   -0.383856
   3 H :    0.106086
   4 H :    0.096840
   5 H :    0.092381
   6 O :   -0.109076
   7 H :    0.189791
   8 C :   -0.374278
   9 H :    0.112051
  10 H :    0.098012
  11 H :    0.097429

  Mayer bond orders larger than 0.100000
B(  0-O ,  1-H ) :   0.8414 B(  0-O ,  2-C ) :   0.9243 B(  2-C ,  3-H ) :   0.9387
B(  2-C ,  4-H ) :   0.9330 B(  2-C ,  5-H ) :   0.9398 B(  6-O ,  7-H ) :   0.8390
B(  6-O ,  8-C ) :   0.9079 B(  8-C ,  9-H ) :   0.9384 B(  8-C , 10-H ) :   0.9357
B(  8-C , 11-H ) :   0.9394

MP2 TOTAL ENERGY:     -231.016506192 Eh
FINAL SINGLE POINT ENERGY      -231.016506192073

DIPOLE MOMENT
-------------
                                X             Y             Z
Electronic contribution:     -0.85238       0.05346       2.32166
Nuclear contribution   :      2.17813      -0.01510      -3.02327
                        -----------------------------------------
Total Dipole Moment    :      1.32574       0.03836      -0.70161
                        -----------------------------------------
Magnitude (a.u.)       :      1.50044
Magnitude (Debye)      :      3.81382

Rotational constants in cm-1:     0.530918     0.056151     0.054086
Rotational constants in MHz : 15916.506703  1683.356005  1621.444663

                             ****ORCA TERMINATED NORMALLY****
TOTAL RUN TIME: 0 days 0 hours 0 minutes 23 seconds 682 msec
