                         Program Version 4.2.0 -  RELEASE  -
|  1> # 12meoh.boyd.etal.mol2,4,5
|  2> ! MP2 def2-TZVP EnGrad TightSCF
|  3>
|  4> %pal
|  5>     nprocs 6
|  6> end
|  7>
|  8> %maxcore 8000
|  9>
| 10> %scf
| 11>     ConvForced true
| 12> end
| 13>
| 14> *xyz 0 1
| 15> O  -3.839777402   2.233595098   0.660436763
| 16> H  -2.958345897   1.907036203   0.973588449
| 17> C  -3.600368059   3.168790682  -0.390480452
| 18> H  -4.551709193   3.344148967  -0.901254863
| 19> H  -2.868237594   2.789240199  -1.113617525
| 20> H  -3.243594915   4.128998607   0.009549480
| 21> O  -1.358578914   1.232360421   1.189721000
| 22> H  -1.058250183   1.216459361   0.238591307
| 23> C  -0.389763452   1.957872567   1.943072362
| 24> H  -0.747220771   2.012806578   2.975200343
| 25> H  -0.260410585   2.982763209   1.565366540
| 26> H   0.585220638   1.453754179   1.934070793
| 27> O  -0.662721750   1.449094618  -1.383082065
| 28> H   0.064188300   2.119867608  -1.465650660
| 29> C  -0.353319239   0.341218776  -2.229326771
| 30> H  -1.072358530  -0.454743281  -2.019906495
| 31> H   0.657636746  -0.044472139  -2.042736771
| 32> H  -0.434616607   0.624733901  -3.287793021
| 33> *
| 34>
| 35>                          ****END OF INPUT****

CARTESIAN COORDINATES (ANGSTROEM)
---------------------------------
  O     -3.839777    2.233595    0.660437
  H     -2.958346    1.907036    0.973588
  C     -3.600368    3.168791   -0.390480
  H     -4.551709    3.344149   -0.901255
  H     -2.868238    2.789240   -1.113618
  H     -3.243595    4.128999    0.009549
  O     -1.358579    1.232360    1.189721
  H     -1.058250    1.216459    0.238591
  C     -0.389763    1.957873    1.943072
  H     -0.747221    2.012807    2.975200
  H     -0.260411    2.982763    1.565367
  H      0.585221    1.453754    1.934071
  O     -0.662722    1.449095   -1.383082
  H      0.064188    2.119868   -1.465651
  C     -0.353319    0.341219   -2.229327
  H     -1.072359   -0.454743   -2.019906
  H      0.657637   -0.044472   -2.042737
  H     -0.434617    0.624734   -3.287793

 Total Charge           Charge          ....    0
 Multiplicity           Mult            ....    1
 Number of Electrons    NEL             ....   54
 Basis Dimension        Dim             ....  258

ORBITAL ENERGIES
----------------

  NO   OCC          E(Eh)            E(eV)
   0   2.0000     -20.603344      -560.6455
   1   2.0000     -20.546136      -559.0888
   2   2.0000     -20.502606      -557.9043
   3   2.0000     -11.300571      -307.5042
   4   2.0000     -11.272168      -306.7313
   5   2.0000     -11.239964      -305.8550
   6   2.0000      -1.396265       -37.9943
   7   2.0000      -1.345251       -36.6061
   8   2.0000      -1.298522       -35.3346
   9   2.0000      -0.953844       -25.9554
  10   2.0000      -0.921195       -25.0670
  11   2.0000      -0.886501       -24.1229
  12   2.0000      -0.728725       -19.8296
  13   2.0000      -0.697339       -18.9756
  14   2.0000      -0.659972       -17.9587
  15   2.0000      -0.647719       -17.6253
  16   2.0000      -0.623829       -16.9753
  17   2.0000      -0.610749       -16.6193
  18   2.0000      -0.586656       -15.9637
  19   2.0000      -0.580560       -15.7978
  20   2.0000      -0.551467       -15.0062
  21   2.0000      -0.541474       -14.7342
  22   2.0000      -0.504725       -13.7343
  23   2.0000      -0.483884       -13.1672
  24   2.0000      -0.467148       -12.7117
  25   2.0000      -0.435931       -11.8623
  26   2.0000      -0.406246       -11.0545
  27   0.0000       0.101928         2.7736
  28   0.0000       0.146645         3.9904
  29   0.0000       0.166172         4.5218
  30   0.0000       0.182572         4.9680
  31   0.0000       0.197325         5.3695

MULLIKEN ATOMIC CHARGES
-----------------------
   0 O :   -0.527011
   1 H :    0.354486
   2 C :   -0.188180
   3 H :    0.118031
   4 H :    0.103623
   5 H :    0.092291
   6 O :   -0.538748
   7 H :    0.367300
   8 C :   -0.196578
   9 H :    0.140417
  10 H :    0.108770
  11 H :    0.113752
  12 O :   -0.523775
  13 H :    0.344885
  14 C :   -0.183386
  15 H :    0.155558
  16 H :    0.126892
  17 H :    0.131673
Sum of atomic charges:   -0.0000000

LOEWDIN ATOMIC CHARGES
----------------------
   0 O :   -0.122825
   1 H :    0.160023
   2 C :   -0.400331
   3 H :    0.103531
   4 H :    0.088881
   5 H :    0.088674
   6 O :   -0.089719
   7 H :    0.162742
   8 C :   -0.390213
   9 H :    0.113022
  10 H :    0.094652
  11 H :    0.098242
  12 O :   -0.070422
  13 H :    0.198367
  14 C :   -0.363544
  15 H :    0.119154
  16 H :    0.103088
  17 H :    0.106676

  Mayer bond orders larger than 0.100000
B(  0-O ,  1-H ) :   0.7896 B(  0-O ,  2-C ) :   0.9464 B(  2-C ,  3-H ) :   0.9426
B(  2-C ,  4-H ) :   0.9348 B(  2-C ,  5-H ) :   0.9394 B(  6-O ,  7-H ) :   0.7664
B(  6-O ,  8-C ) :   0.8975 B(  8-C ,  9-H ) :   0.9432 B(  8-C , 10-H ) :   0.9353
B(  8-C , 11-H ) :   0.9372 B( 12-O , 13-H ) :   0.8255 B( 12-O , 14-C ) :   0.8590
B( 14-C , 15-H ) :   0.9387 B( 14-C , 16-H ) :   0.9348 B( 14-C , 17-H ) :   0.9348

MP2 TOTAL ENERGY:     -346.540078638 Eh
FINAL SINGLE POINT ENERGY      -346.540078638297

DIPOLE MOMENT
-------------
                                X             Y             Z
Electronic contribution:     -1.85579      -1.10977       1.27927
Nuclear contribution   :      4.05055       1.20315      -2.48530
                        -----------------------------------------
Total Dipole Moment    :      2.19476       0.09338      -1.20604
                        -----------------------------------------
Magnitude (a.u.)       :      2.50603
Magnitude (Debye)      :      6.36983

Rotational constants in cm-1:     0.082830     0.052535     0.035964
Rotational constants in MHz :  2483.170547  1574.964042  1078.178226

                             ****ORCA TERMINATED NORMALLY****
TOTAL RUN TIME: 0 days 0 hours 1 minutes 36 seconds 69 msec
