                         Program Version 4.2.0 -  RELEASE  -
|  1> # 12meoh.boyd.etal.mol1,2,10
|  2> ! MP2 def2-TZVP EnGrad TightSCF
|  3>
|  4> %pal
|  5>     nprocs 6
|  6> end
|  7>
|  8> %maxcore 8000
|  9>
| 10> %scf
| 11>     ConvForced true
| 12> end
| 13>
| 14> *xyz 0 1
| 15> O   0.666045193  -2.600503172   0.138317521
| 16> H  -0.227115049  -2.712051982  -0.281868004
| 17> C   0.490021232  -1.851247678   1.341189459
| 18> H   1.466500502  -1.466176022   1.645844415
| 19> H   0.097564527  -2.488364683   2.146902740
| 20> H  -0.187588112  -1.000787499   1.200739571
| 21> O  -3.839777402   2.233595098   0.660436763
| 22> H  -2.958345897   1.907036203   0.973588449
| 23> C  -3.600368059   3.168790682  -0.390480452
| 24> H  -4.551709193   3.344148967  -0.901254863
| 25> H  -2.868237594   2.789240199  -1.113617525
| 26> H  -3.243594915   4.128998607   0.009549480
| 27> O  -5.201143618   0.064582726  -0.172223772
| 28> H  -4.686891530   0.869258890   0.107806143
| 29> C  -6.513192168   0.171391798   0.359883449
| 30> H  -7.049381312  -0.749234190   0.111361174
| 31> H  -7.057741163   1.017801101  -0.081819420
| 32> H  -6.514770575   0.292264928   1.453058834
| 33> *
| 34>
| 35>                          ****END OF INPUT****

CARTESIAN COORDINATES (ANGSTROEM)
---------------------------------
  O      0.666045   -2.600503    0.138318
  H     -0.227115   -2.712052   -0.281868
  C      0.490021   -1.851248    1.341189
  H      1.466501   -1.466176    1.645844
  H      0.097565   -2.488365    2.146903
  H     -0.187588   -1.000787    1.200740
  O     -3.839777    2.233595    0.660437
  H     -2.958346    1.907036    0.973588
  C     -3.600368    3.168791   -0.390480
  H     -4.551709    3.344149   -0.901255
  H     -2.868238    2.789240   -1.113618
  H     -3.243595    4.128999    0.009549
  O     -5.201144    0.064583   -0.172224
  H     -4.686892    0.869259    0.107806
  C     -6.513192    0.171392    0.359883
  H     -7.049381   -0.749234    0.111361
  H     -7.057741    1.017801   -0.081819
  H     -6.514771    0.292265    1.453059

 Total Charge           Charge          ....    0
 Multiplicity           Mult            ....    1
 Number of Electrons    NEL             ....   54
 Basis Dimension        Dim             ....  258

ORBITAL ENERGIES
----------------

  NO   OCC          E(Eh)            E(eV)
   0   2.0000     -20.594297      -560.3993
   1   2.0000     -20.557317      -559.3930
   2   2.0000     -20.518410      -558.3343
   3   2.0000     -11.294235      -307.3317
   4   2.0000     -11.273660      -306.7719
   5   2.0000     -11.251442      -306.1673
   6   2.0000      -1.387927       -37.7674
   7   2.0000      -1.345543       -36.6141
   8   2.0000      -1.315950       -35.8088
   9   2.0000      -0.946086       -25.7443
  10   2.0000      -0.921433       -25.0735
  11   2.0000      -0.898109       -24.4388
  12   2.0000      -0.719602       -19.5814
  13   2.0000      -0.681530       -18.5454
  14   2.0000      -0.678759       -18.4700
  15   2.0000      -0.637228       -17.3398
  16   2.0000      -0.617827       -16.8119
  17   2.0000      -0.613698       -16.6996
  18   2.0000      -0.593386       -16.1469
  19   2.0000      -0.590885       -16.0788
  20   2.0000      -0.565797       -15.3961
  21   2.0000      -0.533481       -14.5168
  22   2.0000      -0.502143       -13.6640
  23   2.0000      -0.493220       -13.4212
  24   2.0000      -0.459289       -12.4979
  25   2.0000      -0.450062       -12.2468
  26   2.0000      -0.420264       -11.4360
  27   0.0000       0.098739         2.6868
  28   0.0000       0.141026         3.8375
  29   0.0000       0.154726         4.2103
  30   0.0000       0.168159         4.5759
  31   0.0000       0.179841         4.8937

MULLIKEN ATOMIC CHARGES
-----------------------
   0 O :   -0.497957
   1 H :    0.325811
   2 C :   -0.168756
   3 H :    0.128389
   4 H :    0.113813
   5 H :    0.098679
   6 O :   -0.510060
   7 H :    0.341729
   8 C :   -0.193804
   9 H :    0.144660
  10 H :    0.132452
  11 H :    0.127043
  12 O :   -0.537127
  13 H :    0.337938
  14 C :   -0.157153
  15 H :    0.120168
  16 H :    0.093242
  17 H :    0.100934
Sum of atomic charges:    0.0000000

LOEWDIN ATOMIC CHARGES
----------------------
   0 O :   -0.112016
   1 H :    0.191538
   2 C :   -0.377955
   3 H :    0.108688
   4 H :    0.097128
   5 H :    0.092648
   6 O :   -0.074695
   7 H :    0.197067
   8 C :   -0.370589
   9 H :    0.115955
  10 H :    0.103639
  11 H :    0.104572
  12 O :   -0.125778
  13 H :    0.156070
  14 C :   -0.395279
  15 H :    0.105395
  16 H :    0.090651
  17 H :    0.092963

  Mayer bond orders larger than 0.100000
B(  0-O ,  1-H ) :   0.8408 B(  0-O ,  2-C ) :   0.9310 B(  2-C ,  3-H ) :   0.9379
B(  2-C ,  4-H ) :   0.9385 B(  2-C ,  5-H ) :   0.9417 B(  6-O ,  7-H ) :   0.8295
B(  6-O ,  8-C ) :   0.8688 B(  6-O , 13-H ) :   0.1036 B(  8-C ,  9-H ) :   0.9393
B(  8-C , 10-H ) :   0.9409 B(  8-C , 11-H ) :   0.9328 B( 12-O , 13-H ) :   0.7897
B( 12-O , 14-C ) :   0.9396 B( 14-C , 15-H ) :   0.9414 B( 14-C , 16-H ) :   0.9368
B( 14-C , 17-H ) :   0.9411

MP2 TOTAL ENERGY:     -346.529571466 Eh
FINAL SINGLE POINT ENERGY      -346.529571466088

DIPOLE MOMENT
-------------
                                X             Y             Z
Electronic contribution:      1.81467      -2.05625      -0.91792
Nuclear contribution   :     -1.74618       3.32381       1.29960
                        -----------------------------------------
Total Dipole Moment    :      0.06849       1.26756       0.38168
                        -----------------------------------------
Magnitude (a.u.)       :      1.32555
Magnitude (Debye)      :      3.36928

Rotational constants in cm-1:     0.075117     0.017794     0.015167
Rotational constants in MHz :  2251.962131   533.448703   454.694037

                             ****ORCA TERMINATED NORMALLY****
TOTAL RUN TIME: 0 days 0 hours 1 minutes 2 seconds 860 msec
