                         Program Version 4.2.0 -  RELEASE  -
|  1> # 12h2o.su.etal.mol1,2,3,6,8,11
|  2> ! MP2 def2-TZVP EnGrad TightSCF
|  3>
|  4> %pal
|  5>     nprocs 6
|  6> end
|  7>
|  8> %maxcore 8000
|  9>
| 10> %scf
| 11>     ConvForced true
| 12> end
| 13>
| 14> *xyz 0 1
| 15> O  -1.794470000  -0.923410000   2.768350000
| 16> H  -2.338250000  -1.359750000   3.430940000
| 17> H  -0.879480000  -1.303000000   2.865760000
| 18> O   0.923410000  -1.794470000  -2.768350000
| 19> H   1.359750000  -2.338250000  -3.430940000
| 20> H   1.303000000  -0.879480000  -2.865760000
| 21> O  -1.752130000  -0.741530000  -2.896280000
| 22> H  -2.036450000  -0.920500000  -1.984040000
| 23> H  -0.921210000  -1.242140000  -2.984230000
| 24> O   1.737840000   0.885520000  -0.052730000
| 25> H   2.090180000   1.032320000   0.841890000
| 26> H   0.839590000   1.284090000  -0.017130000
| 27> O   1.752130000   0.741530000  -2.896280000
| 28> H   2.036450000   0.920500000  -1.984040000
| 29> H   0.921210000   1.242140000  -2.984230000
| 30> O  -0.741530000   1.752130000   2.896280000
| 31> H  -0.920500000   2.036450000   1.984040000
| 32> H  -1.242140000   0.921210000   2.984230000
| 33> *
| 34>
| 35>                          ****END OF INPUT****

CARTESIAN COORDINATES (ANGSTROEM)
---------------------------------
  O     -1.794470   -0.923410    2.768350
  H     -2.338250   -1.359750    3.430940
  H     -0.879480   -1.303000    2.865760
  O      0.923410   -1.794470   -2.768350
  H      1.359750   -2.338250   -3.430940
  H      1.303000   -0.879480   -2.865760
  O     -1.752130   -0.741530   -2.896280
  H     -2.036450   -0.920500   -1.984040
  H     -0.921210   -1.242140   -2.984230
  O      1.737840    0.885520   -0.052730
  H      2.090180    1.032320    0.841890
  H      0.839590    1.284090   -0.017130
  O      1.752130    0.741530   -2.896280
  H      2.036450    0.920500   -1.984040
  H      0.921210    1.242140   -2.984230
  O     -0.741530    1.752130    2.896280
  H     -0.920500    2.036450    1.984040
  H     -1.242140    0.921210    2.984230

 Total Charge           Charge          ....    0
 Multiplicity           Mult            ....    1
 Number of Electrons    NEL             ....   60
 Basis Dimension        Dim             ....  258

ORBITAL ENERGIES
----------------

  NO   OCC          E(Eh)            E(eV)
   0   2.0000     -20.600860      -560.5779
   1   2.0000     -20.596407      -560.4567
   2   2.0000     -20.571885      -559.7895
   3   2.0000     -20.553647      -559.2932
   4   2.0000     -20.533977      -558.7579
   5   2.0000     -20.525539      -558.5283
   6   2.0000      -1.378585       -37.5132
   7   2.0000      -1.375965       -37.4419
   8   2.0000      -1.359404       -36.9913
   9   2.0000      -1.335558       -36.3424
  10   2.0000      -1.319364       -35.9017
  11   2.0000      -1.305843       -35.5338
  12   2.0000      -0.745901       -20.2970
  13   2.0000      -0.739560       -20.1244
  14   2.0000      -0.719159       -19.5693
  15   2.0000      -0.704154       -19.1610
  16   2.0000      -0.702120       -19.1057
  17   2.0000      -0.675317       -18.3763
  18   2.0000      -0.625125       -17.0105
  19   2.0000      -0.619213       -16.8496
  20   2.0000      -0.595542       -16.2055
  21   2.0000      -0.575660       -15.6645
  22   2.0000      -0.566531       -15.4161
  23   2.0000      -0.542861       -14.7720
  24   2.0000      -0.539980       -14.6936
  25   2.0000      -0.539141       -14.6708
  26   2.0000      -0.506997       -13.7961
  27   2.0000      -0.500625       -13.6227
  28   2.0000      -0.483393       -13.1538
  29   2.0000      -0.473034       -12.8719
  30   0.0000       0.080146         2.1809
  31   0.0000       0.113022         3.0755
  32   0.0000       0.143481         3.9043
  33   0.0000       0.154857         4.2139
  34   0.0000       0.173042         4.7087

MULLIKEN ATOMIC CHARGES
-----------------------
   0 O :   -0.697569
   1 H :    0.357752
   2 H :    0.362088
   3 O :   -0.739114
   4 H :    0.335228
   5 H :    0.383150
   6 O :   -0.717176
   7 H :    0.326281
   8 H :    0.362582
   9 O :   -0.694591
  10 H :    0.361245
  11 H :    0.339740
  12 O :   -0.699887
  13 H :    0.387170
  14 H :    0.350632
  15 O :   -0.699771
  16 H :    0.320132
  17 H :    0.362109
Sum of atomic charges:    0.0000000

LOEWDIN ATOMIC CHARGES
----------------------
   0 O :   -0.310961
   1 H :    0.166049
   2 H :    0.189033
   3 O :   -0.340375
   4 H :    0.152874
   5 H :    0.145941
   6 O :   -0.354028
   7 H :    0.158211
   8 H :    0.147344
   9 O :   -0.316127
  10 H :    0.175468
  11 H :    0.171787
  12 O :   -0.275457
  13 H :    0.159997
  14 H :    0.170712
  15 O :   -0.344112
  16 H :    0.154574
  17 H :    0.149071

  Mayer bond orders larger than 0.100000
B(  0-O ,  1-H ) :   0.8387 B(  0-O ,  2-H ) :   0.8296 B(  3-O ,  4-H ) :   0.8516
B(  3-O ,  5-H ) :   0.7581 B(  6-O ,  7-H ) :   0.8595 B(  6-O ,  8-H ) :   0.8023
B(  9-O , 10-H ) :   0.8354 B(  9-O , 11-H ) :   0.8420 B( 12-O , 13-H ) :   0.8012
B( 12-O , 14-H ) :   0.8384 B( 15-O , 16-H ) :   0.8620 B( 15-O , 17-H ) :   0.8124

MP2 TOTAL ENERGY:     -457.916444996 Eh
FINAL SINGLE POINT ENERGY      -457.916444996085

DIPOLE MOMENT
-------------
                                X             Y             Z
Electronic contribution:      0.24788       0.08376       0.03931
Nuclear contribution   :     -0.03192      -0.37119       1.46039
                        -----------------------------------------
Total Dipole Moment    :      0.21595      -0.28743       1.49969
                        -----------------------------------------
Magnitude (a.u.)       :      1.54218
Magnitude (Debye)      :      3.91992

Rotational constants in cm-1:     0.050262     0.019621     0.016184
Rotational constants in MHz :  1506.810656   588.214066   485.192644

                             ****ORCA TERMINATED NORMALLY****
TOTAL RUN TIME: 0 days 0 hours 0 minutes 52 seconds 118 msec
