                         Program Version 4.2.0 -  RELEASE  -
|  1> # 12h2o.su.etal.mol0,2,3,4,5,6,8
|  2> ! MP2 def2-TZVP EnGrad TightSCF
|  3>
|  4> %pal
|  5>     nprocs 6
|  6> end
|  7>
|  8> %maxcore 8000
|  9>
| 10> %scf
| 11>     ConvForced true
| 12> end
| 13>
| 14> *xyz 0 1
| 15> O   1.794470000   0.923410000   2.768350000
| 16> H   2.338250000   1.359750000   3.430940000
| 17> H   0.879480000   1.303000000   2.865760000
| 18> O   0.923410000  -1.794470000  -2.768350000
| 19> H   1.359750000  -2.338250000  -3.430940000
| 20> H   1.303000000  -0.879480000  -2.865760000
| 21> O  -1.752130000  -0.741530000  -2.896280000
| 22> H  -2.036450000  -0.920500000  -1.984040000
| 23> H  -0.921210000  -1.242140000  -2.984230000
| 24> O  -0.885520000   1.737840000   0.052730000
| 25> H  -1.032320000   2.090180000  -0.841890000
| 26> H  -1.284090000   0.839590000   0.017130000
| 27> O   0.885520000  -1.737840000   0.052730000
| 28> H   1.284090000  -0.839590000   0.017130000
| 29> H   1.032320000  -2.090180000  -0.841890000
| 30> O   1.737840000   0.885520000  -0.052730000
| 31> H   2.090180000   1.032320000   0.841890000
| 32> H   0.839590000   1.284090000  -0.017130000
| 33> O   1.752130000   0.741530000  -2.896280000
| 34> H   2.036450000   0.920500000  -1.984040000
| 35> H   0.921210000   1.242140000  -2.984230000
| 36> *
| 37>
| 38>                          ****END OF INPUT****

CARTESIAN COORDINATES (ANGSTROEM)
---------------------------------
  O      1.794470    0.923410    2.768350
  H      2.338250    1.359750    3.430940
  H      0.879480    1.303000    2.865760
  O      0.923410   -1.794470   -2.768350
  H      1.359750   -2.338250   -3.430940
  H      1.303000   -0.879480   -2.865760
  O     -1.752130   -0.741530   -2.896280
  H     -2.036450   -0.920500   -1.984040
  H     -0.921210   -1.242140   -2.984230
  O     -0.885520    1.737840    0.052730
  H     -1.032320    2.090180   -0.841890
  H     -1.284090    0.839590    0.017130
  O      0.885520   -1.737840    0.052730
  H      1.284090   -0.839590    0.017130
  H      1.032320   -2.090180   -0.841890
  O      1.737840    0.885520   -0.052730
  H      2.090180    1.032320    0.841890
  H      0.839590    1.284090   -0.017130
  O      1.752130    0.741530   -2.896280
  H      2.036450    0.920500   -1.984040
  H      0.921210    1.242140   -2.984230

 Total Charge           Charge          ....    0
 Multiplicity           Mult            ....    1
 Number of Electrons    NEL             ....   70
 Basis Dimension        Dim             ....  301

ORBITAL ENERGIES
----------------

  NO   OCC          E(Eh)            E(eV)
   0   2.0000     -20.611232      -560.8601
   1   2.0000     -20.592427      -560.3484
   2   2.0000     -20.579979      -560.0097
   3   2.0000     -20.560609      -559.4826
   4   2.0000     -20.555979      -559.3566
   5   2.0000     -20.541424      -558.9606
   6   2.0000     -20.495862      -557.7208
   7   2.0000      -1.392548       -37.8932
   8   2.0000      -1.372696       -37.3530
   9   2.0000      -1.370143       -37.2835
  10   2.0000      -1.348654       -36.6987
  11   2.0000      -1.341528       -36.5048
  12   2.0000      -1.322457       -35.9859
  13   2.0000      -1.280093       -34.8331
  14   2.0000      -0.749523       -20.3956
  15   2.0000      -0.738894       -20.1063
  16   2.0000      -0.732299       -19.9269
  17   2.0000      -0.723421       -19.6853
  18   2.0000      -0.720814       -19.6143
  19   2.0000      -0.691279       -18.8107
  20   2.0000      -0.664219       -18.0743
  21   2.0000      -0.642136       -17.4734
  22   2.0000      -0.620177       -16.8759
  23   2.0000      -0.612653       -16.6711
  24   2.0000      -0.590203       -16.0602
  25   2.0000      -0.582074       -15.8390
  26   2.0000      -0.564803       -15.3691
  27   2.0000      -0.547613       -14.9013
  28   2.0000      -0.539315       -14.6755
  29   2.0000      -0.529538       -14.4095
  30   2.0000      -0.517903       -14.0928
  31   2.0000      -0.502731       -13.6800
  32   2.0000      -0.490731       -13.3535
  33   2.0000      -0.487841       -13.2748
  34   2.0000      -0.446898       -12.1607
  35   0.0000       0.083954         2.2845
  36   0.0000       0.114259         3.1092
  37   0.0000       0.143217         3.8971
  38   0.0000       0.147848         4.0231
  39   0.0000       0.180094         4.9006

MULLIKEN ATOMIC CHARGES
-----------------------
   0 O :   -0.691721
   1 H :    0.351672
   2 H :    0.359686
   3 O :   -0.749334
   4 H :    0.345952
   5 H :    0.383728
   6 O :   -0.714207
   7 H :    0.324117
   8 H :    0.368244
   9 O :   -0.689551
  10 H :    0.359348
  11 H :    0.367714
  12 O :   -0.742407
  13 H :    0.347582
  14 H :    0.356696
  15 O :   -0.751479
  16 H :    0.386026
  17 H :    0.349056
  18 O :   -0.698093
  19 H :    0.393473
  20 H :    0.343498
Sum of atomic charges:   -0.0000000

LOEWDIN ATOMIC CHARGES
----------------------
   0 O :   -0.307177
   1 H :    0.163645
   2 H :    0.187587
   3 O :   -0.313333
   4 H :    0.157037
   5 H :    0.146529
   6 O :   -0.348853
   7 H :    0.155211
   8 H :    0.149154
   9 O :   -0.288601
  10 H :    0.172707
  11 H :    0.182041
  12 O :   -0.373247
  13 H :    0.133944
  14 H :    0.141372
  15 O :   -0.304053
  16 H :    0.155227
  17 H :    0.138803
  18 O :   -0.274349
  19 H :    0.159497
  20 H :    0.166858

  Mayer bond orders larger than 0.100000
B(  0-O ,  1-H ) :   0.8423 B(  0-O ,  2-H ) :   0.8312 B(  3-O ,  4-H ) :   0.8424
B(  3-O ,  5-H ) :   0.7434 B(  6-O ,  7-H ) :   0.8582 B(  6-O ,  8-H ) :   0.8026
B(  9-O , 10-H ) :   0.8354 B(  9-O , 11-H ) :   0.8224 B( 12-O , 13-H ) :   0.8080
B( 12-O , 14-H ) :   0.8261 B( 15-O , 16-H ) :   0.7966 B( 15-O , 17-H ) :   0.7790
B( 18-O , 19-H ) :   0.7906 B( 18-O , 20-H ) :   0.8424

MP2 TOTAL ENERGY:     -534.254663202 Eh
FINAL SINGLE POINT ENERGY      -534.254663201738

DIPOLE MOMENT
-------------
                                X             Y             Z
Electronic contribution:      0.18659       0.25242       0.17134
Nuclear contribution   :     -0.08423       1.44207       0.59793
                        -----------------------------------------
Total Dipole Moment    :      0.10236       1.69450       0.76927
                        -----------------------------------------
Magnitude (a.u.)       :      1.86375
Magnitude (Debye)      :      4.73728

Rotational constants in cm-1:     0.048586     0.022952     0.021410
Rotational constants in MHz :  1456.566892   688.076665   641.860996

                             ****ORCA TERMINATED NORMALLY****
TOTAL RUN TIME: 0 days 0 hours 2 minutes 6 seconds 347 msec
