                         Program Version 4.2.0 -  RELEASE  -
|  1> # 12meoh.boyd.etal.mol1,2,5
|  2> ! MP2 def2-TZVP EnGrad TightSCF
|  3>
|  4> %pal
|  5>     nprocs 6
|  6> end
|  7>
|  8> %maxcore 8000
|  9>
| 10> %scf
| 11>     ConvForced true
| 12> end
| 13>
| 14> *xyz 0 1
| 15> O   0.666045193  -2.600503172   0.138317521
| 16> H  -0.227115049  -2.712051982  -0.281868004
| 17> C   0.490021232  -1.851247678   1.341189459
| 18> H   1.466500502  -1.466176022   1.645844415
| 19> H   0.097564527  -2.488364683   2.146902740
| 20> H  -0.187588112  -1.000787499   1.200739571
| 21> O  -3.839777402   2.233595098   0.660436763
| 22> H  -2.958345897   1.907036203   0.973588449
| 23> C  -3.600368059   3.168790682  -0.390480452
| 24> H  -4.551709193   3.344148967  -0.901254863
| 25> H  -2.868237594   2.789240199  -1.113617525
| 26> H  -3.243594915   4.128998607   0.009549480
| 27> O  -0.662721750   1.449094618  -1.383082065
| 28> H   0.064188300   2.119867608  -1.465650660
| 29> C  -0.353319239   0.341218776  -2.229326771
| 30> H  -1.072358530  -0.454743281  -2.019906495
| 31> H   0.657636746  -0.044472139  -2.042736771
| 32> H  -0.434616607   0.624733901  -3.287793021
| 33> *
| 34>
| 35>                          ****END OF INPUT****

CARTESIAN COORDINATES (ANGSTROEM)
---------------------------------
  O      0.666045   -2.600503    0.138318
  H     -0.227115   -2.712052   -0.281868
  C      0.490021   -1.851248    1.341189
  H      1.466501   -1.466176    1.645844
  H      0.097565   -2.488365    2.146903
  H     -0.187588   -1.000787    1.200740
  O     -3.839777    2.233595    0.660437
  H     -2.958346    1.907036    0.973588
  C     -3.600368    3.168791   -0.390480
  H     -4.551709    3.344149   -0.901255
  H     -2.868238    2.789240   -1.113618
  H     -3.243595    4.128999    0.009549
  O     -0.662722    1.449095   -1.383082
  H      0.064188    2.119868   -1.465651
  C     -0.353319    0.341219   -2.229327
  H     -1.072359   -0.454743   -2.019906
  H      0.657637   -0.044472   -2.042737
  H     -0.434617    0.624734   -3.287793

 Total Charge           Charge          ....    0
 Multiplicity           Mult            ....    1
 Number of Electrons    NEL             ....   54
 Basis Dimension        Dim             ....  258

ORBITAL ENERGIES
----------------

  NO   OCC          E(Eh)            E(eV)
   0   2.0000     -20.570014      -559.7385
   1   2.0000     -20.560520      -559.4802
   2   2.0000     -20.544362      -559.0405
   3   2.0000     -11.280244      -306.9510
   4   2.0000     -11.273000      -306.7539
   5   2.0000     -11.256573      -306.3069
   6   2.0000      -1.358220       -36.9590
   7   2.0000      -1.348335       -36.6900
   8   2.0000      -1.333543       -36.2875
   9   2.0000      -0.929537       -25.2940
  10   2.0000      -0.921621       -25.0786
  11   2.0000      -0.905902       -24.6508
  12   2.0000      -0.692502       -18.8439
  13   2.0000      -0.683429       -18.5971
  14   2.0000      -0.668468       -18.1899
  15   2.0000      -0.627817       -17.0838
  16   2.0000      -0.617396       -16.8002
  17   2.0000      -0.606618       -16.5069
  18   2.0000      -0.598682       -16.2910
  19   2.0000      -0.592475       -16.1221
  20   2.0000      -0.577106       -15.7038
  21   2.0000      -0.512465       -13.9449
  22   2.0000      -0.503192       -13.6925
  23   2.0000      -0.487956       -13.2780
  24   2.0000      -0.461310       -12.5529
  25   2.0000      -0.450960       -12.2712
  26   2.0000      -0.435648       -11.8546
  27   0.0000       0.107603         2.9280
  28   0.0000       0.134769         3.6673
  29   0.0000       0.150890         4.1059
  30   0.0000       0.174537         4.7494
  31   0.0000       0.186742         5.0815

MULLIKEN ATOMIC CHARGES
-----------------------
   0 O :   -0.499593
   1 H :    0.321706
   2 C :   -0.183104
   3 H :    0.127016
   4 H :    0.117192
   5 H :    0.120211
   6 O :   -0.506848
   7 H :    0.323217
   8 C :   -0.178854
   9 H :    0.121597
  10 H :    0.127583
  11 H :    0.099850
  12 O :   -0.509099
  13 H :    0.326892
  14 C :   -0.176739
  15 H :    0.117124
  16 H :    0.133396
  17 H :    0.118454
Sum of atomic charges:   -0.0000000

LOEWDIN ATOMIC CHARGES
----------------------
   0 O :   -0.110903
   1 H :    0.188456
   2 C :   -0.378330
   3 H :    0.108953
   4 H :    0.097567
   5 H :    0.097283
   6 O :   -0.114322
   7 H :    0.187586
   8 C :   -0.383501
   9 H :    0.106372
  10 H :    0.096970
  11 H :    0.092791
  12 O :   -0.110020
  13 H :    0.190663
  14 C :   -0.377000
  15 H :    0.107020
  16 H :    0.102239
  17 H :    0.098178

  Mayer bond orders larger than 0.100000
B(  0-O ,  1-H ) :   0.8429 B(  0-O ,  2-C ) :   0.9165 B(  2-C ,  3-H ) :   0.9387
B(  2-C ,  4-H ) :   0.9391 B(  2-C ,  5-H ) :   0.9386 B(  6-O ,  7-H ) :   0.8424
B(  6-O ,  8-C ) :   0.9223 B(  8-C ,  9-H ) :   0.9384 B(  8-C , 10-H ) :   0.9328
B(  8-C , 11-H ) :   0.9400 B( 12-O , 13-H ) :   0.8381 B( 12-O , 14-C ) :   0.8970
B( 14-C , 15-H ) :   0.9420 B( 14-C , 16-H ) :   0.9348 B( 14-C , 17-H ) :   0.9363

MP2 TOTAL ENERGY:     -346.525002696 Eh
FINAL SINGLE POINT ENERGY      -346.525002696307

DIPOLE MOMENT
-------------
                                X             Y             Z
Electronic contribution:     -0.45773      -0.86936       0.84183
Nuclear contribution   :      1.18509       1.16822      -1.31362
                        -----------------------------------------
Total Dipole Moment    :      0.72735       0.29886      -0.47179
                        -----------------------------------------
Magnitude (a.u.)       :      0.91703
Magnitude (Debye)      :      2.33091

Rotational constants in cm-1:     0.088051     0.023318     0.019319
Rotational constants in MHz :  2639.696197   699.046035   579.164270

                             ****ORCA TERMINATED NORMALLY****
TOTAL RUN TIME: 0 days 0 hours 1 minutes 10 seconds 106 msec
