                         Program Version 4.2.0 -  RELEASE  -
|  1> # 12h2o.su.etal.mol0,1,2,10
|  2> ! MP2 def2-TZVP EnGrad TightSCF
|  3>
|  4> %pal
|  5>     nprocs 6
|  6> end
|  7>
|  8> %maxcore 8000
|  9>
| 10> %scf
| 11>     ConvForced true
| 12> end
| 13>
| 14> *xyz 0 1
| 15> O   1.794470000   0.923410000   2.768350000
| 16> H   2.338250000   1.359750000   3.430940000
| 17> H   0.879480000   1.303000000   2.865760000
| 18> O  -1.794470000  -0.923410000   2.768350000
| 19> H  -2.338250000  -1.359750000   3.430940000
| 20> H  -0.879480000  -1.303000000   2.865760000
| 21> O   0.923410000  -1.794470000  -2.768350000
| 22> H   1.359750000  -2.338250000  -3.430940000
| 23> H   1.303000000  -0.879480000  -2.865760000
| 24> O  -0.923410000   1.794470000  -2.768350000
| 25> H  -1.359750000   2.338250000  -3.430940000
| 26> H  -1.303000000   0.879480000  -2.865760000
| 27> *
| 28>
| 29>                          ****END OF INPUT****

CARTESIAN COORDINATES (ANGSTROEM)
---------------------------------
  O      1.794470    0.923410    2.768350
  H      2.338250    1.359750    3.430940
  H      0.879480    1.303000    2.865760
  O     -1.794470   -0.923410    2.768350
  H     -2.338250   -1.359750    3.430940
  H     -0.879480   -1.303000    2.865760
  O      0.923410   -1.794470   -2.768350
  H      1.359750   -2.338250   -3.430940
  H      1.303000   -0.879480   -2.865760
  O     -0.923410    1.794470   -2.768350
  H     -1.359750    2.338250   -3.430940
  H     -1.303000    0.879480   -2.865760

 Total Charge           Charge          ....    0
 Multiplicity           Mult            ....    1
 Number of Electrons    NEL             ....   40
 Basis Dimension        Dim             ....  172

ORBITAL ENERGIES
----------------

  NO   OCC          E(Eh)            E(eV)
   0   2.0000     -20.556299      -559.3653
   1   2.0000     -20.556299      -559.3653
   2   2.0000     -20.556299      -559.3653
   3   2.0000     -20.556299      -559.3653
   4   2.0000      -1.331836       -36.2411
   5   2.0000      -1.331836       -36.2411
   6   2.0000      -1.331439       -36.2303
   7   2.0000      -1.331439       -36.2303
   8   2.0000      -0.701323       -19.0840
   9   2.0000      -0.701310       -19.0836
  10   2.0000      -0.698299       -19.0017
  11   2.0000      -0.698299       -19.0017
  12   2.0000      -0.568056       -15.4576
  13   2.0000      -0.568056       -15.4576
  14   2.0000      -0.567337       -15.4380
  15   2.0000      -0.567337       -15.4380
  16   2.0000      -0.500614       -13.6224
  17   2.0000      -0.500609       -13.6223
  18   2.0000      -0.498563       -13.5666
  19   2.0000      -0.498563       -13.5666
  20   0.0000       0.119230         3.2444
  21   0.0000       0.122067         3.3216
  22   0.0000       0.149699         4.0735
  23   0.0000       0.149699         4.0735
  24   0.0000       0.206511         5.6195

MULLIKEN ATOMIC CHARGES
-----------------------
   0 O :   -0.686651
   1 H :    0.335985
   2 H :    0.350665
   3 O :   -0.686651
   4 H :    0.335985
   5 H :    0.350665
   6 O :   -0.686651
   7 H :    0.335985
   8 H :    0.350665
   9 O :   -0.686651
  10 H :    0.335985
  11 H :    0.350665
Sum of atomic charges:    0.0000000

LOEWDIN ATOMIC CHARGES
----------------------
   0 O :   -0.339971
   1 H :    0.156764
   2 H :    0.183207
   3 O :   -0.339971
   4 H :    0.156764
   5 H :    0.183207
   6 O :   -0.339971
   7 H :    0.156764
   8 H :    0.183207
   9 O :   -0.339971
  10 H :    0.156764
  11 H :    0.183207

  Mayer bond orders larger than 0.100000
B(  0-O ,  1-H ) :   0.8543 B(  0-O ,  2-H ) :   0.8385 B(  3-O ,  4-H ) :   0.8543
B(  3-O ,  5-H ) :   0.8385 B(  6-O ,  7-H ) :   0.8543 B(  6-O ,  8-H ) :   0.8385
B(  9-O , 10-H ) :   0.8543 B(  9-O , 11-H ) :   0.8385

MP2 TOTAL ENERGY:     -305.252623873 Eh
FINAL SINGLE POINT ENERGY      -305.252623872700

DIPOLE MOMENT
-------------
                                X             Y             Z
Electronic contribution:      0.00000       0.00000      -0.00000
Nuclear contribution   :     -0.00000       0.00000       0.00000
                        -----------------------------------------
Total Dipole Moment    :      0.00000       0.00000      -0.00000
                        -----------------------------------------
Magnitude (a.u.)       :      0.00000
Magnitude (Debye)      :      0.00000

Rotational constants in cm-1:     0.056172     0.023378     0.023378
Rotational constants in MHz :  1683.996671   700.865730   700.865730

                             ****ORCA TERMINATED NORMALLY****
TOTAL RUN TIME: 0 days 0 hours 0 minutes 11 seconds 67 msec
