                         Program Version 4.2.0 -  RELEASE  -
|  1> # 12h2o.su.etal.mol0,5
|  2> ! MP2 def2-TZVP EnGrad TightSCF
|  3>
|  4> %pal
|  5>     nprocs 6
|  6> end
|  7>
|  8> %maxcore 8000
|  9>
| 10> %scf
| 11>     ConvForced true
| 12> end
| 13>
| 14> *xyz 0 1
| 15> O   1.794470000   0.923410000   2.768350000
| 16> H   2.338250000   1.359750000   3.430940000
| 17> H   0.879480000   1.303000000   2.865760000
| 18> O   0.885520000  -1.737840000   0.052730000
| 19> H   1.284090000  -0.839590000   0.017130000
| 20> H   1.032320000  -2.090180000  -0.841890000
| 21> *
| 22>
| 23>                          ****END OF INPUT****

CARTESIAN COORDINATES (ANGSTROEM)
---------------------------------
  O      1.794470    0.923410    2.768350
  H      2.338250    1.359750    3.430940
  H      0.879480    1.303000    2.865760
  O      0.885520   -1.737840    0.052730
  H      1.284090   -0.839590    0.017130
  H      1.032320   -2.090180   -0.841890

 Total Charge           Charge          ....    0
 Multiplicity           Mult            ....    1
 Number of Electrons    NEL             ....   20
 Basis Dimension        Dim             ....   86

ORBITAL ENERGIES
----------------

  NO   OCC          E(Eh)            E(eV)
   0   2.0000     -20.564439      -559.5868
   1   2.0000     -20.551272      -559.2285
   2   2.0000      -1.339695       -36.4550
   3   2.0000      -1.327298       -36.1176
   4   2.0000      -0.708136       -19.2694
   5   2.0000      -0.689089       -18.7511
   6   2.0000      -0.575877       -15.6704
   7   2.0000      -0.566550       -15.4166
   8   2.0000      -0.507542       -13.8109
   9   2.0000      -0.494212       -13.4482
  10   0.0000       0.118151         3.2151
  11   0.0000       0.145905         3.9703
  12   0.0000       0.194361         5.2888
  13   0.0000       0.220674         6.0049
  14   0.0000       0.492942        13.4136

MULLIKEN ATOMIC CHARGES
-----------------------
   0 O :   -0.682195
   1 H :    0.339523
   2 H :    0.344603
   3 O :   -0.676560
   4 H :    0.344432
   5 H :    0.330198
Sum of atomic charges:    0.0000000

LOEWDIN ATOMIC CHARGES
----------------------
   0 O :   -0.338260
   1 H :    0.158430
   2 H :    0.181732
   3 O :   -0.338008
   4 H :    0.173959
   5 H :    0.162147

  Mayer bond orders larger than 0.100000
B(  0-O ,  1-H ) :   0.8524 B(  0-O ,  2-H ) :   0.8442 B(  3-O ,  4-H ) :   0.8452
B(  3-O ,  5-H ) :   0.8566

MP2 TOTAL ENERGY:     -152.625773131 Eh
FINAL SINGLE POINT ENERGY      -152.625773131336

DIPOLE MOMENT
-------------
                                X             Y             Z
Electronic contribution:     -0.01132      -0.16797       0.06255
Nuclear contribution   :      0.14496       1.13354      -0.14168
                        -----------------------------------------
Total Dipole Moment    :      0.13364       0.96557      -0.07913
                        -----------------------------------------
Magnitude (a.u.)       :      0.97799
Magnitude (Debye)      :      2.48584

Rotational constants in cm-1:     9.330075     0.116448     0.115952
Rotational constants in MHz : 279708.597542  3491.021087  3476.141143

                             ****ORCA TERMINATED NORMALLY****
TOTAL RUN TIME: 0 days 0 hours 0 minutes 34 seconds 458 msec
