                         Program Version 4.2.0 -  RELEASE  -
|  1> # 12h2o.su.etal.mol0,3,4,6,7,10
|  2> ! MP2 def2-TZVP EnGrad TightSCF
|  3>
|  4> %pal
|  5>     nprocs 6
|  6> end
|  7>
|  8> %maxcore 8000
|  9>
| 10> %scf
| 11>     ConvForced true
| 12> end
| 13>
| 14> *xyz 0 1
| 15> O   1.794470000   0.923410000   2.768350000
| 16> H   2.338250000   1.359750000   3.430940000
| 17> H   0.879480000   1.303000000   2.865760000
| 18> O  -1.752130000  -0.741530000  -2.896280000
| 19> H  -2.036450000  -0.920500000  -1.984040000
| 20> H  -0.921210000  -1.242140000  -2.984230000
| 21> O  -0.885520000   1.737840000   0.052730000
| 22> H  -1.032320000   2.090180000  -0.841890000
| 23> H  -1.284090000   0.839590000   0.017130000
| 24> O   1.737840000   0.885520000  -0.052730000
| 25> H   2.090180000   1.032320000   0.841890000
| 26> H   0.839590000   1.284090000  -0.017130000
| 27> O  -1.737840000  -0.885520000  -0.052730000
| 28> H  -2.090180000  -1.032320000   0.841890000
| 29> H  -0.839590000  -1.284090000  -0.017130000
| 30> O  -0.923410000   1.794470000  -2.768350000
| 31> H  -1.359750000   2.338250000  -3.430940000
| 32> H  -1.303000000   0.879480000  -2.865760000
| 33> *
| 34>
| 35>                          ****END OF INPUT****

CARTESIAN COORDINATES (ANGSTROEM)
---------------------------------
  O      1.794470    0.923410    2.768350
  H      2.338250    1.359750    3.430940
  H      0.879480    1.303000    2.865760
  O     -1.752130   -0.741530   -2.896280
  H     -2.036450   -0.920500   -1.984040
  H     -0.921210   -1.242140   -2.984230
  O     -0.885520    1.737840    0.052730
  H     -1.032320    2.090180   -0.841890
  H     -1.284090    0.839590    0.017130
  O      1.737840    0.885520   -0.052730
  H      2.090180    1.032320    0.841890
  H      0.839590    1.284090   -0.017130
  O     -1.737840   -0.885520   -0.052730
  H     -2.090180   -1.032320    0.841890
  H     -0.839590   -1.284090   -0.017130
  O     -0.923410    1.794470   -2.768350
  H     -1.359750    2.338250   -3.430940
  H     -1.303000    0.879480   -2.865760

 Total Charge           Charge          ....    0
 Multiplicity           Mult            ....    1
 Number of Electrons    NEL             ....   60
 Basis Dimension        Dim             ....  258

ORBITAL ENERGIES
----------------

  NO   OCC          E(Eh)            E(eV)
   0   2.0000     -20.624000      -561.2076
   1   2.0000     -20.582880      -560.0886
   2   2.0000     -20.576575      -559.9171
   3   2.0000     -20.533624      -558.7483
   4   2.0000     -20.527539      -558.5827
   5   2.0000     -20.484493      -557.4114
   6   2.0000      -1.407409       -38.2975
   7   2.0000      -1.371018       -37.3073
   8   2.0000      -1.354487       -36.8575
   9   2.0000      -1.323082       -36.0029
  10   2.0000      -1.311586       -35.6901
  11   2.0000      -1.268457       -34.5165
  12   2.0000      -0.766376       -20.8541
  13   2.0000      -0.733095       -19.9485
  14   2.0000      -0.721420       -19.6308
  15   2.0000      -0.702974       -19.1289
  16   2.0000      -0.695931       -18.9372
  17   2.0000      -0.653515       -17.7831
  18   2.0000      -0.648883       -17.6570
  19   2.0000      -0.604445       -16.4478
  20   2.0000      -0.596017       -16.2184
  21   2.0000      -0.588403       -16.0113
  22   2.0000      -0.557450       -15.1690
  23   2.0000      -0.545825       -14.8527
  24   2.0000      -0.530153       -14.4262
  25   2.0000      -0.514396       -13.9974
  26   2.0000      -0.502000       -13.6601
  27   2.0000      -0.481923       -13.1138
  28   2.0000      -0.467070       -12.7096
  29   2.0000      -0.435714       -11.8564
  30   0.0000       0.089619         2.4387
  31   0.0000       0.125869         3.4251
  32   0.0000       0.141573         3.8524
  33   0.0000       0.165477         4.5028
  34   0.0000       0.192299         5.2327

MULLIKEN ATOMIC CHARGES
-----------------------
   0 O :   -0.695829
   1 H :    0.345928
   2 H :    0.355681
   3 O :   -0.692119
   4 H :    0.383373
   5 H :    0.354875
   6 O :   -0.731861
   7 H :    0.379882
   8 H :    0.342848
   9 O :   -0.746015
  10 H :    0.352927
  11 H :    0.348770
  12 O :   -0.719488
  13 H :    0.372795
  14 H :    0.376136
  15 O :   -0.729767
  16 H :    0.332684
  17 H :    0.369181
Sum of atomic charges:   -0.0000000

LOEWDIN ATOMIC CHARGES
----------------------
   0 O :   -0.313026
   1 H :    0.160163
   2 H :    0.184906
   3 O :   -0.273274
   4 H :    0.157478
   5 H :    0.174562
   6 O :   -0.322312
   7 H :    0.151355
   8 H :    0.134483
   9 O :   -0.376793
  10 H :    0.140903
  11 H :    0.135228
  12 O :   -0.279173
  13 H :    0.180046
  14 H :    0.186669
  15 O :   -0.337272
  16 H :    0.152125
  17 H :    0.143932

  Mayer bond orders larger than 0.100000
B(  0-O ,  1-H ) :   0.8451 B(  0-O ,  2-H ) :   0.8329 B(  3-O ,  4-H ) :   0.8083
B(  3-O ,  5-H ) :   0.8389 B(  6-O ,  7-H ) :   0.7970 B(  6-O ,  8-H ) :   0.8126
B(  9-O , 10-H ) :   0.8336 B(  9-O , 11-H ) :   0.7961 B( 12-O , 13-H ) :   0.8271
B( 12-O , 14-H ) :   0.8144 B( 15-O , 16-H ) :   0.8528 B( 15-O , 17-H ) :   0.7663

MP2 TOTAL ENERGY:     -457.923272400 Eh
FINAL SINGLE POINT ENERGY      -457.923272399575

DIPOLE MOMENT
-------------
                                X             Y             Z
Electronic contribution:     -0.19822      -0.31105      -0.18225
Nuclear contribution   :     -0.98710      -0.64988       1.46039
                        -----------------------------------------
Total Dipole Moment    :     -1.18533      -0.96093       1.27813
                        -----------------------------------------
Magnitude (a.u.)       :      1.99048
Magnitude (Debye)      :      5.05941

Rotational constants in cm-1:     0.077501     0.026788     0.023534
Rotational constants in MHz :  2323.412481   803.095405   705.534034

                             ****ORCA TERMINATED NORMALLY****
TOTAL RUN TIME: 0 days 0 hours 1 minutes 30 seconds 668 msec
