                         Program Version 4.2.0 -  RELEASE  -
|  1> # 12h2o.su.etal.mol1,5,7,8,9,10
|  2> ! MP2 def2-TZVP EnGrad TightSCF
|  3>
|  4> %pal
|  5>     nprocs 6
|  6> end
|  7>
|  8> %maxcore 8000
|  9>
| 10> %scf
| 11>     ConvForced true
| 12> end
| 13>
| 14> *xyz 0 1
| 15> O  -1.794470000  -0.923410000   2.768350000
| 16> H  -2.338250000  -1.359750000   3.430940000
| 17> H  -0.879480000  -1.303000000   2.865760000
| 18> O   0.885520000  -1.737840000   0.052730000
| 19> H   1.284090000  -0.839590000   0.017130000
| 20> H   1.032320000  -2.090180000  -0.841890000
| 21> O  -1.737840000  -0.885520000  -0.052730000
| 22> H  -2.090180000  -1.032320000   0.841890000
| 23> H  -0.839590000  -1.284090000  -0.017130000
| 24> O   1.752130000   0.741530000  -2.896280000
| 25> H   2.036450000   0.920500000  -1.984040000
| 26> H   0.921210000   1.242140000  -2.984230000
| 27> O   0.741530000  -1.752130000   2.896280000
| 28> H   0.920500000  -2.036450000   1.984040000
| 29> H   1.242140000  -0.921210000   2.984230000
| 30> O  -0.923410000   1.794470000  -2.768350000
| 31> H  -1.359750000   2.338250000  -3.430940000
| 32> H  -1.303000000   0.879480000  -2.865760000
| 33> *
| 34>
| 35>                          ****END OF INPUT****

CARTESIAN COORDINATES (ANGSTROEM)
---------------------------------
  O     -1.794470   -0.923410    2.768350
  H     -2.338250   -1.359750    3.430940
  H     -0.879480   -1.303000    2.865760
  O      0.885520   -1.737840    0.052730
  H      1.284090   -0.839590    0.017130
  H      1.032320   -2.090180   -0.841890
  O     -1.737840   -0.885520   -0.052730
  H     -2.090180   -1.032320    0.841890
  H     -0.839590   -1.284090   -0.017130
  O      1.752130    0.741530   -2.896280
  H      2.036450    0.920500   -1.984040
  H      0.921210    1.242140   -2.984230
  O      0.741530   -1.752130    2.896280
  H      0.920500   -2.036450    1.984040
  H      1.242140   -0.921210    2.984230
  O     -0.923410    1.794470   -2.768350
  H     -1.359750    2.338250   -3.430940
  H     -1.303000    0.879480   -2.865760

 Total Charge           Charge          ....    0
 Multiplicity           Mult            ....    1
 Number of Electrons    NEL             ....   60
 Basis Dimension        Dim             ....  258

ORBITAL ENERGIES
----------------

  NO   OCC          E(Eh)            E(eV)
   0   2.0000     -20.619953      -561.0974
   1   2.0000     -20.585910      -560.1711
   2   2.0000     -20.580962      -560.0364
   3   2.0000     -20.548310      -559.1479
   4   2.0000     -20.533074      -558.7333
   5   2.0000     -20.500335      -557.8425
   6   2.0000      -1.403297       -38.1857
   7   2.0000      -1.373744       -37.3815
   8   2.0000      -1.359015       -36.9807
   9   2.0000      -1.329798       -36.1856
  10   2.0000      -1.317924       -35.8625
  11   2.0000      -1.284429       -34.9511
  12   2.0000      -0.763199       -20.7677
  13   2.0000      -0.735217       -20.0063
  14   2.0000      -0.726331       -19.7645
  15   2.0000      -0.703034       -19.1305
  16   2.0000      -0.697535       -18.9809
  17   2.0000      -0.674520       -18.3546
  18   2.0000      -0.646456       -17.5910
  19   2.0000      -0.604380       -16.4460
  20   2.0000      -0.602158       -16.3856
  21   2.0000      -0.582092       -15.8395
  22   2.0000      -0.566582       -15.4175
  23   2.0000      -0.554905       -15.0997
  24   2.0000      -0.521855       -14.2004
  25   2.0000      -0.520037       -14.1509
  26   2.0000      -0.514066       -13.9884
  27   2.0000      -0.495326       -13.4785
  28   2.0000      -0.478967       -13.0334
  29   2.0000      -0.451065       -12.2741
  30   0.0000       0.081844         2.2271
  31   0.0000       0.123545         3.3618
  32   0.0000       0.140260         3.8167
  33   0.0000       0.153080         4.1655
  34   0.0000       0.169565         4.6141

MULLIKEN ATOMIC CHARGES
-----------------------
   0 O :   -0.733072
   1 H :    0.331906
   2 H :    0.367156
   3 O :   -0.709212
   4 H :    0.354936
   5 H :    0.379736
   6 O :   -0.736670
   7 H :    0.366629
   8 H :    0.330958
   9 O :   -0.700925
  10 H :    0.315987
  11 H :    0.364970
  12 O :   -0.689238
  13 H :    0.385828
  14 H :    0.347702
  15 O :   -0.697493
  16 H :    0.350053
  17 H :    0.370750
Sum of atomic charges:    0.0000000

LOEWDIN ATOMIC CHARGES
----------------------
   0 O :   -0.340477
   1 H :    0.151264
   2 H :    0.143104
   3 O :   -0.277455
   4 H :    0.177544
   5 H :    0.182426
   6 O :   -0.373025
   7 H :    0.146908
   8 H :    0.131034
   9 O :   -0.345501
  10 H :    0.152551
  11 H :    0.150353
  12 O :   -0.272733
  13 H :    0.158389
  14 H :    0.171194
  15 O :   -0.310282
  16 H :    0.162808
  17 H :    0.191898

  Mayer bond orders larger than 0.100000
B(  0-O ,  1-H ) :   0.8531 B(  0-O ,  2-H ) :   0.7686 B(  3-O ,  4-H ) :   0.8292
B(  3-O ,  5-H ) :   0.8215 B(  6-O ,  7-H ) :   0.8151 B(  6-O ,  8-H ) :   0.8287
B(  9-O , 10-H ) :   0.8644 B(  9-O , 11-H ) :   0.8066 B( 12-O , 13-H ) :   0.8051
B( 12-O , 14-H ) :   0.8434 B( 15-O , 16-H ) :   0.8428 B( 15-O , 17-H ) :   0.8216

MP2 TOTAL ENERGY:     -457.915807348 Eh
FINAL SINGLE POINT ENERGY      -457.915807347546

DIPOLE MOMENT
-------------
                                X             Y             Z
Electronic contribution:      0.13645      -0.07273      -0.02110
Nuclear contribution   :      0.64886       0.03294       0.00000
                        -----------------------------------------
Total Dipole Moment    :      0.78531      -0.03979      -0.02110
                        -----------------------------------------
Magnitude (a.u.)       :      0.78660
Magnitude (Debye)      :      1.99937

Rotational constants in cm-1:     0.068464     0.022054     0.018005
Rotational constants in MHz :  2052.511095   661.165189   539.766562

                             ****ORCA TERMINATED NORMALLY****
TOTAL RUN TIME: 0 days 0 hours 0 minutes 59 seconds 197 msec
