                         Program Version 4.2.0 -  RELEASE  -
|  1> # 12mecn.remya.etal.2.mol11
|  2> ! MP2 def2-TZVP EnGrad TightSCF
|  3>
|  4> %pal
|  5>     nprocs 6
|  6> end
|  7>
|  8> %maxcore 8000
|  9>
| 10> %scf
| 11>     ConvForced true
| 12> end
| 13>
| 14> *xyz 0 1
| 15> C   4.214163000   3.378139000   1.593627000
| 16> H   3.242643000   3.657109000   2.012358000
| 17> H   4.969258000   4.086643000   1.941290000
| 18> H   4.482966000   2.372549000   1.931698000
| 19> C   4.130759000   3.388436000   0.150192000
| 20> N   4.050180000   3.381449000  -1.013420000
| 21> *
| 22>
| 23>                          ****END OF INPUT****

CARTESIAN COORDINATES (ANGSTROEM)
---------------------------------
  C      4.214163    3.378139    1.593627
  H      3.242643    3.657109    2.012358
  H      4.969258    4.086643    1.941290
  H      4.482966    2.372549    1.931698
  C      4.130759    3.388436    0.150192
  N      4.050180    3.381449   -1.013420

 Total Charge           Charge          ....    0
 Multiplicity           Mult            ....    1
 Number of Electrons    NEL             ....   22
 Basis Dimension        Dim             ....  111

ORBITAL ENERGIES
----------------

  NO   OCC          E(Eh)            E(eV)
   0   2.0000     -15.573462      -423.7755
   1   2.0000     -11.285607      -307.0970
   2   2.0000     -11.280413      -306.9556
   3   2.0000      -1.214981       -33.0613
   4   2.0000      -1.044045       -28.4099
   5   2.0000      -0.700945       -19.0737
   6   2.0000      -0.632311       -17.2061
   7   2.0000      -0.631384       -17.1808
   8   2.0000      -0.556221       -15.1355
   9   2.0000      -0.458107       -12.4657
  10   2.0000      -0.457989       -12.4625
  11   0.0000       0.118688         3.2297
  12   0.0000       0.170785         4.6473
  13   0.0000       0.171137         4.6569
  14   0.0000       0.202067         5.4985
  15   0.0000       0.224308         6.1037

MULLIKEN ATOMIC CHARGES
-----------------------
   0 C :   -0.280548
   1 H :    0.172250
   2 H :    0.172232
   3 H :    0.172319
   4 C :   -0.145478
   5 N :   -0.090775
Sum of atomic charges:    0.0000000

LOEWDIN ATOMIC CHARGES
----------------------
   0 C :   -0.284163
   1 H :    0.152921
   2 H :    0.151064
   3 H :    0.153041
   4 C :   -0.219415
   5 N :    0.046552

  Mayer bond orders larger than 0.100000
B(  0-C ,  1-H ) :   0.9164 B(  0-C ,  2-H ) :   0.9166 B(  0-C ,  3-H ) :   0.9164
B(  0-C ,  4-C ) :   0.9023 B(  4-C ,  5-N ) :   2.8367

MP2 TOTAL ENERGY:     -132.483129299 Eh
FINAL SINGLE POINT ENERGY      -132.483129298874

DIPOLE MOMENT
-------------
                                X             Y             Z
Electronic contribution:     -0.17546       0.02530      -3.11572
Nuclear contribution   :      0.27120      -0.02740       4.64472
                        -----------------------------------------
Total Dipole Moment    :      0.09574      -0.00211       1.52900
                        -----------------------------------------
Magnitude (a.u.)       :      1.53199
Magnitude (Debye)      :      3.89402

Rotational constants in cm-1:     5.258085     0.308291     0.308208
Rotational constants in MHz : 157633.417577  9242.336014  9239.845679

                             ****ORCA TERMINATED NORMALLY****
TOTAL RUN TIME: 0 days 0 hours 0 minutes 30 seconds 429 msec
