                         Program Version 4.2.0 -  RELEASE  -
|  1> # 12mecn.remya.etal.2.mol2,3,10
|  2> ! MP2 def2-TZVP EnGrad TightSCF
|  3>
|  4> %pal
|  5>     nprocs 6
|  6> end
|  7>
|  8> %maxcore 8000
|  9>
| 10> %scf
| 11>     ConvForced true
| 12> end
| 13>
| 14> *xyz 0 1
| 15> C  -4.219070000  -3.477410000  -1.501740000
| 16> H  -3.251530000  -3.803540000  -1.893830000
| 17> H  -4.452920000  -2.481700000  -1.890840000
| 18> H  -4.992170000  -4.178130000  -1.824640000
| 19> C  -4.154550000  -3.418790000  -0.058340000
| 20> N  -4.091140000  -3.354840000   1.104432000
| 21> C  -5.181310000   2.853865000  -1.626100000
| 22> H  -5.488260000   3.811434000  -2.053310000
| 23> H  -5.857590000   2.068112000  -1.968630000
| 24> H  -4.170750000   2.611402000  -1.966640000
| 25> C  -5.187260000   2.919160000  -0.181450000
| 26> N  -5.181700000   2.970641000   0.983640000
| 27> C   4.602033000   0.321019000  -1.784800000
| 28> H   4.827650000  -0.662160000  -2.207910000
| 29> H   5.320558000   1.057980000  -2.148500000
| 30> H   3.601982000   0.643751000  -2.087520000
| 31> C   4.654967000   0.244048000  -0.343060000
| 32> N   4.691648000   0.166590000   0.820757000
| 33> *
| 34>
| 35>                          ****END OF INPUT****

CARTESIAN COORDINATES (ANGSTROEM)
---------------------------------
  C     -4.219070   -3.477410   -1.501740
  H     -3.251530   -3.803540   -1.893830
  H     -4.452920   -2.481700   -1.890840
  H     -4.992170   -4.178130   -1.824640
  C     -4.154550   -3.418790   -0.058340
  N     -4.091140   -3.354840    1.104432
  C     -5.181310    2.853865   -1.626100
  H     -5.488260    3.811434   -2.053310
  H     -5.857590    2.068112   -1.968630
  H     -4.170750    2.611402   -1.966640
  C     -5.187260    2.919160   -0.181450
  N     -5.181700    2.970641    0.983640
  C      4.602033    0.321019   -1.784800
  H      4.827650   -0.662160   -2.207910
  H      5.320558    1.057980   -2.148500
  H      3.601982    0.643751   -2.087520
  C      4.654967    0.244048   -0.343060
  N      4.691648    0.166590    0.820757

 Total Charge           Charge          ....    0
 Multiplicity           Mult            ....    1
 Number of Electrons    NEL             ....   66
 Basis Dimension        Dim             ....  333

ORBITAL ENERGIES
----------------

  NO   OCC          E(Eh)            E(eV)
   0   2.0000     -15.573782      -423.7842
   1   2.0000     -15.573687      -423.7816
   2   2.0000     -15.573504      -423.7766
   3   2.0000     -11.288083      -307.1643
   4   2.0000     -11.287784      -307.1562
   5   2.0000     -11.286444      -307.1198
   6   2.0000     -11.280143      -306.9483
   7   2.0000     -11.280092      -306.9469
   8   2.0000     -11.279957      -306.9432
   9   2.0000      -1.214978       -33.0612
  10   2.0000      -1.214922       -33.0597
  11   2.0000      -1.214561       -33.0499
  12   2.0000      -1.045999       -28.4631
  13   2.0000      -1.045920       -28.4609
  14   2.0000      -1.045419       -28.4473
  15   2.0000      -0.703257       -19.1366
  16   2.0000      -0.702592       -19.1185
  17   2.0000      -0.701147       -19.0792
  18   2.0000      -0.635768       -17.3001
  19   2.0000      -0.635145       -17.2832
  20   2.0000      -0.634607       -17.2685
  21   2.0000      -0.633766       -17.2456
  22   2.0000      -0.632953       -17.2235
  23   2.0000      -0.631369       -17.1804
  24   2.0000      -0.555870       -15.1260
  25   2.0000      -0.555780       -15.1235
  26   2.0000      -0.555708       -15.1216
  27   2.0000      -0.458384       -12.4733
  28   2.0000      -0.458128       -12.4663
  29   2.0000      -0.457974       -12.4621
  30   2.0000      -0.457973       -12.4621
  31   2.0000      -0.457933       -12.4610
  32   2.0000      -0.457406       -12.4466
  33   0.0000       0.102949         2.8014
  34   0.0000       0.117347         3.1932
  35   0.0000       0.123992         3.3740
  36   0.0000       0.164218         4.4686
  37   0.0000       0.169268         4.6060

MULLIKEN ATOMIC CHARGES
-----------------------
   0 C :   -0.279985
   1 H :    0.171840
   2 H :    0.165551
   3 H :    0.172976
   4 C :   -0.145999
   5 N :   -0.084377
   6 C :   -0.283109
   7 H :    0.173376
   8 H :    0.169136
   9 H :    0.169931
  10 C :   -0.144823
  11 N :   -0.084517
  12 C :   -0.279199
  13 H :    0.171969
  14 H :    0.172198
  15 H :    0.169885
  16 C :   -0.145872
  17 N :   -0.088981
Sum of atomic charges:    0.0000000

LOEWDIN ATOMIC CHARGES
----------------------
   0 C :   -0.285213
   1 H :    0.152265
   2 H :    0.150870
   3 H :    0.151008
   4 C :   -0.220405
   5 N :    0.051478
   6 C :   -0.285414
   7 H :    0.151530
   8 H :    0.150197
   9 H :    0.151912
  10 C :   -0.219711
  11 N :    0.051483
  12 C :   -0.284342
  13 H :    0.152662
  14 H :    0.151399
  15 H :    0.152287
  16 C :   -0.220323
  17 N :    0.048317

  Mayer bond orders larger than 0.100000
B(  0-C ,  1-H ) :   0.9171 B(  0-C ,  2-H ) :   0.9183 B(  0-C ,  3-H ) :   0.9168
B(  0-C ,  4-C ) :   0.9025 B(  4-C ,  5-N ) :   2.8327 B(  6-C ,  7-H ) :   0.9161
B(  6-C ,  8-H ) :   0.9181 B(  6-C ,  9-H ) :   0.9179 B(  6-C , 10-C ) :   0.9023
B( 10-C , 11-N ) :   2.8330 B( 12-C , 13-H ) :   0.9162 B( 12-C , 14-H ) :   0.9171
B( 12-C , 15-H ) :   0.9174 B( 12-C , 16-C ) :   0.9017 B( 16-C , 17-N ) :   2.8349

MP2 TOTAL ENERGY:     -397.447626142 Eh
FINAL SINGLE POINT ENERGY      -397.447626141639

DIPOLE MOMENT
-------------
                                X             Y             Z
Electronic contribution:      0.23584       0.09499       9.42371
Nuclear contribution   :     -0.35882      -0.14193     -13.92580
                        -----------------------------------------
Total Dipole Moment    :     -0.12298      -0.04694      -4.50209
                        -----------------------------------------
Magnitude (a.u.)       :      4.50401
Magnitude (Debye)      :     11.44830

Rotational constants in cm-1:     0.016962     0.006580     0.005206
Rotational constants in MHz :   508.506467   197.258216   156.058599

                             ****ORCA TERMINATED NORMALLY****
TOTAL RUN TIME: 0 days 0 hours 1 minutes 38 seconds 712 msec
