                         Program Version 4.2.0 -  RELEASE  -
|  1> # 12meoh.boyd.etal.mol1,3,11
|  2> ! MP2 def2-TZVP EnGrad TightSCF
|  3>
|  4> %pal
|  5>     nprocs 6
|  6> end
|  7>
|  8> %maxcore 8000
|  9>
| 10> %scf
| 11>     ConvForced true
| 12> end
| 13>
| 14> *xyz 0 1
| 15> O   0.666045193  -2.600503172   0.138317521
| 16> H  -0.227115049  -2.712051982  -0.281868004
| 17> C   0.490021232  -1.851247678   1.341189459
| 18> H   1.466500502  -1.466176022   1.645844415
| 19> H   0.097564527  -2.488364683   2.146902740
| 20> H  -0.187588112  -1.000787499   1.200739571
| 21> O  -3.821405976  -2.118091637   0.596795346
| 22> H  -4.342989117  -1.344303030   0.251966383
| 23> C  -3.443883586  -1.809641231   1.934889393
| 24> H  -2.831494349  -2.637429600   2.305201764
| 25> H  -4.325601146  -1.719364371   2.585074667
| 26> H  -2.858527126  -0.882644791   1.996110694
| 27> O   3.252955559   0.588596242   1.858934315
| 28> H   3.621209177  -0.251605199   1.476063364
| 29> C   4.040824528   0.944288422   2.989639460
| 30> H   3.670521436   1.902573549   3.363847391
| 31> H   5.103749934   1.055868619   2.734277559
| 32> H   3.948540682   0.200279590   3.792908518
| 33> *
| 34>
| 35>                          ****END OF INPUT****

CARTESIAN COORDINATES (ANGSTROEM)
---------------------------------
  O      0.666045   -2.600503    0.138318
  H     -0.227115   -2.712052   -0.281868
  C      0.490021   -1.851248    1.341189
  H      1.466501   -1.466176    1.645844
  H      0.097565   -2.488365    2.146903
  H     -0.187588   -1.000787    1.200740
  O     -3.821406   -2.118092    0.596795
  H     -4.342989   -1.344303    0.251966
  C     -3.443884   -1.809641    1.934889
  H     -2.831494   -2.637430    2.305202
  H     -4.325601   -1.719364    2.585075
  H     -2.858527   -0.882645    1.996111
  O      3.252956    0.588596    1.858934
  H      3.621209   -0.251605    1.476063
  C      4.040825    0.944288    2.989639
  H      3.670521    1.902574    3.363847
  H      5.103750    1.055869    2.734278
  H      3.948541    0.200280    3.792909

 Total Charge           Charge          ....    0
 Multiplicity           Mult            ....    1
 Number of Electrons    NEL             ....   54
 Basis Dimension        Dim             ....  258

ORBITAL ENERGIES
----------------

  NO   OCC          E(Eh)            E(eV)
   0   2.0000     -20.564533      -559.5894
   1   2.0000     -20.559621      -559.4557
   2   2.0000     -20.548560      -559.1548
   3   2.0000     -11.277055      -306.8643
   4   2.0000     -11.273140      -306.7577
   5   2.0000     -11.262812      -306.4767
   6   2.0000      -1.353518       -36.8311
   7   2.0000      -1.348838       -36.7038
   8   2.0000      -1.336814       -36.3766
   9   2.0000      -0.925212       -25.1763
  10   2.0000      -0.921579       -25.0774
  11   2.0000      -0.911058       -24.7911
  12   2.0000      -0.687631       -18.7114
  13   2.0000      -0.683715       -18.6048
  14   2.0000      -0.672843       -18.3090
  15   2.0000      -0.623572       -16.9683
  16   2.0000      -0.619317       -16.8525
  17   2.0000      -0.608510       -16.5584
  18   2.0000      -0.596206       -16.2236
  19   2.0000      -0.593593       -16.1525
  20   2.0000      -0.580262       -15.7897
  21   2.0000      -0.507050       -13.7975
  22   2.0000      -0.501983       -13.6597
  23   2.0000      -0.493230       -13.4215
  24   2.0000      -0.455713       -12.4006
  25   2.0000      -0.450861       -12.2685
  26   2.0000      -0.440529       -11.9874
  27   0.0000       0.119849         3.2613
  28   0.0000       0.135339         3.6828
  29   0.0000       0.158036         4.3004
  30   0.0000       0.164973         4.4891
  31   0.0000       0.176078         4.7913

MULLIKEN ATOMIC CHARGES
-----------------------
   0 O :   -0.506217
   1 H :    0.329103
   2 C :   -0.148861
   3 H :    0.101717
   4 H :    0.097615
   5 H :    0.110215
   6 O :   -0.501033
   7 H :    0.323960
   8 C :   -0.181645
   9 H :    0.129935
  10 H :    0.118493
  11 H :    0.110436
  12 O :   -0.486995
  13 H :    0.329192
  14 C :   -0.178816
  15 H :    0.129005
  16 H :    0.113900
  17 H :    0.109995
Sum of atomic charges:   -0.0000000

LOEWDIN ATOMIC CHARGES
----------------------
   0 O :   -0.114317
   1 H :    0.191944
   2 C :   -0.378759
   3 H :    0.102945
   4 H :    0.092934
   5 H :    0.097348
   6 O :   -0.110765
   7 H :    0.192059
   8 C :   -0.383815
   9 H :    0.110065
  10 H :    0.097387
  11 H :    0.095069
  12 O :   -0.103452
  13 H :    0.190508
  14 C :   -0.381499
  15 H :    0.110170
  16 H :    0.096821
  17 H :    0.095357

  Mayer bond orders larger than 0.100000
B(  0-O ,  1-H ) :   0.8389 B(  0-O ,  2-C ) :   0.9354 B(  2-C ,  3-H ) :   0.9312
B(  2-C ,  4-H ) :   0.9393 B(  2-C ,  5-H ) :   0.9463 B(  6-O ,  7-H ) :   0.8411
B(  6-O ,  8-C ) :   0.9203 B(  8-C ,  9-H ) :   0.9376 B(  8-C , 10-H ) :   0.9373
B(  8-C , 11-H ) :   0.9386 B( 12-O , 13-H ) :   0.8360 B( 12-O , 14-C ) :   0.9313
B( 14-C , 15-H ) :   0.9379 B( 14-C , 16-H ) :   0.9395 B( 14-C , 17-H ) :   0.9369

MP2 TOTAL ENERGY:     -346.523654364 Eh
FINAL SINGLE POINT ENERGY      -346.523654363666

DIPOLE MOMENT
-------------
                                X             Y             Z
Electronic contribution:     -1.09815      -1.71162      -4.56161
Nuclear contribution   :      0.85222       2.24646       5.33978
                        -----------------------------------------
Total Dipole Moment    :     -0.24592       0.53484       0.77817
                        -----------------------------------------
Magnitude (a.u.)       :      0.97574
Magnitude (Debye)      :      2.48014

Rotational constants in cm-1:     0.122255     0.016345     0.014913
Rotational constants in MHz :  3665.123321   490.019324   447.074164

                             ****ORCA TERMINATED NORMALLY****
TOTAL RUN TIME: 0 days 0 hours 1 minutes 2 seconds 390 msec
