                         Program Version 4.2.0 -  RELEASE  -
|  1> # 12h2o.su.etal.mol2,3,4,5,6,7,11
|  2> ! MP2 def2-TZVP EnGrad TightSCF
|  3>
|  4> %pal
|  5>     nprocs 6
|  6> end
|  7>
|  8> %maxcore 8000
|  9>
| 10> %scf
| 11>     ConvForced true
| 12> end
| 13>
| 14> *xyz 0 1
| 15> O   0.923410000  -1.794470000  -2.768350000
| 16> H   1.359750000  -2.338250000  -3.430940000
| 17> H   1.303000000  -0.879480000  -2.865760000
| 18> O  -1.752130000  -0.741530000  -2.896280000
| 19> H  -2.036450000  -0.920500000  -1.984040000
| 20> H  -0.921210000  -1.242140000  -2.984230000
| 21> O  -0.885520000   1.737840000   0.052730000
| 22> H  -1.032320000   2.090180000  -0.841890000
| 23> H  -1.284090000   0.839590000   0.017130000
| 24> O   0.885520000  -1.737840000   0.052730000
| 25> H   1.284090000  -0.839590000   0.017130000
| 26> H   1.032320000  -2.090180000  -0.841890000
| 27> O   1.737840000   0.885520000  -0.052730000
| 28> H   2.090180000   1.032320000   0.841890000
| 29> H   0.839590000   1.284090000  -0.017130000
| 30> O  -1.737840000  -0.885520000  -0.052730000
| 31> H  -2.090180000  -1.032320000   0.841890000
| 32> H  -0.839590000  -1.284090000  -0.017130000
| 33> O  -0.741530000   1.752130000   2.896280000
| 34> H  -0.920500000   2.036450000   1.984040000
| 35> H  -1.242140000   0.921210000   2.984230000
| 36> *
| 37>
| 38>                          ****END OF INPUT****

CARTESIAN COORDINATES (ANGSTROEM)
---------------------------------
  O      0.923410   -1.794470   -2.768350
  H      1.359750   -2.338250   -3.430940
  H      1.303000   -0.879480   -2.865760
  O     -1.752130   -0.741530   -2.896280
  H     -2.036450   -0.920500   -1.984040
  H     -0.921210   -1.242140   -2.984230
  O     -0.885520    1.737840    0.052730
  H     -1.032320    2.090180   -0.841890
  H     -1.284090    0.839590    0.017130
  O      0.885520   -1.737840    0.052730
  H      1.284090   -0.839590    0.017130
  H      1.032320   -2.090180   -0.841890
  O      1.737840    0.885520   -0.052730
  H      2.090180    1.032320    0.841890
  H      0.839590    1.284090   -0.017130
  O     -1.737840   -0.885520   -0.052730
  H     -2.090180   -1.032320    0.841890
  H     -0.839590   -1.284090   -0.017130
  O     -0.741530    1.752130    2.896280
  H     -0.920500    2.036450    1.984040
  H     -1.242140    0.921210    2.984230

 Total Charge           Charge          ....    0
 Multiplicity           Mult            ....    1
 Number of Electrons    NEL             ....   70
 Basis Dimension        Dim             ....  301

ORBITAL ENERGIES
----------------

  NO   OCC          E(Eh)            E(eV)
   0   2.0000     -20.615336      -560.9718
   1   2.0000     -20.586699      -560.1926
   2   2.0000     -20.586308      -560.1819
   3   2.0000     -20.568997      -559.7109
   4   2.0000     -20.551401      -559.2321
   5   2.0000     -20.546290      -559.0930
   6   2.0000     -20.523839      -558.4821
   7   2.0000      -1.395875       -37.9837
   8   2.0000      -1.384919       -37.6856
   9   2.0000      -1.368900       -37.2496
  10   2.0000      -1.355319       -36.8801
  11   2.0000      -1.334240       -36.3065
  12   2.0000      -1.327837       -36.1323
  13   2.0000      -1.308965       -35.6187
  14   2.0000      -0.761245       -20.7145
  15   2.0000      -0.741823       -20.1860
  16   2.0000      -0.739499       -20.1228
  17   2.0000      -0.722617       -19.6634
  18   2.0000      -0.713648       -19.4193
  19   2.0000      -0.698213       -18.9993
  20   2.0000      -0.688705       -18.7406
  21   2.0000      -0.645739       -17.5714
  22   2.0000      -0.628932       -17.1141
  23   2.0000      -0.613800       -16.7023
  24   2.0000      -0.603593       -16.4246
  25   2.0000      -0.587057       -15.9746
  26   2.0000      -0.563705       -15.3392
  27   2.0000      -0.554032       -15.0760
  28   2.0000      -0.538884       -14.6638
  29   2.0000      -0.529871       -14.4185
  30   2.0000      -0.526811       -14.3353
  31   2.0000      -0.511993       -13.9320
  32   2.0000      -0.500432       -13.6175
  33   2.0000      -0.492454       -13.4003
  34   2.0000      -0.473470       -12.8838
  35   0.0000       0.089721         2.4414
  36   0.0000       0.108472         2.9517
  37   0.0000       0.141282         3.8445
  38   0.0000       0.161738         4.4011
  39   0.0000       0.181594         4.9414

MULLIKEN ATOMIC CHARGES
-----------------------
   0 O :   -0.719641
   1 H :    0.365807
   2 H :    0.376825
   3 O :   -0.724142
   4 H :    0.367848
   5 H :    0.344865
   6 O :   -0.742978
   7 H :    0.367368
   8 H :    0.368342
   9 O :   -0.729421
  10 H :    0.358951
  11 H :    0.374254
  12 O :   -0.725698
  13 H :    0.359984
  14 H :    0.371003
  15 O :   -0.737764
  16 H :    0.351528
  17 H :    0.374723
  18 O :   -0.690797
  19 H :    0.372883
  20 H :    0.316060
Sum of atomic charges:    0.0000000

LOEWDIN ATOMIC CHARGES
----------------------
   0 O :   -0.288469
   1 H :    0.168617
   2 H :    0.194083
   3 O :   -0.352595
   4 H :    0.148484
   5 H :    0.141059
   6 O :   -0.295676
   7 H :    0.174339
   8 H :    0.144886
   9 O :   -0.315122
  10 H :    0.140019
  11 H :    0.148189
  12 O :   -0.313502
  13 H :    0.171661
  14 H :    0.144176
  15 O :   -0.294749
  16 H :    0.166495
  17 H :    0.147115
  18 O :   -0.336818
  19 H :    0.151647
  20 H :    0.156162

  Mayer bond orders larger than 0.100000
B(  0-O ,  1-H ) :   0.8310 B(  0-O ,  2-H ) :   0.8157 B(  3-O ,  4-H ) :   0.8260
B(  3-O ,  5-H ) :   0.8325 B(  6-O ,  7-H ) :   0.8285 B(  6-O ,  8-H ) :   0.7559
B(  8-H , 15-O ) :   0.1017 B(  9-O , 10-H ) :   0.7735 B(  9-O , 11-H ) :   0.8128
B(  9-O , 17-H ) :   0.1292 B( 10-H , 12-O ) :   0.1068 B( 12-O , 13-H ) :   0.8357
B( 12-O , 14-H ) :   0.7731 B( 15-O , 16-H ) :   0.8380 B( 15-O , 17-H ) :   0.7374
B( 18-O , 19-H ) :   0.8188 B( 18-O , 20-H ) :   0.8639

MP2 TOTAL ENERGY:     -534.264276718 Eh
FINAL SINGLE POINT ENERGY      -534.264276717813

DIPOLE MOMENT
-------------
                                X             Y             Z
Electronic contribution:      0.13147       0.03765      -0.10895
Nuclear contribution   :      0.56846      -0.71164      -0.63259
                        -----------------------------------------
Total Dipole Moment    :      0.69993      -0.67399      -0.74155
                        -----------------------------------------
Magnitude (a.u.)       :      1.22232
Magnitude (Debye)      :      3.10689

Rotational constants in cm-1:     0.052035     0.024909     0.021492
Rotational constants in MHz :  1559.973148   746.754299   644.326647

                             ****ORCA TERMINATED NORMALLY****
TOTAL RUN TIME: 0 days 0 hours 2 minutes 53 seconds 474 msec
