                         Program Version 4.2.0 -  RELEASE  -
|  1> # 12h2o.su.etal.mol0,1,3,5,6
|  2> ! MP2 def2-TZVP EnGrad TightSCF
|  3>
|  4> %pal
|  5>     nprocs 6
|  6> end
|  7>
|  8> %maxcore 8000
|  9>
| 10> %scf
| 11>     ConvForced true
| 12> end
| 13>
| 14> *xyz 0 1
| 15> O   1.794470000   0.923410000   2.768350000
| 16> H   2.338250000   1.359750000   3.430940000
| 17> H   0.879480000   1.303000000   2.865760000
| 18> O  -1.794470000  -0.923410000   2.768350000
| 19> H  -2.338250000  -1.359750000   3.430940000
| 20> H  -0.879480000  -1.303000000   2.865760000
| 21> O  -1.752130000  -0.741530000  -2.896280000
| 22> H  -2.036450000  -0.920500000  -1.984040000
| 23> H  -0.921210000  -1.242140000  -2.984230000
| 24> O   0.885520000  -1.737840000   0.052730000
| 25> H   1.284090000  -0.839590000   0.017130000
| 26> H   1.032320000  -2.090180000  -0.841890000
| 27> O   1.737840000   0.885520000  -0.052730000
| 28> H   2.090180000   1.032320000   0.841890000
| 29> H   0.839590000   1.284090000  -0.017130000
| 30> *
| 31>
| 32>                          ****END OF INPUT****

CARTESIAN COORDINATES (ANGSTROEM)
---------------------------------
  O      1.794470    0.923410    2.768350
  H      2.338250    1.359750    3.430940
  H      0.879480    1.303000    2.865760
  O     -1.794470   -0.923410    2.768350
  H     -2.338250   -1.359750    3.430940
  H     -0.879480   -1.303000    2.865760
  O     -1.752130   -0.741530   -2.896280
  H     -2.036450   -0.920500   -1.984040
  H     -0.921210   -1.242140   -2.984230
  O      0.885520   -1.737840    0.052730
  H      1.284090   -0.839590    0.017130
  H      1.032320   -2.090180   -0.841890
  O      1.737840    0.885520   -0.052730
  H      2.090180    1.032320    0.841890
  H      0.839590    1.284090   -0.017130

 Total Charge           Charge          ....    0
 Multiplicity           Mult            ....    1
 Number of Electrons    NEL             ....   50
 Basis Dimension        Dim             ....  215

ORBITAL ENERGIES
----------------

  NO   OCC          E(Eh)            E(eV)
   0   2.0000     -20.600003      -560.5546
   1   2.0000     -20.566957      -559.6554
   2   2.0000     -20.560749      -559.4864
   3   2.0000     -20.552318      -559.2570
   4   2.0000     -20.526323      -558.5497
   5   2.0000      -1.378402       -37.5082
   6   2.0000      -1.350305       -36.7437
   7   2.0000      -1.336100       -36.3571
   8   2.0000      -1.331484       -36.2315
   9   2.0000      -1.306696       -35.5570
  10   2.0000      -0.744774       -20.2663
  11   2.0000      -0.713831       -19.4243
  12   2.0000      -0.704111       -19.1598
  13   2.0000      -0.694439       -18.8966
  14   2.0000      -0.681046       -18.5322
  15   2.0000      -0.621046       -16.8995
  16   2.0000      -0.590553       -16.0698
  17   2.0000      -0.573027       -15.5928
  18   2.0000      -0.569486       -15.4965
  19   2.0000      -0.556523       -15.1438
  20   2.0000      -0.538102       -14.6425
  21   2.0000      -0.504432       -13.7263
  22   2.0000      -0.502511       -13.6740
  23   2.0000      -0.496650       -13.5145
  24   2.0000      -0.474062       -12.8999
  25   0.0000       0.091182         2.4812
  26   0.0000       0.120040         3.2665
  27   0.0000       0.138498         3.7687
  28   0.0000       0.160655         4.3717
  29   0.0000       0.186323         5.0701

MULLIKEN ATOMIC CHARGES
-----------------------
   0 O :   -0.699244
   1 H :    0.354818
   2 H :    0.359606
   3 O :   -0.695156
   4 H :    0.337278
   5 H :    0.357132
   6 O :   -0.678950
   7 H :    0.345080
   8 H :    0.331429
   9 O :   -0.715549
  10 H :    0.361664
  11 H :    0.316758
  12 O :   -0.696695
  13 H :    0.378735
  14 H :    0.343095
Sum of atomic charges:   -0.0000000

LOEWDIN ATOMIC CHARGES
----------------------
   0 O :   -0.310025
   1 H :    0.164878
   2 H :    0.186911
   3 O :   -0.343458
   4 H :    0.157484
   5 H :    0.184787
   6 O :   -0.333016
   7 H :    0.167790
   8 H :    0.163014
   9 O :   -0.362174
  10 H :    0.143233
  11 H :    0.152559
  12 O :   -0.298104
  13 H :    0.153347
  14 H :    0.172776

  Mayer bond orders larger than 0.100000
B(  0-O ,  1-H ) :   0.8401 B(  0-O ,  2-H ) :   0.8286 B(  3-O ,  4-H ) :   0.8536
B(  3-O ,  5-H ) :   0.8329 B(  6-O ,  7-H ) :   0.8475 B(  6-O ,  8-H ) :   0.8555
B(  9-O , 10-H ) :   0.7889 B(  9-O , 11-H ) :   0.8634 B( 12-O , 13-H ) :   0.8033
B( 12-O , 14-H ) :   0.8434

MP2 TOTAL ENERGY:     -381.584583122 Eh
FINAL SINGLE POINT ENERGY      -381.584583121781

DIPOLE MOMENT
-------------
                                X             Y             Z
Electronic contribution:      0.05645       0.20084      -0.05262
Nuclear contribution   :      0.45452       0.34268       1.95129
                        -----------------------------------------
Total Dipole Moment    :      0.51097       0.54352       1.89867
                        -----------------------------------------
Magnitude (a.u.)       :      2.03997
Magnitude (Debye)      :      5.18519

Rotational constants in cm-1:     0.058447     0.032581     0.024459
Rotational constants in MHz :  1752.205984   976.745617   733.266541

                             ****ORCA TERMINATED NORMALLY****
TOTAL RUN TIME: 0 days 0 hours 0 minutes 26 seconds 641 msec
