                         Program Version 4.2.0 -  RELEASE  -
|  1> # 12meoh.boyd.etal.mol0,6,7
|  2> ! MP2 def2-TZVP EnGrad TightSCF
|  3>
|  4> %pal
|  5>     nprocs 6
|  6> end
|  7>
|  8> %maxcore 8000
|  9>
| 10> %scf
| 11>     ConvForced true
| 12> end
| 13>
| 14> *xyz 0 1
| 15> O  -1.776108874  -2.741384797  -1.019308298
| 16> H  -2.520094035  -2.452295987  -0.420778302
| 17> C  -2.174025166  -3.952700964  -1.647004581
| 18> H  -1.359803895  -4.272673416  -2.304149236
| 19> H  -3.075973971  -3.808692420  -2.256751112
| 20> H  -2.370225393  -4.752784761  -0.918966137
| 21> O   2.622209273  -1.703002590  -1.445859723
| 22> H   1.828551432  -1.986513781  -0.909754968
| 23> C   2.781117675  -2.615822239  -2.525472890
| 24> H   3.691063626  -2.339003544  -3.065143454
| 25> H   1.934727323  -2.559520367  -3.223226661
| 26> H   2.879948338  -3.653846211  -2.177750170
| 27> O   4.310535586  -1.588322800   0.656128299
| 28> H   3.804372199  -1.630404735  -0.196849819
| 29> C   4.312298137  -2.894980854   1.222112691
| 30> H   4.713177833  -2.819907076   2.237066773
| 31> H   4.957796734  -3.574699304   0.648211180
| 32> H   3.302735989  -3.324433205   1.269756773
| 33> *
| 34>
| 35>                          ****END OF INPUT****

CARTESIAN COORDINATES (ANGSTROEM)
---------------------------------
  O     -1.776109   -2.741385   -1.019308
  H     -2.520094   -2.452296   -0.420778
  C     -2.174025   -3.952701   -1.647005
  H     -1.359804   -4.272673   -2.304149
  H     -3.075974   -3.808692   -2.256751
  H     -2.370225   -4.752785   -0.918966
  O      2.622209   -1.703003   -1.445860
  H      1.828551   -1.986514   -0.909755
  C      2.781118   -2.615822   -2.525473
  H      3.691064   -2.339004   -3.065143
  H      1.934727   -2.559520   -3.223227
  H      2.879948   -3.653846   -2.177750
  O      4.310536   -1.588323    0.656128
  H      3.804372   -1.630405   -0.196850
  C      4.312298   -2.894981    1.222113
  H      4.713178   -2.819907    2.237067
  H      4.957797   -3.574699    0.648211
  H      3.302736   -3.324433    1.269757

 Total Charge           Charge          ....    0
 Multiplicity           Mult            ....    1
 Number of Electrons    NEL             ....   54
 Basis Dimension        Dim             ....  258

ORBITAL ENERGIES
----------------

  NO   OCC          E(Eh)            E(eV)
   0   2.0000     -20.581436      -560.0493
   1   2.0000     -20.570839      -559.7610
   2   2.0000     -20.513473      -558.2000
   3   2.0000     -11.284873      -307.0770
   4   2.0000     -11.282831      -307.0214
   5   2.0000     -11.251562      -306.1706
   6   2.0000      -1.373805       -37.3831
   7   2.0000      -1.359844       -37.0032
   8   2.0000      -1.310498       -35.6605
   9   2.0000      -0.936279       -25.4774
  10   2.0000      -0.930663       -25.3246
  11   2.0000      -0.897056       -24.4101
  12   2.0000      -0.703290       -19.1375
  13   2.0000      -0.694009       -18.8849
  14   2.0000      -0.674083       -18.3427
  15   2.0000      -0.628956       -17.1148
  16   2.0000      -0.627034       -17.0625
  17   2.0000      -0.606209       -16.4958
  18   2.0000      -0.603710       -16.4278
  19   2.0000      -0.592371       -16.1192
  20   2.0000      -0.561754       -15.2861
  21   2.0000      -0.520179       -14.1548
  22   2.0000      -0.512790       -13.9537
  23   2.0000      -0.485627       -13.2146
  24   2.0000      -0.461154       -12.5486
  25   2.0000      -0.453142       -12.3306
  26   2.0000      -0.417056       -11.3487
  27   0.0000       0.108171         2.9435
  28   0.0000       0.134775         3.6674
  29   0.0000       0.154392         4.2012
  30   0.0000       0.174593         4.7509
  31   0.0000       0.177280         4.8240

MULLIKEN ATOMIC CHARGES
-----------------------
   0 O :   -0.503012
   1 H :    0.326977
   2 C :   -0.175104
   3 H :    0.124442
   4 H :    0.115008
   5 H :    0.113792
   6 O :   -0.518082
   7 H :    0.348418
   8 C :   -0.185735
   9 H :    0.142311
  10 H :    0.128055
  11 H :    0.120877
  12 O :   -0.523628
  13 H :    0.353970
  14 C :   -0.177884
  15 H :    0.124844
  16 H :    0.099710
  17 H :    0.085040
Sum of atomic charges:    0.0000000

LOEWDIN ATOMIC CHARGES
----------------------
   0 O :   -0.112687
   1 H :    0.195268
   2 C :   -0.383844
   3 H :    0.108651
   4 H :    0.097308
   5 H :    0.096603
   6 O :   -0.073409
   7 H :    0.204518
   8 C :   -0.375898
   9 H :    0.114809
  10 H :    0.104536
  11 H :    0.099590
  12 O :   -0.119949
  13 H :    0.158281
  14 C :   -0.398001
  15 H :    0.106497
  16 H :    0.091042
  17 H :    0.086686

  Mayer bond orders larger than 0.100000
B(  0-O ,  1-H ) :   0.8387 B(  0-O ,  2-C ) :   0.9219 B(  2-C ,  3-H ) :   0.9379
B(  2-C ,  4-H ) :   0.9396 B(  2-C ,  5-H ) :   0.9380 B(  6-O ,  7-H ) :   0.8219
B(  6-O ,  8-C ) :   0.8777 B(  8-C ,  9-H ) :   0.9398 B(  8-C , 10-H ) :   0.9353
B(  8-C , 11-H ) :   0.9371 B( 12-O , 13-H ) :   0.7907 B( 12-O , 14-C ) :   0.9482
B( 14-C , 15-H ) :   0.9423 B( 14-C , 16-H ) :   0.9406 B( 14-C , 17-H ) :   0.9357

MP2 TOTAL ENERGY:     -346.530317830 Eh
FINAL SINGLE POINT ENERGY      -346.530317829880

DIPOLE MOMENT
-------------
                                X             Y             Z
Electronic contribution:      0.37738       4.48548       1.10783
Nuclear contribution   :     -1.99299      -5.84639      -1.73414
                        -----------------------------------------
Total Dipole Moment    :     -1.61561      -1.36091      -0.62631
                        -----------------------------------------
Magnitude (a.u.)       :      2.20330
Magnitude (Debye)      :      5.60035

Rotational constants in cm-1:     0.105320     0.020987     0.018985
Rotational constants in MHz :  3157.424233   629.172570   569.144971

                             ****ORCA TERMINATED NORMALLY****
TOTAL RUN TIME: 0 days 0 hours 1 minutes 9 seconds 283 msec
