                         Program Version 4.2.0 -  RELEASE  -
|  1> # 12h2o.su.etal.mol0,1,2,3,5,7,9,10,11
|  2> ! MP2 def2-TZVP EnGrad TightSCF
|  3>
|  4> %pal
|  5>     nprocs 6
|  6> end
|  7>
|  8> %maxcore 8000
|  9>
| 10> %scf
| 11>     ConvForced true
| 12> end
| 13>
| 14> *xyz 0 1
| 15> O   1.794470000   0.923410000   2.768350000
| 16> H   2.338250000   1.359750000   3.430940000
| 17> H   0.879480000   1.303000000   2.865760000
| 18> O  -1.794470000  -0.923410000   2.768350000
| 19> H  -2.338250000  -1.359750000   3.430940000
| 20> H  -0.879480000  -1.303000000   2.865760000
| 21> O   0.923410000  -1.794470000  -2.768350000
| 22> H   1.359750000  -2.338250000  -3.430940000
| 23> H   1.303000000  -0.879480000  -2.865760000
| 24> O  -1.752130000  -0.741530000  -2.896280000
| 25> H  -2.036450000  -0.920500000  -1.984040000
| 26> H  -0.921210000  -1.242140000  -2.984230000
| 27> O   0.885520000  -1.737840000   0.052730000
| 28> H   1.284090000  -0.839590000   0.017130000
| 29> H   1.032320000  -2.090180000  -0.841890000
| 30> O  -1.737840000  -0.885520000  -0.052730000
| 31> H  -2.090180000  -1.032320000   0.841890000
| 32> H  -0.839590000  -1.284090000  -0.017130000
| 33> O   0.741530000  -1.752130000   2.896280000
| 34> H   0.920500000  -2.036450000   1.984040000
| 35> H   1.242140000  -0.921210000   2.984230000
| 36> O  -0.923410000   1.794470000  -2.768350000
| 37> H  -1.359750000   2.338250000  -3.430940000
| 38> H  -1.303000000   0.879480000  -2.865760000
| 39> O  -0.741530000   1.752130000   2.896280000
| 40> H  -0.920500000   2.036450000   1.984040000
| 41> H  -1.242140000   0.921210000   2.984230000
| 42> *
| 43>
| 44>                          ****END OF INPUT****

CARTESIAN COORDINATES (ANGSTROEM)
---------------------------------
  O      1.794470    0.923410    2.768350
  H      2.338250    1.359750    3.430940
  H      0.879480    1.303000    2.865760
  O     -1.794470   -0.923410    2.768350
  H     -2.338250   -1.359750    3.430940
  H     -0.879480   -1.303000    2.865760
  O      0.923410   -1.794470   -2.768350
  H      1.359750   -2.338250   -3.430940
  H      1.303000   -0.879480   -2.865760
  O     -1.752130   -0.741530   -2.896280
  H     -2.036450   -0.920500   -1.984040
  H     -0.921210   -1.242140   -2.984230
  O      0.885520   -1.737840    0.052730
  H      1.284090   -0.839590    0.017130
  H      1.032320   -2.090180   -0.841890
  O     -1.737840   -0.885520   -0.052730
  H     -2.090180   -1.032320    0.841890
  H     -0.839590   -1.284090   -0.017130
  O      0.741530   -1.752130    2.896280
  H      0.920500   -2.036450    1.984040
  H      1.242140   -0.921210    2.984230
  O     -0.923410    1.794470   -2.768350
  H     -1.359750    2.338250   -3.430940
  H     -1.303000    0.879480   -2.865760
  O     -0.741530    1.752130    2.896280
  H     -0.920500    2.036450    1.984040
  H     -1.242140    0.921210    2.984230

 Total Charge           Charge          ....    0
 Multiplicity           Mult            ....    1
 Number of Electrons    NEL             ....   90
 Basis Dimension        Dim             ....  387

ORBITAL ENERGIES
----------------

  NO   OCC          E(Eh)            E(eV)
   0   2.0000     -20.627010      -561.2895
   1   2.0000     -20.595800      -560.4402
   2   2.0000     -20.565179      -559.6070
   3   2.0000     -20.561714      -559.5127
   4   2.0000     -20.553286      -559.2833
   5   2.0000     -20.548677      -559.1579
   6   2.0000     -20.538164      -558.8719
   7   2.0000     -20.524605      -558.5029
   8   2.0000     -20.506095      -557.9992
   9   2.0000      -1.407946       -38.3122
  10   2.0000      -1.381721       -37.5985
  11   2.0000      -1.362177       -37.0667
  12   2.0000      -1.351464       -36.7752
  13   2.0000      -1.339319       -36.4447
  14   2.0000      -1.332267       -36.2528
  15   2.0000      -1.326623       -36.0992
  16   2.0000      -1.308923       -35.6176
  17   2.0000      -1.287309       -35.0295
  18   2.0000      -0.773006       -21.0346
  19   2.0000      -0.746339       -20.3089
  20   2.0000      -0.728422       -19.8214
  21   2.0000      -0.718142       -19.5416
  22   2.0000      -0.713803       -19.4236
  23   2.0000      -0.705959       -19.2101
  24   2.0000      -0.701940       -19.1007
  25   2.0000      -0.690357       -18.7856
  26   2.0000      -0.673458       -18.3257
  27   2.0000      -0.652496       -17.7553
  28   2.0000      -0.630437       -17.1551
  29   2.0000      -0.611774       -16.6472
  30   2.0000      -0.600292       -16.3348
  31   2.0000      -0.588144       -16.0042
  32   2.0000      -0.583815       -15.8864
  33   2.0000      -0.567699       -15.4479
  34   2.0000      -0.558557       -15.1991
  35   2.0000      -0.548353       -14.9215
  36   2.0000      -0.530289       -14.4299
  37   2.0000      -0.523654       -14.2493
  38   2.0000      -0.507418       -13.8075
  39   2.0000      -0.505183       -13.7467
  40   2.0000      -0.501053       -13.6343
  41   2.0000      -0.497350       -13.5336
  42   2.0000      -0.480110       -13.0644
  43   2.0000      -0.474095       -12.9008
  44   2.0000      -0.456933       -12.4338
  45   0.0000       0.085704         2.3321
  46   0.0000       0.121997         3.3197
  47   0.0000       0.148868         4.0509
  48   0.0000       0.156821         4.2673
  49   0.0000       0.171777         4.6743

MULLIKEN ATOMIC CHARGES
-----------------------
   0 O :   -0.748154
   1 H :    0.342636
   2 H :    0.381070
   3 O :   -0.756867
   4 H :    0.348793
   5 H :    0.384281
   6 O :   -0.724366
   7 H :    0.370459
   8 H :    0.380265
   9 O :   -0.717109
  10 H :    0.389135
  11 H :    0.352425
  12 O :   -0.727282
  13 H :    0.365875
  14 H :    0.386790
  15 O :   -0.744897
  16 H :    0.368481
  17 H :    0.344334
  18 O :   -0.725006
  19 H :    0.383538
  20 H :    0.370269
  21 O :   -0.745903
  22 H :    0.321325
  23 H :    0.370446
  24 O :   -0.713372
  25 H :    0.364085
  26 H :    0.378753
Sum of atomic charges:    0.0000000

LOEWDIN ATOMIC CHARGES
----------------------
   0 O :   -0.344183
   1 H :    0.156447
   2 H :    0.145357
   3 O :   -0.315706
   4 H :    0.158275
   5 H :    0.146245
   6 O :   -0.287911
   7 H :    0.171036
   8 H :    0.195934
   9 O :   -0.289348
  10 H :    0.158171
  11 H :    0.143627
  12 O :   -0.283703
  13 H :    0.181211
  14 H :    0.156205
  15 O :   -0.347267
  16 H :    0.147944
  17 H :    0.137270
  18 O :   -0.287494
  19 H :    0.154607
  20 H :    0.150426
  21 O :   -0.380359
  22 H :    0.146279
  23 H :    0.141618
  24 O :   -0.283817
  25 H :    0.175275
  26 H :    0.153861

  Mayer bond orders larger than 0.100000
B(  0-O ,  1-H ) :   0.8477 B(  0-O ,  2-H ) :   0.7461 B(  2-H , 24-O ) :   0.1113
B(  3-O ,  4-H ) :   0.8414 B(  3-O ,  5-H ) :   0.7266 B(  5-H , 18-O ) :   0.1234
B(  6-O ,  7-H ) :   0.8288 B(  6-O ,  8-H ) :   0.8121 B(  9-O , 10-H ) :   0.7926
B(  9-O , 11-H ) :   0.8258 B(  9-O , 23-H ) :   0.1047 B( 12-O , 13-H ) :   0.8239
B( 12-O , 14-H ) :   0.7968 B( 15-O , 16-H ) :   0.8119 B( 15-O , 17-H ) :   0.7949
B( 18-O , 19-H ) :   0.8087 B( 18-O , 20-H ) :   0.7889 B( 21-O , 22-H ) :   0.8626
B( 21-O , 23-H ) :   0.7671 B( 24-O , 25-H ) :   0.8323 B( 24-O , 26-H ) :   0.7888

MP2 TOTAL ENERGY:     -686.921356926 Eh
FINAL SINGLE POINT ENERGY      -686.921356925759

DIPOLE MOMENT
-------------
                                X             Y             Z
Electronic contribution:      0.05139      -0.36149       0.16291
Nuclear contribution   :      1.36331      -0.56521      -0.68611
                        -----------------------------------------
Total Dipole Moment    :      1.41470      -0.92670      -0.52320
                        -----------------------------------------
Magnitude (a.u.)       :      1.77027
Magnitude (Debye)      :      4.49968

Rotational constants in cm-1:     0.029092     0.013457     0.012405
Rotational constants in MHz :   872.144936   403.438441   371.898661

                             ****ORCA TERMINATED NORMALLY****
TOTAL RUN TIME: 0 days 0 hours 4 minutes 28 seconds 541 msec
