                         Program Version 4.2.0 -  RELEASE  -
|  1> # 12h2o.su.etal.mol2,3,4,7,9,10
|  2> ! MP2 def2-TZVP EnGrad TightSCF
|  3>
|  4> %pal
|  5>     nprocs 6
|  6> end
|  7>
|  8> %maxcore 8000
|  9>
| 10> %scf
| 11>     ConvForced true
| 12> end
| 13>
| 14> *xyz 0 1
| 15> O   0.923410000  -1.794470000  -2.768350000
| 16> H   1.359750000  -2.338250000  -3.430940000
| 17> H   1.303000000  -0.879480000  -2.865760000
| 18> O  -1.752130000  -0.741530000  -2.896280000
| 19> H  -2.036450000  -0.920500000  -1.984040000
| 20> H  -0.921210000  -1.242140000  -2.984230000
| 21> O  -0.885520000   1.737840000   0.052730000
| 22> H  -1.032320000   2.090180000  -0.841890000
| 23> H  -1.284090000   0.839590000   0.017130000
| 24> O  -1.737840000  -0.885520000  -0.052730000
| 25> H  -2.090180000  -1.032320000   0.841890000
| 26> H  -0.839590000  -1.284090000  -0.017130000
| 27> O   0.741530000  -1.752130000   2.896280000
| 28> H   0.920500000  -2.036450000   1.984040000
| 29> H   1.242140000  -0.921210000   2.984230000
| 30> O  -0.923410000   1.794470000  -2.768350000
| 31> H  -1.359750000   2.338250000  -3.430940000
| 32> H  -1.303000000   0.879480000  -2.865760000
| 33> *
| 34>
| 35>                          ****END OF INPUT****

CARTESIAN COORDINATES (ANGSTROEM)
---------------------------------
  O      0.923410   -1.794470   -2.768350
  H      1.359750   -2.338250   -3.430940
  H      1.303000   -0.879480   -2.865760
  O     -1.752130   -0.741530   -2.896280
  H     -2.036450   -0.920500   -1.984040
  H     -0.921210   -1.242140   -2.984230
  O     -0.885520    1.737840    0.052730
  H     -1.032320    2.090180   -0.841890
  H     -1.284090    0.839590    0.017130
  O     -1.737840   -0.885520   -0.052730
  H     -2.090180   -1.032320    0.841890
  H     -0.839590   -1.284090   -0.017130
  O      0.741530   -1.752130    2.896280
  H      0.920500   -2.036450    1.984040
  H      1.242140   -0.921210    2.984230
  O     -0.923410    1.794470   -2.768350
  H     -1.359750    2.338250   -3.430940
  H     -1.303000    0.879480   -2.865760

 Total Charge           Charge          ....    0
 Multiplicity           Mult            ....    1
 Number of Electrons    NEL             ....   60
 Basis Dimension        Dim             ....  258

ORBITAL ENERGIES
----------------

  NO   OCC          E(Eh)            E(eV)
   0   2.0000     -20.610191      -560.8318
   1   2.0000     -20.605852      -560.7137
   2   2.0000     -20.575435      -559.8860
   3   2.0000     -20.557710      -559.4037
   4   2.0000     -20.531477      -558.6899
   5   2.0000     -20.494342      -557.6794
   6   2.0000      -1.393318       -37.9141
   7   2.0000      -1.383763       -37.6541
   8   2.0000      -1.354389       -36.8548
   9   2.0000      -1.349912       -36.7330
  10   2.0000      -1.315140       -35.7868
  11   2.0000      -1.278664       -34.7942
  12   2.0000      -0.752486       -20.4762
  13   2.0000      -0.750947       -20.4343
  14   2.0000      -0.717610       -19.5272
  15   2.0000      -0.716007       -19.4835
  16   2.0000      -0.698849       -19.0167
  17   2.0000      -0.667616       -18.1668
  18   2.0000      -0.640433       -17.4271
  19   2.0000      -0.619543       -16.8586
  20   2.0000      -0.591788       -16.1034
  21   2.0000      -0.587656       -15.9909
  22   2.0000      -0.574430       -15.6310
  23   2.0000      -0.550727       -14.9860
  24   2.0000      -0.539286       -14.6747
  25   2.0000      -0.519095       -14.1253
  26   2.0000      -0.512193       -13.9375
  27   2.0000      -0.498250       -13.5581
  28   2.0000      -0.476872       -12.9763
  29   2.0000      -0.445400       -12.1200
  30   0.0000       0.081694         2.2230
  31   0.0000       0.109836         2.9888
  32   0.0000       0.147656         4.0179
  33   0.0000       0.159846         4.3496
  34   0.0000       0.172769         4.7013

MULLIKEN ATOMIC CHARGES
-----------------------
   0 O :   -0.711570
   1 H :    0.360047
   2 H :    0.373939
   3 O :   -0.713860
   4 H :    0.382316
   5 H :    0.363832
   6 O :   -0.738091
   7 H :    0.364444
   8 H :    0.332294
   9 O :   -0.707718
  10 H :    0.375803
  11 H :    0.356934
  12 O :   -0.673169
  13 H :    0.326848
  14 H :    0.350740
  15 O :   -0.741090
  16 H :    0.331759
  17 H :    0.366541
Sum of atomic charges:   -0.0000000

LOEWDIN ATOMIC CHARGES
----------------------
   0 O :   -0.314801
   1 H :    0.167192
   2 H :    0.193388
   3 O :   -0.284772
   4 H :    0.155580
   5 H :    0.148689
   6 O :   -0.374390
   7 H :    0.145428
   8 H :    0.131468
   9 O :   -0.276141
  10 H :    0.180431
  11 H :    0.177211
  12 O :   -0.328953
  13 H :    0.159061
  14 H :    0.173117
  15 O :   -0.345390
  16 H :    0.150859
  17 H :    0.142023

  Mayer bond orders larger than 0.100000
B(  0-O ,  1-H ) :   0.8375 B(  0-O ,  2-H ) :   0.8201 B(  3-O ,  4-H ) :   0.8110
B(  3-O ,  5-H ) :   0.8079 B(  3-O , 17-H ) :   0.1060 B(  6-O ,  7-H ) :   0.8176
B(  6-O ,  8-H ) :   0.8281 B(  9-O , 10-H ) :   0.8242 B(  9-O , 11-H ) :   0.8276
B( 12-O , 13-H ) :   0.8578 B( 12-O , 14-H ) :   0.8445 B( 15-O , 16-H ) :   0.8530
B( 15-O , 17-H ) :   0.7561

MP2 TOTAL ENERGY:     -457.918894164 Eh
FINAL SINGLE POINT ENERGY      -457.918894163547

DIPOLE MOMENT
-------------
                                X             Y             Z
Electronic contribution:     -0.10376      -0.40769       0.19166
Nuclear contribution   :      1.02107      -1.01903      -1.26519
                        -----------------------------------------
Total Dipole Moment    :      0.91731      -1.42672      -1.07353
                        -----------------------------------------
Magnitude (a.u.)       :      2.00735
Magnitude (Debye)      :      5.10227

Rotational constants in cm-1:     0.051193     0.027406     0.021865
Rotational constants in MHz :  1534.734710   821.610090   655.490835

                             ****ORCA TERMINATED NORMALLY****
TOTAL RUN TIME: 0 days 0 hours 1 minutes 4 seconds 121 msec
