                         Program Version 4.2.0 -  RELEASE  -
|  1> # 12h2o.su.etal.mol0,2,3,4,9,10,11
|  2> ! MP2 def2-TZVP EnGrad TightSCF
|  3>
|  4> %pal
|  5>     nprocs 6
|  6> end
|  7>
|  8> %maxcore 8000
|  9>
| 10> %scf
| 11>     ConvForced true
| 12> end
| 13>
| 14> *xyz 0 1
| 15> O   1.794470000   0.923410000   2.768350000
| 16> H   2.338250000   1.359750000   3.430940000
| 17> H   0.879480000   1.303000000   2.865760000
| 18> O   0.923410000  -1.794470000  -2.768350000
| 19> H   1.359750000  -2.338250000  -3.430940000
| 20> H   1.303000000  -0.879480000  -2.865760000
| 21> O  -1.752130000  -0.741530000  -2.896280000
| 22> H  -2.036450000  -0.920500000  -1.984040000
| 23> H  -0.921210000  -1.242140000  -2.984230000
| 24> O  -0.885520000   1.737840000   0.052730000
| 25> H  -1.032320000   2.090180000  -0.841890000
| 26> H  -1.284090000   0.839590000   0.017130000
| 27> O   0.741530000  -1.752130000   2.896280000
| 28> H   0.920500000  -2.036450000   1.984040000
| 29> H   1.242140000  -0.921210000   2.984230000
| 30> O  -0.923410000   1.794470000  -2.768350000
| 31> H  -1.359750000   2.338250000  -3.430940000
| 32> H  -1.303000000   0.879480000  -2.865760000
| 33> O  -0.741530000   1.752130000   2.896280000
| 34> H  -0.920500000   2.036450000   1.984040000
| 35> H  -1.242140000   0.921210000   2.984230000
| 36> *
| 37>
| 38>                          ****END OF INPUT****

CARTESIAN COORDINATES (ANGSTROEM)
---------------------------------
  O      1.794470    0.923410    2.768350
  H      2.338250    1.359750    3.430940
  H      0.879480    1.303000    2.865760
  O      0.923410   -1.794470   -2.768350
  H      1.359750   -2.338250   -3.430940
  H      1.303000   -0.879480   -2.865760
  O     -1.752130   -0.741530   -2.896280
  H     -2.036450   -0.920500   -1.984040
  H     -0.921210   -1.242140   -2.984230
  O     -0.885520    1.737840    0.052730
  H     -1.032320    2.090180   -0.841890
  H     -1.284090    0.839590    0.017130
  O      0.741530   -1.752130    2.896280
  H      0.920500   -2.036450    1.984040
  H      1.242140   -0.921210    2.984230
  O     -0.923410    1.794470   -2.768350
  H     -1.359750    2.338250   -3.430940
  H     -1.303000    0.879480   -2.865760
  O     -0.741530    1.752130    2.896280
  H     -0.920500    2.036450    1.984040
  H     -1.242140    0.921210    2.984230

 Total Charge           Charge          ....    0
 Multiplicity           Mult            ....    1
 Number of Electrons    NEL             ....   70
 Basis Dimension        Dim             ....  301

ORBITAL ENERGIES
----------------

  NO   OCC          E(Eh)            E(eV)
   0   2.0000     -20.606043      -560.7189
   1   2.0000     -20.592259      -560.3439
   2   2.0000     -20.562173      -559.5252
   3   2.0000     -20.561581      -559.5091
   4   2.0000     -20.556196      -559.3625
   5   2.0000     -20.527078      -558.5702
   6   2.0000     -20.521908      -558.4295
   7   2.0000      -1.387898       -37.7666
   8   2.0000      -1.377312       -37.4786
   9   2.0000      -1.354298       -36.8523
  10   2.0000      -1.344727       -36.5919
  11   2.0000      -1.334565       -36.3154
  12   2.0000      -1.313024       -35.7292
  13   2.0000      -1.301388       -35.4126
  14   2.0000      -0.754002       -20.5174
  15   2.0000      -0.738686       -20.1007
  16   2.0000      -0.724694       -19.7199
  17   2.0000      -0.717729       -19.5304
  18   2.0000      -0.702879       -19.1263
  19   2.0000      -0.694910       -18.9095
  20   2.0000      -0.671321       -18.2676
  21   2.0000      -0.637416       -17.3450
  22   2.0000      -0.614235       -16.7142
  23   2.0000      -0.605099       -16.4656
  24   2.0000      -0.587817       -15.9953
  25   2.0000      -0.573644       -15.6096
  26   2.0000      -0.558312       -15.1924
  27   2.0000      -0.547497       -14.8982
  28   2.0000      -0.537149       -14.6166
  29   2.0000      -0.528832       -14.3902
  30   2.0000      -0.509294       -13.8586
  31   2.0000      -0.505092       -13.7443
  32   2.0000      -0.497271       -13.5314
  33   2.0000      -0.476969       -12.9790
  34   2.0000      -0.469103       -12.7649
  35   0.0000       0.082758         2.2520
  36   0.0000       0.114894         3.1264
  37   0.0000       0.141871         3.8605
  38   0.0000       0.150935         4.1072
  39   0.0000       0.177693         4.8353

MULLIKEN ATOMIC CHARGES
-----------------------
   0 O :   -0.738315
   1 H :    0.333154
   2 H :    0.384678
   3 O :   -0.705095
   4 H :    0.359752
   5 H :    0.372033
   6 O :   -0.695880
   7 H :    0.346751
   8 H :    0.380687
   9 O :   -0.706409
  10 H :    0.382775
  11 H :    0.314668
  12 O :   -0.717535
  13 H :    0.324967
  14 H :    0.363020
  15 O :   -0.741154
  16 H :    0.340361
  17 H :    0.367908
  18 O :   -0.703316
  19 H :    0.389672
  20 H :    0.347278
Sum of atomic charges:   -0.0000000

LOEWDIN ATOMIC CHARGES
----------------------
   0 O :   -0.340093
   1 H :    0.151930
   2 H :    0.146402
   3 O :   -0.311043
   4 H :    0.167367
   5 H :    0.192972
   6 O :   -0.278198
   7 H :    0.166942
   8 H :    0.156131
   9 O :   -0.324853
  10 H :    0.156260
  11 H :    0.159803
  12 O :   -0.354564
  13 H :    0.157607
  14 H :    0.147628
  15 O :   -0.342267
  16 H :    0.155418
  17 H :    0.142080
  18 O :   -0.278215
  19 H :    0.159734
  20 H :    0.168959

  Mayer bond orders larger than 0.100000
B(  0-O ,  1-H ) :   0.8527 B(  0-O ,  2-H ) :   0.7560 B(  3-O ,  4-H ) :   0.8374
B(  3-O ,  5-H ) :   0.8217 B(  6-O ,  7-H ) :   0.8441 B(  6-O ,  8-H ) :   0.7901
B(  6-O , 17-H ) :   0.1001 B(  9-O , 10-H ) :   0.7939 B(  9-O , 11-H ) :   0.8567
B( 12-O , 13-H ) :   0.8603 B( 12-O , 14-H ) :   0.8009 B( 15-O , 16-H ) :   0.8488
B( 15-O , 17-H ) :   0.7591 B( 18-O , 19-H ) :   0.7942 B( 18-O , 20-H ) :   0.8405

MP2 TOTAL ENERGY:     -534.249671252 Eh
FINAL SINGLE POINT ENERGY      -534.249671252439

DIPOLE MOMENT
-------------
                                X             Y             Z
Electronic contribution:     -0.02349       0.02146      -0.18347
Nuclear contribution   :     -0.30796      -0.34090      -2.09298
                        -----------------------------------------
Total Dipole Moment    :     -0.33145      -0.31944      -2.27644
                        -----------------------------------------
Magnitude (a.u.)       :      2.32252
Magnitude (Debye)      :      5.90338

Rotational constants in cm-1:     0.039411     0.016644     0.013403
Rotational constants in MHz :  1181.500320   498.981948   401.804826

                             ****ORCA TERMINATED NORMALLY****
TOTAL RUN TIME: 0 days 0 hours 2 minutes 9 seconds 225 msec
