                         Program Version 4.2.0 -  RELEASE  -
|  1> # 12h2o.su.etal.mol1,3,4,5,6,8,10
|  2> ! MP2 def2-TZVP EnGrad TightSCF
|  3>
|  4> %pal
|  5>     nprocs 6
|  6> end
|  7>
|  8> %maxcore 8000
|  9>
| 10> %scf
| 11>     ConvForced true
| 12> end
| 13>
| 14> *xyz 0 1
| 15> O  -1.794470000  -0.923410000   2.768350000
| 16> H  -2.338250000  -1.359750000   3.430940000
| 17> H  -0.879480000  -1.303000000   2.865760000
| 18> O  -1.752130000  -0.741530000  -2.896280000
| 19> H  -2.036450000  -0.920500000  -1.984040000
| 20> H  -0.921210000  -1.242140000  -2.984230000
| 21> O  -0.885520000   1.737840000   0.052730000
| 22> H  -1.032320000   2.090180000  -0.841890000
| 23> H  -1.284090000   0.839590000   0.017130000
| 24> O   0.885520000  -1.737840000   0.052730000
| 25> H   1.284090000  -0.839590000   0.017130000
| 26> H   1.032320000  -2.090180000  -0.841890000
| 27> O   1.737840000   0.885520000  -0.052730000
| 28> H   2.090180000   1.032320000   0.841890000
| 29> H   0.839590000   1.284090000  -0.017130000
| 30> O   1.752130000   0.741530000  -2.896280000
| 31> H   2.036450000   0.920500000  -1.984040000
| 32> H   0.921210000   1.242140000  -2.984230000
| 33> O  -0.923410000   1.794470000  -2.768350000
| 34> H  -1.359750000   2.338250000  -3.430940000
| 35> H  -1.303000000   0.879480000  -2.865760000
| 36> *
| 37>
| 38>                          ****END OF INPUT****

CARTESIAN COORDINATES (ANGSTROEM)
---------------------------------
  O     -1.794470   -0.923410    2.768350
  H     -2.338250   -1.359750    3.430940
  H     -0.879480   -1.303000    2.865760
  O     -1.752130   -0.741530   -2.896280
  H     -2.036450   -0.920500   -1.984040
  H     -0.921210   -1.242140   -2.984230
  O     -0.885520    1.737840    0.052730
  H     -1.032320    2.090180   -0.841890
  H     -1.284090    0.839590    0.017130
  O      0.885520   -1.737840    0.052730
  H      1.284090   -0.839590    0.017130
  H      1.032320   -2.090180   -0.841890
  O      1.737840    0.885520   -0.052730
  H      2.090180    1.032320    0.841890
  H      0.839590    1.284090   -0.017130
  O      1.752130    0.741530   -2.896280
  H      2.036450    0.920500   -1.984040
  H      0.921210    1.242140   -2.984230
  O     -0.923410    1.794470   -2.768350
  H     -1.359750    2.338250   -3.430940
  H     -1.303000    0.879480   -2.865760

 Total Charge           Charge          ....    0
 Multiplicity           Mult            ....    1
 Number of Electrons    NEL             ....   70
 Basis Dimension        Dim             ....  301

ORBITAL ENERGIES
----------------

  NO   OCC          E(Eh)            E(eV)
   0   2.0000     -20.613405      -560.9193
   1   2.0000     -20.576518      -559.9155
   2   2.0000     -20.571964      -559.7916
   3   2.0000     -20.571391      -559.7760
   4   2.0000     -20.562179      -559.5253
   5   2.0000     -20.538290      -558.8753
   6   2.0000     -20.515203      -558.2470
   7   2.0000      -1.399969       -38.0951
   8   2.0000      -1.368575       -37.2408
   9   2.0000      -1.360969       -37.0338
  10   2.0000      -1.348009       -36.6812
  11   2.0000      -1.337521       -36.3958
  12   2.0000      -1.318501       -35.8782
  13   2.0000      -1.300182       -35.3798
  14   2.0000      -0.755586       -20.5606
  15   2.0000      -0.744459       -20.2578
  16   2.0000      -0.726077       -19.7575
  17   2.0000      -0.717970       -19.5370
  18   2.0000      -0.705680       -19.2025
  19   2.0000      -0.693218       -18.8634
  20   2.0000      -0.678703       -18.4684
  21   2.0000      -0.645356       -17.5610
  22   2.0000      -0.618348       -16.8261
  23   2.0000      -0.601670       -16.3723
  24   2.0000      -0.589520       -16.0417
  25   2.0000      -0.574608       -15.6359
  26   2.0000      -0.570175       -15.5153
  27   2.0000      -0.550655       -14.9841
  28   2.0000      -0.537688       -14.6312
  29   2.0000      -0.517549       -14.0832
  30   2.0000      -0.514409       -13.9978
  31   2.0000      -0.509288       -13.8584
  32   2.0000      -0.505532       -13.7562
  33   2.0000      -0.486391       -13.2354
  34   2.0000      -0.465098       -12.6560
  35   0.0000       0.084913         2.3106
  36   0.0000       0.126099         3.4313
  37   0.0000       0.140763         3.8304
  38   0.0000       0.144806         3.9404
  39   0.0000       0.155956         4.2438

MULLIKEN ATOMIC CHARGES
-----------------------
   0 O :   -0.691646
   1 H :    0.338122
   2 H :    0.353834
   3 O :   -0.684625
   4 H :    0.361401
   5 H :    0.371532
   6 O :   -0.696478
   7 H :    0.379911
   8 H :    0.346261
   9 O :   -0.722995
  10 H :    0.358582
  11 H :    0.325897
  12 O :   -0.735940
  13 H :    0.354949
  14 H :    0.374221
  15 O :   -0.732720
  16 H :    0.368197
  17 H :    0.347797
  18 O :   -0.752626
  19 H :    0.354378
  20 H :    0.381947
Sum of atomic charges:   -0.0000000

LOEWDIN ATOMIC CHARGES
----------------------
   0 O :   -0.342210
   1 H :    0.157759
   2 H :    0.184557
   3 O :   -0.265512
   4 H :    0.174052
   5 H :    0.180145
   6 O :   -0.292894
   7 H :    0.152540
   8 H :    0.170612
   9 O :   -0.363250
  10 H :    0.140792
  11 H :    0.155411
  12 O :   -0.296523
  13 H :    0.169455
  14 H :    0.147591
  15 O :   -0.355613
  16 H :    0.148847
  17 H :    0.140427
  18 O :   -0.313205
  19 H :    0.161131
  20 H :    0.145889

  Mayer bond orders larger than 0.100000
B(  0-O ,  1-H ) :   0.8532 B(  0-O ,  2-H ) :   0.8367 B(  3-O ,  4-H ) :   0.8334
B(  3-O ,  5-H ) :   0.8231 B(  6-O ,  7-H ) :   0.7973 B(  6-O ,  8-H ) :   0.8364
B(  6-O , 14-H ) :   0.1054 B(  9-O , 10-H ) :   0.7879 B(  9-O , 11-H ) :   0.8580
B( 12-O , 13-H ) :   0.8369 B( 12-O , 14-H ) :   0.7535 B( 15-O , 16-H ) :   0.8237
B( 15-O , 17-H ) :   0.8252 B( 18-O , 19-H ) :   0.8382 B( 18-O , 20-H ) :   0.7488

MP2 TOTAL ENERGY:     -534.250395766 Eh
FINAL SINGLE POINT ENERGY      -534.250395766111

DIPOLE MOMENT
-------------
                                X             Y             Z
Electronic contribution:     -0.28288       0.19332      -0.14403
Nuclear contribution   :     -0.82456      -0.53418       0.59793
                        -----------------------------------------
Total Dipole Moment    :     -1.10744      -0.34086       0.45391
                        -----------------------------------------
Magnitude (a.u.)       :      1.24445
Magnitude (Debye)      :      3.16313

Rotational constants in cm-1:     0.039774     0.023316     0.020988
Rotational constants in MHz :  1192.390602   699.008611   629.194553

                             ****ORCA TERMINATED NORMALLY****
TOTAL RUN TIME: 0 days 0 hours 2 minutes 31 seconds 26 msec
