                         Program Version 4.2.0 -  RELEASE  -
|  1> # 12h2o.su.etal.mol0,1,3,5,8,11
|  2> ! MP2 def2-TZVP EnGrad TightSCF
|  3>
|  4> %pal
|  5>     nprocs 6
|  6> end
|  7>
|  8> %maxcore 8000
|  9>
| 10> %scf
| 11>     ConvForced true
| 12> end
| 13>
| 14> *xyz 0 1
| 15> O   1.794470000   0.923410000   2.768350000
| 16> H   2.338250000   1.359750000   3.430940000
| 17> H   0.879480000   1.303000000   2.865760000
| 18> O  -1.794470000  -0.923410000   2.768350000
| 19> H  -2.338250000  -1.359750000   3.430940000
| 20> H  -0.879480000  -1.303000000   2.865760000
| 21> O  -1.752130000  -0.741530000  -2.896280000
| 22> H  -2.036450000  -0.920500000  -1.984040000
| 23> H  -0.921210000  -1.242140000  -2.984230000
| 24> O   0.885520000  -1.737840000   0.052730000
| 25> H   1.284090000  -0.839590000   0.017130000
| 26> H   1.032320000  -2.090180000  -0.841890000
| 27> O   1.752130000   0.741530000  -2.896280000
| 28> H   2.036450000   0.920500000  -1.984040000
| 29> H   0.921210000   1.242140000  -2.984230000
| 30> O  -0.741530000   1.752130000   2.896280000
| 31> H  -0.920500000   2.036450000   1.984040000
| 32> H  -1.242140000   0.921210000   2.984230000
| 33> *
| 34>
| 35>                          ****END OF INPUT****

CARTESIAN COORDINATES (ANGSTROEM)
---------------------------------
  O      1.794470    0.923410    2.768350
  H      2.338250    1.359750    3.430940
  H      0.879480    1.303000    2.865760
  O     -1.794470   -0.923410    2.768350
  H     -2.338250   -1.359750    3.430940
  H     -0.879480   -1.303000    2.865760
  O     -1.752130   -0.741530   -2.896280
  H     -2.036450   -0.920500   -1.984040
  H     -0.921210   -1.242140   -2.984230
  O      0.885520   -1.737840    0.052730
  H      1.284090   -0.839590    0.017130
  H      1.032320   -2.090180   -0.841890
  O      1.752130    0.741530   -2.896280
  H      2.036450    0.920500   -1.984040
  H      0.921210    1.242140   -2.984230
  O     -0.741530    1.752130    2.896280
  H     -0.920500    2.036450    1.984040
  H     -1.242140    0.921210    2.984230

 Total Charge           Charge          ....    0
 Multiplicity           Mult            ....    1
 Number of Electrons    NEL             ....   60
 Basis Dimension        Dim             ....  258

ORBITAL ENERGIES
----------------

  NO   OCC          E(Eh)            E(eV)
   0   2.0000     -20.592485      -560.3500
   1   2.0000     -20.573936      -559.8453
   2   2.0000     -20.572664      -559.8106
   3   2.0000     -20.568856      -559.7070
   4   2.0000     -20.564157      -559.5792
   5   2.0000     -20.524475      -558.4994
   6   2.0000      -1.372602       -37.3504
   7   2.0000      -1.360275       -37.0150
   8   2.0000      -1.351716       -36.7821
   9   2.0000      -1.344553       -36.5871
  10   2.0000      -1.343186       -36.5500
  11   2.0000      -1.306238       -35.5446
  12   2.0000      -0.739332       -20.1182
  13   2.0000      -0.721717       -19.6389
  14   2.0000      -0.714523       -19.4432
  15   2.0000      -0.706469       -19.2240
  16   2.0000      -0.705573       -19.1996
  17   2.0000      -0.693580       -18.8733
  18   2.0000      -0.619551       -16.8588
  19   2.0000      -0.593711       -16.1557
  20   2.0000      -0.589514       -16.0415
  21   2.0000      -0.584869       -15.9151
  22   2.0000      -0.580997       -15.8097
  23   2.0000      -0.554793       -15.0967
  24   2.0000      -0.533303       -14.5119
  25   2.0000      -0.517830       -14.0909
  26   2.0000      -0.511176       -13.9098
  27   2.0000      -0.507258       -13.8032
  28   2.0000      -0.506653       -13.7867
  29   2.0000      -0.475299       -12.9335
  30   0.0000       0.083629         2.2757
  31   0.0000       0.113472         3.0877
  32   0.0000       0.135377         3.6838
  33   0.0000       0.150912         4.1065
  34   0.0000       0.159108         4.3295

MULLIKEN ATOMIC CHARGES
-----------------------
   0 O :   -0.740355
   1 H :    0.327618
   2 H :    0.364318
   3 O :   -0.706675
   4 H :    0.353772
   5 H :    0.377863
   6 O :   -0.681661
   7 H :    0.342722
   8 H :    0.337651
   9 O :   -0.678637
  10 H :    0.342111
  11 H :    0.334339
  12 O :   -0.679896
  13 H :    0.332543
  14 H :    0.348882
  15 O :   -0.699294
  16 H :    0.349534
  17 H :    0.375166
Sum of atomic charges:   -0.0000000

LOEWDIN ATOMIC CHARGES
----------------------
   0 O :   -0.376969
   1 H :    0.149823
   2 H :    0.140713
   3 O :   -0.312014
   4 H :    0.164576
   5 H :    0.194414
   6 O :   -0.331899
   7 H :    0.166801
   8 H :    0.163698
   9 O :   -0.334847
  10 H :    0.171341
  11 H :    0.162211
  12 O :   -0.329760
  13 H :    0.161455
  14 H :    0.169867
  15 O :   -0.283022
  16 H :    0.169598
  17 H :    0.154015

  Mayer bond orders larger than 0.100000
B(  0-O ,  1-H ) :   0.8591 B(  0-O ,  2-H ) :   0.7751 B(  3-O ,  4-H ) :   0.8407
B(  3-O ,  5-H ) :   0.8163 B(  6-O ,  7-H ) :   0.8487 B(  6-O ,  8-H ) :   0.8492
B(  9-O , 10-H ) :   0.8430 B(  9-O , 11-H ) :   0.8527 B( 12-O , 13-H ) :   0.8536
B( 12-O , 14-H ) :   0.8423 B( 15-O , 16-H ) :   0.8429 B( 15-O , 17-H ) :   0.7945

MP2 TOTAL ENERGY:     -457.905412175 Eh
FINAL SINGLE POINT ENERGY      -457.905412174798

DIPOLE MOMENT
-------------
                                X             Y             Z
Electronic contribution:     -0.36072      -0.11961      -0.15332
Nuclear contribution   :     -0.11171      -0.00057       1.17702
                        -----------------------------------------
Total Dipole Moment    :     -0.47243      -0.12018       1.02369
                        -----------------------------------------
Magnitude (a.u.)       :      1.13383
Magnitude (Debye)      :      2.88197

Rotational constants in cm-1:     0.042293     0.020065     0.016855
Rotational constants in MHz :  1267.903598   601.544970   505.305866

                             ****ORCA TERMINATED NORMALLY****
TOTAL RUN TIME: 0 days 0 hours 0 minutes 49 seconds 18 msec
