                         Program Version 4.2.0 -  RELEASE  -
|  1> # 12h2o.su.etal.mol4,7,8,9,10,11
|  2> ! MP2 def2-TZVP EnGrad TightSCF
|  3>
|  4> %pal
|  5>     nprocs 6
|  6> end
|  7>
|  8> %maxcore 8000
|  9>
| 10> %scf
| 11>     ConvForced true
| 12> end
| 13>
| 14> *xyz 0 1
| 15> O  -0.885520000   1.737840000   0.052730000
| 16> H  -1.032320000   2.090180000  -0.841890000
| 17> H  -1.284090000   0.839590000   0.017130000
| 18> O  -1.737840000  -0.885520000  -0.052730000
| 19> H  -2.090180000  -1.032320000   0.841890000
| 20> H  -0.839590000  -1.284090000  -0.017130000
| 21> O   1.752130000   0.741530000  -2.896280000
| 22> H   2.036450000   0.920500000  -1.984040000
| 23> H   0.921210000   1.242140000  -2.984230000
| 24> O   0.741530000  -1.752130000   2.896280000
| 25> H   0.920500000  -2.036450000   1.984040000
| 26> H   1.242140000  -0.921210000   2.984230000
| 27> O  -0.923410000   1.794470000  -2.768350000
| 28> H  -1.359750000   2.338250000  -3.430940000
| 29> H  -1.303000000   0.879480000  -2.865760000
| 30> O  -0.741530000   1.752130000   2.896280000
| 31> H  -0.920500000   2.036450000   1.984040000
| 32> H  -1.242140000   0.921210000   2.984230000
| 33> *
| 34>
| 35>                          ****END OF INPUT****

CARTESIAN COORDINATES (ANGSTROEM)
---------------------------------
  O     -0.885520    1.737840    0.052730
  H     -1.032320    2.090180   -0.841890
  H     -1.284090    0.839590    0.017130
  O     -1.737840   -0.885520   -0.052730
  H     -2.090180   -1.032320    0.841890
  H     -0.839590   -1.284090   -0.017130
  O      1.752130    0.741530   -2.896280
  H      2.036450    0.920500   -1.984040
  H      0.921210    1.242140   -2.984230
  O      0.741530   -1.752130    2.896280
  H      0.920500   -2.036450    1.984040
  H      1.242140   -0.921210    2.984230
  O     -0.923410    1.794470   -2.768350
  H     -1.359750    2.338250   -3.430940
  H     -1.303000    0.879480   -2.865760
  O     -0.741530    1.752130    2.896280
  H     -0.920500    2.036450    1.984040
  H     -1.242140    0.921210    2.984230

 Total Charge           Charge          ....    0
 Multiplicity           Mult            ....    1
 Number of Electrons    NEL             ....   60
 Basis Dimension        Dim             ....  258

ORBITAL ENERGIES
----------------

  NO   OCC          E(Eh)            E(eV)
   0   2.0000     -20.616736      -561.0099
   1   2.0000     -20.613870      -560.9319
   2   2.0000     -20.575929      -559.8995
   3   2.0000     -20.541413      -558.9603
   4   2.0000     -20.540093      -558.9244
   5   2.0000     -20.530053      -558.6512
   6   2.0000      -1.397131       -38.0179
   7   2.0000      -1.394188       -37.9378
   8   2.0000      -1.354858       -36.8676
   9   2.0000      -1.328043       -36.1379
  10   2.0000      -1.323853       -36.0239
  11   2.0000      -1.310492       -35.6603
  12   2.0000      -0.762624       -20.7521
  13   2.0000      -0.752386       -20.4735
  14   2.0000      -0.717480       -19.5236
  15   2.0000      -0.709945       -19.3186
  16   2.0000      -0.694740       -18.9048
  17   2.0000      -0.679610       -18.4931
  18   2.0000      -0.641935       -17.4679
  19   2.0000      -0.628945       -17.1145
  20   2.0000      -0.593005       -16.1365
  21   2.0000      -0.592237       -16.1156
  22   2.0000      -0.569099       -15.4860
  23   2.0000      -0.552176       -15.0255
  24   2.0000      -0.546117       -14.8606
  25   2.0000      -0.530319       -14.4307
  26   2.0000      -0.519901       -14.1472
  27   2.0000      -0.491970       -13.3872
  28   2.0000      -0.488657       -13.2970
  29   2.0000      -0.475909       -12.9501
  30   0.0000       0.072925         1.9844
  31   0.0000       0.101938         2.7739
  32   0.0000       0.134151         3.6504
  33   0.0000       0.156004         4.2451
  34   0.0000       0.167099         4.5470

MULLIKEN ATOMIC CHARGES
-----------------------
   0 O :   -0.739670
   1 H :    0.366623
   2 H :    0.336571
   3 O :   -0.681196
   4 H :    0.363216
   5 H :    0.354466
   6 O :   -0.706210
   7 H :    0.333614
   8 H :    0.356410
   9 O :   -0.678666
  10 H :    0.323491
  11 H :    0.356966
  12 O :   -0.714451
  13 H :    0.364863
  14 H :    0.373813
  15 O :   -0.697984
  16 H :    0.376124
  17 H :    0.312019
Sum of atomic charges:   -0.0000000

LOEWDIN ATOMIC CHARGES
----------------------
   0 O :   -0.346677
   1 H :    0.147245
   2 H :    0.136119
   3 O :   -0.288586
   4 H :    0.174516
   5 H :    0.177343
   6 O :   -0.347583
   7 H :    0.161776
   8 H :    0.145742
   9 O :   -0.329279
  10 H :    0.157565
  11 H :    0.173621
  12 O :   -0.286741
  13 H :    0.168296
  14 H :    0.192666
  15 O :   -0.341231
  16 H :    0.153625
  17 H :    0.151581

  Mayer bond orders larger than 0.100000
B(  0-O ,  1-H ) :   0.8206 B(  0-O ,  2-H ) :   0.7952 B(  3-O ,  4-H ) :   0.8333
B(  3-O ,  5-H ) :   0.8344 B(  6-O ,  7-H ) :   0.8544 B(  6-O ,  8-H ) :   0.8248
B(  9-O , 10-H ) :   0.8591 B(  9-O , 11-H ) :   0.8365 B( 12-O , 13-H ) :   0.8316
B( 12-O , 14-H ) :   0.8188 B( 15-O , 16-H ) :   0.8102 B( 15-O , 17-H ) :   0.8642

MP2 TOTAL ENERGY:     -457.910262034 Eh
FINAL SINGLE POINT ENERGY      -457.910262033881

DIPOLE MOMENT
-------------
                                X             Y             Z
Electronic contribution:     -0.02729       0.01206      -0.09943
Nuclear contribution   :     -1.13367      -0.65166      -1.31870
                        -----------------------------------------
Total Dipole Moment    :     -1.16096      -0.63960      -1.41813
                        -----------------------------------------
Magnitude (a.u.)       :      1.94113
Magnitude (Debye)      :      4.93397

Rotational constants in cm-1:     0.052400     0.022708     0.020158
Rotational constants in MHz :  1570.923195   680.774708   604.335712

                             ****ORCA TERMINATED NORMALLY****
TOTAL RUN TIME: 0 days 0 hours 1 minutes 7 seconds 266 msec
