                         Program Version 4.2.0 -  RELEASE  -
|  1> # 12mecn.remya.etal.2.mol0,4
|  2> ! MP2 def2-TZVP EnGrad TightSCF
|  3>
|  4> %pal
|  5>     nprocs 6
|  6> end
|  7>
|  8> %maxcore 8000
|  9>
| 10> %scf
| 11>     ConvForced true
| 12> end
| 13>
| 14> *xyz 0 1
| 15> C  -0.869520000  -3.929380000   1.700199000
| 16> H  -0.057420000  -3.268850000   2.015352000
| 17> H  -0.697530000  -4.930670000   2.101524000
| 18> H  -1.821490000  -3.546590000   2.077146000
| 19> C  -0.916080000  -3.969960000   0.256749000
| 20> N  -0.955390000  -3.995980000  -0.909290000
| 21> C  -1.509690000  -0.693960000  -1.610140000
| 22> H  -1.327010000  -1.692700000  -2.017370000
| 23> H  -0.742170000  -0.000650000  -1.964400000
| 24> H  -2.491920000  -0.334310000  -1.929350000
| 25> C  -1.473570000  -0.748120000  -0.167200000
| 26> N  -1.447490000  -0.793720000   0.998938000
| 27> *
| 28>
| 29>                          ****END OF INPUT****

CARTESIAN COORDINATES (ANGSTROEM)
---------------------------------
  C     -0.869520   -3.929380    1.700199
  H     -0.057420   -3.268850    2.015352
  H     -0.697530   -4.930670    2.101524
  H     -1.821490   -3.546590    2.077146
  C     -0.916080   -3.969960    0.256749
  N     -0.955390   -3.995980   -0.909290
  C     -1.509690   -0.693960   -1.610140
  H     -1.327010   -1.692700   -2.017370
  H     -0.742170   -0.000650   -1.964400
  H     -2.491920   -0.334310   -1.929350
  C     -1.473570   -0.748120   -0.167200
  N     -1.447490   -0.793720    0.998938

 Total Charge           Charge          ....    0
 Multiplicity           Mult            ....    1
 Number of Electrons    NEL             ....   44
 Basis Dimension        Dim             ....  222

ORBITAL ENERGIES
----------------

  NO   OCC          E(Eh)            E(eV)
   0   2.0000     -15.570828      -423.7038
   1   2.0000     -15.569992      -423.6810
   2   2.0000     -11.282321      -307.0076
   3   2.0000     -11.282023      -306.9994
   4   2.0000     -11.272950      -306.7526
   5   2.0000     -11.272614      -306.7434
   6   2.0000      -1.216999       -33.1162
   7   2.0000      -1.212732       -33.0001
   8   2.0000      -1.036841       -28.2139
   9   2.0000      -1.034094       -28.1391
  10   2.0000      -0.693884       -18.8815
  11   2.0000      -0.690533       -18.7904
  12   2.0000      -0.629931       -17.1413
  13   2.0000      -0.623701       -16.9718
  14   2.0000      -0.620596       -16.8873
  15   2.0000      -0.616213       -16.7680
  16   2.0000      -0.558334       -15.1930
  17   2.0000      -0.555515       -15.1163
  18   2.0000      -0.462763       -12.5924
  19   2.0000      -0.458013       -12.4632
  20   2.0000      -0.456329       -12.4173
  21   2.0000      -0.451699       -12.2913
  22   0.0000       0.125699         3.4204
  23   0.0000       0.144221         3.9245
  24   0.0000       0.173922         4.7327
  25   0.0000       0.176647         4.8068
  26   0.0000       0.180474         4.9109

MULLIKEN ATOMIC CHARGES
-----------------------
   0 C :   -0.258224
   1 H :    0.176339
   2 H :    0.171330
   3 H :    0.178035
   4 C :   -0.120403
   5 N :   -0.146515
   6 C :   -0.285405
   7 H :    0.204852
   8 H :    0.166392
   9 H :    0.166480
  10 C :   -0.114433
  11 N :   -0.138447
Sum of atomic charges:    0.0000000

LOEWDIN ATOMIC CHARGES
----------------------
   0 C :   -0.283947
   1 H :    0.156708
   2 H :    0.148943
   3 H :    0.157022
   4 C :   -0.210380
   5 N :    0.028662
   6 C :   -0.281641
   7 H :    0.157122
   8 H :    0.151814
   9 H :    0.152401
  10 C :   -0.210676
  11 N :    0.033972

  Mayer bond orders larger than 0.100000
B(  0-C ,  1-H ) :   0.9125 B(  0-C ,  2-H ) :   0.9106 B(  0-C ,  3-H ) :   0.9121
B(  0-C ,  4-C ) :   0.9123 B(  4-C ,  5-N ) :   2.7803 B(  6-C ,  7-H ) :   0.9029
B(  6-C ,  8-H ) :   0.9160 B(  6-C ,  9-H ) :   0.9157 B(  6-C , 10-C ) :   0.8982
B( 10-C , 11-N ) :   2.7959

MP2 TOTAL ENERGY:     -264.975902718 Eh
FINAL SINGLE POINT ENERGY      -264.975902718029

DIPOLE MOMENT
-------------
                                X             Y             Z
Electronic contribution:     -0.01815      -0.22580      -0.00034
Nuclear contribution   :      0.03134       0.32095       0.01187
                        -----------------------------------------
Total Dipole Moment    :      0.01319       0.09516       0.01153
                        -----------------------------------------
Magnitude (a.u.)       :      0.09675
Magnitude (Debye)      :      0.24593

Rotational constants in cm-1:     0.168731     0.068405     0.049595
Rotational constants in MHz :  5058.439487  2050.728459  1486.805755

                             ****ORCA TERMINATED NORMALLY****
TOTAL RUN TIME: 0 days 0 hours 1 minutes 13 seconds 734 msec
