                         Program Version 4.2.0 -  RELEASE  -
|  1> # 12h2o.su.etal.mol0,1,2,8,9
|  2> ! MP2 def2-TZVP EnGrad TightSCF
|  3>
|  4> %pal
|  5>     nprocs 6
|  6> end
|  7>
|  8> %maxcore 8000
|  9>
| 10> %scf
| 11>     ConvForced true
| 12> end
| 13>
| 14> *xyz 0 1
| 15> O   1.794470000   0.923410000   2.768350000
| 16> H   2.338250000   1.359750000   3.430940000
| 17> H   0.879480000   1.303000000   2.865760000
| 18> O  -1.794470000  -0.923410000   2.768350000
| 19> H  -2.338250000  -1.359750000   3.430940000
| 20> H  -0.879480000  -1.303000000   2.865760000
| 21> O   0.923410000  -1.794470000  -2.768350000
| 22> H   1.359750000  -2.338250000  -3.430940000
| 23> H   1.303000000  -0.879480000  -2.865760000
| 24> O   1.752130000   0.741530000  -2.896280000
| 25> H   2.036450000   0.920500000  -1.984040000
| 26> H   0.921210000   1.242140000  -2.984230000
| 27> O   0.741530000  -1.752130000   2.896280000
| 28> H   0.920500000  -2.036450000   1.984040000
| 29> H   1.242140000  -0.921210000   2.984230000
| 30> *
| 31>
| 32>                          ****END OF INPUT****

CARTESIAN COORDINATES (ANGSTROEM)
---------------------------------
  O      1.794470    0.923410    2.768350
  H      2.338250    1.359750    3.430940
  H      0.879480    1.303000    2.865760
  O     -1.794470   -0.923410    2.768350
  H     -2.338250   -1.359750    3.430940
  H     -0.879480   -1.303000    2.865760
  O      0.923410   -1.794470   -2.768350
  H      1.359750   -2.338250   -3.430940
  H      1.303000   -0.879480   -2.865760
  O      1.752130    0.741530   -2.896280
  H      2.036450    0.920500   -1.984040
  H      0.921210    1.242140   -2.984230
  O      0.741530   -1.752130    2.896280
  H      0.920500   -2.036450    1.984040
  H      1.242140   -0.921210    2.984230

 Total Charge           Charge          ....    0
 Multiplicity           Mult            ....    1
 Number of Electrons    NEL             ....   50
 Basis Dimension        Dim             ....  215

ORBITAL ENERGIES
----------------

  NO   OCC          E(Eh)            E(eV)
   0   2.0000     -20.599840      -560.5501
   1   2.0000     -20.597839      -560.4957
   2   2.0000     -20.565224      -559.6082
   3   2.0000     -20.516786      -558.2901
   4   2.0000     -20.512159      -558.1642
   5   2.0000      -1.383129       -37.6369
   6   2.0000      -1.378130       -37.5008
   7   2.0000      -1.353441       -36.8290
   8   2.0000      -1.299196       -35.3529
   9   2.0000      -1.294146       -35.2155
  10   2.0000      -0.745136       -20.2762
  11   2.0000      -0.740665       -20.1545
  12   2.0000      -0.715394       -19.4669
  13   2.0000      -0.690516       -18.7899
  14   2.0000      -0.682026       -18.5589
  15   2.0000      -0.620880       -16.8950
  16   2.0000      -0.617717       -16.8089
  17   2.0000      -0.590289       -16.0626
  18   2.0000      -0.557698       -15.1757
  19   2.0000      -0.547426       -14.8962
  20   2.0000      -0.536016       -14.5857
  21   2.0000      -0.513967       -13.9858
  22   2.0000      -0.496678       -13.5153
  23   2.0000      -0.467104       -12.7105
  24   2.0000      -0.462865       -12.5952
  25   0.0000       0.100000         2.7211
  26   0.0000       0.115090         3.1318
  27   0.0000       0.155494         4.2312
  28   0.0000       0.174673         4.7531
  29   0.0000       0.180243         4.9046

MULLIKEN ATOMIC CHARGES
-----------------------
   0 O :   -0.705111
   1 H :    0.356373
   2 H :    0.370882
   3 O :   -0.738076
   4 H :    0.323937
   5 H :    0.364850
   6 O :   -0.730107
   7 H :    0.324740
   8 H :    0.362817
   9 O :   -0.678145
  10 H :    0.359702
  11 H :    0.361065
  12 O :   -0.702513
  13 H :    0.359028
  14 H :    0.370558
Sum of atomic charges:   -0.0000000

LOEWDIN ATOMIC CHARGES
----------------------
   0 O :   -0.312394
   1 H :    0.165479
   2 H :    0.192320
   3 O :   -0.376225
   4 H :    0.147734
   5 H :    0.140852
   6 O :   -0.371654
   7 H :    0.148297
   8 H :    0.141215
   9 O :   -0.271017
  10 H :    0.175541
  11 H :    0.177660
  12 O :   -0.283762
  13 H :    0.173773
  14 H :    0.152180

  Mayer bond orders larger than 0.100000
B(  0-O ,  1-H ) :   0.8394 B(  0-O ,  2-H ) :   0.8221 B(  3-O ,  4-H ) :   0.8613
B(  3-O ,  5-H ) :   0.7777 B(  6-O ,  7-H ) :   0.8609 B(  6-O ,  8-H ) :   0.7906
B(  9-O , 10-H ) :   0.8362 B(  9-O , 11-H ) :   0.8351 B( 12-O , 13-H ) :   0.8370
B( 12-O , 14-H ) :   0.8019

MP2 TOTAL ENERGY:     -381.591117731 Eh
FINAL SINGLE POINT ENERGY      -381.591117731460

DIPOLE MOMENT
-------------
                                X             Y             Z
Electronic contribution:      0.34130       0.19729      -0.10259
Nuclear contribution   :      0.78984       1.32960       0.63259
                        -----------------------------------------
Total Dipole Moment    :      1.13113       1.52689       0.53000
                        -----------------------------------------
Magnitude (a.u.)       :      1.97275
Magnitude (Debye)      :      5.01434

Rotational constants in cm-1:     0.066381     0.021281     0.018448
Rotational constants in MHz :  1990.044165   637.983486   553.064723

                             ****ORCA TERMINATED NORMALLY****
TOTAL RUN TIME: 0 days 0 hours 0 minutes 27 seconds 404 msec
