                         Program Version 4.2.0 -  RELEASE  -
|  1> # 12h2o.su.etal.mol0,2,3,5,6,7,8,10,11
|  2> ! MP2 def2-TZVP EnGrad TightSCF
|  3>
|  4> %pal
|  5>     nprocs 6
|  6> end
|  7>
|  8> %maxcore 8000
|  9>
| 10> %scf
| 11>     ConvForced true
| 12> end
| 13>
| 14> *xyz 0 1
| 15> O   1.794470000   0.923410000   2.768350000
| 16> H   2.338250000   1.359750000   3.430940000
| 17> H   0.879480000   1.303000000   2.865760000
| 18> O   0.923410000  -1.794470000  -2.768350000
| 19> H   1.359750000  -2.338250000  -3.430940000
| 20> H   1.303000000  -0.879480000  -2.865760000
| 21> O  -1.752130000  -0.741530000  -2.896280000
| 22> H  -2.036450000  -0.920500000  -1.984040000
| 23> H  -0.921210000  -1.242140000  -2.984230000
| 24> O   0.885520000  -1.737840000   0.052730000
| 25> H   1.284090000  -0.839590000   0.017130000
| 26> H   1.032320000  -2.090180000  -0.841890000
| 27> O   1.737840000   0.885520000  -0.052730000
| 28> H   2.090180000   1.032320000   0.841890000
| 29> H   0.839590000   1.284090000  -0.017130000
| 30> O  -1.737840000  -0.885520000  -0.052730000
| 31> H  -2.090180000  -1.032320000   0.841890000
| 32> H  -0.839590000  -1.284090000  -0.017130000
| 33> O   1.752130000   0.741530000  -2.896280000
| 34> H   2.036450000   0.920500000  -1.984040000
| 35> H   0.921210000   1.242140000  -2.984230000
| 36> O  -0.923410000   1.794470000  -2.768350000
| 37> H  -1.359750000   2.338250000  -3.430940000
| 38> H  -1.303000000   0.879480000  -2.865760000
| 39> O  -0.741530000   1.752130000   2.896280000
| 40> H  -0.920500000   2.036450000   1.984040000
| 41> H  -1.242140000   0.921210000   2.984230000
| 42> *
| 43>
| 44>                          ****END OF INPUT****

CARTESIAN COORDINATES (ANGSTROEM)
---------------------------------
  O      1.794470    0.923410    2.768350
  H      2.338250    1.359750    3.430940
  H      0.879480    1.303000    2.865760
  O      0.923410   -1.794470   -2.768350
  H      1.359750   -2.338250   -3.430940
  H      1.303000   -0.879480   -2.865760
  O     -1.752130   -0.741530   -2.896280
  H     -2.036450   -0.920500   -1.984040
  H     -0.921210   -1.242140   -2.984230
  O      0.885520   -1.737840    0.052730
  H      1.284090   -0.839590    0.017130
  H      1.032320   -2.090180   -0.841890
  O      1.737840    0.885520   -0.052730
  H      2.090180    1.032320    0.841890
  H      0.839590    1.284090   -0.017130
  O     -1.737840   -0.885520   -0.052730
  H     -2.090180   -1.032320    0.841890
  H     -0.839590   -1.284090   -0.017130
  O      1.752130    0.741530   -2.896280
  H      2.036450    0.920500   -1.984040
  H      0.921210    1.242140   -2.984230
  O     -0.923410    1.794470   -2.768350
  H     -1.359750    2.338250   -3.430940
  H     -1.303000    0.879480   -2.865760
  O     -0.741530    1.752130    2.896280
  H     -0.920500    2.036450    1.984040
  H     -1.242140    0.921210    2.984230

 Total Charge           Charge          ....    0
 Multiplicity           Mult            ....    1
 Number of Electrons    NEL             ....   90
 Basis Dimension        Dim             ....  387

ORBITAL ENERGIES
----------------

  NO   OCC          E(Eh)            E(eV)
   0   2.0000     -20.618663      -561.0623
   1   2.0000     -20.585983      -560.1731
   2   2.0000     -20.561107      -559.4962
   3   2.0000     -20.558003      -559.4117
   4   2.0000     -20.555063      -559.3317
   5   2.0000     -20.547642      -559.1298
   6   2.0000     -20.540376      -558.9320
   7   2.0000     -20.539591      -558.9107
   8   2.0000     -20.532996      -558.7312
   9   2.0000      -1.404228       -38.2110
  10   2.0000      -1.374655       -37.4063
  11   2.0000      -1.354706       -36.8634
  12   2.0000      -1.343576       -36.5606
  13   2.0000      -1.343349       -36.5544
  14   2.0000      -1.336021       -36.3550
  15   2.0000      -1.331953       -36.2443
  16   2.0000      -1.318075       -35.8666
  17   2.0000      -1.313720       -35.7481
  18   2.0000      -0.761195       -20.7132
  19   2.0000      -0.736590       -20.0436
  20   2.0000      -0.729909       -19.8618
  21   2.0000      -0.723316       -19.6824
  22   2.0000      -0.710408       -19.3312
  23   2.0000      -0.710133       -19.3237
  24   2.0000      -0.700108       -19.0509
  25   2.0000      -0.696342       -18.9484
  26   2.0000      -0.693361       -18.8673
  27   2.0000      -0.645372       -17.5615
  28   2.0000      -0.630822       -17.1655
  29   2.0000      -0.610346       -16.6084
  30   2.0000      -0.593752       -16.1568
  31   2.0000      -0.591438       -16.0939
  32   2.0000      -0.587456       -15.9855
  33   2.0000      -0.568855       -15.4793
  34   2.0000      -0.565113       -15.3775
  35   2.0000      -0.546309       -14.8658
  36   2.0000      -0.538734       -14.6597
  37   2.0000      -0.520812       -14.1720
  38   2.0000      -0.510722       -13.8974
  39   2.0000      -0.505927       -13.7670
  40   2.0000      -0.503754       -13.7078
  41   2.0000      -0.495282       -13.4773
  42   2.0000      -0.489854       -13.3296
  43   2.0000      -0.485038       -13.1986
  44   2.0000      -0.480830       -13.0841
  45   0.0000       0.077324         2.1041
  46   0.0000       0.130007         3.5377
  47   0.0000       0.138390         3.7658
  48   0.0000       0.148453         4.0396
  49   0.0000       0.161166         4.3855

MULLIKEN ATOMIC CHARGES
-----------------------
   0 O :   -0.734750
   1 H :    0.343223
   2 H :    0.370811
   3 O :   -0.758961
   4 H :    0.348814
   5 H :    0.383624
   6 O :   -0.725870
   7 H :    0.385431
   8 H :    0.366343
   9 O :   -0.729859
  10 H :    0.367562
  11 H :    0.374135
  12 O :   -0.732907
  13 H :    0.392800
  14 H :    0.348369
  15 O :   -0.736116
  16 H :    0.326095
  17 H :    0.363678
  18 O :   -0.725976
  19 H :    0.384055
  20 H :    0.370100
  21 O :   -0.751965
  22 H :    0.338610
  23 H :    0.384634
  24 O :   -0.676297
  25 H :    0.361217
  26 H :    0.363199
Sum of atomic charges:   -0.0000000

LOEWDIN ATOMIC CHARGES
----------------------
   0 O :   -0.336997
   1 H :    0.157355
   2 H :    0.143694
   3 O :   -0.317016
   4 H :    0.158148
   5 H :    0.146355
   6 O :   -0.289258
   7 H :    0.157474
   8 H :    0.148530
   9 O :   -0.315684
  10 H :    0.141189
  11 H :    0.148070
  12 O :   -0.283934
  13 H :    0.158658
  14 H :    0.171175
  15 O :   -0.345469
  16 H :    0.156133
  17 H :    0.144281
  18 O :   -0.288271
  19 H :    0.154439
  20 H :    0.150340
  21 O :   -0.346385
  22 H :    0.154339
  23 H :    0.145849
  24 O :   -0.265125
  25 H :    0.173999
  26 H :    0.178110

  Mayer bond orders larger than 0.100000
B(  0-O ,  1-H ) :   0.8474 B(  0-O ,  2-H ) :   0.7682 B(  3-O ,  4-H ) :   0.8413
B(  3-O ,  5-H ) :   0.7253 B(  5-H , 18-O ) :   0.1247 B(  6-O ,  7-H ) :   0.8019
B(  6-O ,  8-H ) :   0.8005 B(  6-O , 23-H ) :   0.1201 B(  9-O , 10-H ) :   0.7875
B(  9-O , 11-H ) :   0.8050 B(  9-O , 17-H ) :   0.1263 B( 12-O , 13-H ) :   0.7792
B( 12-O , 14-H ) :   0.8308 B( 15-O , 16-H ) :   0.8556 B( 15-O , 17-H ) :   0.7504
B( 18-O , 19-H ) :   0.8074 B( 18-O , 20-H ) :   0.7883 B( 21-O , 22-H ) :   0.8497
B( 21-O , 23-H ) :   0.7372 B( 24-O , 25-H ) :   0.8339 B( 24-O , 26-H ) :   0.8321

MP2 TOTAL ENERGY:     -686.928531981 Eh
FINAL SINGLE POINT ENERGY      -686.928531980915

DIPOLE MOMENT
-------------
                                X             Y             Z
Electronic contribution:      0.14980       0.09723       0.26700
Nuclear contribution   :     -0.42069       0.67857       0.82779
                        -----------------------------------------
Total Dipole Moment    :     -0.27089       0.77580       1.09479
                        -----------------------------------------
Magnitude (a.u.)       :      1.36887
Magnitude (Debye)      :      3.47940

Rotational constants in cm-1:     0.029678     0.015194     0.014355
Rotational constants in MHz :   889.731142   455.519496   430.357119

                             ****ORCA TERMINATED NORMALLY****
TOTAL RUN TIME: 0 days 0 hours 4 minutes 48 seconds 304 msec
