                         Program Version 3.0.3 - RELEASE   -
|  1> ! B3LYP Def2-TZVP def2-TZVP/J RIJCOSX TightSCF Grid4 D3BJ
|  2>
|  3> %pal nprocs 12 end
|  4>
|  5> %scf
|  6>         maxiter 400
|  7> end
|  8>
|  9> * xyz  0  1
| 10> O  3.144639	0.980698	-3.257557
| 11> H  3.535813	1.520479	-3.956218
| 12> H  2.486827	0.348655	-3.702335
| 13> O  -2.294257	0.522772	-0.389607
| 14> H  -3.128685	0.828008	0.034533
| 15> H  -1.606211	1.137700	-0.016561
| 16> O  -0.491374	-0.176466	-2.290602
| 17> H  -1.355761	0.092799	-1.911368
| 18> H  0.160267	0.473183	-1.914446
| 19> O  1.431824	-0.755185	-4.139678
| 20> H  1.732458	-1.563946	-3.666532
| 21> H  0.561680	-0.558190	-3.732416
| 22> O  2.411430	-2.670969	-2.408816
| 23> H  3.153059	-2.058809	-2.092527
| 24> H  2.853656	-3.483789	-2.689378
| 25> O  -4.084437	1.300250	1.479433
| 26> H  -4.929551	1.770224	1.478053
| 27> H  -3.417075	1.926029	1.916507
| 28> O  0.409647	-0.050294	2.282317
| 29> H  0.029686	0.203269	3.154155
| 30> H  -0.276392	-0.672399	1.917896
| 31> O  -3.276642	-0.738233	3.175467
| 32> H  -2.788046	-1.292713	2.531654
| 33> H  -3.762193	-0.096864	2.610522
| 34> O  -1.359961	0.680472	4.213780
| 35> H  -2.127217	0.097877	3.897155
| 36> H  -1.414893	0.707577	5.178073
| 37> O  1.426046	1.355225	-1.207432
| 38> H  2.088625	1.482034	-1.924443
| 39> H  1.821421	0.675778	-0.598027
| 40> O  -2.214205	2.727879	2.587048
| 41> H  -1.502345	2.764145	1.913649
| 42> H  -1.850568	2.142084	3.288775
| 43> O  -1.556637	-1.528098	1.175053
| 44> H  -1.024485	-2.122209	0.605983
| 45> H  -1.895415	-0.834577	0.545969
| 46> O  -0.349019	1.984309	0.726075
| 47> H  0.018852	1.282282	1.328080
| 48> H  0.328508	2.099583	0.024534
| 49> O  4.203232	-0.944969	-1.614554
| 50> H  3.788621	-0.722202	-0.755776
| 51> H  4.022102	-0.172658	-2.194558
| 52> O  2.276435	-0.626468	0.375388
| 53> H  1.933077	-0.390362	1.264048
| 54> H  1.594525	-1.270560	0.046049
| 55> O  0.338550	-2.187373	-0.698198
| 56> H  0.983016	-2.672742	-1.257913
| 57> H  -0.032114	-1.511996	-1.327602
| 58> **                         ****END OF INPUT****

CARTESIAN COORDINATES (ANGSTROEM)
---------------------------------
  O      3.144639    0.980698   -3.257557
  H      3.535813    1.520479   -3.956218
  H      2.486827    0.348655   -3.702335
  O     -2.294257    0.522772   -0.389607
  H     -3.128685    0.828008    0.034533
  H     -1.606211    1.137700   -0.016561
  O     -0.491374   -0.176466   -2.290602
  H     -1.355761    0.092799   -1.911368
  H      0.160267    0.473183   -1.914446
  O      1.431824   -0.755185   -4.139678
  H      1.732458   -1.563946   -3.666532
  H      0.561680   -0.558190   -3.732416
  O      2.411430   -2.670969   -2.408816
  H      3.153059   -2.058809   -2.092527
  H      2.853656   -3.483789   -2.689378
  O     -4.084437    1.300250    1.479433
  H     -4.929551    1.770224    1.478053
  H     -3.417075    1.926029    1.916507
  O      0.409647   -0.050294    2.282317
  H      0.029686    0.203269    3.154155
  H     -0.276392   -0.672399    1.917896
  O     -3.276642   -0.738233    3.175467
  H     -2.788046   -1.292713    2.531654
  H     -3.762193   -0.096864    2.610522
  O     -1.359961    0.680472    4.213780
  H     -2.127217    0.097877    3.897155
  H     -1.414893    0.707577    5.178073
  O      1.426046    1.355225   -1.207432
  H      2.088625    1.482034   -1.924443
  H      1.821421    0.675778   -0.598027
  O     -2.214205    2.727879    2.587048
  H     -1.502345    2.764145    1.913649
  H     -1.850568    2.142084    3.288775
  O     -1.556637   -1.528098    1.175053
  H     -1.024485   -2.122209    0.605983
  H     -1.895415   -0.834577    0.545969
  O     -0.349019    1.984309    0.726075
  H      0.018852    1.282282    1.328080
  H      0.328508    2.099583    0.024534
  O      4.203232   -0.944969   -1.614554
  H      3.788621   -0.722202   -0.755776
  H      4.022102   -0.172658   -2.194558
  O      2.276435   -0.626468    0.375388
  H      1.933077   -0.390362    1.264048
  H      1.594525   -1.270560    0.046049
  O      0.338550   -2.187373   -0.698198
  H      0.983016   -2.672742   -1.257913
  H     -0.032114   -1.511996   -1.327602

 Total Charge           Charge          ....    0
 Multiplicity           Mult            ....    1
 Number of Electrons    NEL             ....  160
 Basis Dimension        Dim             ....  688

ORBITAL ENERGIES
----------------

  NO   OCC          E(Eh)            E(eV)
   0   2.0000     -19.143168      -520.9121
   1   2.0000     -19.142548      -520.8952
   2   2.0000     -19.142069      -520.8822
   3   2.0000     -19.141705      -520.8723
   4   2.0000     -19.131937      -520.6065
   5   2.0000     -19.130447      -520.5659
   6   2.0000     -19.129987      -520.5534
   7   2.0000     -19.129848      -520.5496
   8   2.0000     -19.129753      -520.5471
   9   2.0000     -19.129044      -520.5278
  10   2.0000     -19.127933      -520.4975
  11   2.0000     -19.127931      -520.4975
  12   2.0000     -19.124846      -520.4135
  13   2.0000     -19.123180      -520.3682
  14   2.0000     -19.122555      -520.3512
  15   2.0000     -19.122223      -520.3422
  16   2.0000      -1.043517       -28.3956
  17   2.0000      -1.037952       -28.2441
  18   2.0000      -1.029522       -28.0147
  19   2.0000      -1.028279       -27.9809
  20   2.0000      -1.027144       -27.9500
  21   2.0000      -1.021299       -27.7910
  22   2.0000      -1.020818       -27.7779
  23   2.0000      -1.017784       -27.6953
  24   2.0000      -1.010552       -27.4985
  25   2.0000      -1.006624       -27.3916
  26   2.0000      -1.005504       -27.3612
  27   2.0000      -1.002516       -27.2798
  28   2.0000      -1.000697       -27.2304
  29   2.0000      -1.000053       -27.2128
  30   2.0000      -0.992874       -27.0175
  31   2.0000      -0.985456       -26.8156
  32   2.0000      -0.561125       -15.2690
  33   2.0000      -0.554426       -15.0867
  34   2.0000      -0.553520       -15.0621
  35   2.0000      -0.551131       -14.9970
  36   2.0000      -0.547971       -14.9110
  37   2.0000      -0.546363       -14.8673
  38   2.0000      -0.542646       -14.7662
  39   2.0000      -0.540103       -14.6969
  40   2.0000      -0.535217       -14.5640
  41   2.0000      -0.534382       -14.5413
  42   2.0000      -0.530257       -14.4290
  43   2.0000      -0.528927       -14.3928
  44   2.0000      -0.527666       -14.3585
  45   2.0000      -0.524384       -14.2692
  46   2.0000      -0.519512       -14.1366
  47   2.0000      -0.518816       -14.1177
  48   2.0000      -0.473302       -12.8792
  49   2.0000      -0.460219       -12.5232
  50   2.0000      -0.441144       -12.0041
  51   2.0000      -0.438681       -11.9371
  52   2.0000      -0.432579       -11.7711
  53   2.0000      -0.424332       -11.5467
  54   2.0000      -0.423483       -11.5235
  55   2.0000      -0.414589       -11.2816
  56   2.0000      -0.407568       -11.0905
  57   2.0000      -0.402955       -10.9650
  58   2.0000      -0.400859       -10.9079
  59   2.0000      -0.395782       -10.7698
  60   2.0000      -0.383809       -10.4440
  61   2.0000      -0.382400       -10.4056
  62   2.0000      -0.370448       -10.0804
  63   2.0000      -0.353884        -9.6297
  64   2.0000      -0.340307        -9.2602
  65   2.0000      -0.339017        -9.2251
  66   2.0000      -0.337108        -9.1732
  67   2.0000      -0.334984        -9.1154
  68   2.0000      -0.333125        -9.0648
  69   2.0000      -0.329412        -8.9638
  70   2.0000      -0.328793        -8.9469
  71   2.0000      -0.326694        -8.8898
  72   2.0000      -0.325316        -8.8523
  73   2.0000      -0.324670        -8.8347
  74   2.0000      -0.322838        -8.7849
  75   2.0000      -0.319453        -8.6928
  76   2.0000      -0.319095        -8.6830
  77   2.0000      -0.318176        -8.6580
  78   2.0000      -0.316977        -8.6254
  79   2.0000      -0.316540        -8.6135
  80   0.0000      -0.000779        -0.0212
  81   0.0000       0.011301         0.3075
  82   0.0000       0.029754         0.8097
  83   0.0000       0.030157         0.8206
  84   0.0000       0.046952         1.2776

MULLIKEN ATOMIC CHARGES
-----------------------
   0 O :   -0.729398
   1 H :    0.332666
   2 H :    0.374830
   3 O :   -0.732330
   4 H :    0.365184
   5 H :    0.351869
   6 O :   -0.730546
   7 H :    0.374743
   8 H :    0.353525
   9 O :   -0.685281
  10 H :    0.350662
  11 H :    0.372531
  12 O :   -0.727427
  13 H :    0.365569
  14 H :    0.333771
  15 O :   -0.725537
  16 H :    0.331322
  17 H :    0.369788
  18 O :   -0.732109
  19 H :    0.368935
  20 H :    0.355401
  21 O :   -0.680287
  22 H :    0.371660
  23 H :    0.352679
  24 O :   -0.728381
  25 H :    0.370515
  26 H :    0.333153
  27 O :   -0.741298
  28 H :    0.368176
  29 H :    0.346761
  30 O :   -0.686317
  31 H :    0.372957
  32 H :    0.350628
  33 O :   -0.729498
  34 H :    0.373143
  35 H :    0.354993
  36 O :   -0.737550
  37 H :    0.349512
  38 H :    0.379272
  39 O :   -0.676133
  40 H :    0.366482
  41 H :    0.358178
  42 O :   -0.723149
  43 H :    0.376426
  44 H :    0.350047
  45 O :   -0.728218
  46 H :    0.360339
  47 H :    0.357745
Sum of atomic charges:   -0.0000000

LOEWDIN ATOMIC CHARGES
----------------------
   0 O :   -0.297643
   1 H :    0.157663
   2 H :    0.139570
   3 O :   -0.291589
   4 H :    0.143542
   5 H :    0.131173
   6 O :   -0.286429
   7 H :    0.150398
   8 H :    0.131969
   9 O :   -0.270235
  10 H :    0.140039
  11 H :    0.148821
  12 O :   -0.298501
  13 H :    0.138579
  14 H :    0.158286
  15 O :   -0.300211
  16 H :    0.157550
  17 H :    0.137976
  18 O :   -0.289598
  19 H :    0.146036
  20 H :    0.135521
  21 O :   -0.268221
  22 H :    0.149695
  23 H :    0.142029
  24 O :   -0.298643
  25 H :    0.139017
  26 H :    0.157383
  27 O :   -0.289367
  28 H :    0.141074
  29 H :    0.129660
  30 O :   -0.272082
  31 H :    0.147448
  32 H :    0.138864
  33 O :   -0.286075
  34 H :    0.152439
  35 H :    0.134082
  36 O :   -0.285308
  37 H :    0.130902
  38 H :    0.148005
  39 O :   -0.267218
  40 H :    0.148825
  41 H :    0.140134
  42 O :   -0.285461
  43 H :    0.152640
  44 H :    0.136154
  45 O :   -0.296695
  46 H :    0.143387
  47 H :    0.134416

  Mayer bond orders larger than 0.1
B(  0-O ,  1-H ) :   0.8894 B(  0-O ,  2-H ) :   0.7291 B(  0-O , 28-H ) :   0.1016
B(  2-H ,  9-O ) :   0.1780 B(  3-O ,  4-H ) :   0.8183 B(  3-O ,  5-H ) :   0.7762
B(  3-O , 35-H ) :   0.1436 B(  5-H , 36-O ) :   0.1396 B(  6-O ,  7-H ) :   0.8231
B(  6-O ,  8-H ) :   0.7806 B(  6-O , 47-H ) :   0.1387 B(  8-H , 27-O ) :   0.1332
B(  9-O , 10-H ) :   0.8274 B(  9-O , 11-H ) :   0.8285 B( 12-O , 13-H ) :   0.7302
B( 12-O , 14-H ) :   0.8905 B( 13-H , 39-O ) :   0.1878 B( 15-O , 16-H ) :   0.8910
B( 15-O , 17-H ) :   0.7316 B( 17-H , 30-O ) :   0.1778 B( 18-O , 19-H ) :   0.8216
B( 18-O , 20-H ) :   0.7772 B( 18-O , 37-H ) :   0.1495 B( 20-H , 33-O ) :   0.1445
B( 21-O , 22-H ) :   0.8334 B( 21-O , 23-H ) :   0.8296 B( 21-O , 25-H ) :   0.1831
B( 24-O , 25-H ) :   0.7293 B( 24-O , 26-H ) :   0.8898 B( 24-O , 32-H ) :   0.1021
B( 27-O , 28-H ) :   0.8101 B( 27-O , 29-H ) :   0.7724 B( 29-H , 42-O ) :   0.1492
B( 30-O , 31-H ) :   0.8299 B( 30-O , 32-H ) :   0.8244 B( 33-O , 34-H ) :   0.8312
B( 33-O , 35-H ) :   0.7751 B( 36-O , 37-H ) :   0.7720 B( 36-O , 38-H ) :   0.8170
B( 39-O , 40-H ) :   0.8420 B( 39-O , 41-H ) :   0.8254 B( 42-O , 43-H ) :   0.8283
B( 42-O , 44-H ) :   0.7828 B( 44-H , 45-O ) :   0.1462 B( 45-O , 46-H ) :   0.8305
B( 45-O , 47-H ) :   0.7789

Dispersion correction           -0.061074643
FINAL SINGLE POINT ENERGY     -1223.135967280110

DIPOLE MOMENT
-------------
                                X             Y             Z
Electronic contribution:      0.04202      -0.08823       0.00533
Nuclear contribution   :     -0.04104       0.31679      -0.01723
                        -----------------------------------------
Total Dipole Moment    :      0.00098       0.22856      -0.01190
                        -----------------------------------------
Magnitude (a.u.)       :      0.22887
Magnitude (Debye)      :      0.58175

                             ****ORCA TERMINATED NORMALLY****
TOTAL RUN TIME: 0 days 0 hours 2 minutes 0 seconds 185 msec
