                         Program Version 3.0.3 - RELEASE   -
|  1> ! wB97X-D3 MA-Def2-TZVP def2-TZVP/J RIJCOSX TightSCF Grid4
|  2>
|  3> %pal nprocs 1 end
|  4>
|  5> %scf
|  6>         maxiter 400
|  7> end
|  8>
|  9> * xyz  0  1
| 10> O  3.144639	0.980698	-3.257557
| 11> H  3.535813	1.520479	-3.956218
| 12> H  2.486827	0.348655	-3.702335
| 13> O  -2.294257	0.522772	-0.389607
| 14> H  -3.128685	0.828008	0.034533
| 15> H  -1.606211	1.137700	-0.016561
| 16> O  -0.491374	-0.176466	-2.290602
| 17> H  -1.355761	0.092799	-1.911368
| 18> H  0.160267	0.473183	-1.914446
| 19> O  1.431824	-0.755185	-4.139678
| 20> H  1.732458	-1.563946	-3.666532
| 21> H  0.561680	-0.558190	-3.732416
| 22> O  2.411430	-2.670969	-2.408816
| 23> H  3.153059	-2.058809	-2.092527
| 24> H  2.853656	-3.483789	-2.689378
| 25> O  -4.084437	1.300250	1.479433
| 26> H  -4.929551	1.770224	1.478053
| 27> H  -3.417075	1.926029	1.916507
| 28> O  0.409647	-0.050294	2.282317
| 29> H  0.029686	0.203269	3.154155
| 30> H  -0.276392	-0.672399	1.917896
| 31> O  -3.276642	-0.738233	3.175467
| 32> H  -2.788046	-1.292713	2.531654
| 33> H  -3.762193	-0.096864	2.610522
| 34> O  -1.359961	0.680472	4.213780
| 35> H  -2.127217	0.097877	3.897155
| 36> H  -1.414893	0.707577	5.178073
| 37> O  1.426046	1.355225	-1.207432
| 38> H  2.088625	1.482034	-1.924443
| 39> H  1.821421	0.675778	-0.598027
| 40> O  -2.214205	2.727879	2.587048
| 41> H  -1.502345	2.764145	1.913649
| 42> H  -1.850568	2.142084	3.288775
| 43> O  -1.556637	-1.528098	1.175053
| 44> H  -1.024485	-2.122209	0.605983
| 45> H  -1.895415	-0.834577	0.545969
| 46> O  -0.349019	1.984309	0.726075
| 47> H  0.018852	1.282282	1.328080
| 48> H  0.328508	2.099583	0.024534
| 49> O  4.203232	-0.944969	-1.614554
| 50> H  3.788621	-0.722202	-0.755776
| 51> H  4.022102	-0.172658	-2.194558
| 52> O  2.276435	-0.626468	0.375388
| 53> H  1.933077	-0.390362	1.264048
| 54> H  1.594525	-1.270560	0.046049
| 55> O  0.338550	-2.187373	-0.698198
| 56> H  0.983016	-2.672742	-1.257913
| 57> H  -0.032114	-1.511996	-1.327602
| 58> **                         ****END OF INPUT****

CARTESIAN COORDINATES (ANGSTROEM)
---------------------------------
  O      3.144639    0.980698   -3.257557
  H      3.535813    1.520479   -3.956218
  H      2.486827    0.348655   -3.702335
  O     -2.294257    0.522772   -0.389607
  H     -3.128685    0.828008    0.034533
  H     -1.606211    1.137700   -0.016561
  O     -0.491374   -0.176466   -2.290602
  H     -1.355761    0.092799   -1.911368
  H      0.160267    0.473183   -1.914446
  O      1.431824   -0.755185   -4.139678
  H      1.732458   -1.563946   -3.666532
  H      0.561680   -0.558190   -3.732416
  O      2.411430   -2.670969   -2.408816
  H      3.153059   -2.058809   -2.092527
  H      2.853656   -3.483789   -2.689378
  O     -4.084437    1.300250    1.479433
  H     -4.929551    1.770224    1.478053
  H     -3.417075    1.926029    1.916507
  O      0.409647   -0.050294    2.282317
  H      0.029686    0.203269    3.154155
  H     -0.276392   -0.672399    1.917896
  O     -3.276642   -0.738233    3.175467
  H     -2.788046   -1.292713    2.531654
  H     -3.762193   -0.096864    2.610522
  O     -1.359961    0.680472    4.213780
  H     -2.127217    0.097877    3.897155
  H     -1.414893    0.707577    5.178073
  O      1.426046    1.355225   -1.207432
  H      2.088625    1.482034   -1.924443
  H      1.821421    0.675778   -0.598027
  O     -2.214205    2.727879    2.587048
  H     -1.502345    2.764145    1.913649
  H     -1.850568    2.142084    3.288775
  O     -1.556637   -1.528098    1.175053
  H     -1.024485   -2.122209    0.605983
  H     -1.895415   -0.834577    0.545969
  O     -0.349019    1.984309    0.726075
  H      0.018852    1.282282    1.328080
  H      0.328508    2.099583    0.024534
  O      4.203232   -0.944969   -1.614554
  H      3.788621   -0.722202   -0.755776
  H      4.022102   -0.172658   -2.194558
  O      2.276435   -0.626468    0.375388
  H      1.933077   -0.390362    1.264048
  H      1.594525   -1.270560    0.046049
  O      0.338550   -2.187373   -0.698198
  H      0.983016   -2.672742   -1.257913
  H     -0.032114   -1.511996   -1.327602

 Total Charge           Charge          ....    0
 Multiplicity           Mult            ....    1
 Number of Electrons    NEL             ....  160
 Basis Dimension        Dim             ....  752

ORBITAL ENERGIES
----------------

  NO   OCC          E(Eh)            E(eV)
   0   2.0000     -19.253619      -523.9176
   1   2.0000     -19.253257      -523.9078
   2   2.0000     -19.252546      -523.8884
   3   2.0000     -19.252155      -523.8778
   4   2.0000     -19.242625      -523.6184
   5   2.0000     -19.241542      -523.5890
   6   2.0000     -19.240758      -523.5677
   7   2.0000     -19.240701      -523.5661
   8   2.0000     -19.240467      -523.5597
   9   2.0000     -19.239745      -523.5401
  10   2.0000     -19.238712      -523.5120
  11   2.0000     -19.238695      -523.5115
  12   2.0000     -19.235274      -523.4184
  13   2.0000     -19.233837      -523.3793
  14   2.0000     -19.233404      -523.3675
  15   2.0000     -19.233242      -523.3631
  16   2.0000      -1.162371       -31.6297
  17   2.0000      -1.156366       -31.4663
  18   2.0000      -1.147584       -31.2273
  19   2.0000      -1.146297       -31.1923
  20   2.0000      -1.145074       -31.1590
  21   2.0000      -1.139254       -31.0007
  22   2.0000      -1.138761       -30.9873
  23   2.0000      -1.135663       -30.9030
  24   2.0000      -1.128338       -30.7036
  25   2.0000      -1.124226       -30.5917
  26   2.0000      -1.123241       -30.5649
  27   2.0000      -1.119950       -30.4754
  28   2.0000      -1.118117       -30.4255
  29   2.0000      -1.117563       -30.4104
  30   2.0000      -1.110145       -30.2086
  31   2.0000      -1.102547       -30.0018
  32   2.0000      -0.667502       -18.1637
  33   2.0000      -0.660529       -17.9739
  34   2.0000      -0.659319       -17.9410
  35   2.0000      -0.656774       -17.8717
  36   2.0000      -0.654861       -17.8197
  37   2.0000      -0.652416       -17.7531
  38   2.0000      -0.648679       -17.6514
  39   2.0000      -0.645869       -17.5750
  40   2.0000      -0.641469       -17.4553
  41   2.0000      -0.640846       -17.4383
  42   2.0000      -0.635781       -17.3005
  43   2.0000      -0.634455       -17.2644
  44   2.0000      -0.633446       -17.2369
  45   2.0000      -0.629568       -17.1314
  46   2.0000      -0.624422       -16.9914
  47   2.0000      -0.623748       -16.9730
  48   2.0000      -0.581574       -15.8254
  49   2.0000      -0.567422       -15.4403
  50   2.0000      -0.547072       -14.8866
  51   2.0000      -0.544232       -14.8093
  52   2.0000      -0.536748       -14.6056
  53   2.0000      -0.529082       -14.3970
  54   2.0000      -0.527745       -14.3607
  55   2.0000      -0.519905       -14.1473
  56   2.0000      -0.509602       -13.8670
  57   2.0000      -0.505769       -13.7627
  58   2.0000      -0.504169       -13.7191
  59   2.0000      -0.499800       -13.6003
  60   2.0000      -0.485424       -13.2091
  61   2.0000      -0.484288       -13.1782
  62   2.0000      -0.472437       -12.8557
  63   2.0000      -0.454014       -12.3543
  64   2.0000      -0.441470       -12.0130
  65   2.0000      -0.440327       -11.9819
  66   2.0000      -0.438037       -11.9196
  67   2.0000      -0.435961       -11.8631
  68   2.0000      -0.434180       -11.8146
  69   2.0000      -0.430202       -11.7064
  70   2.0000      -0.429711       -11.6930
  71   2.0000      -0.427658       -11.6372
  72   2.0000      -0.426025       -11.5927
  73   2.0000      -0.425367       -11.5748
  74   2.0000      -0.423566       -11.5258
  75   2.0000      -0.420153       -11.4329
  76   2.0000      -0.419719       -11.4211
  77   2.0000      -0.419040       -11.4026
  78   2.0000      -0.417829       -11.3697
  79   2.0000      -0.417332       -11.3562
  80   0.0000       0.051906         1.4124
  81   0.0000       0.060275         1.6402
  82   0.0000       0.074621         2.0305
  83   0.0000       0.075368         2.0509
  84   0.0000       0.090302         2.4572

MULLIKEN ATOMIC CHARGES
-----------------------
   0 O :   -0.823671
   1 H :    0.362039
   2 H :    0.428409
   3 O :   -0.808867
   4 H :    0.417294
   5 H :    0.404605
   6 O :   -0.831296
   7 H :    0.429373
   8 H :    0.414761
   9 O :   -0.766208
  10 H :    0.400858
  11 H :    0.419104
  12 O :   -0.832193
  13 H :    0.409873
  14 H :    0.359026
  15 O :   -0.807068
  16 H :    0.357745
  17 H :    0.418603
  18 O :   -0.798649
  19 H :    0.419516
  20 H :    0.407006
  21 O :   -0.762489
  22 H :    0.410470
  23 H :    0.407983
  24 O :   -0.827334
  25 H :    0.422420
  26 H :    0.359546
  27 O :   -0.872969
  28 H :    0.429849
  29 H :    0.392146
  30 O :   -0.766739
  31 H :    0.413753
  32 H :    0.405336
  33 O :   -0.875171
  34 H :    0.425304
  35 H :    0.421721
  36 O :   -0.889310
  37 H :    0.408406
  38 H :    0.430566
  39 O :   -0.739613
  40 H :    0.394841
  41 H :    0.414163
  42 O :   -0.803612
  43 H :    0.427138
  44 H :    0.398833
  45 O :   -0.829122
  46 H :    0.404953
  47 H :    0.418671
Sum of atomic charges:   -0.0000000

LOEWDIN ATOMIC CHARGES
----------------------
   0 O :   -0.396346
   1 H :    0.190875
   2 H :    0.190233
   3 O :   -0.399356
   4 H :    0.196717
   5 H :    0.187634
   6 O :   -0.395222
   7 H :    0.201939
   8 H :    0.188430
   9 O :   -0.358074
  10 H :    0.192409
  11 H :    0.198441
  12 O :   -0.397314
  13 H :    0.189780
  14 H :    0.191953
  15 O :   -0.398214
  16 H :    0.190954
  17 H :    0.188815
  18 O :   -0.397218
  19 H :    0.199068
  20 H :    0.192088
  21 O :   -0.355746
  22 H :    0.198935
  23 H :    0.193971
  24 O :   -0.397192
  25 H :    0.189683
  26 H :    0.190826
  27 O :   -0.399861
  28 H :    0.195271
  29 H :    0.185843
  30 O :   -0.359900
  31 H :    0.197350
  32 H :    0.191209
  33 O :   -0.394851
  34 H :    0.203249
  35 H :    0.190293
  36 O :   -0.395925
  37 H :    0.187164
  38 H :    0.200123
  39 O :   -0.354626
  40 H :    0.197837
  41 H :    0.191945
  42 O :   -0.393497
  43 H :    0.203676
  44 H :    0.192700
  45 O :   -0.402889
  46 H :    0.195910
  47 H :    0.190909

  Mayer bond orders larger than 0.1
B(  0-O ,  1-H ) :   0.8722 B(  0-O ,  2-H ) :   0.7502 B(  3-O ,  4-H ) :   0.8235
B(  3-O ,  5-H ) :   0.8161 B(  6-O ,  7-H ) :   0.8230 B(  6-O ,  8-H ) :   0.8178
B(  9-O , 10-H ) :   0.8487 B(  9-O , 11-H ) :   0.8331 B( 12-O , 13-H ) :   0.7505
B( 12-O , 14-H ) :   0.8748 B( 13-H , 39-O ) :   0.1305 B( 15-O , 16-H ) :   0.8761
B( 15-O , 17-H ) :   0.7552 B( 17-H , 30-O ) :   0.1063 B( 18-O , 19-H ) :   0.8248
B( 18-O , 20-H ) :   0.8091 B( 21-O , 22-H ) :   0.8422 B( 21-O , 23-H ) :   0.8481
B( 21-O , 25-H ) :   0.1088 B( 24-O , 25-H ) :   0.7513 B( 24-O , 26-H ) :   0.8744
B( 27-O , 28-H ) :   0.8138 B( 27-O , 29-H ) :   0.8097 B( 30-O , 31-H ) :   0.8371
B( 30-O , 32-H ) :   0.8457 B( 33-O , 34-H ) :   0.8337 B( 33-O , 35-H ) :   0.8090
B( 36-O , 37-H ) :   0.8063 B( 36-O , 38-H ) :   0.8204 B( 39-O , 40-H ) :   0.8597
B( 39-O , 41-H ) :   0.8445 B( 42-O , 43-H ) :   0.8279 B( 42-O , 44-H ) :   0.8119
B( 45-O , 46-H ) :   0.8389 B( 45-O , 47-H ) :   0.8153

Dispersion correction           -0.032081162
FINAL SINGLE POINT ENERGY     -1223.327673474788

DIPOLE MOMENT
-------------
                                X             Y             Z
Electronic contribution:      0.03833      -0.08568       0.00321
Nuclear contribution   :     -0.04104       0.31679      -0.01723
                        -----------------------------------------
Total Dipole Moment    :     -0.00271       0.23111      -0.01402
                        -----------------------------------------
Magnitude (a.u.)       :      0.23155
Magnitude (Debye)      :      0.58855

                             ****ORCA TERMINATED NORMALLY****
TOTAL RUN TIME: 0 days 0 hours 28 minutes 7 seconds 813 msec
