                         Program Version 3.0.3 - RELEASE   -
|  1> ! wB97X-D3 MA-Def2-TZVP def2-TZVP/J RIJCOSX TightSCF Grid4
|  2>
|  3> %pal nprocs 1 end
|  4>
|  5> %scf
|  6>         maxiter 400
|  7> end
|  8>
|  9> %cosmo
| 10>         SMD true
| 11>         solvent "WATER"
| 12> end
| 13>
| 14> * xyz  0  1
| 15> O  3.073672	0.824351	-3.041152
| 16> H  3.585628	1.355768	-3.682145
| 17> H  2.433587	0.243965	-3.598960
| 18> O  -2.220201	0.551597	-0.357248
| 19> H  -3.058096	0.767288	0.158502
| 20> H  -1.550510	1.213771	0.021938
| 21> O  -0.440292	-0.075332	-2.266484
| 22> H  -1.296865	0.147143	-1.808654
| 23> H  0.221474	0.584314	-1.864973
| 24> O  1.371565	-0.782081	-4.197166
| 25> H  1.691382	-1.609278	-3.727958
| 26> H  0.546152	-0.546572	-3.697110
| 27> O  2.300706	-2.730354	-2.572755
| 28> H  3.071347	-2.199088	-2.148818
| 29> H  2.684477	-3.582983	-2.857231
| 30> O  -3.986922	1.095003	1.524357
| 31> H  -4.898606	1.443063	1.466077
| 32> H  -3.422901	1.851127	1.933957
| 33> O  0.387259	0.097389	2.284776
| 34> H  -0.079166	0.345441	3.142284
| 35> H  -0.253013	-0.575768	1.873194
| 36> O  -3.085693	-0.884361	3.123602
| 37> H  -2.517843	-1.355558	2.457098
| 38> H  -3.580580	-0.220601	2.555956
| 39> O  -1.379574	0.824546	4.106598
| 40> H  -2.066257	0.112194	3.820882
| 41> H  -1.342943	0.785511	5.082877
| 42> O  1.386586	1.473688	-1.123256
| 43> H  2.061340	1.488357	-1.871341
| 44> H  1.750651	0.749198	-0.511517
| 45> O  -2.335599	2.829203	2.568013
| 46> H  -1.616094	2.825477	1.882000
| 47> H  -1.972887	2.208445	3.268473
| 48> O  -1.361993	-1.502701	1.082608
| 49> H  -0.788099	-2.033559	0.464574
| 50> H  -1.741291	-0.771933	0.485246
| 51> O  -0.393723	2.127239	0.766649
| 52> H  -0.028016	1.400942	1.378316
| 53> H  0.293509	2.198022	0.047268
| 54> O  4.071590	-1.142576	-1.482752
| 55> H  3.592692	-0.927906	-0.638322
| 56> H  3.852072	-0.356592	-2.067905
| 57> O  2.181743	-0.554013	0.401595
| 58> H  1.774983	-0.332078	1.283944
| 59> H  1.526810	-1.218676	-0.004438
| 60> O  0.430668	-2.131811	-0.815149
| 61> H  1.073732	-2.603892	-1.430585
| 62> H  0.050056	-1.404089	-1.411215
| 63> **                         ****END OF INPUT****

CARTESIAN COORDINATES (ANGSTROEM)
---------------------------------
  O      3.073672    0.824351   -3.041152
  H      3.585628    1.355768   -3.682145
  H      2.433587    0.243965   -3.598960
  O     -2.220201    0.551597   -0.357248
  H     -3.058096    0.767288    0.158502
  H     -1.550510    1.213771    0.021938
  O     -0.440292   -0.075332   -2.266484
  H     -1.296865    0.147143   -1.808654
  H      0.221474    0.584314   -1.864973
  O      1.371565   -0.782081   -4.197166
  H      1.691382   -1.609278   -3.727958
  H      0.546152   -0.546572   -3.697110
  O      2.300706   -2.730354   -2.572755
  H      3.071347   -2.199088   -2.148818
  H      2.684477   -3.582983   -2.857231
  O     -3.986922    1.095003    1.524357
  H     -4.898606    1.443063    1.466077
  H     -3.422901    1.851127    1.933957
  O      0.387259    0.097389    2.284776
  H     -0.079166    0.345441    3.142284
  H     -0.253013   -0.575768    1.873194
  O     -3.085693   -0.884361    3.123602
  H     -2.517843   -1.355558    2.457098
  H     -3.580580   -0.220601    2.555956
  O     -1.379574    0.824546    4.106598
  H     -2.066257    0.112194    3.820882
  H     -1.342943    0.785511    5.082877
  O      1.386586    1.473688   -1.123256
  H      2.061340    1.488357   -1.871341
  H      1.750651    0.749198   -0.511517
  O     -2.335599    2.829203    2.568013
  H     -1.616094    2.825477    1.882000
  H     -1.972887    2.208445    3.268473
  O     -1.361993   -1.502701    1.082608
  H     -0.788099   -2.033559    0.464574
  H     -1.741291   -0.771933    0.485246
  O     -0.393723    2.127239    0.766649
  H     -0.028016    1.400942    1.378316
  H      0.293509    2.198022    0.047268
  O      4.071590   -1.142576   -1.482752
  H      3.592692   -0.927906   -0.638322
  H      3.852072   -0.356592   -2.067905
  O      2.181743   -0.554013    0.401595
  H      1.774983   -0.332078    1.283944
  H      1.526810   -1.218676   -0.004438
  O      0.430668   -2.131811   -0.815149
  H      1.073732   -2.603892   -1.430585
  H      0.050056   -1.404089   -1.411215

 Total Charge           Charge          ....    0
 Multiplicity           Mult            ....    1
 Number of Electrons    NEL             ....  160
 Basis Dimension        Dim             ....  752

ORBITAL ENERGIES
----------------

  NO   OCC          E(Eh)            E(eV)
   0   2.0000     -19.243045      -523.6299
   1   2.0000     -19.242889      -523.6256
   2   2.0000     -19.242806      -523.6234
   3   2.0000     -19.242471      -523.6143
   4   2.0000     -19.238204      -523.4982
   5   2.0000     -19.238118      -523.4958
   6   2.0000     -19.238109      -523.4956
   7   2.0000     -19.237802      -523.4872
   8   2.0000     -19.235415      -523.4223
   9   2.0000     -19.235012      -523.4113
  10   2.0000     -19.234923      -523.4089
  11   2.0000     -19.234803      -523.4056
  12   2.0000     -19.234790      -523.4053
  13   2.0000     -19.234763      -523.4045
  14   2.0000     -19.234658      -523.4016
  15   2.0000     -19.234178      -523.3886
  16   2.0000      -1.156061       -31.4580
  17   2.0000      -1.147912       -31.2363
  18   2.0000      -1.137314       -30.9479
  19   2.0000      -1.135977       -30.9115
  20   2.0000      -1.134341       -30.8670
  21   2.0000      -1.129598       -30.7379
  22   2.0000      -1.128202       -30.6999
  23   2.0000      -1.125657       -30.6307
  24   2.0000      -1.118699       -30.4414
  25   2.0000      -1.114836       -30.3362
  26   2.0000      -1.113516       -30.3003
  27   2.0000      -1.108209       -30.1559
  28   2.0000      -1.107485       -30.1362
  29   2.0000      -1.106656       -30.1137
  30   2.0000      -1.097594       -29.8671
  31   2.0000      -1.087692       -29.5976
  32   2.0000      -0.651873       -17.7384
  33   2.0000      -0.651269       -17.7219
  34   2.0000      -0.650959       -17.7135
  35   2.0000      -0.647790       -17.6273
  36   2.0000      -0.644394       -17.5348
  37   2.0000      -0.639438       -17.4000
  38   2.0000      -0.637704       -17.3528
  39   2.0000      -0.633324       -17.2336
  40   2.0000      -0.631791       -17.1919
  41   2.0000      -0.628262       -17.0959
  42   2.0000      -0.624980       -17.0066
  43   2.0000      -0.623613       -16.9694
  44   2.0000      -0.622412       -16.9367
  45   2.0000      -0.618636       -16.8339
  46   2.0000      -0.617740       -16.8096
  47   2.0000      -0.616601       -16.7786
  48   2.0000      -0.581383       -15.8202
  49   2.0000      -0.566934       -15.4271
  50   2.0000      -0.545259       -14.8372
  51   2.0000      -0.539806       -14.6889
  52   2.0000      -0.532204       -14.4820
  53   2.0000      -0.530470       -14.4348
  54   2.0000      -0.523005       -14.2317
  55   2.0000      -0.522645       -14.2219
  56   2.0000      -0.505114       -13.7448
  57   2.0000      -0.502379       -13.6704
  58   2.0000      -0.499626       -13.5955
  59   2.0000      -0.497419       -13.5354
  60   2.0000      -0.480939       -13.0870
  61   2.0000      -0.477509       -12.9937
  62   2.0000      -0.470188       -12.7945
  63   2.0000      -0.451100       -12.2751
  64   2.0000      -0.432042       -11.7565
  65   2.0000      -0.431012       -11.7284
  66   2.0000      -0.429532       -11.6882
  67   2.0000      -0.424941       -11.5632
  68   2.0000      -0.424608       -11.5542
  69   2.0000      -0.424032       -11.5385
  70   2.0000      -0.423637       -11.5278
  71   2.0000      -0.423088       -11.5128
  72   2.0000      -0.420761       -11.4495
  73   2.0000      -0.420677       -11.4472
  74   2.0000      -0.419047       -11.4029
  75   2.0000      -0.418970       -11.4008
  76   2.0000      -0.417452       -11.3595
  77   2.0000      -0.417055       -11.3487
  78   2.0000      -0.414474       -11.2784
  79   2.0000      -0.413140       -11.2421
  80   0.0000       0.062308         1.6955
  81   0.0000       0.074704         2.0328
  82   0.0000       0.092695         2.5224
  83   0.0000       0.093733         2.5506
  84   0.0000       0.102699         2.7946

MULLIKEN ATOMIC CHARGES
-----------------------
   0 O :   -0.870511
   1 H :    0.419776
   2 H :    0.440125
   3 O :   -0.929954
   4 H :    0.455270
   5 H :    0.438641
   6 O :   -0.927318
   7 H :    0.463336
   8 H :    0.445294
   9 O :   -0.823621
  10 H :    0.433954
  11 H :    0.441080
  12 O :   -0.869807
  13 H :    0.439057
  14 H :    0.419530
  15 O :   -0.853742
  16 H :    0.418769
  17 H :    0.436924
  18 O :   -0.927962
  19 H :    0.454765
  20 H :    0.438955
  21 O :   -0.828889
  22 H :    0.441749
  23 H :    0.434918
  24 O :   -0.852980
  25 H :    0.435663
  26 H :    0.418394
  27 O :   -0.913930
  28 H :    0.450697
  29 H :    0.443003
  30 O :   -0.830461
  31 H :    0.442608
  32 H :    0.434551
  33 O :   -0.924022
  34 H :    0.463336
  35 H :    0.449001
  36 O :   -0.927860
  37 H :    0.451234
  38 H :    0.464674
  39 O :   -0.823384
  40 H :    0.442076
  41 H :    0.432794
  42 O :   -0.935930
  43 H :    0.463803
  44 H :    0.447529
  45 O :   -0.912598
  46 H :    0.449365
  47 H :    0.442101
Sum of atomic charges:    0.0000000

LOEWDIN ATOMIC CHARGES
----------------------
   0 O :   -0.387528
   1 H :    0.220686
   2 H :    0.201647
   3 O :   -0.427533
   4 H :    0.204174
   5 H :    0.197240
   6 O :   -0.421821
   7 H :    0.210272
   8 H :    0.198026
   9 O :   -0.403468
  10 H :    0.202040
  11 H :    0.206353
  12 O :   -0.386543
  13 H :    0.202143
  14 H :    0.220771
  15 O :   -0.387657
  16 H :    0.220731
  17 H :    0.201186
  18 O :   -0.428231
  19 H :    0.204561
  20 H :    0.197375
  21 O :   -0.402961
  22 H :    0.207421
  23 H :    0.202649
  24 O :   -0.390260
  25 H :    0.200594
  26 H :    0.220341
  27 O :   -0.427429
  28 H :    0.204756
  29 H :    0.197495
  30 O :   -0.404752
  31 H :    0.206566
  32 H :    0.202785
  33 O :   -0.420625
  34 H :    0.210936
  35 H :    0.198299
  36 O :   -0.422192
  37 H :    0.198615
  38 H :    0.210250
  39 O :   -0.407160
  40 H :    0.205958
  41 H :    0.201338
  42 O :   -0.419993
  43 H :    0.210409
  44 H :    0.198436
  45 O :   -0.427324
  46 H :    0.204049
  47 H :    0.197374

  Mayer bond orders larger than 0.1
B(  0-O ,  1-H ) :   0.8269 B(  0-O ,  2-H ) :   0.7444 B(  3-O ,  4-H ) :   0.7744
B(  3-O ,  5-H ) :   0.7790 B(  6-O ,  7-H ) :   0.7925 B(  6-O ,  8-H ) :   0.7706
B(  9-O , 10-H ) :   0.8019 B(  9-O , 11-H ) :   0.8123 B( 12-O , 13-H ) :   0.7463
B( 12-O , 14-H ) :   0.8273 B( 15-O , 16-H ) :   0.8283 B( 15-O , 17-H ) :   0.7457
B( 18-O , 19-H ) :   0.7753 B( 18-O , 20-H ) :   0.7783 B( 21-O , 22-H ) :   0.8111
B( 21-O , 23-H ) :   0.8006 B( 21-O , 25-H ) :   0.1022 B( 24-O , 25-H ) :   0.7447
B( 24-O , 26-H ) :   0.8288 B( 27-O , 28-H ) :   0.7719 B( 27-O , 29-H ) :   0.7789
B( 30-O , 31-H ) :   0.8103 B( 30-O , 32-H ) :   0.8012 B( 33-O , 34-H ) :   0.7929
B( 33-O , 35-H ) :   0.7687 B( 36-O , 37-H ) :   0.7688 B( 36-O , 38-H ) :   0.7902
B( 39-O , 40-H ) :   0.8111 B( 39-O , 41-H ) :   0.8019 B( 42-O , 43-H ) :   0.7920
B( 42-O , 44-H ) :   0.7685 B( 45-O , 46-H ) :   0.7729 B( 45-O , 47-H ) :   0.7806

Dispersion correction           -0.033030736
FINAL SINGLE POINT ENERGY     -1223.345837989352

DIPOLE MOMENT
-------------
                                X             Y             Z
Electronic contribution:     -0.00954      -0.01043      -0.00642
Nuclear contribution   :     -0.00238      -0.04838      -0.00255
                        -----------------------------------------
Total Dipole Moment    :     -0.01191      -0.05881      -0.00896
                        -----------------------------------------
Magnitude (a.u.)       :      0.06067
Magnitude (Debye)      :      0.15421

                             ****ORCA TERMINATED NORMALLY****
TOTAL RUN TIME: 0 days 0 hours 32 minutes 3 seconds 890 msec
