                         Program Version 3.0.3 - RELEASE   -
|  1> ! wB97X-D3 MA-Def2-TZVP def2-TZVP/J RIJCOSX TightSCF Grid4
|  2>
|  3> %pal nprocs 1 end
|  4>
|  5> %scf
|  6>         maxiter 400
|  7> end
|  8>
|  9> %cosmo
| 10>         SMD true
| 11>         solvent "WATER"
| 12> end
| 13>
| 14> * xyz  0  1
| 15> O  3.183806	1.014486	-3.235595
| 16> H  3.532059	1.625876	-3.901870
| 17> H  2.547821	0.404124	-3.712279
| 18> O  -2.296409	0.521909	-0.332394
| 19> H  -3.105492	0.814619	0.154542
| 20> H  -1.593007	1.129360	0.021874
| 21> O  -0.502942	-0.225540	-2.262015
| 22> H  -1.355586	0.045672	-1.859892
| 23> H  0.156838	0.421181	-1.892365
| 24> O  1.450762	-0.772682	-4.148498
| 25> H  1.782832	-1.549016	-3.635101
| 26> H  0.600658	-0.563819	-3.709023
| 27> O  2.426544	-2.642097	-2.419339
| 28> H  3.183598	-2.062888	-2.114213
| 29> H  2.843542	-3.449128	-2.758961
| 30> O  -4.028157	1.304058	1.557656
| 31> H  -4.898445	1.728571	1.499801
| 32> H  -3.417081	1.993097	1.950446
| 33> O  0.373310	-0.081914	2.286787
| 34> H  -0.056048	0.221791	3.123375
| 35> H  -0.300896	-0.709939	1.913997
| 36> O  -3.364357	-0.795228	3.171881
| 37> H  -2.821197	-1.299982	2.532279
| 38> H  -3.769715	-0.084542	2.619615
| 39> O  -1.409629	0.753705	4.144845
| 40> H  -2.160641	0.139153	3.904170
| 41> H  -1.398490	0.794151	5.113402
| 42> O  1.419887	1.327259	-1.230721
| 43> H  2.080238	1.447158	-1.956257
| 44> H  1.812298	0.637129	-0.634509
| 45> O  -2.162684	2.899743	2.608113
| 46> H  -1.477508	2.833883	1.909460
| 47> H  -1.858398	2.243202	3.280072
| 48> O  -1.571777	-1.582047	1.163449
| 49> H  -1.034534	-2.164518	0.588583
| 50> H  -1.897212	-0.865105	0.552150
| 51> O  -0.324849	1.985693	0.747485
| 52> H  0.030098	1.264307	1.334998
| 53> H  0.336662	2.061919	0.025222
| 54> O  4.243991	-0.875590	-1.608788
| 55> H  3.755800	-0.675663	-0.783839
| 56> H  4.030103	-0.127006	-2.214342
| 57> O  2.237786	-0.685408	0.347195
| 58> H  1.870156	-0.418555	1.217257
| 59> H  1.571529	-1.344575	0.018606
| 60> O  0.335915	-2.313352	-0.738491
| 61> H  1.037916	-2.711147	-1.305466
| 62> H  -0.042580	-1.611064	-1.329649
| 63> **                         ****END OF INPUT****

CARTESIAN COORDINATES (ANGSTROEM)
---------------------------------
  O      3.183806    1.014486   -3.235595
  H      3.532059    1.625876   -3.901870
  H      2.547821    0.404124   -3.712279
  O     -2.296409    0.521909   -0.332394
  H     -3.105492    0.814619    0.154542
  H     -1.593007    1.129360    0.021874
  O     -0.502942   -0.225540   -2.262015
  H     -1.355586    0.045672   -1.859892
  H      0.156838    0.421181   -1.892365
  O      1.450762   -0.772682   -4.148498
  H      1.782832   -1.549016   -3.635101
  H      0.600658   -0.563819   -3.709023
  O      2.426544   -2.642097   -2.419339
  H      3.183598   -2.062888   -2.114213
  H      2.843542   -3.449128   -2.758961
  O     -4.028157    1.304058    1.557656
  H     -4.898445    1.728571    1.499801
  H     -3.417081    1.993097    1.950446
  O      0.373310   -0.081914    2.286787
  H     -0.056048    0.221791    3.123375
  H     -0.300896   -0.709939    1.913997
  O     -3.364357   -0.795228    3.171881
  H     -2.821197   -1.299982    2.532279
  H     -3.769715   -0.084542    2.619615
  O     -1.409629    0.753705    4.144845
  H     -2.160641    0.139153    3.904170
  H     -1.398490    0.794151    5.113402
  O      1.419887    1.327259   -1.230721
  H      2.080238    1.447158   -1.956257
  H      1.812298    0.637129   -0.634509
  O     -2.162684    2.899743    2.608113
  H     -1.477508    2.833883    1.909460
  H     -1.858398    2.243202    3.280072
  O     -1.571777   -1.582047    1.163449
  H     -1.034534   -2.164518    0.588583
  H     -1.897212   -0.865105    0.552150
  O     -0.324849    1.985693    0.747485
  H      0.030098    1.264307    1.334998
  H      0.336662    2.061919    0.025222
  O      4.243991   -0.875590   -1.608788
  H      3.755800   -0.675663   -0.783839
  H      4.030103   -0.127006   -2.214342
  O      2.237786   -0.685408    0.347195
  H      1.870156   -0.418555    1.217257
  H      1.571529   -1.344575    0.018606
  O      0.335915   -2.313352   -0.738491
  H      1.037916   -2.711147   -1.305466
  H     -0.042580   -1.611064   -1.329649

 Total Charge           Charge          ....    0
 Multiplicity           Mult            ....    1
 Number of Electrons    NEL             ....  160
 Basis Dimension        Dim             ....  752
Dispersion correction           -0.031982773
FINAL SINGLE POINT ENERGY     -1223.366567900964
                             ****ORCA TERMINATED NORMALLY****
TOTAL RUN TIME: 0 days 0 hours 31 minutes 47 seconds 893 msec

ORBITAL ENERGIES
----------------

  NO   OCC          E(Eh)            E(eV)
   0   2.0000     -19.242167      -523.6060
   1   2.0000     -19.242005      -523.6016
   2   2.0000     -19.241950      -523.6001
   3   2.0000     -19.241920      -523.5993
   4   2.0000     -19.241676      -523.5926
   5   2.0000     -19.239016      -523.5203
   6   2.0000     -19.237051      -523.4668
   7   2.0000     -19.236932      -523.4635
   8   2.0000     -19.236178      -523.4430
   9   2.0000     -19.235631      -523.4281
  10   2.0000     -19.234537      -523.3984
  11   2.0000     -19.233808      -523.3785
  12   2.0000     -19.233074      -523.3586
  13   2.0000     -19.232573      -523.3449
  14   2.0000     -19.232018      -523.3298
  15   2.0000     -19.231936      -523.3276
  16   2.0000      -1.156869       -31.4800
  17   2.0000      -1.149358       -31.2756
  18   2.0000      -1.140136       -31.0247
  19   2.0000      -1.138725       -30.9863
  20   2.0000      -1.137627       -30.9564
  21   2.0000      -1.133884       -30.8545
  22   2.0000      -1.132626       -30.8203
  23   2.0000      -1.130446       -30.7610
  24   2.0000      -1.122943       -30.5568
  25   2.0000      -1.120045       -30.4780
  26   2.0000      -1.118868       -30.4459
  27   2.0000      -1.115931       -30.3660
  28   2.0000      -1.114836       -30.3362
  29   2.0000      -1.113230       -30.2925
  30   2.0000      -1.105340       -30.0778
  31   2.0000      -1.098252       -29.8850
  32   2.0000      -0.657509       -17.8917
  33   2.0000      -0.651718       -17.7341
  34   2.0000      -0.651364       -17.7245
  35   2.0000      -0.646763       -17.5993
  36   2.0000      -0.645222       -17.5574
  37   2.0000      -0.642776       -17.4908
  38   2.0000      -0.640256       -17.4222
  39   2.0000      -0.635976       -17.3058
  40   2.0000      -0.635724       -17.2989
  41   2.0000      -0.632720       -17.2172
  42   2.0000      -0.630106       -17.1460
  43   2.0000      -0.628420       -17.1002
  44   2.0000      -0.627675       -17.0799
  45   2.0000      -0.624859       -17.0033
  46   2.0000      -0.622942       -16.9511
  47   2.0000      -0.619093       -16.8464
  48   2.0000      -0.576060       -15.6754
  49   2.0000      -0.560857       -15.2617
  50   2.0000      -0.544636       -14.8203
  51   2.0000      -0.537424       -14.6241
  52   2.0000      -0.530200       -14.4275
  53   2.0000      -0.528991       -14.3946
  54   2.0000      -0.521026       -14.1779
  55   2.0000      -0.517493       -14.0817
  56   2.0000      -0.505511       -13.7556
  57   2.0000      -0.502276       -13.6676
  58   2.0000      -0.500681       -13.6242
  59   2.0000      -0.495995       -13.4967
  60   2.0000      -0.483356       -13.1528
  61   2.0000      -0.481000       -13.0887
  62   2.0000      -0.472012       -12.8441
  63   2.0000      -0.455772       -12.4022
  64   2.0000      -0.434793       -11.8313
  65   2.0000      -0.433756       -11.8031
  66   2.0000      -0.430795       -11.7225
  67   2.0000      -0.428267       -11.6537
  68   2.0000      -0.427155       -11.6235
  69   2.0000      -0.426981       -11.6187
  70   2.0000      -0.426067       -11.5939
  71   2.0000      -0.425225       -11.5710
  72   2.0000      -0.422678       -11.5017
  73   2.0000      -0.422455       -11.4956
  74   2.0000      -0.421421       -11.4674
  75   2.0000      -0.421129       -11.4595
  76   2.0000      -0.419452       -11.4139
  77   2.0000      -0.418958       -11.4004
  78   2.0000      -0.417676       -11.3655
  79   2.0000      -0.415893       -11.3170
  80   0.0000       0.061355         1.6696
  81   0.0000       0.074523         2.0279
  82   0.0000       0.091861         2.4997
  83   0.0000       0.093617         2.5474
  84   0.0000       0.101823         2.7707

MULLIKEN ATOMIC CHARGES
-----------------------
   0 O :   -0.841321
   1 H :    0.419138
   2 H :    0.439681
   3 O :   -0.883644
   4 H :    0.440029
   5 H :    0.420768
   6 O :   -0.883703
   7 H :    0.443905
   8 H :    0.432811
   9 O :   -0.835533
  10 H :    0.416650
  11 H :    0.425617
  12 O :   -0.841435
  13 H :    0.420992
  14 H :    0.415246
  15 O :   -0.842086
  16 H :    0.415374
  17 H :    0.427489
  18 O :   -0.878211
  19 H :    0.439749
  20 H :    0.428912
  21 O :   -0.812499
  22 H :    0.425030
  23 H :    0.423973
  24 O :   -0.851106
  25 H :    0.425017
  26 H :    0.415609
  27 O :   -0.889114
  28 H :    0.446156
  29 H :    0.408123
  30 O :   -0.811938
  31 H :    0.430323
  32 H :    0.418661
  33 O :   -0.892798
  34 H :    0.444101
  35 H :    0.438830
  36 O :   -0.912033
  37 H :    0.431597
  38 H :    0.446039
  39 O :   -0.816416
  40 H :    0.409243
  41 H :    0.436332
  42 O :   -0.868301
  43 H :    0.446177
  44 H :    0.419026
  45 O :   -0.855920
  46 H :    0.430796
  47 H :    0.434664
Sum of atomic charges:   -0.0000000

LOEWDIN ATOMIC CHARGES
----------------------
   0 O :   -0.377367
   1 H :    0.215143
   2 H :    0.196246
   3 O :   -0.412285
   4 H :    0.197599
   5 H :    0.188966
   6 O :   -0.407937
   7 H :    0.204862
   8 H :    0.189799
   9 O :   -0.399048
  10 H :    0.193171
  11 H :    0.199403
  12 O :   -0.375993
  13 H :    0.193740
  14 H :    0.216082
  15 O :   -0.374506
  16 H :    0.215845
  17 H :    0.195893
  18 O :   -0.408885
  19 H :    0.201096
  20 H :    0.191970
  21 O :   -0.401202
  22 H :    0.199820
  23 H :    0.194194
  24 O :   -0.376674
  25 H :    0.195776
  26 H :    0.215311
  27 O :   -0.404687
  28 H :    0.197408
  29 H :    0.187663
  30 O :   -0.402434
  31 H :    0.198959
  32 H :    0.194571
  33 O :   -0.403488
  34 H :    0.206929
  35 H :    0.192068
  36 O :   -0.402391
  37 H :    0.189413
  38 H :    0.202709
  39 O :   -0.395864
  40 H :    0.199520
  41 H :    0.194049
  42 O :   -0.399276
  43 H :    0.207335
  44 H :    0.195431
  45 O :   -0.419863
  46 H :    0.198293
  47 H :    0.192637

  Mayer bond orders larger than 0.1
B(  0-O ,  1-H ) :   0.8303 B(  0-O ,  2-H ) :   0.7757 B(  3-O ,  4-H ) :   0.8003
B(  3-O ,  5-H ) :   0.8053 B(  6-O ,  7-H ) :   0.8112 B(  6-O ,  8-H ) :   0.8026
B(  9-O , 10-H ) :   0.8116 B(  9-O , 11-H ) :   0.8235 B( 12-O , 13-H ) :   0.7786
B( 12-O , 14-H ) :   0.8350 B( 15-O , 16-H ) :   0.8333 B( 15-O , 17-H ) :   0.7806
B( 18-O , 19-H ) :   0.8053 B( 18-O , 20-H ) :   0.8026 B( 21-O , 22-H ) :   0.8317
B( 21-O , 23-H ) :   0.8171 B( 24-O , 25-H ) :   0.7825 B( 24-O , 26-H ) :   0.8341
B( 27-O , 28-H ) :   0.7890 B( 27-O , 29-H ) :   0.8062 B( 30-O , 31-H ) :   0.8257
B( 30-O , 32-H ) :   0.8199 B( 33-O , 34-H ) :   0.8194 B( 33-O , 35-H ) :   0.7937
B( 36-O , 37-H ) :   0.7939 B( 36-O , 38-H ) :   0.8095 B( 39-O , 40-H ) :   0.8455
B( 39-O , 41-H ) :   0.8076 B( 42-O , 43-H ) :   0.8164 B( 42-O , 44-H ) :   0.8018
B( 45-O , 46-H ) :   0.8110 B( 45-O , 47-H ) :   0.8082

Dispersion correction           -0.031982773
FINAL SINGLE POINT ENERGY     -1223.366567900964

DIPOLE MOMENT
-------------
                                X             Y             Z
Electronic contribution:      0.06149       0.06375       0.00546
Nuclear contribution   :     -0.03086       0.41806      -0.12573
                        -----------------------------------------
Total Dipole Moment    :      0.03063       0.48181      -0.12027
                        -----------------------------------------
Magnitude (a.u.)       :      0.49754
Magnitude (Debye)      :      1.26464

                             ****ORCA TERMINATED NORMALLY****
TOTAL RUN TIME: 0 days 0 hours 33 minutes 2 seconds 957 msec
