                         Program Version 3.0.3 - RELEASE   -
|  1> ! wB97X-D3 Def2-TZVP def2-TZVP/J RIJCOSX TightSCF Grid4
|  2>
|  3> %pal nprocs 12 end
|  4>
|  5> %scf
|  6>         maxiter 400
|  7> end
|  8>
|  9> * xyz  0  1
| 10> O  3.069307	0.853997	-3.052739
| 11> H  3.569637	1.357390	-3.720591
| 12> H  2.411056	0.237346	-3.584059
| 13> O  -2.207613	0.533820	-0.375330
| 14> H  -3.058659	0.761286	0.100572
| 15> H  -1.547974	1.205259	0.010676
| 16> O  -0.430829	-0.099117	-2.265419
| 17> H  -1.303720	0.131392	-1.843630
| 18> H  0.216715	0.575608	-1.866213
| 19> O  1.401540	-0.744474	-4.153757
| 20> H  1.682672	-1.599812	-3.720257
| 21> H  0.546173	-0.526820	-3.694459
| 22> O  2.299488	-2.764341	-2.557466
| 23> H  3.057637	-2.188300	-2.123140
| 24> H  2.718773	-3.595160	-2.846242
| 25> O  -3.993759	1.127441	1.503420
| 26> H  -4.891563	1.506125	1.477407
| 27> H  -3.381897	1.860928	1.932287
| 28> O  0.404903	0.109972	2.262593
| 29> H  -0.024555	0.335073	3.138784
| 30> H  -0.241918	-0.566151	1.862063
| 31> O  -3.058696	-0.855747	3.117800
| 32> H  -2.516234	-1.358521	2.450996
| 33> H  -3.583357	-0.223920	2.547424
| 34> O  -1.370956	0.780724	4.127829
| 35> H  -2.072438	0.078218	3.792437
| 36> H  -1.377544	0.725123	5.101100
| 37> O  1.362027	1.481580	-1.116185
| 38> H  2.045304	1.539099	-1.846223
| 39> H  1.742769	0.761240	-0.506386
| 40> O  -2.340671	2.777833	2.548060
| 41> H  -1.607470	2.825782	1.875973
| 42> H  -1.953442	2.197892	3.264759
| 43> O  -1.355894	-1.492585	1.103591
| 44> H  -0.802224	-2.051136	0.491288
| 45> H  -1.734008	-0.774090	0.490583
| 46> O  -0.417566	2.126688	0.754668
| 47> H  -0.035655	1.407427	1.364393
| 48> H  0.278268	2.235417	0.048184
| 49> O  4.012234	-1.179456	-1.502661
| 50> H  3.584421	-0.939643	-0.636251
| 51> H  3.851751	-0.368565	-2.065005
| 52> O  2.192484	-0.527508	0.391845
| 53> H  1.815059	-0.315788	1.289938
| 54> H  1.537071	-1.201982	0.003922
| 55> O  0.427312	-2.120195	-0.783322
| 56> H  1.030544	-2.635811	-1.393942
| 57> H  0.048012	-1.402297	-1.395664
| 58> **                         ****END OF INPUT****

CARTESIAN COORDINATES (ANGSTROEM)
---------------------------------
  O      3.069307    0.853997   -3.052739
  H      3.569637    1.357390   -3.720591
  H      2.411056    0.237346   -3.584059
  O     -2.207613    0.533820   -0.375330
  H     -3.058659    0.761286    0.100572
  H     -1.547974    1.205259    0.010676
  O     -0.430829   -0.099117   -2.265419
  H     -1.303720    0.131392   -1.843630
  H      0.216715    0.575608   -1.866213
  O      1.401540   -0.744474   -4.153757
  H      1.682672   -1.599812   -3.720257
  H      0.546173   -0.526820   -3.694459
  O      2.299488   -2.764341   -2.557466
  H      3.057637   -2.188300   -2.123140
  H      2.718773   -3.595160   -2.846242
  O     -3.993759    1.127441    1.503420
  H     -4.891563    1.506125    1.477407
  H     -3.381897    1.860928    1.932287
  O      0.404903    0.109972    2.262593
  H     -0.024555    0.335073    3.138784
  H     -0.241918   -0.566151    1.862063
  O     -3.058696   -0.855747    3.117800
  H     -2.516234   -1.358521    2.450996
  H     -3.583357   -0.223920    2.547424
  O     -1.370956    0.780724    4.127829
  H     -2.072438    0.078218    3.792437
  H     -1.377544    0.725123    5.101100
  O      1.362027    1.481580   -1.116185
  H      2.045304    1.539099   -1.846223
  H      1.742769    0.761240   -0.506386
  O     -2.340671    2.777833    2.548060
  H     -1.607470    2.825782    1.875973
  H     -1.953442    2.197892    3.264759
  O     -1.355894   -1.492585    1.103591
  H     -0.802224   -2.051136    0.491288
  H     -1.734008   -0.774090    0.490583
  O     -0.417566    2.126688    0.754668
  H     -0.035655    1.407427    1.364393
  H      0.278268    2.235417    0.048184
  O      4.012234   -1.179456   -1.502661
  H      3.584421   -0.939643   -0.636251
  H      3.851751   -0.368565   -2.065005
  O      2.192484   -0.527508    0.391845
  H      1.815059   -0.315788    1.289938
  H      1.537071   -1.201982    0.003922
  O      0.427312   -2.120195   -0.783322
  H      1.030544   -2.635811   -1.393942
  H      0.048012   -1.402297   -1.395664

 Total Charge           Charge          ....    0
 Multiplicity           Mult            ....    1
 Number of Electrons    NEL             ....  160
 Basis Dimension        Dim             ....  688

ORBITAL ENERGIES
----------------

  NO   OCC          E(Eh)            E(eV)
   0   2.0000     -19.251292      -523.8543
   1   2.0000     -19.251257      -523.8533
   2   2.0000     -19.251145      -523.8503
   3   2.0000     -19.250911      -523.8439
   4   2.0000     -19.240038      -523.5480
   5   2.0000     -19.239917      -523.5447
   6   2.0000     -19.239668      -523.5380
   7   2.0000     -19.239143      -523.5237
   8   2.0000     -19.238458      -523.5050
   9   2.0000     -19.238426      -523.5042
  10   2.0000     -19.238197      -523.4980
  11   2.0000     -19.238112      -523.4956
  12   2.0000     -19.235725      -523.4307
  13   2.0000     -19.235539      -523.4256
  14   2.0000     -19.235323      -523.4198
  15   2.0000     -19.235125      -523.4144
  16   2.0000      -1.160502       -31.5789
  17   2.0000      -1.153649       -31.3924
  18   2.0000      -1.143276       -31.1101
  19   2.0000      -1.141690       -31.0670
  20   2.0000      -1.139763       -31.0145
  21   2.0000      -1.134758       -30.8783
  22   2.0000      -1.132686       -30.8220
  23   2.0000      -1.129596       -30.7379
  24   2.0000      -1.123152       -30.5625
  25   2.0000      -1.117690       -30.4139
  26   2.0000      -1.116873       -30.3917
  27   2.0000      -1.112350       -30.2686
  28   2.0000      -1.111091       -30.2343
  29   2.0000      -1.110066       -30.2064
  30   2.0000      -1.101556       -29.9749
  31   2.0000      -1.091201       -29.6931
  32   2.0000      -0.659239       -17.9388
  33   2.0000      -0.657584       -17.8938
  34   2.0000      -0.656408       -17.8618
  35   2.0000      -0.654279       -17.8038
  36   2.0000      -0.653070       -17.7709
  37   2.0000      -0.647116       -17.6089
  38   2.0000      -0.646320       -17.5873
  39   2.0000      -0.643527       -17.5113
  40   2.0000      -0.636576       -17.3221
  41   2.0000      -0.634246       -17.2587
  42   2.0000      -0.629390       -17.1266
  43   2.0000      -0.628708       -17.1080
  44   2.0000      -0.627680       -17.0800
  45   2.0000      -0.622555       -16.9406
  46   2.0000      -0.620716       -16.8905
  47   2.0000      -0.619161       -16.8482
  48   2.0000      -0.586153       -15.9500
  49   2.0000      -0.572886       -15.5890
  50   2.0000      -0.547387       -14.8951
  51   2.0000      -0.543499       -14.7894
  52   2.0000      -0.538288       -14.6476
  53   2.0000      -0.530616       -14.4388
  54   2.0000      -0.528100       -14.3703
  55   2.0000      -0.523202       -14.2370
  56   2.0000      -0.507070       -13.7981
  57   2.0000      -0.505466       -13.7544
  58   2.0000      -0.503450       -13.6996
  59   2.0000      -0.501923       -13.6580
  60   2.0000      -0.482408       -13.1270
  61   2.0000      -0.481017       -13.0891
  62   2.0000      -0.469993       -12.7892
  63   2.0000      -0.448922       -12.2158
  64   2.0000      -0.437449       -11.9036
  65   2.0000      -0.435714       -11.8564
  66   2.0000      -0.434873       -11.8335
  67   2.0000      -0.430885       -11.7250
  68   2.0000      -0.429335       -11.6828
  69   2.0000      -0.427413       -11.6305
  70   2.0000      -0.426209       -11.5977
  71   2.0000      -0.424128       -11.5411
  72   2.0000      -0.422388       -11.4938
  73   2.0000      -0.421860       -11.4794
  74   2.0000      -0.420311       -11.4372
  75   2.0000      -0.418113       -11.3774
  76   2.0000      -0.416887       -11.3441
  77   2.0000      -0.416615       -11.3367
  78   2.0000      -0.416187       -11.3250
  79   2.0000      -0.414523       -11.2797
  80   0.0000       0.079697         2.1687
  81   0.0000       0.095109         2.5881
  82   0.0000       0.117314         3.1923
  83   0.0000       0.117553         3.1988
  84   0.0000       0.132434         3.6037

MULLIKEN ATOMIC CHARGES
-----------------------
   0 O :   -0.771449
   1 H :    0.355903
   2 H :    0.372797
   3 O :   -0.761728
   4 H :    0.387208
   5 H :    0.351923
   6 O :   -0.761112
   7 H :    0.403985
   8 H :    0.352444
   9 O :   -0.691463
  10 H :    0.366503
  11 H :    0.391555
  12 O :   -0.771867
  13 H :    0.372581
  14 H :    0.356039
  15 O :   -0.770982
  16 H :    0.355721
  17 H :    0.371837
  18 O :   -0.761784
  19 H :    0.387336
  20 H :    0.351381
  21 O :   -0.690951
  22 H :    0.392645
  23 H :    0.367558
  24 O :   -0.771759
  25 H :    0.371253
  26 H :    0.355976
  27 O :   -0.763181
  28 H :    0.387483
  29 H :    0.357497
  30 O :   -0.692810
  31 H :    0.393705
  32 H :    0.367511
  33 O :   -0.761393
  34 H :    0.404071
  35 H :    0.355182
  36 O :   -0.763972
  37 H :    0.356296
  38 H :    0.405501
  39 O :   -0.691401
  40 H :    0.391417
  41 H :    0.365950
  42 O :   -0.761794
  43 H :    0.404646
  44 H :    0.351982
  45 O :   -0.761873
  46 H :    0.386809
  47 H :    0.356824
Sum of atomic charges:    0.0000000

LOEWDIN ATOMIC CHARGES
----------------------
   0 O :   -0.318993
   1 H :    0.163960
   2 H :    0.144978
   3 O :   -0.308810
   4 H :    0.149661
   5 H :    0.138598
   6 O :   -0.301945
   7 H :    0.158503
   8 H :    0.139396
   9 O :   -0.270258
  10 H :    0.148095
  11 H :    0.156841
  12 O :   -0.319332
  13 H :    0.145185
  14 H :    0.163948
  15 O :   -0.319394
  16 H :    0.163995
  17 H :    0.144424
  18 O :   -0.308719
  19 H :    0.150303
  20 H :    0.138691
  21 O :   -0.270540
  22 H :    0.157277
  23 H :    0.149148
  24 O :   -0.321089
  25 H :    0.144512
  26 H :    0.163908
  27 O :   -0.308874
  28 H :    0.150201
  29 H :    0.139051
  30 O :   -0.271198
  31 H :    0.156918
  32 H :    0.149360
  33 O :   -0.301805
  34 H :    0.158758
  35 H :    0.139784
  36 O :   -0.302625
  37 H :    0.139611
  38 H :    0.158454
  39 O :   -0.271819
  40 H :    0.156468
  41 H :    0.148084
  42 O :   -0.301077
  43 H :    0.158514
  44 H :    0.139674
  45 O :   -0.309030
  46 H :    0.150092
  47 H :    0.139115

  Mayer bond orders larger than 0.1
B(  0-O ,  1-H ) :   0.8771 B(  0-O ,  2-H ) :   0.6981 B(  0-O , 28-H ) :   0.1028
B(  2-H ,  9-O ) :   0.2150 B(  3-O ,  4-H ) :   0.7926 B(  3-O ,  5-H ) :   0.7570
B(  3-O , 35-H ) :   0.1615 B(  4-H , 15-O ) :   0.1039 B(  5-H , 36-O ) :   0.1621
B(  6-O ,  7-H ) :   0.7998 B(  6-O ,  8-H ) :   0.7586 B(  6-O , 47-H ) :   0.1605
B(  8-H , 27-O ) :   0.1612 B(  9-O , 10-H ) :   0.8132 B(  9-O , 11-H ) :   0.8151
B( 12-O , 13-H ) :   0.6981 B( 12-O , 14-H ) :   0.8770 B( 12-O , 46-H ) :   0.1023
B( 13-H , 39-O ) :   0.2155 B( 15-O , 16-H ) :   0.8773 B( 15-O , 17-H ) :   0.6979
B( 17-H , 30-O ) :   0.2155 B( 18-O , 19-H ) :   0.7927 B( 18-O , 20-H ) :   0.7569
B( 18-O , 37-H ) :   0.1596 B( 19-H , 24-O ) :   0.1033 B( 20-H , 33-O ) :   0.1626
B( 21-O , 22-H ) :   0.8151 B( 21-O , 23-H ) :   0.8131 B( 21-O , 25-H ) :   0.2165
B( 24-O , 25-H ) :   0.6974 B( 24-O , 26-H ) :   0.8771 B( 27-O , 28-H ) :   0.7927
B( 27-O , 29-H ) :   0.7563 B( 29-H , 42-O ) :   0.1603 B( 30-O , 31-H ) :   0.8135
B( 30-O , 32-H ) :   0.8132 B( 33-O , 34-H ) :   0.8000 B( 33-O , 35-H ) :   0.7573
B( 36-O , 37-H ) :   0.7577 B( 36-O , 38-H ) :   0.7970 B( 39-O , 40-H ) :   0.8149
B( 39-O , 41-H ) :   0.8131 B( 42-O , 43-H ) :   0.7982 B( 42-O , 44-H ) :   0.7584
B( 44-H , 45-O ) :   0.1616 B( 45-O , 46-H ) :   0.7938 B( 45-O , 47-H ) :   0.7571

Dispersion correction           -0.033088118
FINAL SINGLE POINT ENERGY     -1223.300409257772

DIPOLE MOMENT
-------------
                                X             Y             Z
Electronic contribution:     -0.00553       0.00262      -0.00066
Nuclear contribution   :      0.01380      -0.02052      -0.00427
                        -----------------------------------------
Total Dipole Moment    :      0.00828      -0.01790      -0.00493
                        -----------------------------------------
Magnitude (a.u.)       :      0.02033
Magnitude (Debye)      :      0.05168

                             ****ORCA TERMINATED NORMALLY****
TOTAL RUN TIME: 0 days 0 hours 2 minutes 8 seconds 593 msec
