                         Program Version 4.2.0 -  RELEASE  -
|  1> # 12h2o.su.etal.mol0,1,2,4,7,11
|  2> ! MP2 def2-TZVP EnGrad TightSCF
|  3>
|  4> %pal
|  5>     nprocs 6
|  6> end
|  7>
|  8> %maxcore 8000
|  9>
| 10> %scf
| 11>     ConvForced true
| 12> end
| 13>
| 14> *xyz 0 1
| 15> O   1.794470000   0.923410000   2.768350000
| 16> H   2.338250000   1.359750000   3.430940000
| 17> H   0.879480000   1.303000000   2.865760000
| 18> O  -1.794470000  -0.923410000   2.768350000
| 19> H  -2.338250000  -1.359750000   3.430940000
| 20> H  -0.879480000  -1.303000000   2.865760000
| 21> O   0.923410000  -1.794470000  -2.768350000
| 22> H   1.359750000  -2.338250000  -3.430940000
| 23> H   1.303000000  -0.879480000  -2.865760000
| 24> O  -0.885520000   1.737840000   0.052730000
| 25> H  -1.032320000   2.090180000  -0.841890000
| 26> H  -1.284090000   0.839590000   0.017130000
| 27> O  -1.737840000  -0.885520000  -0.052730000
| 28> H  -2.090180000  -1.032320000   0.841890000
| 29> H  -0.839590000  -1.284090000  -0.017130000
| 30> O  -0.741530000   1.752130000   2.896280000
| 31> H  -0.920500000   2.036450000   1.984040000
| 32> H  -1.242140000   0.921210000   2.984230000
| 33> *
| 34>
| 35>                          ****END OF INPUT****

CARTESIAN COORDINATES (ANGSTROEM)
---------------------------------
  O      1.794470    0.923410    2.768350
  H      2.338250    1.359750    3.430940
  H      0.879480    1.303000    2.865760
  O     -1.794470   -0.923410    2.768350
  H     -2.338250   -1.359750    3.430940
  H     -0.879480   -1.303000    2.865760
  O      0.923410   -1.794470   -2.768350
  H      1.359750   -2.338250   -3.430940
  H      1.303000   -0.879480   -2.865760
  O     -0.885520    1.737840    0.052730
  H     -1.032320    2.090180   -0.841890
  H     -1.284090    0.839590    0.017130
  O     -1.737840   -0.885520   -0.052730
  H     -2.090180   -1.032320    0.841890
  H     -0.839590   -1.284090   -0.017130
  O     -0.741530    1.752130    2.896280
  H     -0.920500    2.036450    1.984040
  H     -1.242140    0.921210    2.984230

 Total Charge           Charge          ....    0
 Multiplicity           Mult            ....    1
 Number of Electrons    NEL             ....   60
 Basis Dimension        Dim             ....  258

ORBITAL ENERGIES
----------------

  NO   OCC          E(Eh)            E(eV)
   0   2.0000     -20.618961      -561.0705
   1   2.0000     -20.568131      -559.6873
   2   2.0000     -20.565265      -559.6093
   3   2.0000     -20.540451      -558.9341
   4   2.0000     -20.537384      -558.8506
   5   2.0000     -20.502716      -557.9073
   6   2.0000      -1.399484       -38.0819
   7   2.0000      -1.352780       -36.8110
   8   2.0000      -1.340541       -36.4780
   9   2.0000      -1.332505       -36.2593
  10   2.0000      -1.319609       -35.9084
  11   2.0000      -1.284114       -34.9425
  12   2.0000      -0.764745       -20.8098
  13   2.0000      -0.716265       -19.4906
  14   2.0000      -0.708831       -19.2883
  15   2.0000      -0.702124       -19.1058
  16   2.0000      -0.692672       -18.8486
  17   2.0000      -0.670435       -18.2435
  18   2.0000      -0.640155       -17.4195
  19   2.0000      -0.596616       -16.2348
  20   2.0000      -0.593121       -16.1396
  21   2.0000      -0.577134       -15.7046
  22   2.0000      -0.556914       -15.1544
  23   2.0000      -0.550407       -14.9773
  24   2.0000      -0.524647       -14.2764
  25   2.0000      -0.508475       -13.8363
  26   2.0000      -0.506676       -13.7874
  27   2.0000      -0.490135       -13.3372
  28   2.0000      -0.475618       -12.9422
  29   2.0000      -0.453543       -12.3415
  30   0.0000       0.093071         2.5326
  31   0.0000       0.118443         3.2230
  32   0.0000       0.153917         4.1883
  33   0.0000       0.164876         4.4865
  34   0.0000       0.180478         4.9110

MULLIKEN ATOMIC CHARGES
-----------------------
   0 O :   -0.742848
   1 H :    0.319733
   2 H :    0.369604
   3 O :   -0.723121
   4 H :    0.367855
   5 H :    0.378777
   6 O :   -0.686140
   7 H :    0.340527
   8 H :    0.347452
   9 O :   -0.726610
  10 H :    0.336310
  11 H :    0.358105
  12 O :   -0.694534
  13 H :    0.373121
  14 H :    0.357109
  15 O :   -0.716410
  16 H :    0.386725
  17 H :    0.354345
Sum of atomic charges:    0.0000000

LOEWDIN ATOMIC CHARGES
----------------------
   0 O :   -0.378961
   1 H :    0.145612
   2 H :    0.141576
   3 O :   -0.288235
   4 H :    0.169657
   5 H :    0.195157
   6 O :   -0.339962
   7 H :    0.158882
   8 H :    0.182901
   9 O :   -0.342247
  10 H :    0.163101
  11 H :    0.144055
  12 O :   -0.294781
  13 H :    0.150447
  14 H :    0.177978
  15 O :   -0.288427
  16 H :    0.158628
  17 H :    0.144618

  Mayer bond orders larger than 0.100000
B(  0-O ,  1-H ) :   0.8634 B(  0-O ,  2-H ) :   0.7688 B(  2-H , 15-O ) :   0.1032
B(  3-O ,  4-H ) :   0.8300 B(  3-O ,  5-H ) :   0.8130 B(  6-O ,  7-H ) :   0.8520
B(  6-O ,  8-H ) :   0.8423 B(  9-O , 10-H ) :   0.8510 B(  9-O , 11-H ) :   0.7753
B( 12-O , 13-H ) :   0.8109 B( 12-O , 14-H ) :   0.8330 B( 15-O , 16-H ) :   0.7979
B( 15-O , 17-H ) :   0.8229

MP2 TOTAL ENERGY:     -457.920486855 Eh
FINAL SINGLE POINT ENERGY      -457.920486854602

DIPOLE MOMENT
-------------
                                X             Y             Z
Electronic contribution:     -0.48112      -0.16821      -0.06477
Nuclear contribution   :      0.11394      -1.05433      -0.05351
                        -----------------------------------------
Total Dipole Moment    :     -0.36718      -1.22253      -0.11828
                        -----------------------------------------
Magnitude (a.u.)       :      1.28195
Magnitude (Debye)      :      3.25846

Rotational constants in cm-1:     0.051766     0.024652     0.021926
Rotational constants in MHz :  1551.909716   739.039601   657.330341

                             ****ORCA TERMINATED NORMALLY****
TOTAL RUN TIME: 0 days 0 hours 1 minutes 1 seconds 189 msec
