                         Program Version 4.2.0 -  RELEASE  -
|  1> # 12mecn.remya.etal.2.mol3,7,8
|  2> ! MP2 def2-TZVP EnGrad TightSCF
|  3>
|  4> %pal
|  5>     nprocs 6
|  6> end
|  7>
|  8> %maxcore 8000
|  9>
| 10> %scf
| 11>     ConvForced true
| 12> end
| 13>
| 14> *xyz 0 1
| 15> C  -5.181310000   2.853865000  -1.626100000
| 16> H  -5.488260000   3.811434000  -2.053310000
| 17> H  -5.857590000   2.068112000  -1.968630000
| 18> H  -4.170750000   2.611402000  -1.966640000
| 19> C  -5.187260000   2.919160000  -0.181450000
| 20> N  -5.181700000   2.970641000   0.983640000
| 21> C   1.502241000   0.651296000   1.710523000
| 22> H   1.309219000   1.637164000   2.143202000
| 23> H   2.493408000   0.297996000   2.009069000
| 24> H   0.746597000  -0.059850000   2.055508000
| 25> C   1.447974000   0.738517000   0.269805000
| 26> N   1.405612000   0.808047000  -0.894380000
| 27> C   1.912641000  -2.468050000  -1.750510000
| 28> H   2.876947000  -2.793500000  -2.151200000
| 29> H   1.688016000  -1.463720000  -2.122170000
| 30> H   1.123460000  -3.154780000  -2.069590000
| 31> C   1.977850000  -2.444240000  -0.306900000
| 32> N   2.036566000  -2.426130000   0.858249000
| 33> *
| 34>
| 35>                          ****END OF INPUT****

CARTESIAN COORDINATES (ANGSTROEM)
---------------------------------
  C     -5.181310    2.853865   -1.626100
  H     -5.488260    3.811434   -2.053310
  H     -5.857590    2.068112   -1.968630
  H     -4.170750    2.611402   -1.966640
  C     -5.187260    2.919160   -0.181450
  N     -5.181700    2.970641    0.983640
  C      1.502241    0.651296    1.710523
  H      1.309219    1.637164    2.143202
  H      2.493408    0.297996    2.009069
  H      0.746597   -0.059850    2.055508
  C      1.447974    0.738517    0.269805
  N      1.405612    0.808047   -0.894380
  C      1.912641   -2.468050   -1.750510
  H      2.876947   -2.793500   -2.151200
  H      1.688016   -1.463720   -2.122170
  H      1.123460   -3.154780   -2.069590
  C      1.977850   -2.444240   -0.306900
  N      2.036566   -2.426130    0.858249

 Total Charge           Charge          ....    0
 Multiplicity           Mult            ....    1
 Number of Electrons    NEL             ....   66
 Basis Dimension        Dim             ....  333

ORBITAL ENERGIES
----------------

  NO   OCC          E(Eh)            E(eV)
   0   2.0000     -15.572640      -423.7531
   1   2.0000     -15.571128      -423.7119
   2   2.0000     -15.569085      -423.6564
   3   2.0000     -11.283749      -307.0464
   4   2.0000     -11.282640      -307.0162
   5   2.0000     -11.281578      -306.9873
   6   2.0000     -11.279835      -306.9399
   7   2.0000     -11.274121      -306.7844
   8   2.0000     -11.270970      -306.6987
   9   2.0000      -1.217300       -33.1244
  10   2.0000      -1.214374       -33.0448
  11   2.0000      -1.212541       -32.9949
  12   2.0000      -1.042785       -28.3756
  13   2.0000      -1.036906       -28.2156
  14   2.0000      -1.032998       -28.1093
  15   2.0000      -0.700266       -19.0552
  16   2.0000      -0.694066       -18.8865
  17   2.0000      -0.688991       -18.7484
  18   2.0000      -0.631485       -17.1836
  19   2.0000      -0.629178       -17.1208
  20   2.0000      -0.629072       -17.1179
  21   2.0000      -0.625359       -17.0169
  22   2.0000      -0.618775       -16.8377
  23   2.0000      -0.615557       -16.7502
  24   2.0000      -0.558327       -15.1929
  25   2.0000      -0.555740       -15.1225
  26   2.0000      -0.555417       -15.1137
  27   2.0000      -0.463221       -12.6049
  28   2.0000      -0.458705       -12.4820
  29   2.0000      -0.457714       -12.4550
  30   2.0000      -0.457160       -12.4400
  31   2.0000      -0.455824       -12.4036
  32   2.0000      -0.451017       -12.2728
  33   0.0000       0.119907         3.2628
  34   0.0000       0.126434         3.4404
  35   0.0000       0.145131         3.9492
  36   0.0000       0.171931         4.6785
  37   0.0000       0.172677         4.6988

MULLIKEN ATOMIC CHARGES
-----------------------
   0 C :   -0.281783
   1 H :    0.172057
   2 H :    0.171348
   3 H :    0.175947
   4 C :   -0.145143
   5 N :   -0.092436
   6 C :   -0.255030
   7 H :    0.172840
   8 H :    0.175717
   9 H :    0.178923
  10 C :   -0.122397
  11 N :   -0.149806
  12 C :   -0.286793
  13 H :    0.166966
  14 H :    0.203423
  15 H :    0.166120
  16 C :   -0.112682
  17 N :   -0.137272
Sum of atomic charges:   -0.0000000

LOEWDIN ATOMIC CHARGES
----------------------
   0 C :   -0.283734
   1 H :    0.151466
   2 H :    0.151388
   3 H :    0.154188
   4 C :   -0.218469
   5 N :    0.045157
   6 C :   -0.283375
   7 H :    0.150583
   8 H :    0.156931
   9 H :    0.157472
  10 C :   -0.211011
  11 N :    0.025290
  12 C :   -0.282242
  13 H :    0.152278
  14 H :    0.156786
  15 H :    0.151363
  16 C :   -0.209922
  17 N :    0.035851

  Mayer bond orders larger than 0.100000
B(  0-C ,  1-H ) :   0.9160 B(  0-C ,  2-H ) :   0.9167 B(  0-C ,  3-H ) :   0.9158
B(  0-C ,  4-C ) :   0.9028 B(  4-C ,  5-N ) :   2.8383 B(  6-C ,  7-H ) :   0.9093
B(  6-C ,  8-H ) :   0.9128 B(  6-C ,  9-H ) :   0.9115 B(  6-C , 10-C ) :   0.9116
B( 10-C , 11-N ) :   2.7852 B( 12-C , 13-H ) :   0.9153 B( 12-C , 14-H ) :   0.9040
B( 12-C , 15-H ) :   0.9160 B( 12-C , 16-C ) :   0.8992 B( 16-C , 17-N ) :   2.7931

MP2 TOTAL ENERGY:     -397.459644163 Eh
FINAL SINGLE POINT ENERGY      -397.459644163414

DIPOLE MOMENT
-------------
                                X             Y             Z
Electronic contribution:      0.00533       0.39578       3.16685
Nuclear contribution   :     -0.01219      -0.58375      -4.67265
                        -----------------------------------------
Total Dipole Moment    :     -0.00687      -0.18796      -1.50580
                        -----------------------------------------
Magnitude (a.u.)       :      1.51750
Magnitude (Debye)      :      3.85719

Rotational constants in cm-1:     0.054772     0.008960     0.008459
Rotational constants in MHz :  1642.012511   268.627076   253.595352

                             ****ORCA TERMINATED NORMALLY****
TOTAL RUN TIME: 0 days 0 hours 4 minutes 28 seconds 153 msec
