                         Program Version 4.2.0 -  RELEASE  -
|  1> # 12meoh.boyd.etal.mol1,3
|  2> ! MP2 def2-TZVP EnGrad TightSCF
|  3>
|  4> %pal
|  5>     nprocs 6
|  6> end
|  7>
|  8> %maxcore 8000
|  9>
| 10> %scf
| 11>     ConvForced true
| 12> end
| 13>
| 14> *xyz 0 1
| 15> O   0.666045193  -2.600503172   0.138317521
| 16> H  -0.227115049  -2.712051982  -0.281868004
| 17> C   0.490021232  -1.851247678   1.341189459
| 18> H   1.466500502  -1.466176022   1.645844415
| 19> H   0.097564527  -2.488364683   2.146902740
| 20> H  -0.187588112  -1.000787499   1.200739571
| 21> O  -3.821405976  -2.118091637   0.596795346
| 22> H  -4.342989117  -1.344303030   0.251966383
| 23> C  -3.443883586  -1.809641231   1.934889393
| 24> H  -2.831494349  -2.637429600   2.305201764
| 25> H  -4.325601146  -1.719364371   2.585074667
| 26> H  -2.858527126  -0.882644791   1.996110694
| 27> *
| 28>
| 29>                          ****END OF INPUT****

CARTESIAN COORDINATES (ANGSTROEM)
---------------------------------
  O      0.666045   -2.600503    0.138318
  H     -0.227115   -2.712052   -0.281868
  C      0.490021   -1.851248    1.341189
  H      1.466501   -1.466176    1.645844
  H      0.097565   -2.488365    2.146903
  H     -0.187588   -1.000787    1.200740
  O     -3.821406   -2.118092    0.596795
  H     -4.342989   -1.344303    0.251966
  C     -3.443884   -1.809641    1.934889
  H     -2.831494   -2.637430    2.305202
  H     -4.325601   -1.719364    2.585075
  H     -2.858527   -0.882645    1.996111

 Total Charge           Charge          ....    0
 Multiplicity           Mult            ....    1
 Number of Electrons    NEL             ....   36
 Basis Dimension        Dim             ....  172

ORBITAL ENERGIES
----------------

  NO   OCC          E(Eh)            E(eV)
   0   2.0000     -20.567143      -559.6604
   1   2.0000     -20.552354      -559.2580
   2   2.0000     -11.279896      -306.9416
   3   2.0000     -11.269416      -306.6564
   4   2.0000      -1.356140       -36.9024
   5   2.0000      -1.340637       -36.4806
   6   2.0000      -0.928047       -25.2534
   7   2.0000      -0.917027       -24.9536
   8   2.0000      -0.690308       -18.7842
   9   2.0000      -0.677110       -18.4251
  10   2.0000      -0.626375       -17.0445
  11   2.0000      -0.613760       -16.7013
  12   2.0000      -0.598899       -16.2969
  13   2.0000      -0.586329       -15.9548
  14   2.0000      -0.509746       -13.8709
  15   2.0000      -0.497736       -13.5441
  16   2.0000      -0.458394       -12.4735
  17   2.0000      -0.445533       -12.1236
  18   0.0000       0.117579         3.1995
  19   0.0000       0.152713         4.1555
  20   0.0000       0.161868         4.4047
  21   0.0000       0.192377         5.2349
  22   0.0000       0.200028         5.4430

MULLIKEN ATOMIC CHARGES
-----------------------
   0 O :   -0.500946
   1 H :    0.328916
   2 C :   -0.170668
   3 H :    0.131261
   4 H :    0.103577
   5 H :    0.107539
   6 O :   -0.500302
   7 H :    0.324053
   8 C :   -0.181249
   9 H :    0.130644
  10 H :    0.119581
  11 H :    0.107593
Sum of atomic charges:    0.0000000

LOEWDIN ATOMIC CHARGES
----------------------
   0 O :   -0.111884
   1 H :    0.192338
   2 C :   -0.378410
   3 H :    0.108618
   4 H :    0.094603
   5 H :    0.094589
   6 O :   -0.110425
   7 H :    0.192132
   8 C :   -0.383832
   9 H :    0.110252
  10 H :    0.097799
  11 H :    0.094220

  Mayer bond orders larger than 0.100000
B(  0-O ,  1-H ) :   0.8386 B(  0-O ,  2-C ) :   0.9337 B(  2-C ,  3-H ) :   0.9368
B(  2-C ,  4-H ) :   0.9389 B(  2-C ,  5-H ) :   0.9423 B(  6-O ,  7-H ) :   0.8410
B(  6-O ,  8-C ) :   0.9211 B(  8-C ,  9-H ) :   0.9375 B(  8-C , 10-H ) :   0.9374
B(  8-C , 11-H ) :   0.9385

MP2 TOTAL ENERGY:     -231.015055908 Eh
FINAL SINGLE POINT ENERGY      -231.015055908270

DIPOLE MOMENT
-------------
                                X             Y             Z
Electronic contribution:     -0.06264      -1.45605      -3.16571
Nuclear contribution   :     -0.76637       2.29573       3.71426
                        -----------------------------------------
Total Dipole Moment    :     -0.82901       0.83968       0.54854
                        -----------------------------------------
Magnitude (a.u.)       :      1.30124
Magnitude (Debye)      :      3.30748

Rotational constants in cm-1:     0.415736     0.056360     0.051102
Rotational constants in MHz : 12463.447736  1689.624194  1532.004663

                             ****ORCA TERMINATED NORMALLY****
TOTAL RUN TIME: 0 days 0 hours 0 minutes 46 seconds 399 msec
