                         Program Version 4.2.0 -  RELEASE  -
|  1> # 12h2o.su.etal.mol1,4,5,8,9,11
|  2> ! MP2 def2-TZVP EnGrad TightSCF
|  3>
|  4> %pal
|  5>     nprocs 6
|  6> end
|  7>
|  8> %maxcore 8000
|  9>
| 10> %scf
| 11>     ConvForced true
| 12> end
| 13>
| 14> *xyz 0 1
| 15> O  -1.794470000  -0.923410000   2.768350000
| 16> H  -2.338250000  -1.359750000   3.430940000
| 17> H  -0.879480000  -1.303000000   2.865760000
| 18> O  -0.885520000   1.737840000   0.052730000
| 19> H  -1.032320000   2.090180000  -0.841890000
| 20> H  -1.284090000   0.839590000   0.017130000
| 21> O   0.885520000  -1.737840000   0.052730000
| 22> H   1.284090000  -0.839590000   0.017130000
| 23> H   1.032320000  -2.090180000  -0.841890000
| 24> O   1.752130000   0.741530000  -2.896280000
| 25> H   2.036450000   0.920500000  -1.984040000
| 26> H   0.921210000   1.242140000  -2.984230000
| 27> O   0.741530000  -1.752130000   2.896280000
| 28> H   0.920500000  -2.036450000   1.984040000
| 29> H   1.242140000  -0.921210000   2.984230000
| 30> O  -0.741530000   1.752130000   2.896280000
| 31> H  -0.920500000   2.036450000   1.984040000
| 32> H  -1.242140000   0.921210000   2.984230000
| 33> *
| 34>
| 35>                          ****END OF INPUT****

CARTESIAN COORDINATES (ANGSTROEM)
---------------------------------
  O     -1.794470   -0.923410    2.768350
  H     -2.338250   -1.359750    3.430940
  H     -0.879480   -1.303000    2.865760
  O     -0.885520    1.737840    0.052730
  H     -1.032320    2.090180   -0.841890
  H     -1.284090    0.839590    0.017130
  O      0.885520   -1.737840    0.052730
  H      1.284090   -0.839590    0.017130
  H      1.032320   -2.090180   -0.841890
  O      1.752130    0.741530   -2.896280
  H      2.036450    0.920500   -1.984040
  H      0.921210    1.242140   -2.984230
  O      0.741530   -1.752130    2.896280
  H      0.920500   -2.036450    1.984040
  H      1.242140   -0.921210    2.984230
  O     -0.741530    1.752130    2.896280
  H     -0.920500    2.036450    1.984040
  H     -1.242140    0.921210    2.984230

 Total Charge           Charge          ....    0
 Multiplicity           Mult            ....    1
 Number of Electrons    NEL             ....   60
 Basis Dimension        Dim             ....  258

ORBITAL ENERGIES
----------------

  NO   OCC          E(Eh)            E(eV)
   0   2.0000     -20.602758      -560.6296
   1   2.0000     -20.594143      -560.3951
   2   2.0000     -20.588691      -560.2468
   3   2.0000     -20.572236      -559.7990
   4   2.0000     -20.535219      -558.7917
   5   2.0000     -20.501565      -557.8759
   6   2.0000      -1.381832       -37.6016
   7   2.0000      -1.372266       -37.3413
   8   2.0000      -1.367554       -37.2130
   9   2.0000      -1.360301       -37.0157
  10   2.0000      -1.318960       -35.8907
  11   2.0000      -1.286409       -35.0050
  12   2.0000      -0.745067       -20.2743
  13   2.0000      -0.733797       -19.9676
  14   2.0000      -0.730403       -19.8753
  15   2.0000      -0.720355       -19.6019
  16   2.0000      -0.702941       -19.1280
  17   2.0000      -0.665552       -18.1106
  18   2.0000      -0.629647       -17.1336
  19   2.0000      -0.611229       -16.6324
  20   2.0000      -0.604629       -16.4528
  21   2.0000      -0.595249       -16.1976
  22   2.0000      -0.563130       -15.3236
  23   2.0000      -0.547399       -14.8955
  24   2.0000      -0.540531       -14.7086
  25   2.0000      -0.532045       -14.4777
  26   2.0000      -0.522697       -14.2233
  27   2.0000      -0.506967       -13.7953
  28   2.0000      -0.482012       -13.1162
  29   2.0000      -0.451714       -12.2918
  30   0.0000       0.067230         1.8294
  31   0.0000       0.113444         3.0870
  32   0.0000       0.137372         3.7381
  33   0.0000       0.155278         4.2253
  34   0.0000       0.172378         4.6907

MULLIKEN ATOMIC CHARGES
-----------------------
   0 O :   -0.742708
   1 H :    0.336790
   2 H :    0.383411
   3 O :   -0.698298
   4 H :    0.336158
   5 H :    0.363547
   6 O :   -0.698118
   7 H :    0.342290
   8 H :    0.361941
   9 O :   -0.666829
  10 H :    0.333838
  11 H :    0.335078
  12 O :   -0.699956
  13 H :    0.385815
  14 H :    0.353096
  15 O :   -0.735066
  16 H :    0.360099
  17 H :    0.348911
Sum of atomic charges:    0.0000000

LOEWDIN ATOMIC CHARGES
----------------------
   0 O :   -0.342785
   1 H :    0.153653
   2 H :    0.145841
   3 O :   -0.317676
   4 H :    0.163025
   5 H :    0.180122
   6 O :   -0.315648
   7 H :    0.171035
   8 H :    0.175622
   9 O :   -0.325482
  10 H :    0.161475
  11 H :    0.165192
  12 O :   -0.275261
  13 H :    0.159285
  14 H :    0.171950
  15 O :   -0.359089
  16 H :    0.147110
  17 H :    0.141632

  Mayer bond orders larger than 0.100000
B(  0-O ,  1-H ) :   0.8509 B(  0-O ,  2-H ) :   0.7575 B(  3-O ,  4-H ) :   0.8479
B(  3-O ,  5-H ) :   0.8262 B(  6-O ,  7-H ) :   0.8384 B(  6-O ,  8-H ) :   0.8349
B(  9-O , 10-H ) :   0.8533 B(  9-O , 11-H ) :   0.8531 B( 12-O , 13-H ) :   0.8035
B( 12-O , 14-H ) :   0.8362 B( 15-O , 16-H ) :   0.8333 B( 15-O , 17-H ) :   0.8151

MP2 TOTAL ENERGY:     -457.915123793 Eh
FINAL SINGLE POINT ENERGY      -457.915123793182

DIPOLE MOMENT
-------------
                                X             Y             Z
Electronic contribution:      0.26300      -0.28872      -0.06015
Nuclear contribution   :     -0.14599      -0.11349      -1.60207
                        -----------------------------------------
Total Dipole Moment    :      0.11701      -0.40221      -1.66222
                        -----------------------------------------
Magnitude (a.u.)       :      1.71418
Magnitude (Debye)      :      4.35711

Rotational constants in cm-1:     0.052760     0.026713     0.019946
Rotational constants in MHz :  1581.712279   800.836996   597.958371

                             ****ORCA TERMINATED NORMALLY****
TOTAL RUN TIME: 0 days 0 hours 1 minutes 26 seconds 590 msec
