                         Program Version 4.2.0 -  RELEASE  -
|  1> # 12h2o.su.etal.mol3,6,7,9,11
|  2> ! MP2 def2-TZVP EnGrad TightSCF
|  3>
|  4> %pal
|  5>     nprocs 6
|  6> end
|  7>
|  8> %maxcore 8000
|  9>
| 10> %scf
| 11>     ConvForced true
| 12> end
| 13>
| 14> *xyz 0 1
| 15> O  -1.752130000  -0.741530000  -2.896280000
| 16> H  -2.036450000  -0.920500000  -1.984040000
| 17> H  -0.921210000  -1.242140000  -2.984230000
| 18> O   1.737840000   0.885520000  -0.052730000
| 19> H   2.090180000   1.032320000   0.841890000
| 20> H   0.839590000   1.284090000  -0.017130000
| 21> O  -1.737840000  -0.885520000  -0.052730000
| 22> H  -2.090180000  -1.032320000   0.841890000
| 23> H  -0.839590000  -1.284090000  -0.017130000
| 24> O   0.741530000  -1.752130000   2.896280000
| 25> H   0.920500000  -2.036450000   1.984040000
| 26> H   1.242140000  -0.921210000   2.984230000
| 27> O  -0.741530000   1.752130000   2.896280000
| 28> H  -0.920500000   2.036450000   1.984040000
| 29> H  -1.242140000   0.921210000   2.984230000
| 30> *
| 31>
| 32>                          ****END OF INPUT****

CARTESIAN COORDINATES (ANGSTROEM)
---------------------------------
  O     -1.752130   -0.741530   -2.896280
  H     -2.036450   -0.920500   -1.984040
  H     -0.921210   -1.242140   -2.984230
  O      1.737840    0.885520   -0.052730
  H      2.090180    1.032320    0.841890
  H      0.839590    1.284090   -0.017130
  O     -1.737840   -0.885520   -0.052730
  H     -2.090180   -1.032320    0.841890
  H     -0.839590   -1.284090   -0.017130
  O      0.741530   -1.752130    2.896280
  H      0.920500   -2.036450    1.984040
  H      1.242140   -0.921210    2.984230
  O     -0.741530    1.752130    2.896280
  H     -0.920500    2.036450    1.984040
  H     -1.242140    0.921210    2.984230

 Total Charge           Charge          ....    0
 Multiplicity           Mult            ....    1
 Number of Electrons    NEL             ....   50
 Basis Dimension        Dim             ....  215

ORBITAL ENERGIES
----------------

  NO   OCC          E(Eh)            E(eV)
   0   2.0000     -20.605668      -560.7087
   1   2.0000     -20.587304      -560.2090
   2   2.0000     -20.585103      -560.1491
   3   2.0000     -20.583728      -560.1117
   4   2.0000     -20.537704      -558.8593
   5   2.0000      -1.383788       -37.6548
   6   2.0000      -1.366240       -37.1773
   7   2.0000      -1.363953       -37.1151
   8   2.0000      -1.359310       -36.9887
   9   2.0000      -1.319588       -35.9078
  10   2.0000      -0.746219       -20.3057
  11   2.0000      -0.729407       -19.8482
  12   2.0000      -0.726184       -19.7605
  13   2.0000      -0.720997       -19.6193
  14   2.0000      -0.690342       -18.7852
  15   2.0000      -0.622995       -16.9526
  16   2.0000      -0.603832       -16.4311
  17   2.0000      -0.601754       -16.3746
  18   2.0000      -0.598211       -16.2781
  19   2.0000      -0.560295       -15.2464
  20   2.0000      -0.544245       -14.8097
  21   2.0000      -0.533151       -14.5078
  22   2.0000      -0.526640       -14.3306
  23   2.0000      -0.525646       -14.3036
  24   2.0000      -0.483952       -13.1690
  25   0.0000       0.060961         1.6588
  26   0.0000       0.115438         3.1412
  27   0.0000       0.117457         3.1962
  28   0.0000       0.137875         3.7518
  29   0.0000       0.165281         4.4975

MULLIKEN ATOMIC CHARGES
-----------------------
   0 O :   -0.691215
   1 H :    0.367837
   2 H :    0.320577
   3 O :   -0.676367
   4 H :    0.336663
   5 H :    0.340108
   6 O :   -0.692807
   7 H :    0.350707
   8 H :    0.341811
   9 O :   -0.675153
  10 H :    0.332320
  11 H :    0.344365
  12 O :   -0.674191
  13 H :    0.334497
  14 H :    0.340849
Sum of atomic charges:    0.0000000

LOEWDIN ATOMIC CHARGES
----------------------
   0 O :   -0.338040
   1 H :    0.151954
   2 H :    0.158685
   3 O :   -0.332804
   4 H :    0.163115
   5 H :    0.169865
   6 O :   -0.314371
   7 H :    0.168900
   8 H :    0.170921
   9 O :   -0.326918
  10 H :    0.160694
  11 H :    0.167099
  12 O :   -0.326491
  13 H :    0.161883
  14 H :    0.165509

  Mayer bond orders larger than 0.100000
B(  0-O ,  1-H ) :   0.8251 B(  0-O ,  2-H ) :   0.8624 B(  3-O ,  4-H ) :   0.8512
B(  3-O ,  5-H ) :   0.8452 B(  6-O ,  7-H ) :   0.8400 B(  6-O ,  8-H ) :   0.8378
B(  9-O , 10-H ) :   0.8537 B(  9-O , 11-H ) :   0.8446 B( 12-O , 13-H ) :   0.8522
B( 12-O , 14-H ) :   0.8471

MP2 TOTAL ENERGY:     -381.576695411 Eh
FINAL SINGLE POINT ENERGY      -381.576695410807

DIPOLE MOMENT
-------------
                                X             Y             Z
Electronic contribution:     -0.08968       0.12648       0.04565
Nuclear contribution   :      0.45497      -0.56566       0.86245
                        -----------------------------------------
Total Dipole Moment    :      0.36529      -0.43918       0.90810
                        -----------------------------------------
Magnitude (a.u.)       :      1.07283
Magnitude (Debye)      :      2.72691

Rotational constants in cm-1:     0.062105     0.028579     0.027752
Rotational constants in MHz :  1861.858007   856.784865   831.976159

                             ****ORCA TERMINATED NORMALLY****
TOTAL RUN TIME: 0 days 0 hours 0 minutes 55 seconds 101 msec
