                         Program Version 4.2.0 -  RELEASE  -
|  1> # 12h2o.su.etal.mol0,3,5,8,9,10
|  2> ! MP2 def2-TZVP EnGrad TightSCF
|  3>
|  4> %pal
|  5>     nprocs 6
|  6> end
|  7>
|  8> %maxcore 8000
|  9>
| 10> %scf
| 11>     ConvForced true
| 12> end
| 13>
| 14> *xyz 0 1
| 15> O   1.794470000   0.923410000   2.768350000
| 16> H   2.338250000   1.359750000   3.430940000
| 17> H   0.879480000   1.303000000   2.865760000
| 18> O  -1.752130000  -0.741530000  -2.896280000
| 19> H  -2.036450000  -0.920500000  -1.984040000
| 20> H  -0.921210000  -1.242140000  -2.984230000
| 21> O   0.885520000  -1.737840000   0.052730000
| 22> H   1.284090000  -0.839590000   0.017130000
| 23> H   1.032320000  -2.090180000  -0.841890000
| 24> O   1.752130000   0.741530000  -2.896280000
| 25> H   2.036450000   0.920500000  -1.984040000
| 26> H   0.921210000   1.242140000  -2.984230000
| 27> O   0.741530000  -1.752130000   2.896280000
| 28> H   0.920500000  -2.036450000   1.984040000
| 29> H   1.242140000  -0.921210000   2.984230000
| 30> O  -0.923410000   1.794470000  -2.768350000
| 31> H  -1.359750000   2.338250000  -3.430940000
| 32> H  -1.303000000   0.879480000  -2.865760000
| 33> *
| 34>
| 35>                          ****END OF INPUT****

CARTESIAN COORDINATES (ANGSTROEM)
---------------------------------
  O      1.794470    0.923410    2.768350
  H      2.338250    1.359750    3.430940
  H      0.879480    1.303000    2.865760
  O     -1.752130   -0.741530   -2.896280
  H     -2.036450   -0.920500   -1.984040
  H     -0.921210   -1.242140   -2.984230
  O      0.885520   -1.737840    0.052730
  H      1.284090   -0.839590    0.017130
  H      1.032320   -2.090180   -0.841890
  O      1.752130    0.741530   -2.896280
  H      2.036450    0.920500   -1.984040
  H      0.921210    1.242140   -2.984230
  O      0.741530   -1.752130    2.896280
  H      0.920500   -2.036450    1.984040
  H      1.242140   -0.921210    2.984230
  O     -0.923410    1.794470   -2.768350
  H     -1.359750    2.338250   -3.430940
  H     -1.303000    0.879480   -2.865760

 Total Charge           Charge          ....    0
 Multiplicity           Mult            ....    1
 Number of Electrons    NEL             ....   60
 Basis Dimension        Dim             ....  258

ORBITAL ENERGIES
----------------

  NO   OCC          E(Eh)            E(eV)
   0   2.0000     -20.606629      -560.7349
   1   2.0000     -20.593185      -560.3691
   2   2.0000     -20.588230      -560.2342
   3   2.0000     -20.553156      -559.2798
   4   2.0000     -20.545421      -559.0693
   5   2.0000     -20.506364      -558.0065
   6   2.0000      -1.392375       -37.8884
   7   2.0000      -1.370851       -37.3027
   8   2.0000      -1.366265       -37.1779
   9   2.0000      -1.339094       -36.4386
  10   2.0000      -1.325427       -36.0667
  11   2.0000      -1.291769       -35.1508
  12   2.0000      -0.748998       -20.3813
  13   2.0000      -0.737947       -20.0806
  14   2.0000      -0.728584       -19.8258
  15   2.0000      -0.722890       -19.6708
  16   2.0000      -0.695048       -18.9132
  17   2.0000      -0.670795       -18.2533
  18   2.0000      -0.631961       -17.1965
  19   2.0000      -0.615678       -16.7535
  20   2.0000      -0.598644       -16.2899
  21   2.0000      -0.590385       -16.0652
  22   2.0000      -0.564240       -15.3538
  23   2.0000      -0.546632       -14.8746
  24   2.0000      -0.535062       -14.5598
  25   2.0000      -0.532074       -14.4785
  26   2.0000      -0.514956       -14.0127
  27   2.0000      -0.502617       -13.6769
  28   2.0000      -0.492200       -13.3934
  29   2.0000      -0.456267       -12.4157
  30   0.0000       0.081239         2.2106
  31   0.0000       0.109301         2.9742
  32   0.0000       0.138817         3.7774
  33   0.0000       0.146567         3.9883
  34   0.0000       0.169911         4.6235

MULLIKEN ATOMIC CHARGES
-----------------------
   0 O :   -0.699573
   1 H :    0.355798
   2 H :    0.362294
   3 O :   -0.683068
   4 H :    0.366675
   5 H :    0.360474
   6 O :   -0.692429
   7 H :    0.348228
   8 H :    0.343687
   9 O :   -0.711180
  10 H :    0.322102
  11 H :    0.365400
  12 O :   -0.724359
  13 H :    0.363650
  14 H :    0.340448
  15 O :   -0.738998
  16 H :    0.342313
  17 H :    0.378538
Sum of atomic charges:    0.0000000

LOEWDIN ATOMIC CHARGES
----------------------
   0 O :   -0.313413
   1 H :    0.164867
   2 H :    0.188825
   3 O :   -0.267939
   4 H :    0.177906
   5 H :    0.174974
   6 O :   -0.315666
   7 H :    0.174134
   8 H :    0.165512
   9 O :   -0.348526
  10 H :    0.154826
  11 H :    0.148705
  12 O :   -0.354975
  13 H :    0.149181
  14 H :    0.140015
  15 O :   -0.339667
  16 H :    0.156280
  17 H :    0.144961

  Mayer bond orders larger than 0.100000
B(  0-O ,  1-H ) :   0.8400 B(  0-O ,  2-H ) :   0.8294 B(  3-O ,  4-H ) :   0.8312
B(  3-O ,  5-H ) :   0.8317 B(  6-O ,  7-H ) :   0.8359 B(  6-O ,  8-H ) :   0.8440
B(  9-O , 10-H ) :   0.8605 B(  9-O , 11-H ) :   0.8004 B( 12-O , 13-H ) :   0.8300
B( 12-O , 14-H ) :   0.8328 B( 15-O , 16-H ) :   0.8478 B( 15-O , 17-H ) :   0.7654

MP2 TOTAL ENERGY:     -457.913579959 Eh
FINAL SINGLE POINT ENERGY      -457.913579958696

DIPOLE MOMENT
-------------
                                X             Y             Z
Electronic contribution:     -0.24796      -0.25137      -0.12377
Nuclear contribution   :      0.03147       1.27953      -0.08817
                        -----------------------------------------
Total Dipole Moment    :     -0.21649       1.02816      -0.21194
                        -----------------------------------------
Magnitude (a.u.)       :      1.07187
Magnitude (Debye)      :      2.72447

Rotational constants in cm-1:     0.056501     0.018793     0.016847
Rotational constants in MHz :  1693.855923   563.389349   505.064466

                             ****ORCA TERMINATED NORMALLY****
TOTAL RUN TIME: 0 days 0 hours 0 minutes 54 seconds 639 msec
