                         Program Version 3.0.3 - RELEASE   -
|  1> ! wB97X-D3 Def2-TZVP def2-TZVP/J RIJCOSX TightSCF Grid4 COSMO
|  2>
|  3> %pal nprocs 12 end
|  4>
|  5> %scf
|  6>         maxiter 400
|  7> end
|  8>
|  9> %cosmo
| 10>         SMD true
| 11>         solvent "WATER"
| 12> end
| 13>
| 14> * xyz  0  1
| 15> O  1.215488	0.211080	0.927561
| 16> H  0.407983	0.176872	0.367895
| 17> H  1.906941	0.413446	0.279585
| 18> O  -0.992985	0.007122	-0.711643
| 19> H  -0.933447	-0.934080	-0.939707
| 20> H  -1.766187	0.044807	-0.125906
| 21> **                         ****END OF INPUT****

CARTESIAN COORDINATES (ANGSTROEM)
---------------------------------
  O      1.215488    0.211080    0.927561
  H      0.407983    0.176872    0.367895
  H      1.906941    0.413446    0.279585
  O     -0.992985    0.007122   -0.711643
  H     -0.933447   -0.934080   -0.939707
  H     -1.766187    0.044807   -0.125906

 Total Charge           Charge          ....    0
 Multiplicity           Mult            ....    1
 Number of Electrons    NEL             ....   20
 Basis Dimension        Dim             ....   86

ORBITAL ENERGIES
----------------

  NO   OCC          E(Eh)            E(eV)
   0   2.0000     -19.244995      -523.6829
   1   2.0000     -19.217324      -522.9300
   2   2.0000      -1.136727       -30.9319
   3   2.0000      -1.106969       -30.1221
   4   2.0000      -0.631614       -17.1871
   5   2.0000      -0.613604       -16.6970
   6   2.0000      -0.518745       -14.1158
   7   2.0000      -0.487906       -13.2766
   8   2.0000      -0.426812       -11.6141
   9   2.0000      -0.410516       -11.1707
  10   0.0000       0.118693         3.2298
  11   0.0000       0.167978         4.5709
  12   0.0000       0.206318         5.6142
  13   0.0000       0.285048         7.7566
  14   0.0000       0.419169        11.4062

MULLIKEN ATOMIC CHARGES
-----------------------
   0 O :   -0.793070
   1 H :    0.362221
   2 H :    0.383132
   3 O :   -0.755409
   4 H :    0.400693
   5 H :    0.402432
Sum of atomic charges:   -0.0000000

LOEWDIN ATOMIC CHARGES
----------------------
   0 O :   -0.394272
   1 H :    0.138878
   2 H :    0.176264
   3 O :   -0.301526
   4 H :    0.189625
   5 H :    0.191032

  Mayer bond orders larger than 0.1
B(  0-O ,  1-H ) :   0.8193 B(  0-O ,  2-H ) :   0.8651 B(  1-H ,  3-O ) :   0.1068
B(  3-O ,  4-H ) :   0.8476 B(  3-O ,  5-H ) :   0.8470

Dispersion correction           -0.000547956
FINAL SINGLE POINT ENERGY      -152.909193820063

DIPOLE MOMENT
-------------
                                X             Y             Z
Electronic contribution:     -0.20871      -0.03282      -0.14289
Nuclear contribution   :     -0.69062      -0.61208      -0.70748
                        -----------------------------------------
Total Dipole Moment    :     -0.89933      -0.64490      -0.85038
                        -----------------------------------------
Magnitude (a.u.)       :      1.39565
Magnitude (Debye)      :      3.54745

                             ****ORCA TERMINATED NORMALLY****
TOTAL RUN TIME: 0 days 0 hours 0 minutes 50 seconds 612 msec
