                         Program Version 3.0.3 - RELEASE   -
|  1> ! wB97X-D3 MA-Def2-TZVP def2-TZVP/J RIJCOSX TightSCF Grid4
|  2>
|  3> %pal nprocs 1 end
|  4>
|  5> %scf
|  6>         maxiter 400
|  7> end
|  8>
|  9> %cosmo
| 10>         SMD true
| 11>         solvent "WATER"
| 12> end
| 13>
| 14> * xyz  0  1
| 15> O  1.215488	0.211080	0.927561
| 16> H  0.407983	0.176872	0.367895
| 17> H  1.906941	0.413446	0.279585
| 18> O  -0.992985	0.007122	-0.711643
| 19> H  -0.933447	-0.934080	-0.939707
| 20> H  -1.766187	0.044807	-0.125906
| 21> **                         ****END OF INPUT****

CARTESIAN COORDINATES (ANGSTROEM)
---------------------------------
  O      1.215488    0.211080    0.927561
  H      0.407983    0.176872    0.367895
  H      1.906941    0.413446    0.279585
  O     -0.992985    0.007122   -0.711643
  H     -0.933447   -0.934080   -0.939707
  H     -1.766187    0.044807   -0.125906

 Total Charge           Charge          ....    0
 Multiplicity           Mult            ....    1
 Number of Electrons    NEL             ....   20
 Basis Dimension        Dim             ....   94

ORBITAL ENERGIES
----------------

  NO   OCC          E(Eh)            E(eV)
   0   2.0000     -19.248165      -523.7692
   1   2.0000     -19.223229      -523.0907
   2   2.0000      -1.138767       -30.9874
   3   2.0000      -1.110408       -30.2157
   4   2.0000      -0.633328       -17.2337
   5   2.0000      -0.616681       -16.7807
   6   2.0000      -0.521071       -14.1790
   7   2.0000      -0.490620       -13.3505
   8   2.0000      -0.429076       -11.6757
   9   2.0000      -0.413739       -11.2584
  10   0.0000       0.080495         2.1904
  11   0.0000       0.120488         3.2786
  12   0.0000       0.139029         3.7832
  13   0.0000       0.143399         3.9021
  14   0.0000       0.171366         4.6631

MULLIKEN ATOMIC CHARGES
-----------------------
   0 O :   -0.813886
   1 H :    0.386842
   2 H :    0.390764
   3 O :   -0.781629
   4 H :    0.408630
   5 H :    0.409280
Sum of atomic charges:   -0.0000000

LOEWDIN ATOMIC CHARGES
----------------------
   0 O :   -0.450984
   1 H :    0.180891
   2 H :    0.204630
   3 O :   -0.367363
   4 H :    0.216217
   5 H :    0.216609

  Mayer bond orders larger than 0.1
B(  0-O ,  1-H ) :   0.8120 B(  0-O ,  2-H ) :   0.8548 B(  3-O ,  4-H ) :   0.8475
B(  3-O ,  5-H ) :   0.8468

Dispersion correction           -0.000547956
FINAL SINGLE POINT ENERGY      -152.911388374679

DIPOLE MOMENT
-------------
                                X             Y             Z
Electronic contribution:     -0.19986      -0.03194      -0.14669
Nuclear contribution   :     -0.69062      -0.61208      -0.70748
                        -----------------------------------------
Total Dipole Moment    :     -0.89048      -0.64402      -0.85417
                        -----------------------------------------
Magnitude (a.u.)       :      1.39188
Magnitude (Debye)      :      3.53787

                             ****ORCA TERMINATED NORMALLY****
TOTAL RUN TIME: 0 days 0 hours 0 minutes 17 seconds 83 msec
