                         Program Version 3.0.3 - RELEASE   -
|  1> ! B3LYP Def2-TZVP def2-TZVP/J RIJCOSX TightSCF Grid4 D3BJ COSMO
|  2>
|  3> %pal nprocs 12 end
|  4>
|  5> %scf
|  6>         maxiter 400
|  7> end
|  8>
|  9> %cosmo
| 10>         SMD true
| 11>         solvent "WATER"
| 12> end
| 13>
| 14> * xyz  0  1
| 15> O  1.230560	0.139087	0.923607
| 16> H  0.433419	0.088081	0.328633
| 17> H  1.889345	0.559995	0.338189
| 18> O  -0.973621	-0.016455	-0.746857
| 19> H  -1.022725	-0.979004	-0.916424
| 20> H  -1.719183	0.127544	-0.129362
| 21> **                         ****END OF INPUT****

CARTESIAN COORDINATES (ANGSTROEM)
---------------------------------
  O      1.230560    0.139087    0.923607
  H      0.433419    0.088081    0.328633
  H      1.889345    0.559995    0.338189
  O     -0.973621   -0.016455   -0.746857
  H     -1.022725   -0.979004   -0.916424
  H     -1.719183    0.127544   -0.129362

 Total Charge           Charge          ....    0
 Multiplicity           Mult            ....    1
 Number of Electrons    NEL             ....   20
 Basis Dimension        Dim             ....   86

ORBITAL ENERGIES
----------------

  NO   OCC          E(Eh)            E(eV)
   0   2.0000     -19.140397      -520.8367
   1   2.0000     -19.110054      -520.0110
   2   2.0000      -1.019110       -27.7314
   3   2.0000      -0.986879       -26.8544
   4   2.0000      -0.526465       -14.3258
   5   2.0000      -0.505576       -13.7574
   6   2.0000      -0.417230       -11.3534
   7   2.0000      -0.385900       -10.5009
   8   2.0000      -0.327306        -8.9065
   9   2.0000      -0.308100        -8.3838
  10   0.0000       0.026994         0.7345
  11   0.0000       0.074539         2.0283
  12   0.0000       0.115104         3.1322
  13   0.0000       0.198937         5.4134
  14   0.0000       0.326018         8.8714

MULLIKEN ATOMIC CHARGES
-----------------------
   0 O :   -0.784347
   1 H :    0.360470
   2 H :    0.369028
   3 O :   -0.724238
   4 H :    0.389167
   5 H :    0.389919
Sum of atomic charges:   -0.0000000

LOEWDIN ATOMIC CHARGES
----------------------
   0 O :   -0.409945
   1 H :    0.147448
   2 H :    0.179131
   3 O :   -0.306553
   4 H :    0.194652
   5 H :    0.195267

  Mayer bond orders larger than 0.1
B(  0-O ,  1-H ) :   0.8091 B(  0-O ,  2-H ) :   0.8731 B(  1-H ,  3-O ) :   0.1216
B(  3-O ,  4-H ) :   0.8545 B(  3-O ,  5-H ) :   0.8544

Dispersion correction           -0.002313768
FINAL SINGLE POINT ENERGY      -152.884346456891

DIPOLE MOMENT
-------------
                                X             Y             Z
Electronic contribution:     -0.22031      -0.02145      -0.15096
Nuclear contribution   :     -0.77661      -0.37344      -0.60967
                        -----------------------------------------
Total Dipole Moment    :     -0.99692      -0.39489      -0.76063
                        -----------------------------------------
Magnitude (a.u.)       :      1.31467
Magnitude (Debye)      :      3.34162

                             ****ORCA TERMINATED NORMALLY****
TOTAL RUN TIME: 0 days 0 hours 0 minutes 50 seconds 258 msec
