                         Program Version 3.0.3 - RELEASE   -
|  1> ! wB97X-D3 MA-Def2-TZVP def2-TZVP/J RIJCOSX TightSCF Grid4
|  2>
|  3> %pal nprocs 1 end
|  4>
|  5> %scf
|  6>         maxiter 400
|  7> end
|  8>
|  9> * xyz  0  1
| 10> O  1.152646	0.055937	0.849348
| 11> H  0.558789	0.047918	0.062003
| 12> H  1.816728	0.726111	0.605901
| 13> O  -1.068887	-0.096147	-0.886074
| 14> H  -1.157299	-1.062779	-0.772597
| 15> H  -1.464183	0.248207	-0.060796
| 16> **                         ****END OF INPUT****

CARTESIAN COORDINATES (ANGSTROEM)
---------------------------------
  O      1.152646    0.055937    0.849348
  H      0.558789    0.047918    0.062003
  H      1.816728    0.726111    0.605901
  O     -1.068887   -0.096147   -0.886074
  H     -1.157299   -1.062779   -0.772597
  H     -1.464183    0.248207   -0.060796

 Total Charge           Charge          ....    0
 Multiplicity           Mult            ....    1
 Number of Electrons    NEL             ....   20
 Basis Dimension        Dim             ....   94

ORBITAL ENERGIES
----------------

  NO   OCC          E(Eh)            E(eV)
   0   2.0000     -19.267662      -524.2997
   1   2.0000     -19.219612      -522.9922
   2   2.0000      -1.154921       -31.4270
   3   2.0000      -1.104639       -30.0588
   4   2.0000      -0.651962       -17.7408
   5   2.0000      -0.611660       -16.6441
   6   2.0000      -0.525668       -14.3041
   7   2.0000      -0.484505       -13.1841
   8   2.0000      -0.438875       -11.9424
   9   2.0000      -0.400633       -10.9018
  10   0.0000       0.062491         1.7005
  11   0.0000       0.106676         2.9028
  12   0.0000       0.127201         3.4613
  13   0.0000       0.140762         3.8303
  14   0.0000       0.167557         4.5595

MULLIKEN ATOMIC CHARGES
-----------------------
   0 O :   -0.696137
   1 H :    0.332386
   2 H :    0.325428
   3 O :   -0.677001
   4 H :    0.358822
   5 H :    0.356502
Sum of atomic charges:   -0.0000000

LOEWDIN ATOMIC CHARGES
----------------------
   0 O :   -0.410006
   1 H :    0.181205
   2 H :    0.186646
   3 O :   -0.358877
   4 H :    0.200010
   5 H :    0.201023

  Mayer bond orders larger than 0.1
B(  0-O ,  1-H ) :   0.8601 B(  0-O ,  2-H ) :   0.9004 B(  3-O ,  4-H ) :   0.8877
B(  3-O ,  5-H ) :   0.8875

Dispersion correction           -0.000556843
FINAL SINGLE POINT ENERGY      -152.886979452807

DIPOLE MOMENT
-------------
                                X             Y             Z
Electronic contribution:     -0.10782      -0.02616      -0.10894
Nuclear contribution   :     -0.34417       0.03319      -0.07661
                        -----------------------------------------
Total Dipole Moment    :     -0.45199       0.00703      -0.18554
                        -----------------------------------------
Magnitude (a.u.)       :      0.48864
Magnitude (Debye)      :      1.24202

                             ****ORCA TERMINATED NORMALLY****
TOTAL RUN TIME: 0 days 0 hours 0 minutes 17 seconds 72 msec
