                         Program Version 3.0.3 - RELEASE   -
|  1> ! wB97X-D3 MA-Def2-TZVP def2-TZVP/J RIJCOSX TightSCF Grid4
|  2>
|  3> %pal nprocs 1 end
|  4>
|  5> %scf
|  6>         maxiter 400
|  7> end
|  8>
|  9> %cosmo
| 10>         SMD true
| 11>         solvent "WATER"
| 12> end
| 13>
| 14> * xyz  0  1
| 15> O  1.230560	0.139087	0.923607
| 16> H  0.433419	0.088081	0.328633
| 17> H  1.889345	0.559995	0.338189
| 18> O  -0.973621	-0.016455	-0.746857
| 19> H  -1.022725	-0.979004	-0.916424
| 20> H  -1.719183	0.127544	-0.129362
| 21> **                         ****END OF INPUT****

CARTESIAN COORDINATES (ANGSTROEM)
---------------------------------
  O      1.230560    0.139087    0.923607
  H      0.433419    0.088081    0.328633
  H      1.889345    0.559995    0.338189
  O     -0.973621   -0.016455   -0.746857
  H     -1.022725   -0.979004   -0.916424
  H     -1.719183    0.127544   -0.129362

 Total Charge           Charge          ....    0
 Multiplicity           Mult            ....    1
 Number of Electrons    NEL             ....   20
 Basis Dimension        Dim             ....   94

ORBITAL ENERGIES
----------------

  NO   OCC          E(Eh)            E(eV)
   0   2.0000     -19.250151      -523.8232
   1   2.0000     -19.224340      -523.1209
   2   2.0000      -1.136121       -30.9154
   3   2.0000      -1.106284       -30.1035
   4   2.0000      -0.629057       -17.1175
   5   2.0000      -0.611827       -16.6487
   6   2.0000      -0.521474       -14.1900
   7   2.0000      -0.490534       -13.3481
   8   2.0000      -0.428318       -11.6551
   9   2.0000      -0.413084       -11.2406
  10   0.0000       0.079715         2.1692
  11   0.0000       0.119917         3.2631
  12   0.0000       0.139974         3.8089
  13   0.0000       0.142255         3.8710
  14   0.0000       0.171498         4.6667

MULLIKEN ATOMIC CHARGES
-----------------------
   0 O :   -0.816573
   1 H :    0.385639
   2 H :    0.391414
   3 O :   -0.782859
   4 H :    0.411217
   5 H :    0.411162
Sum of atomic charges:   -0.0000000

LOEWDIN ATOMIC CHARGES
----------------------
   0 O :   -0.465747
   1 H :    0.189457
   2 H :    0.209356
   3 O :   -0.377503
   4 H :    0.222138
   5 H :    0.222299

  Mayer bond orders larger than 0.1
B(  0-O ,  1-H ) :   0.8079 B(  0-O ,  2-H ) :   0.8535 B(  3-O ,  4-H ) :   0.8451
B(  3-O ,  5-H ) :   0.8450

Dispersion correction           -0.000540405
FINAL SINGLE POINT ENERGY      -152.910693950241

DIPOLE MOMENT
-------------
                                X             Y             Z
Electronic contribution:     -0.20540      -0.02146      -0.15092
Nuclear contribution   :     -0.77661      -0.37344      -0.60967
                        -----------------------------------------
Total Dipole Moment    :     -0.98201      -0.39490      -0.76059
                        -----------------------------------------
Magnitude (a.u.)       :      1.30337
Magnitude (Debye)      :      3.31291

                             ****ORCA TERMINATED NORMALLY****
TOTAL RUN TIME: 0 days 0 hours 0 minutes 20 seconds 315 msec
