                         Program Version 4.2.0 -  RELEASE  -
|  1> # 12h2o.su.etal.mol1,5,6,8,9,10,11
|  2> ! MP2 def2-TZVP EnGrad TightSCF
|  3>
|  4> %pal
|  5>     nprocs 6
|  6> end
|  7>
|  8> %maxcore 8000
|  9>
| 10> %scf
| 11>     ConvForced true
| 12> end
| 13>
| 14> *xyz 0 1
| 15> O  -1.794470000  -0.923410000   2.768350000
| 16> H  -2.338250000  -1.359750000   3.430940000
| 17> H  -0.879480000  -1.303000000   2.865760000
| 18> O   0.885520000  -1.737840000   0.052730000
| 19> H   1.284090000  -0.839590000   0.017130000
| 20> H   1.032320000  -2.090180000  -0.841890000
| 21> O   1.737840000   0.885520000  -0.052730000
| 22> H   2.090180000   1.032320000   0.841890000
| 23> H   0.839590000   1.284090000  -0.017130000
| 24> O   1.752130000   0.741530000  -2.896280000
| 25> H   2.036450000   0.920500000  -1.984040000
| 26> H   0.921210000   1.242140000  -2.984230000
| 27> O   0.741530000  -1.752130000   2.896280000
| 28> H   0.920500000  -2.036450000   1.984040000
| 29> H   1.242140000  -0.921210000   2.984230000
| 30> O  -0.923410000   1.794470000  -2.768350000
| 31> H  -1.359750000   2.338250000  -3.430940000
| 32> H  -1.303000000   0.879480000  -2.865760000
| 33> O  -0.741530000   1.752130000   2.896280000
| 34> H  -0.920500000   2.036450000   1.984040000
| 35> H  -1.242140000   0.921210000   2.984230000
| 36> *
| 37>
| 38>                          ****END OF INPUT****

CARTESIAN COORDINATES (ANGSTROEM)
---------------------------------
  O     -1.794470   -0.923410    2.768350
  H     -2.338250   -1.359750    3.430940
  H     -0.879480   -1.303000    2.865760
  O      0.885520   -1.737840    0.052730
  H      1.284090   -0.839590    0.017130
  H      1.032320   -2.090180   -0.841890
  O      1.737840    0.885520   -0.052730
  H      2.090180    1.032320    0.841890
  H      0.839590    1.284090   -0.017130
  O      1.752130    0.741530   -2.896280
  H      2.036450    0.920500   -1.984040
  H      0.921210    1.242140   -2.984230
  O      0.741530   -1.752130    2.896280
  H      0.920500   -2.036450    1.984040
  H      1.242140   -0.921210    2.984230
  O     -0.923410    1.794470   -2.768350
  H     -1.359750    2.338250   -3.430940
  H     -1.303000    0.879480   -2.865760
  O     -0.741530    1.752130    2.896280
  H     -0.920500    2.036450    1.984040
  H     -1.242140    0.921210    2.984230

 Total Charge           Charge          ....    0
 Multiplicity           Mult            ....    1
 Number of Electrons    NEL             ....   70
 Basis Dimension        Dim             ....  301

ORBITAL ENERGIES
----------------

  NO   OCC          E(Eh)            E(eV)
   0   2.0000     -20.621279      -561.1335
   1   2.0000     -20.600354      -560.5641
   2   2.0000     -20.573079      -559.8219
   3   2.0000     -20.561012      -559.4936
   4   2.0000     -20.542986      -559.0031
   5   2.0000     -20.538593      -558.8835
   6   2.0000     -20.524773      -558.5075
   7   2.0000      -1.404271       -38.2122
   8   2.0000      -1.377972       -37.4965
   9   2.0000      -1.363973       -37.1156
  10   2.0000      -1.342457       -36.5301
  11   2.0000      -1.329004       -36.1640
  12   2.0000      -1.317544       -35.8522
  13   2.0000      -1.310017       -35.6474
  14   2.0000      -0.762037       -20.7361
  15   2.0000      -0.745178       -20.2773
  16   2.0000      -0.726594       -19.7716
  17   2.0000      -0.715617       -19.4729
  18   2.0000      -0.707248       -19.2452
  19   2.0000      -0.691399       -18.8139
  20   2.0000      -0.690226       -18.7820
  21   2.0000      -0.643504       -17.5106
  22   2.0000      -0.618196       -16.8220
  23   2.0000      -0.611394       -16.6369
  24   2.0000      -0.593514       -16.1503
  25   2.0000      -0.575253       -15.6534
  26   2.0000      -0.558622       -15.2009
  27   2.0000      -0.553280       -15.0555
  28   2.0000      -0.546999       -14.8846
  29   2.0000      -0.529863       -14.4183
  30   2.0000      -0.513076       -13.9615
  31   2.0000      -0.506968       -13.7953
  32   2.0000      -0.492412       -13.3992
  33   2.0000      -0.486070       -13.2266
  34   2.0000      -0.474315       -12.9068
  35   0.0000       0.078260         2.1296
  36   0.0000       0.107767         2.9325
  37   0.0000       0.140520         3.8237
  38   0.0000       0.152952         4.1620
  39   0.0000       0.155807         4.2397

MULLIKEN ATOMIC CHARGES
-----------------------
   0 O :   -0.741209
   1 H :    0.337127
   2 H :    0.385054
   3 O :   -0.730556
   4 H :    0.354515
   5 H :    0.352238
   6 O :   -0.707096
   7 H :    0.366713
   8 H :    0.369175
   9 O :   -0.722105
  10 H :    0.362100
  11 H :    0.345974
  12 O :   -0.697485
  13 H :    0.392471
  14 H :    0.338838
  15 O :   -0.703098
  16 H :    0.358811
  17 H :    0.364370
  18 O :   -0.711382
  19 H :    0.317925
  20 H :    0.367620
Sum of atomic charges:   -0.0000000

LOEWDIN ATOMIC CHARGES
----------------------
   0 O :   -0.340534
   1 H :    0.153866
   2 H :    0.146278
   3 O :   -0.340108
   4 H :    0.142037
   5 H :    0.169757
   6 O :   -0.272627
   7 H :    0.174875
   8 H :    0.182542
   9 O :   -0.351379
  10 H :    0.146771
  11 H :    0.142257
  12 O :   -0.275146
  13 H :    0.161427
  14 H :    0.164800
  15 O :   -0.314056
  16 H :    0.166327
  17 H :    0.189721
  18 O :   -0.349235
  19 H :    0.152703
  20 H :    0.149725

  Mayer bond orders larger than 0.100000
B(  0-O ,  1-H ) :   0.8505 B(  0-O ,  2-H ) :   0.7553 B(  3-O ,  4-H ) :   0.7892
B(  3-O ,  5-H ) :   0.8410 B(  6-O ,  7-H ) :   0.8280 B(  6-O ,  8-H ) :   0.8191
B(  9-O , 10-H ) :   0.8334 B(  9-O , 11-H ) :   0.8267 B( 12-O , 13-H ) :   0.7916
B( 12-O , 14-H ) :   0.8455 B( 15-O , 16-H ) :   0.8383 B( 15-O , 17-H ) :   0.8278
B( 18-O , 19-H ) :   0.8628 B( 18-O , 20-H ) :   0.7950

MP2 TOTAL ENERGY:     -534.245174508 Eh
FINAL SINGLE POINT ENERGY      -534.245174508143

DIPOLE MOMENT
-------------
                                X             Y             Z
Electronic contribution:      0.23263      -0.10892      -0.01568
Nuclear contribution   :     -0.82559       0.48587      -0.68611
                        -----------------------------------------
Total Dipole Moment    :     -0.59295       0.37695      -0.70178
                        -----------------------------------------
Magnitude (a.u.)       :      0.99306
Magnitude (Debye)      :      2.52417

Rotational constants in cm-1:     0.044063     0.018323     0.015855
Rotational constants in MHz :  1320.970421   549.309955   475.329143

                             ****ORCA TERMINATED NORMALLY****
TOTAL RUN TIME: 0 days 0 hours 2 minutes 9 seconds 404 msec
