                         Program Version 4.2.0 -  RELEASE  -
|  1> ! MP2 def2-TZVP EnGrad TightSCF FrozenCore
|  2>
|  3> %pal
|  4>     nprocs 12
|  5> end
|  6>
|  7> %maxcore 8000
|  8>
|  9> %scf
| 10>     ConvForced true
| 11> end
| 12>
| 13> *xyz 0 1
| 14> O    -0.1856791731    -1.4162723693     0.8078059426
| 15> H     0.5877450527    -1.4612374696     0.186922576
| 16> C     0.2591041082    -1.784365015      2.1063804681
| 17> H    -0.5900455269    -1.6884012598     2.7884935092
| 18> H     1.0740607237    -1.1397331219     2.4684887516
| 19> H     0.6029090613    -2.8273073135     2.1297884796
| 20> O    -0.950156165      1.0953906211     0.1938487447
| 21> H    -0.7434747419     0.1722342785     0.5061446917
| 22> C    -1.6365909159     1.7938742294     1.2360685907
| 23> H    -1.7725498093     2.8262664353     0.9043774634
| 24> H    -1.0594953715     1.7962058252     2.1706497452
| 25> H    -2.6222381416     1.3481163182     1.4099167298
| 26> O     1.5198636752     1.5983452465    -0.8875484634
| 27> H     0.5851406479     1.5698376914    -0.5685643993
| 28> C     2.2763693869     2.3517855779     0.049989885
| 29> H     3.31493274       2.3593629718    -0.292481912
| 30> H     2.245607817      1.9182311523     1.0612223701
| 31> H     1.9264276957     3.3916931449     0.1061455346
| 32> O     1.8998121919    -1.104599709     -0.8767822807
| 33> H     1.8656405914    -0.1189127915    -0.971790045
| 34> C     3.2507670039    -1.5207902898    -0.7561647161
| 35> H     3.2553676401    -2.6108755078    -0.6673178054
| 36> H     3.7457103065    -1.0985811568     0.1319379775
| 37> H     3.8358190967    -1.2463597703    -1.644640785
| 38> O    -3.4179228906     0.1986144561    -0.9201316183
| 39> H    -2.5168719889     0.5624453972    -0.8347908743
| 40> C    -3.2891727595    -1.1801985008    -1.221205439
| 41> H    -4.284211494     -1.6287754855    -1.1332336741
| 42> H    -2.6103750655    -1.7019925651    -0.530163305
| 43> H    -2.9303012827    -1.3558787462    -2.2490563606
| 44> *
| 45>
| 46>                          ****END OF INPUT****

CARTESIAN COORDINATES (ANGSTROEM)
---------------------------------
  O     -0.185679   -1.416272    0.807806
  H      0.587745   -1.461237    0.186923
  C      0.259104   -1.784365    2.106380
  H     -0.590046   -1.688401    2.788494
  H      1.074061   -1.139733    2.468489
  H      0.602909   -2.827307    2.129788
  O     -0.950156    1.095391    0.193849
  H     -0.743475    0.172234    0.506145
  C     -1.636591    1.793874    1.236069
  H     -1.772550    2.826266    0.904377
  H     -1.059495    1.796206    2.170650
  H     -2.622238    1.348116    1.409917
  O      1.519864    1.598345   -0.887548
  H      0.585141    1.569838   -0.568564
  C      2.276369    2.351786    0.049990
  H      3.314933    2.359363   -0.292482
  H      2.245608    1.918231    1.061222
  H      1.926428    3.391693    0.106146
  O      1.899812   -1.104600   -0.876782
  H      1.865641   -0.118913   -0.971790
  C      3.250767   -1.520790   -0.756165
  H      3.255368   -2.610876   -0.667318
  H      3.745710   -1.098581    0.131938
  H      3.835819   -1.246360   -1.644641
  O     -3.417923    0.198614   -0.920132
  H     -2.516872    0.562445   -0.834791
  C     -3.289173   -1.180199   -1.221205
  H     -4.284211   -1.628775   -1.133234
  H     -2.610375   -1.701993   -0.530163
  H     -2.930301   -1.355879   -2.249056

 Total Charge           Charge          ....    0
 Multiplicity           Mult            ....    1
 Number of Electrons    NEL             ....   90
 Basis Dimension        Dim             ....  430

ORBITAL ENERGIES
----------------

  NO   OCC          E(Eh)            E(eV)
   0   2.0000     -20.564401      -559.5858
   1   2.0000     -20.559878      -559.4627
   2   2.0000     -20.559179      -559.4437
   3   2.0000     -20.557501      -559.3980
   4   2.0000     -20.523277      -558.4667
   5   2.0000     -11.280815      -306.9666
   6   2.0000     -11.280072      -306.9464
   7   2.0000     -11.278629      -306.9071
   8   2.0000     -11.277014      -306.8632
   9   2.0000     -11.246142      -306.0231
  10   2.0000      -1.376890       -37.4671
  11   2.0000      -1.361519       -37.0488
  12   2.0000      -1.360431       -37.0192
  13   2.0000      -1.345684       -36.6179
  14   2.0000      -1.323365       -36.0106
  15   2.0000      -0.939347       -25.5609
  16   2.0000      -0.930548       -25.3215
  17   2.0000      -0.929742       -25.2996
  18   2.0000      -0.921187       -25.0668
  19   2.0000      -0.895085       -24.3565
  20   2.0000      -0.721429       -19.6311
  21   2.0000      -0.702435       -19.1142
  22   2.0000      -0.701902       -19.0997
  23   2.0000      -0.694785       -18.9061
  24   2.0000      -0.670853       -18.2548
  25   2.0000      -0.627814       -17.0837
  26   2.0000      -0.624564       -16.9953
  27   2.0000      -0.621507       -16.9121
  28   2.0000      -0.618591       -16.8327
  29   2.0000      -0.610018       -16.5994
  30   2.0000      -0.602746       -16.4016
  31   2.0000      -0.601013       -16.3544
  32   2.0000      -0.591413       -16.0932
  33   2.0000      -0.587882       -15.9971
  34   2.0000      -0.564708       -15.3665
  35   2.0000      -0.534188       -14.5360
  36   2.0000      -0.512647       -13.9498
  37   2.0000      -0.512414       -13.9435
  38   2.0000      -0.495297       -13.4777
  39   2.0000      -0.481027       -13.0894
  40   2.0000      -0.458747       -12.4831
  41   2.0000      -0.455654       -12.3990
  42   2.0000      -0.454317       -12.3626
  43   2.0000      -0.448487       -12.2040
  44   2.0000      -0.420111       -11.4318
  45   0.0000       0.106733         2.9043
  46   0.0000       0.145501         3.9593
  47   0.0000       0.153771         4.1843
  48   0.0000       0.163307         4.4438
  49   0.0000       0.172918         4.7053

MULLIKEN ATOMIC CHARGES
-----------------------
   0 O :   -0.552793
   1 H :    0.379856
   2 C :   -0.183925
   3 H :    0.135835
   4 H :    0.111677
   5 H :    0.126136
   6 O :   -0.612272
   7 H :    0.378163
   8 C :   -0.193959
   9 H :    0.135773
  10 H :    0.119040
  11 H :    0.156715
  12 O :   -0.547967
  13 H :    0.377598
  14 C :   -0.189403
  15 H :    0.133449
  16 H :    0.110507
  17 H :    0.126671
  18 O :   -0.562651
  19 H :    0.372551
  20 C :   -0.176976
  21 H :    0.131368
  22 H :    0.110429
  23 H :    0.127994
  24 O :   -0.512081
  25 H :    0.344587
  26 C :   -0.190055
  27 H :    0.116859
  28 H :    0.122306
  29 H :    0.104568
Sum of atomic charges:   -0.0000000

LOEWDIN ATOMIC CHARGES
----------------------
   0 O :   -0.080585
   1 H :    0.167886
   2 C :   -0.386923
   3 H :    0.110373
   4 H :    0.097420
   5 H :    0.104541
   6 O :   -0.094851
   7 H :    0.164766
   8 C :   -0.380274
   9 H :    0.111799
  10 H :    0.099493
  11 H :    0.109833
  12 O :   -0.083472
  13 H :    0.167409
  14 C :   -0.389187
  15 H :    0.109792
  16 H :    0.096413
  17 H :    0.104203
  18 O :   -0.086673
  19 H :    0.167378
  20 C :   -0.385047
  21 H :    0.110026
  22 H :    0.096174
  23 H :    0.104897
  24 O :   -0.097584
  25 H :    0.164075
  26 C :   -0.396936
  27 H :    0.104923
  28 H :    0.095590
  29 H :    0.094541

  Mayer bond orders larger than 0.100000
B(  0-O ,  1-H ) :   0.7466 B(  0-O ,  2-C ) :   0.8872 B(  0-O ,  7-H ) :   0.1188
B(  2-C ,  3-H ) :   0.9427 B(  2-C ,  4-H ) :   0.9330 B(  2-C ,  5-H ) :   0.9398
B(  6-O ,  7-H ) :   0.7185 B(  6-O ,  8-C ) :   0.8450 B(  8-C ,  9-H ) :   0.9432
B(  8-C , 10-H ) :   0.9367 B(  8-C , 11-H ) :   0.9323 B( 12-O , 13-H ) :   0.7662
B( 12-O , 14-C ) :   0.8885 B( 14-C , 15-H ) :   0.9422 B( 14-C , 16-H ) :   0.9340
B( 14-C , 17-H ) :   0.9402 B( 18-O , 19-H ) :   0.7513 B( 18-O , 20-C ) :   0.8887
B( 20-C , 21-H ) :   0.9426 B( 20-C , 22-H ) :   0.9357 B( 20-C , 23-H ) :   0.9398
B( 24-O , 25-H ) :   0.8140 B( 24-O , 26-C ) :   0.9361 B( 26-C , 27-H ) :   0.9397
B( 26-C , 28-H ) :   0.9314 B( 26-C , 29-H ) :   0.9422

MP2 TOTAL ENERGY:     -577.597686182 Eh
FINAL SINGLE POINT ENERGY      -577.597686182131

DIPOLE MOMENT
-------------
                                X             Y             Z
Electronic contribution:     -2.52962       0.96366      -3.85820
Nuclear contribution   :      4.10610      -0.97886       5.21768
                        -----------------------------------------
Total Dipole Moment    :      1.57647      -0.01520       1.35948
                        -----------------------------------------
Magnitude (a.u.)       :      2.08175
Magnitude (Debye)      :      5.29138

Rotational constants in cm-1:     0.030441     0.017716     0.014850
Rotational constants in MHz :   912.606330   531.108494   445.194600

                             ****ORCA TERMINATED NORMALLY****
TOTAL RUN TIME: 0 days 0 hours 9 minutes 35 seconds 264 msec
