                         Program Version 4.2.0 -  RELEASE  -
|  1> # 12h2o.su.etal.mol2,7,8,11
|  2> ! MP2 def2-TZVP EnGrad TightSCF
|  3>
|  4> %pal
|  5>     nprocs 6
|  6> end
|  7>
|  8> %maxcore 8000
|  9>
| 10> %scf
| 11>     ConvForced true
| 12> end
| 13>
| 14> *xyz 0 1
| 15> O   0.923410000  -1.794470000  -2.768350000
| 16> H   1.359750000  -2.338250000  -3.430940000
| 17> H   1.303000000  -0.879480000  -2.865760000
| 18> O  -1.737840000  -0.885520000  -0.052730000
| 19> H  -2.090180000  -1.032320000   0.841890000
| 20> H  -0.839590000  -1.284090000  -0.017130000
| 21> O   1.752130000   0.741530000  -2.896280000
| 22> H   2.036450000   0.920500000  -1.984040000
| 23> H   0.921210000   1.242140000  -2.984230000
| 24> O  -0.741530000   1.752130000   2.896280000
| 25> H  -0.920500000   2.036450000   1.984040000
| 26> H  -1.242140000   0.921210000   2.984230000
| 27> *
| 28>
| 29>                          ****END OF INPUT****

CARTESIAN COORDINATES (ANGSTROEM)
---------------------------------
  O      0.923410   -1.794470   -2.768350
  H      1.359750   -2.338250   -3.430940
  H      1.303000   -0.879480   -2.865760
  O     -1.737840   -0.885520   -0.052730
  H     -2.090180   -1.032320    0.841890
  H     -0.839590   -1.284090   -0.017130
  O      1.752130    0.741530   -2.896280
  H      2.036450    0.920500   -1.984040
  H      0.921210    1.242140   -2.984230
  O     -0.741530    1.752130    2.896280
  H     -0.920500    2.036450    1.984040
  H     -1.242140    0.921210    2.984230

 Total Charge           Charge          ....    0
 Multiplicity           Mult            ....    1
 Number of Electrons    NEL             ....   40
 Basis Dimension        Dim             ....  172

ORBITAL ENERGIES
----------------

  NO   OCC          E(Eh)            E(eV)
   0   2.0000     -20.600769      -560.5754
   1   2.0000     -20.567886      -559.6806
   2   2.0000     -20.566969      -559.6557
   3   2.0000     -20.522089      -558.4344
   4   2.0000      -1.386042       -37.7161
   5   2.0000      -1.347043       -36.6549
   6   2.0000      -1.342712       -36.5371
   7   2.0000      -1.304359       -35.4934
   8   2.0000      -0.743499       -20.2316
   9   2.0000      -0.710022       -19.3207
  10   2.0000      -0.704347       -19.1662
  11   2.0000      -0.695197       -18.9173
  12   2.0000      -0.620983       -16.8978
  13   2.0000      -0.584831       -15.9141
  14   2.0000      -0.581641       -15.8272
  15   2.0000      -0.561905       -15.2902
  16   2.0000      -0.518435       -14.1073
  17   2.0000      -0.512379       -13.9425
  18   2.0000      -0.509028       -13.8513
  19   2.0000      -0.472362       -12.8536
  20   0.0000       0.090562         2.4643
  21   0.0000       0.111794         3.0421
  22   0.0000       0.160083         4.3561
  23   0.0000       0.174796         4.7564
  24   0.0000       0.179230         4.8771

MULLIKEN ATOMIC CHARGES
-----------------------
   0 O :   -0.731188
   1 H :    0.326683
   2 H :    0.364038
   3 O :   -0.676490
   4 H :    0.323966
   5 H :    0.351815
   6 O :   -0.677702
   7 H :    0.357953
   8 H :    0.363210
   9 O :   -0.671714
  10 H :    0.339562
  11 H :    0.329867
Sum of atomic charges:   -0.0000000

LOEWDIN ATOMIC CHARGES
----------------------
   0 O :   -0.371640
   1 H :    0.149740
   2 H :    0.141509
   3 O :   -0.335955
   4 H :    0.158294
   5 H :    0.177104
   6 O :   -0.270352
   7 H :    0.174747
   8 H :    0.178575
   9 O :   -0.330185
  10 H :    0.165651
  11 H :    0.162512

  Mayer bond orders larger than 0.100000
B(  0-O ,  1-H ) :   0.8597 B(  0-O ,  2-H ) :   0.7881 B(  3-O ,  4-H ) :   0.8587
B(  3-O ,  5-H ) :   0.8392 B(  6-O ,  7-H ) :   0.8373 B(  6-O ,  8-H ) :   0.8337
B(  9-O , 10-H ) :   0.8510 B(  9-O , 11-H ) :   0.8565

MP2 TOTAL ENERGY:     -305.261011276 Eh
FINAL SINGLE POINT ENERGY      -305.261011275541

DIPOLE MOMENT
-------------
                                X             Y             Z
Electronic contribution:      0.08107       0.29317      -0.09680
Nuclear contribution   :      0.11292      -0.03428       0.14168
                        -----------------------------------------
Total Dipole Moment    :      0.19399       0.25889       0.04489
                        -----------------------------------------
Magnitude (a.u.)       :      0.32661
Magnitude (Debye)      :      0.83017

Rotational constants in cm-1:     0.113934     0.031122     0.025425
Rotational constants in MHz :  3415.646977   933.000162   762.232594

                             ****ORCA TERMINATED NORMALLY****
TOTAL RUN TIME: 0 days 0 hours 0 minutes 17 seconds 841 msec
