                         Program Version 4.2.0 -  RELEASE  -
|  1> # 12h2o.su.etal.mol0,1,2,3,4,5,10,11
|  2> ! MP2 def2-TZVP EnGrad TightSCF
|  3>
|  4> %pal
|  5>     nprocs 6
|  6> end
|  7>
|  8> %maxcore 8000
|  9>
| 10> %scf
| 11>     ConvForced true
| 12> end
| 13>
| 14> *xyz 0 1
| 15> O   1.794470000   0.923410000   2.768350000
| 16> H   2.338250000   1.359750000   3.430940000
| 17> H   0.879480000   1.303000000   2.865760000
| 18> O  -1.794470000  -0.923410000   2.768350000
| 19> H  -2.338250000  -1.359750000   3.430940000
| 20> H  -0.879480000  -1.303000000   2.865760000
| 21> O   0.923410000  -1.794470000  -2.768350000
| 22> H   1.359750000  -2.338250000  -3.430940000
| 23> H   1.303000000  -0.879480000  -2.865760000
| 24> O  -1.752130000  -0.741530000  -2.896280000
| 25> H  -2.036450000  -0.920500000  -1.984040000
| 26> H  -0.921210000  -1.242140000  -2.984230000
| 27> O  -0.885520000   1.737840000   0.052730000
| 28> H  -1.032320000   2.090180000  -0.841890000
| 29> H  -1.284090000   0.839590000   0.017130000
| 30> O   0.885520000  -1.737840000   0.052730000
| 31> H   1.284090000  -0.839590000   0.017130000
| 32> H   1.032320000  -2.090180000  -0.841890000
| 33> O  -0.923410000   1.794470000  -2.768350000
| 34> H  -1.359750000   2.338250000  -3.430940000
| 35> H  -1.303000000   0.879480000  -2.865760000
| 36> O  -0.741530000   1.752130000   2.896280000
| 37> H  -0.920500000   2.036450000   1.984040000
| 38> H  -1.242140000   0.921210000   2.984230000
| 39> *
| 40>
| 41>                          ****END OF INPUT****

CARTESIAN COORDINATES (ANGSTROEM)
---------------------------------
  O      1.794470    0.923410    2.768350
  H      2.338250    1.359750    3.430940
  H      0.879480    1.303000    2.865760
  O     -1.794470   -0.923410    2.768350
  H     -2.338250   -1.359750    3.430940
  H     -0.879480   -1.303000    2.865760
  O      0.923410   -1.794470   -2.768350
  H      1.359750   -2.338250   -3.430940
  H      1.303000   -0.879480   -2.865760
  O     -1.752130   -0.741530   -2.896280
  H     -2.036450   -0.920500   -1.984040
  H     -0.921210   -1.242140   -2.984230
  O     -0.885520    1.737840    0.052730
  H     -1.032320    2.090180   -0.841890
  H     -1.284090    0.839590    0.017130
  O      0.885520   -1.737840    0.052730
  H      1.284090   -0.839590    0.017130
  H      1.032320   -2.090180   -0.841890
  O     -0.923410    1.794470   -2.768350
  H     -1.359750    2.338250   -3.430940
  H     -1.303000    0.879480   -2.865760
  O     -0.741530    1.752130    2.896280
  H     -0.920500    2.036450    1.984040
  H     -1.242140    0.921210    2.984230

 Total Charge           Charge          ....    0
 Multiplicity           Mult            ....    1
 Number of Electrons    NEL             ....   80
 Basis Dimension        Dim             ....  344

ORBITAL ENERGIES
----------------

  NO   OCC          E(Eh)            E(eV)
   0   2.0000     -20.624818      -561.2298
   1   2.0000     -20.588165      -560.2324
   2   2.0000     -20.577840      -559.9515
   3   2.0000     -20.551725      -559.2409
   4   2.0000     -20.545632      -559.0751
   5   2.0000     -20.538030      -558.8682
   6   2.0000     -20.524896      -558.5108
   7   2.0000     -20.495087      -557.6997
   8   2.0000      -1.405487       -38.2452
   9   2.0000      -1.377087       -37.4724
  10   2.0000      -1.355853       -36.8946
  11   2.0000      -1.337919       -36.4066
  12   2.0000      -1.326278       -36.0899
  13   2.0000      -1.317155       -35.8416
  14   2.0000      -1.314937       -35.7813
  15   2.0000      -1.276162       -34.7261
  16   2.0000      -0.771181       -20.9849
  17   2.0000      -0.738488       -20.0953
  18   2.0000      -0.722616       -19.6634
  19   2.0000      -0.719761       -19.5857
  20   2.0000      -0.697841       -18.9892
  21   2.0000      -0.689986       -18.7755
  22   2.0000      -0.680080       -18.5059
  23   2.0000      -0.661949       -18.0125
  24   2.0000      -0.644048       -17.5254
  25   2.0000      -0.618837       -16.8394
  26   2.0000      -0.600490       -16.3402
  27   2.0000      -0.588595       -16.0165
  28   2.0000      -0.577358       -15.7107
  29   2.0000      -0.568852       -15.4793
  30   2.0000      -0.551908       -15.0182
  31   2.0000      -0.544096       -14.8056
  32   2.0000      -0.525434       -14.2978
  33   2.0000      -0.524032       -14.2596
  34   2.0000      -0.511244       -13.9116
  35   2.0000      -0.499767       -13.5993
  36   2.0000      -0.492312       -13.3965
  37   2.0000      -0.483097       -13.1457
  38   2.0000      -0.464937       -12.6516
  39   2.0000      -0.445940       -12.1347
  40   0.0000       0.084756         2.3063
  41   0.0000       0.117759         3.2044
  42   0.0000       0.134305         3.6546
  43   0.0000       0.154830         4.2131
  44   0.0000       0.165525         4.5042

MULLIKEN ATOMIC CHARGES
-----------------------
   0 O :   -0.740218
   1 H :    0.316698
   2 H :    0.370575
   3 O :   -0.708044
   4 H :    0.349499
   5 H :    0.379560
   6 O :   -0.722124
   7 H :    0.368184
   8 H :    0.377784
   9 O :   -0.698906
  10 H :    0.356465
  11 H :    0.378159
  12 O :   -0.713636
  13 H :    0.376354
  14 H :    0.328008
  15 O :   -0.706296
  16 H :    0.346620
  17 H :    0.355817
  18 O :   -0.741631
  19 H :    0.339288
  20 H :    0.367916
  21 O :   -0.721040
  22 H :    0.383601
  23 H :    0.357367
Sum of atomic charges:   -0.0000000

LOEWDIN ATOMIC CHARGES
----------------------
   0 O :   -0.377919
   1 H :    0.144626
   2 H :    0.142282
   3 O :   -0.313791
   4 H :    0.162268
   5 H :    0.194861
   6 O :   -0.287801
   7 H :    0.169948
   8 H :    0.194726
   9 O :   -0.278028
  10 H :    0.170841
  11 H :    0.154502
  12 O :   -0.325522
  13 H :    0.153392
  14 H :    0.162421
  15 O :   -0.346827
  16 H :    0.171752
  17 H :    0.143961
  18 O :   -0.343222
  19 H :    0.154822
  20 H :    0.141912
  21 O :   -0.291775
  22 H :    0.156141
  23 H :    0.146431

  Mayer bond orders larger than 0.100000
B(  0-O ,  1-H ) :   0.8645 B(  0-O ,  2-H ) :   0.7655 B(  2-H , 21-O ) :   0.1058
B(  3-O ,  4-H ) :   0.8433 B(  3-O ,  5-H ) :   0.8148 B(  6-O ,  7-H ) :   0.8293
B(  6-O ,  8-H ) :   0.8141 B(  9-O , 10-H ) :   0.8371 B(  9-O , 11-H ) :   0.7995
B( 12-O , 13-H ) :   0.7997 B( 12-O , 14-H ) :   0.8462 B( 15-O , 16-H ) :   0.8385
B( 15-O , 17-H ) :   0.8307 B( 18-O , 19-H ) :   0.8493 B( 18-O , 20-H ) :   0.7596
B( 21-O , 22-H ) :   0.8025 B( 21-O , 23-H ) :   0.8122

MP2 TOTAL ENERGY:     -610.569465541 Eh
FINAL SINGLE POINT ENERGY      -610.569465541332

DIPOLE MOMENT
-------------
                                X             Y             Z
Electronic contribution:     -0.22536      -0.30443      -0.31853
Nuclear contribution   :     -0.11069      -1.02062      -1.54856
                        -----------------------------------------
Total Dipole Moment    :     -0.33605      -1.32505      -1.86709
                        -----------------------------------------
Magnitude (a.u.)       :      2.31402
Magnitude (Debye)      :      5.88178

Rotational constants in cm-1:     0.032311     0.015452     0.013758
Rotational constants in MHz :   968.666845   463.228318   412.450422

                             ****ORCA TERMINATED NORMALLY****
TOTAL RUN TIME: 0 days 0 hours 2 minutes 41 seconds 241 msec
