                         Program Version 4.2.0 -  RELEASE  -
|  1> # 12mecn.remya.etal.2.mol2,3,7
|  2> ! MP2 def2-TZVP EnGrad TightSCF
|  3>
|  4> %pal
|  5>     nprocs 6
|  6> end
|  7>
|  8> %maxcore 8000
|  9>
| 10> %scf
| 11>     ConvForced true
| 12> end
| 13>
| 14> *xyz 0 1
| 15> C  -4.219070000  -3.477410000  -1.501740000
| 16> H  -3.251530000  -3.803540000  -1.893830000
| 17> H  -4.452920000  -2.481700000  -1.890840000
| 18> H  -4.992170000  -4.178130000  -1.824640000
| 19> C  -4.154550000  -3.418790000  -0.058340000
| 20> N  -4.091140000  -3.354840000   1.104432000
| 21> C  -5.181310000   2.853865000  -1.626100000
| 22> H  -5.488260000   3.811434000  -2.053310000
| 23> H  -5.857590000   2.068112000  -1.968630000
| 24> H  -4.170750000   2.611402000  -1.966640000
| 25> C  -5.187260000   2.919160000  -0.181450000
| 26> N  -5.181700000   2.970641000   0.983640000
| 27> C   1.502241000   0.651296000   1.710523000
| 28> H   1.309219000   1.637164000   2.143202000
| 29> H   2.493408000   0.297996000   2.009069000
| 30> H   0.746597000  -0.059850000   2.055508000
| 31> C   1.447974000   0.738517000   0.269805000
| 32> N   1.405612000   0.808047000  -0.894380000
| 33> *
| 34>
| 35>                          ****END OF INPUT****

CARTESIAN COORDINATES (ANGSTROEM)
---------------------------------
  C     -4.219070   -3.477410   -1.501740
  H     -3.251530   -3.803540   -1.893830
  H     -4.452920   -2.481700   -1.890840
  H     -4.992170   -4.178130   -1.824640
  C     -4.154550   -3.418790   -0.058340
  N     -4.091140   -3.354840    1.104432
  C     -5.181310    2.853865   -1.626100
  H     -5.488260    3.811434   -2.053310
  H     -5.857590    2.068112   -1.968630
  H     -4.170750    2.611402   -1.966640
  C     -5.187260    2.919160   -0.181450
  N     -5.181700    2.970641    0.983640
  C      1.502241    0.651296    1.710523
  H      1.309219    1.637164    2.143202
  H      2.493408    0.297996    2.009069
  H      0.746597   -0.059850    2.055508
  C      1.447974    0.738517    0.269805
  N      1.405612    0.808047   -0.894380

 Total Charge           Charge          ....    0
 Multiplicity           Mult            ....    1
 Number of Electrons    NEL             ....   66
 Basis Dimension        Dim             ....  333

ORBITAL ENERGIES
----------------

  NO   OCC          E(Eh)            E(eV)
   0   2.0000     -15.573704      -423.7820
   1   2.0000     -15.572594      -423.7518
   2   2.0000     -15.572142      -423.7395
   3   2.0000     -11.286220      -307.1137
   4   2.0000     -11.284802      -307.0751
   5   2.0000     -11.281932      -306.9970
   6   2.0000     -11.280578      -306.9601
   7   2.0000     -11.279876      -306.9410
   8   2.0000     -11.279453      -306.9295
   9   2.0000      -1.215285       -33.0696
  10   2.0000      -1.214112       -33.0377
  11   2.0000      -1.213928       -33.0327
  12   2.0000      -1.044586       -28.4246
  13   2.0000      -1.043540       -28.3962
  14   2.0000      -1.041782       -28.3483
  15   2.0000      -0.701402       -19.0861
  16   2.0000      -0.700932       -19.0733
  17   2.0000      -0.696547       -18.9540
  18   2.0000      -0.632895       -17.2219
  19   2.0000      -0.632436       -17.2095
  20   2.0000      -0.632109       -17.2006
  21   2.0000      -0.630403       -17.1542
  22   2.0000      -0.630034       -17.1441
  23   2.0000      -0.628797       -17.1104
  24   2.0000      -0.556436       -15.1414
  25   2.0000      -0.555712       -15.1217
  26   2.0000      -0.555329       -15.1113
  27   2.0000      -0.458461       -12.4753
  28   2.0000      -0.458261       -12.4699
  29   2.0000      -0.457458       -12.4481
  30   2.0000      -0.457022       -12.4362
  31   2.0000      -0.456974       -12.4349
  32   2.0000      -0.456751       -12.4288
  33   0.0000       0.105484         2.8704
  34   0.0000       0.123042         3.3482
  35   0.0000       0.126863         3.4521
  36   0.0000       0.166421         4.5285
  37   0.0000       0.170875         4.6497

MULLIKEN ATOMIC CHARGES
-----------------------
   0 C :   -0.278325
   1 H :    0.174421
   2 H :    0.167457
   3 H :    0.172240
   4 C :   -0.145735
   5 N :   -0.090045
   6 C :   -0.283869
   7 H :    0.172844
   8 H :    0.168389
   9 H :    0.176566
  10 C :   -0.144363
  11 N :   -0.089581
  12 C :   -0.276790
  13 H :    0.173573
  14 H :    0.170602
  15 H :    0.178456
  16 C :   -0.145977
  17 N :   -0.099865
Sum of atomic charges:    0.0000000

LOEWDIN ATOMIC CHARGES
----------------------
   0 C :   -0.283955
   1 H :    0.153428
   2 H :    0.151859
   3 H :    0.150960
   4 C :   -0.219439
   5 N :    0.047152
   6 C :   -0.284513
   7 H :    0.151639
   8 H :    0.150249
   9 H :    0.154006
  10 C :   -0.218913
  11 N :    0.047528
  12 C :   -0.281991
  13 H :    0.153600
  14 H :    0.152895
  15 H :    0.155146
  16 C :   -0.219438
  17 N :    0.039788

  Mayer bond orders larger than 0.100000
B(  0-C ,  1-H ) :   0.9159 B(  0-C ,  2-H ) :   0.9174 B(  0-C ,  3-H ) :   0.9168
B(  0-C ,  4-C ) :   0.9027 B(  4-C ,  5-N ) :   2.8364 B(  6-C ,  7-H ) :   0.9159
B(  6-C ,  8-H ) :   0.9178 B(  6-C ,  9-H ) :   0.9162 B(  6-C , 10-C ) :   0.9021
B( 10-C , 11-N ) :   2.8364 B( 12-C , 13-H ) :   0.9152 B( 12-C , 14-H ) :   0.9164
B( 12-C , 15-H ) :   0.9146 B( 12-C , 16-C ) :   0.9008 B( 16-C , 17-N ) :   2.8422

MP2 TOTAL ENERGY:     -397.450312241 Eh
FINAL SINGLE POINT ENERGY      -397.450312241002

DIPOLE MOMENT
-------------
                                X             Y             Z
Electronic contribution:     -0.00560       0.47052       3.20043
Nuclear contribution   :     -0.00669      -0.70986      -4.68101
                        -----------------------------------------
Total Dipole Moment    :     -0.01229      -0.23934      -1.48057
                        -----------------------------------------
Magnitude (a.u.)       :      1.49984
Magnitude (Debye)      :      3.81230

Rotational constants in cm-1:     0.016779     0.013703     0.008758
Rotational constants in MHz :   503.034372   410.812978   262.565870

                             ****ORCA TERMINATED NORMALLY****
TOTAL RUN TIME: 0 days 0 hours 1 minutes 53 seconds 970 msec
