                         Program Version 4.2.0 -  RELEASE  -
|  1> # 12h2o.su.etal.mol0,1,3,4,6,7,10,11
|  2> ! MP2 def2-TZVP EnGrad TightSCF
|  3>
|  4> %pal
|  5>     nprocs 6
|  6> end
|  7>
|  8> %maxcore 8000
|  9>
| 10> %scf
| 11>     ConvForced true
| 12> end
| 13>
| 14> *xyz 0 1
| 15> O   1.794470000   0.923410000   2.768350000
| 16> H   2.338250000   1.359750000   3.430940000
| 17> H   0.879480000   1.303000000   2.865760000
| 18> O  -1.794470000  -0.923410000   2.768350000
| 19> H  -2.338250000  -1.359750000   3.430940000
| 20> H  -0.879480000  -1.303000000   2.865760000
| 21> O  -1.752130000  -0.741530000  -2.896280000
| 22> H  -2.036450000  -0.920500000  -1.984040000
| 23> H  -0.921210000  -1.242140000  -2.984230000
| 24> O  -0.885520000   1.737840000   0.052730000
| 25> H  -1.032320000   2.090180000  -0.841890000
| 26> H  -1.284090000   0.839590000   0.017130000
| 27> O   1.737840000   0.885520000  -0.052730000
| 28> H   2.090180000   1.032320000   0.841890000
| 29> H   0.839590000   1.284090000  -0.017130000
| 30> O  -1.737840000  -0.885520000  -0.052730000
| 31> H  -2.090180000  -1.032320000   0.841890000
| 32> H  -0.839590000  -1.284090000  -0.017130000
| 33> O  -0.923410000   1.794470000  -2.768350000
| 34> H  -1.359750000   2.338250000  -3.430940000
| 35> H  -1.303000000   0.879480000  -2.865760000
| 36> O  -0.741530000   1.752130000   2.896280000
| 37> H  -0.920500000   2.036450000   1.984040000
| 38> H  -1.242140000   0.921210000   2.984230000
| 39> *
| 40>
| 41>                          ****END OF INPUT****

CARTESIAN COORDINATES (ANGSTROEM)
---------------------------------
  O      1.794470    0.923410    2.768350
  H      2.338250    1.359750    3.430940
  H      0.879480    1.303000    2.865760
  O     -1.794470   -0.923410    2.768350
  H     -2.338250   -1.359750    3.430940
  H     -0.879480   -1.303000    2.865760
  O     -1.752130   -0.741530   -2.896280
  H     -2.036450   -0.920500   -1.984040
  H     -0.921210   -1.242140   -2.984230
  O     -0.885520    1.737840    0.052730
  H     -1.032320    2.090180   -0.841890
  H     -1.284090    0.839590    0.017130
  O      1.737840    0.885520   -0.052730
  H      2.090180    1.032320    0.841890
  H      0.839590    1.284090   -0.017130
  O     -1.737840   -0.885520   -0.052730
  H     -2.090180   -1.032320    0.841890
  H     -0.839590   -1.284090   -0.017130
  O     -0.923410    1.794470   -2.768350
  H     -1.359750    2.338250   -3.430940
  H     -1.303000    0.879480   -2.865760
  O     -0.741530    1.752130    2.896280
  H     -0.920500    2.036450    1.984040
  H     -1.242140    0.921210    2.984230

 Total Charge           Charge          ....    0
 Multiplicity           Mult            ....    1
 Number of Electrons    NEL             ....   80
 Basis Dimension        Dim             ....  344

ORBITAL ENERGIES
----------------

  NO   OCC          E(Eh)            E(eV)
   0   2.0000     -20.635433      -561.5187
   1   2.0000     -20.608491      -560.7856
   2   2.0000     -20.581275      -560.0450
   3   2.0000     -20.551559      -559.2363
   4   2.0000     -20.542508      -558.9901
   5   2.0000     -20.535843      -558.8087
   6   2.0000     -20.528395      -558.6060
   7   2.0000     -20.480139      -557.2929
   8   2.0000      -1.416612       -38.5480
   9   2.0000      -1.394503       -37.9463
  10   2.0000      -1.369262       -37.2595
  11   2.0000      -1.347519       -36.6679
  12   2.0000      -1.333556       -36.2879
  13   2.0000      -1.316992       -35.8372
  14   2.0000      -1.311625       -35.6911
  15   2.0000      -1.264183       -34.4002
  16   2.0000      -0.781570       -21.2676
  17   2.0000      -0.759294       -20.6614
  18   2.0000      -0.730329       -19.8733
  19   2.0000      -0.716267       -19.4906
  20   2.0000      -0.706072       -19.2132
  21   2.0000      -0.704074       -19.1588
  22   2.0000      -0.695340       -18.9212
  23   2.0000      -0.663252       -18.0480
  24   2.0000      -0.647081       -17.6080
  25   2.0000      -0.636046       -17.3077
  26   2.0000      -0.614060       -16.7094
  27   2.0000      -0.602401       -16.3922
  28   2.0000      -0.584102       -15.8942
  29   2.0000      -0.572732       -15.5848
  30   2.0000      -0.556084       -15.1318
  31   2.0000      -0.552709       -15.0400
  32   2.0000      -0.541792       -14.7429
  33   2.0000      -0.520588       -14.1659
  34   2.0000      -0.513670       -13.9777
  35   2.0000      -0.493246       -13.4219
  36   2.0000      -0.485111       -13.2005
  37   2.0000      -0.481047       -13.0899
  38   2.0000      -0.469726       -12.7819
  39   2.0000      -0.431460       -11.7406
  40   0.0000       0.077947         2.1210
  41   0.0000       0.118507         3.2247
  42   0.0000       0.149196         4.0598
  43   0.0000       0.161111         4.3841
  44   0.0000       0.173075         4.7096

MULLIKEN ATOMIC CHARGES
-----------------------
   0 O :   -0.744386
   1 H :    0.331379
   2 H :    0.367932
   3 O :   -0.726887
   4 H :    0.372790
   5 H :    0.381706
   6 O :   -0.694290
   7 H :    0.385082
   8 H :    0.354371
   9 O :   -0.751710
  10 H :    0.385723
  11 H :    0.350762
  12 O :   -0.749076
  13 H :    0.357931
  14 H :    0.349097
  15 O :   -0.731013
  16 H :    0.390536
  17 H :    0.362351
  18 O :   -0.730469
  19 H :    0.333717
  20 H :    0.371861
  21 O :   -0.715410
  22 H :    0.390925
  23 H :    0.357078
Sum of atomic charges:   -0.0000000

LOEWDIN ATOMIC CHARGES
----------------------
   0 O :   -0.347512
   1 H :    0.150456
   2 H :    0.142081
   3 O :   -0.288212
   4 H :    0.172185
   5 H :    0.196575
   6 O :   -0.274795
   7 H :    0.156987
   8 H :    0.174248
   9 O :   -0.303610
  10 H :    0.154705
  11 H :    0.138193
  12 O :   -0.377993
  13 H :    0.142436
  14 H :    0.134099
  15 O :   -0.283780
  16 H :    0.157654
  17 H :    0.179641
  18 O :   -0.336848
  19 H :    0.152837
  20 H :    0.144465
  21 O :   -0.286409
  22 H :    0.157442
  23 H :    0.145157

  Mayer bond orders larger than 0.100000
B(  0-O ,  1-H ) :   0.8532 B(  0-O ,  2-H ) :   0.7544 B(  2-H , 21-O ) :   0.1075
B(  3-O ,  4-H ) :   0.8273 B(  3-O ,  5-H ) :   0.8114 B(  6-O ,  7-H ) :   0.8050
B(  6-O ,  8-H ) :   0.8391 B(  9-O , 10-H ) :   0.7874 B(  9-O , 11-H ) :   0.7882
B( 12-O , 13-H ) :   0.8227 B( 12-O , 14-H ) :   0.8060 B( 15-O , 16-H ) :   0.7941
B( 15-O , 17-H ) :   0.8227 B( 18-O , 19-H ) :   0.8524 B( 18-O , 20-H ) :   0.7641
B( 21-O , 22-H ) :   0.7938 B( 21-O , 23-H ) :   0.8224

MP2 TOTAL ENERGY:     -610.586556757 Eh
FINAL SINGLE POINT ENERGY      -610.586556756778

DIPOLE MOMENT
-------------
                                X             Y             Z
Electronic contribution:     -0.55284      -0.19824      -0.13358
Nuclear contribution   :     -1.24378      -1.78400       1.40687
                        -----------------------------------------
Total Dipole Moment    :     -1.79662      -1.98224       1.27329
                        -----------------------------------------
Magnitude (a.u.)       :      2.96284
Magnitude (Debye)      :      7.53093

Rotational constants in cm-1:     0.038465     0.019525     0.015879
Rotational constants in MHz :  1153.162440   585.345577   476.045266

                             ****ORCA TERMINATED NORMALLY****
TOTAL RUN TIME: 0 days 0 hours 3 minutes 14 seconds 552 msec
