                         Program Version 4.2.0 -  RELEASE  -
|  1> # 12mecn.remya.etal.2.mol2,3,6
|  2> ! MP2 def2-TZVP EnGrad TightSCF
|  3>
|  4> %pal
|  5>     nprocs 6
|  6> end
|  7>
|  8> %maxcore 8000
|  9>
| 10> %scf
| 11>     ConvForced true
| 12> end
| 13>
| 14> *xyz 0 1
| 15> C  -4.219070000  -3.477410000  -1.501740000
| 16> H  -3.251530000  -3.803540000  -1.893830000
| 17> H  -4.452920000  -2.481700000  -1.890840000
| 18> H  -4.992170000  -4.178130000  -1.824640000
| 19> C  -4.154550000  -3.418790000  -0.058340000
| 20> N  -4.091140000  -3.354840000   1.104432000
| 21> C  -5.181310000   2.853865000  -1.626100000
| 22> H  -5.488260000   3.811434000  -2.053310000
| 23> H  -5.857590000   2.068112000  -1.968630000
| 24> H  -4.170750000   2.611402000  -1.966640000
| 25> C  -5.187260000   2.919160000  -0.181450000
| 26> N  -5.181700000   2.970641000   0.983640000
| 27> C   5.300864000  -2.920090000   1.401103000
| 28> H   5.986071000  -2.139770000   1.737487000
| 29> H   5.636642000  -3.888750000   1.778233000
| 30> H   4.307359000  -2.697240000   1.799307000
| 31> C   5.234791000  -2.933140000  -0.043290000
| 32> N   5.170868000  -2.941760000  -1.207750000
| 33> *
| 34>
| 35>                          ****END OF INPUT****

CARTESIAN COORDINATES (ANGSTROEM)
---------------------------------
  C     -4.219070   -3.477410   -1.501740
  H     -3.251530   -3.803540   -1.893830
  H     -4.452920   -2.481700   -1.890840
  H     -4.992170   -4.178130   -1.824640
  C     -4.154550   -3.418790   -0.058340
  N     -4.091140   -3.354840    1.104432
  C     -5.181310    2.853865   -1.626100
  H     -5.488260    3.811434   -2.053310
  H     -5.857590    2.068112   -1.968630
  H     -4.170750    2.611402   -1.966640
  C     -5.187260    2.919160   -0.181450
  N     -5.181700    2.970641    0.983640
  C      5.300864   -2.920090    1.401103
  H      5.986071   -2.139770    1.737487
  H      5.636642   -3.888750    1.778233
  H      4.307359   -2.697240    1.799307
  C      5.234791   -2.933140   -0.043290
  N      5.170868   -2.941760   -1.207750

 Total Charge           Charge          ....    0
 Multiplicity           Mult            ....    1
 Number of Electrons    NEL             ....   66
 Basis Dimension        Dim             ....  333

ORBITAL ENERGIES
----------------

  NO   OCC          E(Eh)            E(eV)
   0   2.0000     -15.573565      -423.7783
   1   2.0000     -15.573429      -423.7746
   2   2.0000     -15.573377      -423.7731
   3   2.0000     -11.286841      -307.1306
   4   2.0000     -11.286690      -307.1265
   5   2.0000     -11.284223      -307.0593
   6   2.0000     -11.280579      -306.9601
   7   2.0000     -11.280170      -306.9490
   8   2.0000     -11.279948      -306.9430
   9   2.0000      -1.215140       -33.0656
  10   2.0000      -1.214999       -33.0618
  11   2.0000      -1.214752       -33.0551
  12   2.0000      -1.045117       -28.4391
  13   2.0000      -1.044999       -28.4359
  14   2.0000      -1.043504       -28.3952
  15   2.0000      -0.702418       -19.1138
  16   2.0000      -0.701742       -19.0954
  17   2.0000      -0.700919       -19.0730
  18   2.0000      -0.634151       -17.2561
  19   2.0000      -0.633449       -17.2370
  20   2.0000      -0.632663       -17.2156
  21   2.0000      -0.632355       -17.2073
  22   2.0000      -0.631910       -17.1951
  23   2.0000      -0.629560       -17.1312
  24   2.0000      -0.556517       -15.1436
  25   2.0000      -0.555990       -15.1292
  26   2.0000      -0.555773       -15.1233
  27   2.0000      -0.458483       -12.4760
  28   2.0000      -0.458194       -12.4681
  29   2.0000      -0.458137       -12.4665
  30   2.0000      -0.457977       -12.4622
  31   2.0000      -0.457880       -12.4596
  32   2.0000      -0.457672       -12.4539
  33   0.0000       0.104381         2.8404
  34   0.0000       0.119974         3.2647
  35   0.0000       0.125501         3.4150
  36   0.0000       0.165332         4.4989
  37   0.0000       0.170243         4.6325

MULLIKEN ATOMIC CHARGES
-----------------------
   0 C :   -0.279513
   1 H :    0.174167
   2 H :    0.166089
   3 H :    0.172704
   4 C :   -0.145887
   5 N :   -0.087553
   6 C :   -0.283016
   7 H :    0.173377
   8 H :    0.169123
   9 H :    0.171808
  10 C :   -0.144748
  11 N :   -0.086549
  12 C :   -0.280548
  13 H :    0.172171
  14 H :    0.172509
  15 H :    0.174210
  16 C :   -0.145559
  17 N :   -0.092782
Sum of atomic charges:    0.0000000

LOEWDIN ATOMIC CHARGES
----------------------
   0 C :   -0.284517
   1 H :    0.153131
   2 H :    0.151251
   3 H :    0.151064
   4 C :   -0.219936
   5 N :    0.049008
   6 C :   -0.284979
   7 H :    0.151649
   8 H :    0.150314
   9 H :    0.152562
  10 C :   -0.219442
  11 N :    0.049894
  12 C :   -0.283381
  13 H :    0.151693
  14 H :    0.151567
  15 H :    0.153801
  16 C :   -0.218566
  17 N :    0.044887

  Mayer bond orders larger than 0.100000
B(  0-C ,  1-H ) :   0.9163 B(  0-C ,  2-H ) :   0.9180 B(  0-C ,  3-H ) :   0.9167
B(  0-C ,  4-C ) :   0.9022 B(  4-C ,  5-N ) :   2.8349 B(  6-C ,  7-H ) :   0.9160
B(  6-C ,  8-H ) :   0.9180 B(  6-C ,  9-H ) :   0.9174 B(  6-C , 10-C ) :   0.9020
B( 10-C , 11-N ) :   2.8343 B( 12-C , 13-H ) :   0.9167 B( 12-C , 14-H ) :   0.9160
B( 12-C , 15-H ) :   0.9162 B( 12-C , 16-C ) :   0.9024 B( 16-C , 17-N ) :   2.8386

MP2 TOTAL ENERGY:     -397.448996541 Eh
FINAL SINGLE POINT ENERGY      -397.448996541058

DIPOLE MOMENT
-------------
                                X             Y             Z
Electronic contribution:     -0.01741       0.23273       3.16777
Nuclear contribution   :      0.02192      -0.35817      -4.64334
                        -----------------------------------------
Total Dipole Moment    :      0.00451      -0.12545      -1.47557
                        -----------------------------------------
Magnitude (a.u.)       :      1.48090
Magnitude (Debye)      :      3.76416

Rotational constants in cm-1:     0.020505     0.005209     0.004505
Rotational constants in MHz :   614.715128   156.153894   135.055132

                             ****ORCA TERMINATED NORMALLY****
TOTAL RUN TIME: 0 days 0 hours 1 minutes 49 seconds 226 msec
