                         Program Version 4.2.0 -  RELEASE  -
|  1> # 12mecn.remya.etal.2.mol0,9
|  2> ! MP2 def2-TZVP EnGrad TightSCF
|  3>
|  4> %pal
|  5>     nprocs 6
|  6> end
|  7>
|  8> %maxcore 8000
|  9>
| 10> %scf
| 11>     ConvForced true
| 12> end
| 13>
| 14> *xyz 0 1
| 15> C  -0.869520000  -3.929380000   1.700199000
| 16> H  -0.057420000  -3.268850000   2.015352000
| 17> H  -0.697530000  -4.930670000   2.101524000
| 18> H  -1.821490000  -3.546590000   2.077146000
| 19> C  -0.916080000  -3.969960000   0.256749000
| 20> N  -0.955390000  -3.995980000  -0.909290000
| 21> C   0.923766000   4.000693000  -1.575910000
| 22> H   0.011949000   4.478423000  -1.939550000
| 23> H   0.947903000   2.966558000  -1.929960000
| 24> H   1.805950000   4.519548000  -1.956520000
| 25> C   0.942834000   3.994846000  -0.131200000
| 26> N   0.960035000   3.982544000   1.035639000
| 27> *
| 28>
| 29>                          ****END OF INPUT****

CARTESIAN COORDINATES (ANGSTROEM)
---------------------------------
  C     -0.869520   -3.929380    1.700199
  H     -0.057420   -3.268850    2.015352
  H     -0.697530   -4.930670    2.101524
  H     -1.821490   -3.546590    2.077146
  C     -0.916080   -3.969960    0.256749
  N     -0.955390   -3.995980   -0.909290
  C      0.923766    4.000693   -1.575910
  H      0.011949    4.478423   -1.939550
  H      0.947903    2.966558   -1.929960
  H      1.805950    4.519548   -1.956520
  C      0.942834    3.994846   -0.131200
  N      0.960035    3.982544    1.035639

 Total Charge           Charge          ....    0
 Multiplicity           Mult            ....    1
 Number of Electrons    NEL             ....   44
 Basis Dimension        Dim             ....  222

ORBITAL ENERGIES
----------------

  NO   OCC          E(Eh)            E(eV)
   0   2.0000     -15.573496      -423.7764
   1   2.0000     -15.573237      -423.7693
   2   2.0000     -11.284243      -307.0599
   3   2.0000     -11.284220      -307.0592
   4   2.0000     -11.280685      -306.9630
   5   2.0000     -11.280417      -306.9558
   6   2.0000      -1.214800       -33.0564
   7   2.0000      -1.214598       -33.0509
   8   2.0000      -1.044083       -28.4109
   9   2.0000      -1.043788       -28.4029
  10   2.0000      -0.700282       -19.0557
  11   2.0000      -0.699710       -19.0401
  12   2.0000      -0.633774       -17.2459
  13   2.0000      -0.631946       -17.1961
  14   2.0000      -0.631201       -17.1759
  15   2.0000      -0.629738       -17.1361
  16   2.0000      -0.556417       -15.1409
  17   2.0000      -0.556158       -15.1338
  18   2.0000      -0.458294       -12.4708
  19   2.0000      -0.457721       -12.4552
  20   2.0000      -0.457616       -12.4524
  21   2.0000      -0.457490       -12.4489
  22   0.0000       0.119699         3.2572
  23   0.0000       0.120279         3.2730
  24   0.0000       0.171545         4.6680
  25   0.0000       0.171558         4.6683
  26   0.0000       0.172113         4.6834

MULLIKEN ATOMIC CHARGES
-----------------------
   0 C :   -0.278231
   1 H :    0.173906
   2 H :    0.171918
   3 H :    0.172480
   4 C :   -0.145900
   5 N :   -0.094172
   6 C :   -0.279015
   7 H :    0.172397
   8 H :    0.174322
   9 H :    0.172006
  10 C :   -0.145555
  11 N :   -0.094155
Sum of atomic charges:    0.0000000

LOEWDIN ATOMIC CHARGES
----------------------
   0 C :   -0.283099
   1 H :    0.153484
   2 H :    0.151652
   3 H :    0.153211
   4 C :   -0.219482
   5 N :    0.044234
   6 C :   -0.283084
   7 H :    0.151754
   8 H :    0.154184
   9 H :    0.151987
  10 C :   -0.219150
  11 N :    0.044308

  Mayer bond orders larger than 0.100000
B(  0-C ,  1-H ) :   0.9159 B(  0-C ,  2-H ) :   0.9166 B(  0-C ,  3-H ) :   0.9162
B(  0-C ,  4-C ) :   0.9014 B(  4-C ,  5-N ) :   2.8383 B(  6-C ,  7-H ) :   0.9161
B(  6-C ,  8-H ) :   0.9164 B(  6-C ,  9-H ) :   0.9164 B(  6-C , 10-C ) :   0.9015
B( 10-C , 11-N ) :   2.8382

MP2 TOTAL ENERGY:     -264.966836467 Eh
FINAL SINGLE POINT ENERGY      -264.966836467301

DIPOLE MOMENT
-------------
                                X             Y             Z
Electronic contribution:     -0.06295      -0.07892       0.00566
Nuclear contribution   :      0.09327       0.12328      -0.00725
                        -----------------------------------------
Total Dipole Moment    :      0.03032       0.04435      -0.00158
                        -----------------------------------------
Magnitude (a.u.)       :      0.05375
Magnitude (Debye)      :      0.13662

Rotational constants in cm-1:     0.155070     0.012158     0.011323
Rotational constants in MHz :  4648.889069   364.484035   339.453360

                             ****ORCA TERMINATED NORMALLY****
TOTAL RUN TIME: 0 days 0 hours 0 minutes 43 seconds 77 msec
