                         Program Version 4.2.0 -  RELEASE  -
|  1> # 12mecn.remya.etal.2.mol5,6,10
|  2> ! MP2 def2-TZVP EnGrad TightSCF
|  3>
|  4> %pal
|  5>     nprocs 6
|  6> end
|  7>
|  8> %maxcore 8000
|  9>
| 10> %scf
| 11>     ConvForced true
| 12> end
| 13>
| 14> *xyz 0 1
| 15> C  -1.955700000   2.515080000   1.698463000
| 16> H  -2.923830000   2.883163000   2.049269000
| 17> H  -1.154850000   3.171830000   2.050990000
| 18> H  -1.790380000   1.506115000   2.087896000
| 19> C  -1.948230000   2.482156000   0.253672000
| 20> N  -1.937550000   2.462523000  -0.913150000
| 21> C   5.300864000  -2.920090000   1.401103000
| 22> H   5.986071000  -2.139770000   1.737487000
| 23> H   5.636642000  -3.888750000   1.778233000
| 24> H   4.307359000  -2.697240000   1.799307000
| 25> C   5.234791000  -2.933140000  -0.043290000
| 26> N   5.170868000  -2.941760000  -1.207750000
| 27> C   4.602033000   0.321019000  -1.784800000
| 28> H   4.827650000  -0.662160000  -2.207910000
| 29> H   5.320558000   1.057980000  -2.148500000
| 30> H   3.601982000   0.643751000  -2.087520000
| 31> C   4.654967000   0.244048000  -0.343060000
| 32> N   4.691648000   0.166590000   0.820757000
| 33> *
| 34>
| 35>                          ****END OF INPUT****

CARTESIAN COORDINATES (ANGSTROEM)
---------------------------------
  C     -1.955700    2.515080    1.698463
  H     -2.923830    2.883163    2.049269
  H     -1.154850    3.171830    2.050990
  H     -1.790380    1.506115    2.087896
  C     -1.948230    2.482156    0.253672
  N     -1.937550    2.462523   -0.913150
  C      5.300864   -2.920090    1.401103
  H      5.986071   -2.139770    1.737487
  H      5.636642   -3.888750    1.778233
  H      4.307359   -2.697240    1.799307
  C      5.234791   -2.933140   -0.043290
  N      5.170868   -2.941760   -1.207750
  C      4.602033    0.321019   -1.784800
  H      4.827650   -0.662160   -2.207910
  H      5.320558    1.057980   -2.148500
  H      3.601982    0.643751   -2.087520
  C      4.654967    0.244048   -0.343060
  N      4.691648    0.166590    0.820757

 Total Charge           Charge          ....    0
 Multiplicity           Mult            ....    1
 Number of Electrons    NEL             ....   66
 Basis Dimension        Dim             ....  333

ORBITAL ENERGIES
----------------

  NO   OCC          E(Eh)            E(eV)
   0   2.0000     -15.573479      -423.7759
   1   2.0000     -15.570578      -423.6970
   2   2.0000     -15.569917      -423.6790
   3   2.0000     -11.285029      -307.0812
   4   2.0000     -11.282643      -307.0163
   5   2.0000     -11.282015      -306.9992
   6   2.0000     -11.280671      -306.9627
   7   2.0000     -11.272118      -306.7299
   8   2.0000     -11.270202      -306.6778
   9   2.0000      -1.217772       -33.1372
  10   2.0000      -1.214777       -33.0558
  11   2.0000      -1.213014       -33.0078
  12   2.0000      -1.043841       -28.4043
  13   2.0000      -1.035733       -28.1837
  14   2.0000      -1.032789       -28.1036
  15   2.0000      -0.699662       -19.0388
  16   2.0000      -0.694643       -18.9022
  17   2.0000      -0.690159       -18.7802
  18   2.0000      -0.632734       -17.2176
  19   2.0000      -0.631043       -17.1716
  20   2.0000      -0.630829       -17.1657
  21   2.0000      -0.620628       -16.8881
  22   2.0000      -0.617531       -16.8039
  23   2.0000      -0.615625       -16.7520
  24   2.0000      -0.558698       -15.2029
  25   2.0000      -0.556335       -15.1386
  26   2.0000      -0.555460       -15.1148
  27   2.0000      -0.462672       -12.5899
  28   2.0000      -0.458014       -12.4632
  29   2.0000      -0.457841       -12.4585
  30   2.0000      -0.457737       -12.4557
  31   2.0000      -0.456660       -12.4264
  32   2.0000      -0.452519       -12.3137
  33   0.0000       0.119066         3.2399
  34   0.0000       0.127396         3.4666
  35   0.0000       0.146291         3.9808
  36   0.0000       0.171412         4.6644
  37   0.0000       0.171613         4.6698

MULLIKEN ATOMIC CHARGES
-----------------------
   0 C :   -0.278096
   1 H :    0.171758
   2 H :    0.173486
   3 H :    0.172502
   4 C :   -0.145569
   5 N :   -0.094071
   6 C :   -0.261448
   7 H :    0.183044
   8 H :    0.171277
   9 H :    0.171805
  10 C :   -0.118416
  11 N :   -0.146289
  12 C :   -0.287489
  13 H :    0.205377
  14 H :    0.165948
  15 H :    0.171612
  16 C :   -0.111185
  17 N :   -0.144244
Sum of atomic charges:    0.0000000

LOEWDIN ATOMIC CHARGES
----------------------
   0 C :   -0.283499
   1 H :    0.152452
   2 H :    0.153326
   3 H :    0.152913
   4 C :   -0.219555
   5 N :    0.044367
   6 C :   -0.285198
   7 H :    0.155703
   8 H :    0.148372
   9 H :    0.156345
  10 C :   -0.209298
  11 N :    0.030124
  12 C :   -0.281214
  13 H :    0.157339
  14 H :    0.150546
  15 H :    0.154336
  16 C :   -0.208781
  17 N :    0.031721

  Mayer bond orders larger than 0.100000
B(  0-C ,  1-H ) :   0.9164 B(  0-C ,  2-H ) :   0.9158 B(  0-C ,  3-H ) :   0.9162
B(  0-C ,  4-C ) :   0.9017 B(  4-C ,  5-N ) :   2.8378 B(  6-C ,  7-H ) :   0.9109
B(  6-C ,  8-H ) :   0.9100 B(  6-C ,  9-H ) :   0.9140 B(  6-C , 10-C ) :   0.9133
B( 10-C , 11-N ) :   2.7744 B( 12-C , 13-H ) :   0.9016 B( 12-C , 14-H ) :   0.9162
B( 12-C , 15-H ) :   0.9139 B( 12-C , 16-C ) :   0.8994 B( 16-C , 17-N ) :   2.7920

MP2 TOTAL ENERGY:     -397.459680999 Eh
FINAL SINGLE POINT ENERGY      -397.459680998876

DIPOLE MOMENT
-------------
                                X             Y             Z
Electronic contribution:      0.00555      -0.29051      -3.13869
Nuclear contribution   :     -0.00046       0.43045       4.66466
                        -----------------------------------------
Total Dipole Moment    :      0.00509       0.13994       1.52598
                        -----------------------------------------
Magnitude (a.u.)       :      1.53239
Magnitude (Debye)      :      3.89503

Rotational constants in cm-1:     0.056899     0.008826     0.008442
Rotational constants in MHz :  1705.789357   264.606663   253.091237

                             ****ORCA TERMINATED NORMALLY****
TOTAL RUN TIME: 0 days 0 hours 2 minutes 47 seconds 693 msec
