                         Program Version 4.2.0 -  RELEASE  -
|  1> # 12h2o.su.etal.mol1,3,5,6,9
|  2> ! MP2 def2-TZVP EnGrad TightSCF
|  3>
|  4> %pal
|  5>     nprocs 6
|  6> end
|  7>
|  8> %maxcore 8000
|  9>
| 10> %scf
| 11>     ConvForced true
| 12> end
| 13>
| 14> *xyz 0 1
| 15> O  -1.794470000  -0.923410000   2.768350000
| 16> H  -2.338250000  -1.359750000   3.430940000
| 17> H  -0.879480000  -1.303000000   2.865760000
| 18> O  -1.752130000  -0.741530000  -2.896280000
| 19> H  -2.036450000  -0.920500000  -1.984040000
| 20> H  -0.921210000  -1.242140000  -2.984230000
| 21> O   0.885520000  -1.737840000   0.052730000
| 22> H   1.284090000  -0.839590000   0.017130000
| 23> H   1.032320000  -2.090180000  -0.841890000
| 24> O   1.737840000   0.885520000  -0.052730000
| 25> H   2.090180000   1.032320000   0.841890000
| 26> H   0.839590000   1.284090000  -0.017130000
| 27> O   0.741530000  -1.752130000   2.896280000
| 28> H   0.920500000  -2.036450000   1.984040000
| 29> H   1.242140000  -0.921210000   2.984230000
| 30> *
| 31>
| 32>                          ****END OF INPUT****

CARTESIAN COORDINATES (ANGSTROEM)
---------------------------------
  O     -1.794470   -0.923410    2.768350
  H     -2.338250   -1.359750    3.430940
  H     -0.879480   -1.303000    2.865760
  O     -1.752130   -0.741530   -2.896280
  H     -2.036450   -0.920500   -1.984040
  H     -0.921210   -1.242140   -2.984230
  O      0.885520   -1.737840    0.052730
  H      1.284090   -0.839590    0.017130
  H      1.032320   -2.090180   -0.841890
  O      1.737840    0.885520   -0.052730
  H      2.090180    1.032320    0.841890
  H      0.839590    1.284090   -0.017130
  O      0.741530   -1.752130    2.896280
  H      0.920500   -2.036450    1.984040
  H      1.242140   -0.921210    2.984230

 Total Charge           Charge          ....    0
 Multiplicity           Mult            ....    1
 Number of Electrons    NEL             ....   50
 Basis Dimension        Dim             ....  215

ORBITAL ENERGIES
----------------

  NO   OCC          E(Eh)            E(eV)
   0   2.0000     -20.615173      -560.9674
   1   2.0000     -20.574376      -559.8572
   2   2.0000     -20.570909      -559.7629
   3   2.0000     -20.561196      -559.4986
   4   2.0000     -20.512233      -558.1662
   5   2.0000      -1.396145       -37.9910
   6   2.0000      -1.365130       -37.1471
   7   2.0000      -1.350846       -36.7584
   8   2.0000      -1.340338       -36.4725
   9   2.0000      -1.294408       -35.2226
  10   2.0000      -0.753113       -20.4933
  11   2.0000      -0.731803       -19.9134
  12   2.0000      -0.720124       -19.5956
  13   2.0000      -0.703114       -19.1327
  14   2.0000      -0.683107       -18.5883
  15   2.0000      -0.639477       -17.4011
  16   2.0000      -0.612695       -16.6723
  17   2.0000      -0.588326       -16.0092
  18   2.0000      -0.577934       -15.7264
  19   2.0000      -0.549539       -14.9537
  20   2.0000      -0.543169       -14.7804
  21   2.0000      -0.520197       -14.1553
  22   2.0000      -0.505243       -13.7484
  23   2.0000      -0.501219       -13.6389
  24   2.0000      -0.462833       -12.5943
  25   0.0000       0.076020         2.0686
  26   0.0000       0.110485         3.0064
  27   0.0000       0.148173         4.0320
  28   0.0000       0.165728         4.5097
  29   0.0000       0.181626         4.9423

MULLIKEN ATOMIC CHARGES
-----------------------
   0 O :   -0.739081
   1 H :    0.323617
   2 H :    0.368442
   3 O :   -0.675570
   4 H :    0.347362
   5 H :    0.327168
   6 O :   -0.721408
   7 H :    0.354426
   8 H :    0.338528
   9 O :   -0.680443
  10 H :    0.352346
  11 H :    0.373301
  12 O :   -0.687019
  13 H :    0.389408
  14 H :    0.328922
Sum of atomic charges:    0.0000000

LOEWDIN ATOMIC CHARGES
----------------------
   0 O :   -0.376184
   1 H :    0.147514
   2 H :    0.142050
   3 O :   -0.331186
   4 H :    0.168844
   5 H :    0.161215
   6 O :   -0.337589
   7 H :    0.143033
   8 H :    0.163166
   9 O :   -0.286441
  10 H :    0.170332
  11 H :    0.187500
  12 O :   -0.274904
  13 H :    0.160563
  14 H :    0.162087

  Mayer bond orders larger than 0.100000
B(  0-O ,  1-H ) :   0.8617 B(  0-O ,  2-H ) :   0.7813 B(  3-O ,  4-H ) :   0.8463
B(  3-O ,  5-H ) :   0.8582 B(  6-O ,  7-H ) :   0.7815 B(  6-O ,  8-H ) :   0.8492
B(  9-O , 10-H ) :   0.8403 B(  9-O , 11-H ) :   0.8250 B( 12-O , 13-H ) :   0.7957
B( 12-O , 14-H ) :   0.8535

MP2 TOTAL ENERGY:     -381.590634636 Eh
FINAL SINGLE POINT ENERGY      -381.590634635568

DIPOLE MOMENT
-------------
                                X             Y             Z
Electronic contribution:      0.14454       0.13977      -0.30508
Nuclear contribution   :      1.32916       0.11850       0.63259
                        -----------------------------------------
Total Dipole Moment    :      1.47370       0.25827       0.32751
                        -----------------------------------------
Magnitude (a.u.)       :      1.53159
Magnitude (Debye)      :      3.89298

Rotational constants in cm-1:     0.063857     0.034352     0.027149
Rotational constants in MHz :  1914.381643  1029.858500   813.909387

                             ****ORCA TERMINATED NORMALLY****
TOTAL RUN TIME: 0 days 0 hours 0 minutes 33 seconds 475 msec
