                         Program Version 4.2.0 -  RELEASE  -
|  1> # 12h2o.su.etal.mol4,5,6,11
|  2> ! MP2 def2-TZVP EnGrad TightSCF
|  3>
|  4> %pal
|  5>     nprocs 6
|  6> end
|  7>
|  8> %maxcore 8000
|  9>
| 10> %scf
| 11>     ConvForced true
| 12> end
| 13>
| 14> *xyz 0 1
| 15> O  -0.885520000   1.737840000   0.052730000
| 16> H  -1.032320000   2.090180000  -0.841890000
| 17> H  -1.284090000   0.839590000   0.017130000
| 18> O   0.885520000  -1.737840000   0.052730000
| 19> H   1.284090000  -0.839590000   0.017130000
| 20> H   1.032320000  -2.090180000  -0.841890000
| 21> O   1.737840000   0.885520000  -0.052730000
| 22> H   2.090180000   1.032320000   0.841890000
| 23> H   0.839590000   1.284090000  -0.017130000
| 24> O  -0.741530000   1.752130000   2.896280000
| 25> H  -0.920500000   2.036450000   1.984040000
| 26> H  -1.242140000   0.921210000   2.984230000
| 27> *
| 28>
| 29>                          ****END OF INPUT****

CARTESIAN COORDINATES (ANGSTROEM)
---------------------------------
  O     -0.885520    1.737840    0.052730
  H     -1.032320    2.090180   -0.841890
  H     -1.284090    0.839590    0.017130
  O      0.885520   -1.737840    0.052730
  H      1.284090   -0.839590    0.017130
  H      1.032320   -2.090180   -0.841890
  O      1.737840    0.885520   -0.052730
  H      2.090180    1.032320    0.841890
  H      0.839590    1.284090   -0.017130
  O     -0.741530    1.752130    2.896280
  H     -0.920500    2.036450    1.984040
  H     -1.242140    0.921210    2.984230

 Total Charge           Charge          ....    0
 Multiplicity           Mult            ....    1
 Number of Electrons    NEL             ....   40
 Basis Dimension        Dim             ....  172

ORBITAL ENERGIES
----------------

  NO   OCC          E(Eh)            E(eV)
   0   2.0000     -20.627243      -561.2958
   1   2.0000     -20.564153      -559.5790
   2   2.0000     -20.548064      -559.1413
   3   2.0000     -20.529840      -558.6453
   4   2.0000      -1.410347       -38.3775
   5   2.0000      -1.350257       -36.7424
   6   2.0000      -1.329952       -36.1898
   7   2.0000      -1.310297       -35.6550
   8   2.0000      -0.768107       -20.9012
   9   2.0000      -0.721666       -19.6375
  10   2.0000      -0.702723       -19.1221
  11   2.0000      -0.684660       -18.6305
  12   2.0000      -0.646134       -17.5822
  13   2.0000      -0.604606       -16.4522
  14   2.0000      -0.569765       -15.5041
  15   2.0000      -0.560677       -15.2568
  16   2.0000      -0.548873       -14.9356
  17   2.0000      -0.503045       -13.6885
  18   2.0000      -0.494126       -13.4459
  19   2.0000      -0.478274       -13.0145
  20   0.0000       0.088406         2.4057
  21   0.0000       0.145948         3.9715
  22   0.0000       0.159537         4.3412
  23   0.0000       0.169442         4.6108
  24   0.0000       0.197950         5.3865

MULLIKEN ATOMIC CHARGES
-----------------------
   0 O :   -0.714432
   1 H :    0.371758
   2 H :    0.371609
   3 O :   -0.722733
   4 H :    0.354996
   5 H :    0.326000
   6 O :   -0.712254
   7 H :    0.358151
   8 H :    0.364679
   9 O :   -0.691669
  10 H :    0.365269
  11 H :    0.328626
Sum of atomic charges:   -0.0000000

LOEWDIN ATOMIC CHARGES
----------------------
   0 O :   -0.276014
   1 H :    0.179234
   2 H :    0.184769
   3 O :   -0.366808
   4 H :    0.140222
   5 H :    0.157058
   6 O :   -0.308985
   7 H :    0.170967
   8 H :    0.143181
   9 O :   -0.335695
  10 H :    0.149530
  11 H :    0.162540

  Mayer bond orders larger than 0.100000
B(  0-O ,  1-H ) :   0.8268 B(  0-O ,  2-H ) :   0.8183 B(  3-O ,  4-H ) :   0.7894
B(  3-O ,  5-H ) :   0.8593 B(  6-O ,  7-H ) :   0.8369 B(  6-O ,  8-H ) :   0.7934
B(  9-O , 10-H ) :   0.8282 B(  9-O , 11-H ) :   0.8575

MP2 TOTAL ENERGY:     -305.276274721 Eh
FINAL SINGLE POINT ENERGY      -305.276274720913

DIPOLE MOMENT
-------------
                                X             Y             Z
Electronic contribution:      0.02128       0.35476       0.13090
Nuclear contribution   :     -1.02005      -0.00102      -1.46039
                        -----------------------------------------
Total Dipole Moment    :     -0.99877       0.35373      -1.32948
                        -----------------------------------------
Magnitude (a.u.)       :      1.70005
Magnitude (Debye)      :      4.32119

Rotational constants in cm-1:     0.144212     0.060975     0.055293
Rotational constants in MHz :  4323.380284  1827.980462  1657.651874

                             ****ORCA TERMINATED NORMALLY****
TOTAL RUN TIME: 0 days 0 hours 0 minutes 24 seconds 729 msec
