                         Program Version 4.2.0 -  RELEASE  -
|  1> # 12h2o.su.etal.mol5,6,7,9,10
|  2> ! MP2 def2-TZVP EnGrad TightSCF
|  3>
|  4> %pal
|  5>     nprocs 6
|  6> end
|  7>
|  8> %maxcore 8000
|  9>
| 10> %scf
| 11>     ConvForced true
| 12> end
| 13>
| 14> *xyz 0 1
| 15> O   0.885520000  -1.737840000   0.052730000
| 16> H   1.284090000  -0.839590000   0.017130000
| 17> H   1.032320000  -2.090180000  -0.841890000
| 18> O   1.737840000   0.885520000  -0.052730000
| 19> H   2.090180000   1.032320000   0.841890000
| 20> H   0.839590000   1.284090000  -0.017130000
| 21> O  -1.737840000  -0.885520000  -0.052730000
| 22> H  -2.090180000  -1.032320000   0.841890000
| 23> H  -0.839590000  -1.284090000  -0.017130000
| 24> O   0.741530000  -1.752130000   2.896280000
| 25> H   0.920500000  -2.036450000   1.984040000
| 26> H   1.242140000  -0.921210000   2.984230000
| 27> O  -0.923410000   1.794470000  -2.768350000
| 28> H  -1.359750000   2.338250000  -3.430940000
| 29> H  -1.303000000   0.879480000  -2.865760000
| 30> *
| 31>
| 32>                          ****END OF INPUT****

CARTESIAN COORDINATES (ANGSTROEM)
---------------------------------
  O      0.885520   -1.737840    0.052730
  H      1.284090   -0.839590    0.017130
  H      1.032320   -2.090180   -0.841890
  O      1.737840    0.885520   -0.052730
  H      2.090180    1.032320    0.841890
  H      0.839590    1.284090   -0.017130
  O     -1.737840   -0.885520   -0.052730
  H     -2.090180   -1.032320    0.841890
  H     -0.839590   -1.284090   -0.017130
  O      0.741530   -1.752130    2.896280
  H      0.920500   -2.036450    1.984040
  H      1.242140   -0.921210    2.984230
  O     -0.923410    1.794470   -2.768350
  H     -1.359750    2.338250   -3.430940
  H     -1.303000    0.879480   -2.865760

 Total Charge           Charge          ....    0
 Multiplicity           Mult            ....    1
 Number of Electrons    NEL             ....   50
 Basis Dimension        Dim             ....  215

ORBITAL ENERGIES
----------------

  NO   OCC          E(Eh)            E(eV)
   0   2.0000     -20.604665      -560.6814
   1   2.0000     -20.583120      -560.0952
   2   2.0000     -20.560129      -559.4695
   3   2.0000     -20.545568      -559.0733
   4   2.0000     -20.529630      -558.6396
   5   2.0000      -1.388016       -37.7698
   6   2.0000      -1.368470       -37.2380
   7   2.0000      -1.335482       -36.3403
   8   2.0000      -1.327140       -36.1133
   9   2.0000      -1.310595       -35.6631
  10   2.0000      -0.742164       -20.1953
  11   2.0000      -0.738941       -20.1076
  12   2.0000      -0.703741       -19.1498
  13   2.0000      -0.697841       -18.9892
  14   2.0000      -0.685984       -18.6666
  15   2.0000      -0.633995       -17.2519
  16   2.0000      -0.608624       -16.5615
  17   2.0000      -0.572744       -15.5852
  18   2.0000      -0.571104       -15.5405
  19   2.0000      -0.558430       -15.1956
  20   2.0000      -0.539364       -14.6768
  21   2.0000      -0.517483       -14.0814
  22   2.0000      -0.503460       -13.6998
  23   2.0000      -0.491683       -13.3794
  24   2.0000      -0.477968       -13.0062
  25   0.0000       0.087208         2.3730
  26   0.0000       0.126449         3.4409
  27   0.0000       0.146063         3.9746
  28   0.0000       0.174148         4.7388
  29   0.0000       0.177329         4.8254

MULLIKEN ATOMIC CHARGES
-----------------------
   0 O :   -0.733464
   1 H :    0.365836
   2 H :    0.360337
   3 O :   -0.684627
   4 H :    0.348464
   5 H :    0.381605
   6 O :   -0.724246
   7 H :    0.336177
   8 H :    0.353776
   9 O :   -0.687471
  10 H :    0.372857
  11 H :    0.310586
  12 O :   -0.692122
  13 H :    0.338561
  14 H :    0.353729
Sum of atomic charges:    0.0000000

LOEWDIN ATOMIC CHARGES
----------------------
   0 O :   -0.296466
   1 H :    0.145478
   2 H :    0.172177
   3 O :   -0.284580
   4 H :    0.168569
   5 H :    0.188677
   6 O :   -0.364515
   7 H :    0.161550
   8 H :    0.138698
   9 O :   -0.335593
  10 H :    0.152132
  11 H :    0.153784
  12 O :   -0.342398
  13 H :    0.157989
  14 H :    0.184498

  Mayer bond orders larger than 0.100000
B(  0-O ,  1-H ) :   0.7643 B(  0-O ,  2-H ) :   0.8344 B(  3-O ,  4-H ) :   0.8417
B(  3-O ,  5-H ) :   0.8144 B(  6-O ,  7-H ) :   0.8529 B(  6-O ,  8-H ) :   0.7998
B(  9-O , 10-H ) :   0.8180 B(  9-O , 11-H ) :   0.8668 B( 12-O , 13-H ) :   0.8532
B( 12-O , 14-H ) :   0.8368

MP2 TOTAL ENERGY:     -381.593351264 Eh
FINAL SINGLE POINT ENERGY      -381.593351263875

DIPOLE MOMENT
-------------
                                X             Y             Z
Electronic contribution:      0.20906       0.08584      -0.10270
Nuclear contribution   :      0.34045       0.60038      -0.54442
                        -----------------------------------------
Total Dipole Moment    :      0.54951       0.68622      -0.64712
                        -----------------------------------------
Magnitude (a.u.)       :      1.09162
Magnitude (Debye)      :      2.77467

Rotational constants in cm-1:     0.094614     0.034491     0.028721
Rotational constants in MHz :  2836.447010  1034.011052   861.034831

                             ****ORCA TERMINATED NORMALLY****
TOTAL RUN TIME: 0 days 0 hours 0 minutes 34 seconds 668 msec
