                         Program Version 4.2.0 -  RELEASE  -
|  1> # 12h2o.su.etal.mol0,1,6,7,11
|  2> ! MP2 def2-TZVP EnGrad TightSCF
|  3>
|  4> %pal
|  5>     nprocs 6
|  6> end
|  7>
|  8> %maxcore 8000
|  9>
| 10> %scf
| 11>     ConvForced true
| 12> end
| 13>
| 14> *xyz 0 1
| 15> O   1.794470000   0.923410000   2.768350000
| 16> H   2.338250000   1.359750000   3.430940000
| 17> H   0.879480000   1.303000000   2.865760000
| 18> O  -1.794470000  -0.923410000   2.768350000
| 19> H  -2.338250000  -1.359750000   3.430940000
| 20> H  -0.879480000  -1.303000000   2.865760000
| 21> O   1.737840000   0.885520000  -0.052730000
| 22> H   2.090180000   1.032320000   0.841890000
| 23> H   0.839590000   1.284090000  -0.017130000
| 24> O  -1.737840000  -0.885520000  -0.052730000
| 25> H  -2.090180000  -1.032320000   0.841890000
| 26> H  -0.839590000  -1.284090000  -0.017130000
| 27> O  -0.741530000   1.752130000   2.896280000
| 28> H  -0.920500000   2.036450000   1.984040000
| 29> H  -1.242140000   0.921210000   2.984230000
| 30> *
| 31>
| 32>                          ****END OF INPUT****

CARTESIAN COORDINATES (ANGSTROEM)
---------------------------------
  O      1.794470    0.923410    2.768350
  H      2.338250    1.359750    3.430940
  H      0.879480    1.303000    2.865760
  O     -1.794470   -0.923410    2.768350
  H     -2.338250   -1.359750    3.430940
  H     -0.879480   -1.303000    2.865760
  O      1.737840    0.885520   -0.052730
  H      2.090180    1.032320    0.841890
  H      0.839590    1.284090   -0.017130
  O     -1.737840   -0.885520   -0.052730
  H     -2.090180   -1.032320    0.841890
  H     -0.839590   -1.284090   -0.017130
  O     -0.741530    1.752130    2.896280
  H     -0.920500    2.036450    1.984040
  H     -1.242140    0.921210    2.984230

 Total Charge           Charge          ....    0
 Multiplicity           Mult            ....    1
 Number of Electrons    NEL             ....   50
 Basis Dimension        Dim             ....  215

ORBITAL ENERGIES
----------------

  NO   OCC          E(Eh)            E(eV)
   0   2.0000     -20.627592      -561.3053
   1   2.0000     -20.587905      -560.2254
   2   2.0000     -20.548589      -559.1555
   3   2.0000     -20.545366      -559.0678
   4   2.0000     -20.527146      -558.5720
   5   2.0000      -1.408174       -38.3184
   6   2.0000      -1.376775       -37.4640
   7   2.0000      -1.333082       -36.2750
   8   2.0000      -1.324472       -36.0407
   9   2.0000      -1.305328       -35.5198
  10   2.0000      -0.773819       -21.0567
  11   2.0000      -0.738512       -20.0959
  12   2.0000      -0.716989       -19.5103
  13   2.0000      -0.696972       -18.9656
  14   2.0000      -0.674466       -18.3532
  15   2.0000      -0.646668       -17.5967
  16   2.0000      -0.618517       -16.8307
  17   2.0000      -0.587058       -15.9747
  18   2.0000      -0.573451       -15.6044
  19   2.0000      -0.549884       -14.9631
  20   2.0000      -0.548273       -14.9193
  21   2.0000      -0.522833       -14.2270
  22   2.0000      -0.495357       -13.4794
  23   2.0000      -0.491084       -13.3631
  24   2.0000      -0.472371       -12.8539
  25   0.0000       0.082839         2.2542
  26   0.0000       0.124792         3.3958
  27   0.0000       0.153593         4.1795
  28   0.0000       0.161347         4.3905
  29   0.0000       0.192761         5.2453

MULLIKEN ATOMIC CHARGES
-----------------------
   0 O :   -0.741464
   1 H :    0.337879
   2 H :    0.365349
   3 O :   -0.722163
   4 H :    0.368811
   5 H :    0.376900
   6 O :   -0.695725
   7 H :    0.367617
   8 H :    0.312282
   9 O :   -0.697135
  10 H :    0.358644
  11 H :    0.333960
  12 O :   -0.697300
  13 H :    0.354898
  14 H :    0.377447
Sum of atomic charges:   -0.0000000

LOEWDIN ATOMIC CHARGES
----------------------
   0 O :   -0.344087
   1 H :    0.153870
   2 H :    0.141414
   3 O :   -0.287755
   4 H :    0.170213
   5 H :    0.194357
   6 O :   -0.347588
   7 H :    0.148770
   8 H :    0.156283
   9 O :   -0.344632
  10 H :    0.144975
  11 H :    0.167478
  12 O :   -0.277809
  13 H :    0.170388
  14 H :    0.154123

  Mayer bond orders larger than 0.100000
B(  0-O ,  1-H ) :   0.8499 B(  0-O ,  2-H ) :   0.7613 B(  3-O ,  4-H ) :   0.8290
B(  3-O ,  5-H ) :   0.8146 B(  6-O ,  7-H ) :   0.8123 B(  6-O ,  8-H ) :   0.8616
B(  9-O , 10-H ) :   0.8289 B(  9-O , 11-H ) :   0.8486 B( 12-O , 13-H ) :   0.8376
B( 12-O , 14-H ) :   0.8011

MP2 TOTAL ENERGY:     -381.598285773 Eh
FINAL SINGLE POINT ENERGY      -381.598285773029

DIPOLE MOMENT
-------------
                                X             Y             Z
Electronic contribution:     -0.28818      -0.04958       0.01225
Nuclear contribution   :     -0.56566      -0.45497       2.12764
                        -----------------------------------------
Total Dipole Moment    :     -0.85384      -0.50455       2.13988
                        -----------------------------------------
Magnitude (a.u.)       :      2.35854
Magnitude (Debye)      :      5.99494

Rotational constants in cm-1:     0.073479     0.051283     0.035629
Rotational constants in MHz :  2202.850690  1537.432927  1068.131398

                             ****ORCA TERMINATED NORMALLY****
TOTAL RUN TIME: 0 days 0 hours 0 minutes 34 seconds 718 msec
