                         Program Version 4.2.0 -  RELEASE  -
|  1> ! MP2 def2-TZVP EnGrad TightSCF FrozenCore
|  2>
|  3> %pal
|  4>     nprocs 12
|  5> end
|  6>
|  7> %maxcore 8000
|  8>
|  9> %scf
| 10>     ConvForced true
| 11> end
| 12>
| 13> *xyz 0 1
| 14> O    -0.1010376782     1.5303942105    -0.4817413536
| 15> H     0.8851534409     1.4663013372    -0.487275694
| 16> C    -0.5737067146     1.4980739456    -1.8290312336
| 17> H    -1.6128664597     1.1590453854    -1.808849106
| 18> H     0.0096005324     0.8010497007    -2.4465323472
| 19> H    -0.5235946662     2.4952835359    -2.2879312423
| 20> O     2.5923441639     1.1135019961    -0.3994588817
| 21> H     2.6351689722     0.2063228543    -0.0176063123
| 22> C     3.2933800798     1.9903341717     0.4751413404
| 23> H     3.2024744244     3.0006143673     0.067663075
| 24> H     4.3607012435     1.7340473248     0.5298166796
| 25> H     2.8786938934     1.9846189974     1.4929743733
| 26> O     2.7053616501    -1.3828860475     0.7906254724
| 27> H     3.4927754857    -1.8931105116     0.5485553953
| 28> C     1.562080108     -2.2488267064     0.7056161075
| 29> H     0.6806850328    -1.6410895434     0.9216250837
| 30> H     1.6316418408    -3.0582145495     1.4434013277
| 31> H     1.4580045175    -2.6831187185    -0.2975127059
| 32> O    -1.2917970465    -0.359930992      0.9988269612
| 33> H    -0.8142410775     0.3426243465     0.47805023
| 34> C    -1.7412213547     0.2295804676     2.2128121485
| 35> H    -2.28326963      -0.5370761009     2.7741708076
| 36> H    -2.4196381004     1.0752431278     2.0339658208
| 37> H    -0.9009805906     0.5806281907     2.8288568776
| 38> O    -3.3050416432    -0.4753954467    -0.9456892225
| 39> H    -2.6574348904    -0.5184291918    -0.2079533868
| 40> C    -3.3327913431    -1.7431457048    -1.5655564751
| 41> H    -4.0440669542    -1.6908171069    -2.3967485025
| 42> H    -3.6694202781    -2.5427829833    -0.8848339173
| 43> H    -2.3544669579    -2.042707268     -1.9782315895
| 44> *
| 45>
| 46>                          ****END OF INPUT****

CARTESIAN COORDINATES (ANGSTROEM)
---------------------------------
  O     -0.101038    1.530394   -0.481741
  H      0.885153    1.466301   -0.487276
  C     -0.573707    1.498074   -1.829031
  H     -1.612866    1.159045   -1.808849
  H      0.009601    0.801050   -2.446532
  H     -0.523595    2.495284   -2.287931
  O      2.592344    1.113502   -0.399459
  H      2.635169    0.206323   -0.017606
  C      3.293380    1.990334    0.475141
  H      3.202474    3.000614    0.067663
  H      4.360701    1.734047    0.529817
  H      2.878694    1.984619    1.492974
  O      2.705362   -1.382886    0.790625
  H      3.492775   -1.893111    0.548555
  C      1.562080   -2.248827    0.705616
  H      0.680685   -1.641090    0.921625
  H      1.631642   -3.058215    1.443401
  H      1.458005   -2.683119   -0.297513
  O     -1.291797   -0.359931    0.998827
  H     -0.814241    0.342624    0.478050
  C     -1.741221    0.229580    2.212812
  H     -2.283270   -0.537076    2.774171
  H     -2.419638    1.075243    2.033966
  H     -0.900981    0.580628    2.828857
  O     -3.305042   -0.475395   -0.945689
  H     -2.657435   -0.518429   -0.207953
  C     -3.332791   -1.743146   -1.565556
  H     -4.044067   -1.690817   -2.396749
  H     -3.669420   -2.542783   -0.884834
  H     -2.354467   -2.042707   -1.978232

 Total Charge           Charge          ....    0
 Multiplicity           Mult            ....    1
 Number of Electrons    NEL             ....   90
 Basis Dimension        Dim             ....  430

ORBITAL ENERGIES
----------------

  NO   OCC          E(Eh)            E(eV)
   0   2.0000     -20.587750      -560.2212
   1   2.0000     -20.558149      -559.4157
   2   2.0000     -20.544124      -559.0340
   3   2.0000     -20.539484      -558.9078
   4   2.0000     -20.519175      -558.3551
   5   2.0000     -11.281362      -306.9815
   6   2.0000     -11.275107      -306.8112
   7   2.0000     -11.261914      -306.4523
   8   2.0000     -11.256258      -306.2983
   9   2.0000     -11.250258      -306.1351
  10   2.0000      -1.383663       -37.6514
  11   2.0000      -1.361139       -37.0385
  12   2.0000      -1.348713       -36.7004
  13   2.0000      -1.333373       -36.2829
  14   2.0000      -1.319690       -35.9106
  15   2.0000      -0.938661       -25.5423
  16   2.0000      -0.926153       -25.2019
  17   2.0000      -0.912832       -24.8394
  18   2.0000      -0.908354       -24.7176
  19   2.0000      -0.896028       -24.3822
  20   2.0000      -0.722222       -19.6527
  21   2.0000      -0.705223       -19.1901
  22   2.0000      -0.691355       -18.8127
  23   2.0000      -0.674995       -18.3675
  24   2.0000      -0.667667       -18.1681
  25   2.0000      -0.634876       -17.2759
  26   2.0000      -0.619604       -16.8603
  27   2.0000      -0.615457       -16.7474
  28   2.0000      -0.606538       -16.5047
  29   2.0000      -0.601909       -16.3788
  30   2.0000      -0.595400       -16.2017
  31   2.0000      -0.593161       -16.1407
  32   2.0000      -0.581315       -15.8184
  33   2.0000      -0.578198       -15.7336
  34   2.0000      -0.565367       -15.3844
  35   2.0000      -0.530523       -14.4363
  36   2.0000      -0.510256       -13.8848
  37   2.0000      -0.502063       -13.6618
  38   2.0000      -0.486565       -13.2401
  39   2.0000      -0.475709       -12.9447
  40   2.0000      -0.473002       -12.8710
  41   2.0000      -0.450981       -12.2718
  42   2.0000      -0.439667       -11.9639
  43   2.0000      -0.433449       -11.7947
  44   2.0000      -0.417705       -11.3663
  45   0.0000       0.112830         3.0703
  46   0.0000       0.141385         3.8473
  47   0.0000       0.146370         3.9829
  48   0.0000       0.166397         4.5279
  49   0.0000       0.178978         4.8702

MULLIKEN ATOMIC CHARGES
-----------------------
   0 O :   -0.562753
   1 H :    0.367801
   2 C :   -0.196169
   3 H :    0.163811
   4 H :    0.112636
   5 H :    0.112619
   6 O :   -0.554237
   7 H :    0.360573
   8 C :   -0.172052
   9 H :    0.133707
  10 H :    0.116148
  11 H :    0.123235
  12 O :   -0.536751
  13 H :    0.337671
  14 C :   -0.190555
  15 H :    0.172347
  16 H :    0.120461
  17 H :    0.121069
  18 O :   -0.580654
  19 H :    0.376456
  20 C :   -0.169803
  21 H :    0.123991
  22 H :    0.129521
  23 H :    0.113846
  24 O :   -0.522010
  25 H :    0.347019
  26 C :   -0.162218
  27 H :    0.118347
  28 H :    0.103005
  29 H :    0.092941
Sum of atomic charges:   -0.0000000

LOEWDIN ATOMIC CHARGES
----------------------
   0 O :   -0.089953
   1 H :    0.163732
   2 C :   -0.381182
   3 H :    0.112636
   4 H :    0.099432
   5 H :    0.099808
   6 O :   -0.086984
   7 H :    0.165189
   8 C :   -0.382971
   9 H :    0.110971
  10 H :    0.101656
  11 H :    0.101247
  12 O :   -0.088058
  13 H :    0.179974
  14 C :   -0.362322
  15 H :    0.116981
  16 H :    0.103455
  17 H :    0.101390
  18 O :   -0.097148
  19 H :    0.161508
  20 C :   -0.391588
  21 H :    0.107462
  22 H :    0.103556
  23 H :    0.099602
  24 O :   -0.098477
  25 H :    0.162562
  26 C :   -0.403043
  27 H :    0.105565
  28 H :    0.094288
  29 H :    0.090714

  Mayer bond orders larger than 0.100000
B(  0-O ,  1-H ) :   0.7546 B(  0-O ,  2-C ) :   0.8745 B(  0-O , 19-H ) :   0.1228
B(  1-H ,  6-O ) :   0.1072 B(  2-C ,  3-H ) :   0.9264 B(  2-C ,  4-H ) :   0.9407
B(  2-C ,  5-H ) :   0.9390 B(  6-O ,  7-H ) :   0.7715 B(  6-O ,  8-C ) :   0.8795
B(  8-C ,  9-H ) :   0.9417 B(  8-C , 10-H ) :   0.9384 B(  8-C , 11-H ) :   0.9382
B( 12-O , 13-H ) :   0.8362 B( 12-O , 14-C ) :   0.8520 B( 14-C , 15-H ) :   0.9221
B( 14-C , 16-H ) :   0.9354 B( 14-C , 17-H ) :   0.9418 B( 18-O , 19-H ) :   0.7230
B( 18-O , 20-C ) :   0.8801 B( 20-C , 21-H ) :   0.9432 B( 20-C , 22-H ) :   0.9380
B( 20-C , 23-H ) :   0.9390 B( 24-O , 25-H ) :   0.7837 B( 24-O , 26-C ) :   0.9412
B( 26-C , 27-H ) :   0.9420 B( 26-C , 28-H ) :   0.9405 B( 26-C , 29-H ) :   0.9353

MP2 TOTAL ENERGY:     -577.591540186 Eh
FINAL SINGLE POINT ENERGY      -577.591540185966

DIPOLE MOMENT
-------------
                                X             Y             Z
Electronic contribution:      1.78781       1.05708       0.07744
Nuclear contribution   :     -0.03759      -1.85143       0.32180
                        -----------------------------------------
Total Dipole Moment    :      1.75022      -0.79435       0.39924
                        -----------------------------------------
Magnitude (a.u.)       :      1.96307
Magnitude (Debye)      :      4.98974

Rotational constants in cm-1:     0.032645     0.015140     0.013321
Rotational constants in MHz :   978.662800   453.891517   399.345825

                             ****ORCA TERMINATED NORMALLY****
TOTAL RUN TIME: 0 days 0 hours 10 minutes 6 seconds 930 msec
