                         Program Version 4.2.0 -  RELEASE  -
|  1> # 12h2o.su.etal.mol5,7,10,11
|  2> ! MP2 def2-TZVP EnGrad TightSCF
|  3>
|  4> %pal
|  5>     nprocs 6
|  6> end
|  7>
|  8> %maxcore 8000
|  9>
| 10> %scf
| 11>     ConvForced true
| 12> end
| 13>
| 14> *xyz 0 1
| 15> O   0.885520000  -1.737840000   0.052730000
| 16> H   1.284090000  -0.839590000   0.017130000
| 17> H   1.032320000  -2.090180000  -0.841890000
| 18> O  -1.737840000  -0.885520000  -0.052730000
| 19> H  -2.090180000  -1.032320000   0.841890000
| 20> H  -0.839590000  -1.284090000  -0.017130000
| 21> O  -0.923410000   1.794470000  -2.768350000
| 22> H  -1.359750000   2.338250000  -3.430940000
| 23> H  -1.303000000   0.879480000  -2.865760000
| 24> O  -0.741530000   1.752130000   2.896280000
| 25> H  -0.920500000   2.036450000   1.984040000
| 26> H  -1.242140000   0.921210000   2.984230000
| 27> *
| 28>
| 29>                          ****END OF INPUT****

CARTESIAN COORDINATES (ANGSTROEM)
---------------------------------
  O      0.885520   -1.737840    0.052730
  H      1.284090   -0.839590    0.017130
  H      1.032320   -2.090180   -0.841890
  O     -1.737840   -0.885520   -0.052730
  H     -2.090180   -1.032320    0.841890
  H     -0.839590   -1.284090   -0.017130
  O     -0.923410    1.794470   -2.768350
  H     -1.359750    2.338250   -3.430940
  H     -1.303000    0.879480   -2.865760
  O     -0.741530    1.752130    2.896280
  H     -0.920500    2.036450    1.984040
  H     -1.242140    0.921210    2.984230

 Total Charge           Charge          ....    0
 Multiplicity           Mult            ....    1
 Number of Electrons    NEL             ....   40
 Basis Dimension        Dim             ....  172

ORBITAL ENERGIES
----------------

  NO   OCC          E(Eh)            E(eV)
   0   2.0000     -20.599190      -560.5324
   1   2.0000     -20.559561      -559.4541
   2   2.0000     -20.556607      -559.3737
   3   2.0000     -20.540090      -558.9243
   4   2.0000      -1.379840       -37.5474
   5   2.0000      -1.335772       -36.3482
   6   2.0000      -1.334948       -36.3258
   7   2.0000      -1.320886       -35.9431
   8   2.0000      -0.737447       -20.0669
   9   2.0000      -0.703287       -19.1374
  10   2.0000      -0.698738       -19.0136
  11   2.0000      -0.696366       -18.9491
  12   2.0000      -0.619534       -16.8584
  13   2.0000      -0.574351       -15.6289
  14   2.0000      -0.572269       -15.5722
  15   2.0000      -0.571467       -15.5504
  16   2.0000      -0.527531       -14.3548
  17   2.0000      -0.502921       -13.6852
  18   2.0000      -0.500929       -13.6310
  19   2.0000      -0.487653       -13.2697
  20   0.0000       0.093563         2.5460
  21   0.0000       0.128401         3.4940
  22   0.0000       0.137345         3.7374
  23   0.0000       0.171100         4.6559
  24   0.0000       0.197164         5.3651

MULLIKEN ATOMIC CHARGES
-----------------------
   0 O :   -0.683452
   1 H :    0.365436
   2 H :    0.357059
   3 O :   -0.711421
   4 H :    0.322450
   5 H :    0.353875
   6 O :   -0.689070
   7 H :    0.337427
   8 H :    0.349804
   9 O :   -0.677676
  10 H :    0.345587
  11 H :    0.329980
Sum of atomic charges:   -0.0000000

LOEWDIN ATOMIC CHARGES
----------------------
   0 O :   -0.289890
   1 H :    0.183820
   2 H :    0.173245
   3 O :   -0.360355
   4 H :    0.155340
   5 H :    0.141639
   6 O :   -0.341911
   7 H :    0.157268
   8 H :    0.182779
   9 O :   -0.332335
  10 H :    0.168028
  11 H :    0.162373

  Mayer bond orders larger than 0.100000
B(  0-O ,  1-H ) :   0.8301 B(  0-O ,  2-H ) :   0.8381 B(  3-O ,  4-H ) :   0.8607
B(  3-O ,  5-H ) :   0.7974 B(  6-O ,  7-H ) :   0.8539 B(  6-O ,  8-H ) :   0.8395
B(  9-O , 10-H ) :   0.8472 B(  9-O , 11-H ) :   0.8564

MP2 TOTAL ENERGY:     -305.262404129 Eh
FINAL SINGLE POINT ENERGY      -305.262404129073

DIPOLE MOMENT
-------------
                                X             Y             Z
Electronic contribution:      0.31240       0.04538       0.17991
Nuclear contribution   :     -0.33647      -0.76350      -1.31870
                        -----------------------------------------
Total Dipole Moment    :     -0.02407      -0.71812      -1.13879
                        -----------------------------------------
Magnitude (a.u.)       :      1.34652
Magnitude (Debye)      :      3.42258

Rotational constants in cm-1:     0.068866     0.049036     0.034762
Rotational constants in MHz :  2064.545334  1470.051132  1042.149912

                             ****ORCA TERMINATED NORMALLY****
TOTAL RUN TIME: 0 days 0 hours 0 minutes 14 seconds 869 msec
