                         Program Version 4.2.0 -  RELEASE  -
|  1> # 12h2o.su.etal.mol0,3,4,5,6,10
|  2> ! MP2 def2-TZVP EnGrad TightSCF
|  3>
|  4> %pal
|  5>     nprocs 6
|  6> end
|  7>
|  8> %maxcore 8000
|  9>
| 10> %scf
| 11>     ConvForced true
| 12> end
| 13>
| 14> *xyz 0 1
| 15> O   1.794470000   0.923410000   2.768350000
| 16> H   2.338250000   1.359750000   3.430940000
| 17> H   0.879480000   1.303000000   2.865760000
| 18> O  -1.752130000  -0.741530000  -2.896280000
| 19> H  -2.036450000  -0.920500000  -1.984040000
| 20> H  -0.921210000  -1.242140000  -2.984230000
| 21> O  -0.885520000   1.737840000   0.052730000
| 22> H  -1.032320000   2.090180000  -0.841890000
| 23> H  -1.284090000   0.839590000   0.017130000
| 24> O   0.885520000  -1.737840000   0.052730000
| 25> H   1.284090000  -0.839590000   0.017130000
| 26> H   1.032320000  -2.090180000  -0.841890000
| 27> O   1.737840000   0.885520000  -0.052730000
| 28> H   2.090180000   1.032320000   0.841890000
| 29> H   0.839590000   1.284090000  -0.017130000
| 30> O  -0.923410000   1.794470000  -2.768350000
| 31> H  -1.359750000   2.338250000  -3.430940000
| 32> H  -1.303000000   0.879480000  -2.865760000
| 33> *
| 34>
| 35>                          ****END OF INPUT****

CARTESIAN COORDINATES (ANGSTROEM)
---------------------------------
  O      1.794470    0.923410    2.768350
  H      2.338250    1.359750    3.430940
  H      0.879480    1.303000    2.865760
  O     -1.752130   -0.741530   -2.896280
  H     -2.036450   -0.920500   -1.984040
  H     -0.921210   -1.242140   -2.984230
  O     -0.885520    1.737840    0.052730
  H     -1.032320    2.090180   -0.841890
  H     -1.284090    0.839590    0.017130
  O      0.885520   -1.737840    0.052730
  H      1.284090   -0.839590    0.017130
  H      1.032320   -2.090180   -0.841890
  O      1.737840    0.885520   -0.052730
  H      2.090180    1.032320    0.841890
  H      0.839590    1.284090   -0.017130
  O     -0.923410    1.794470   -2.768350
  H     -1.359750    2.338250   -3.430940
  H     -1.303000    0.879480   -2.865760

 Total Charge           Charge          ....    0
 Multiplicity           Mult            ....    1
 Number of Electrons    NEL             ....   60
 Basis Dimension        Dim             ....  258

ORBITAL ENERGIES
----------------

  NO   OCC          E(Eh)            E(eV)
   0   2.0000     -20.612395      -560.8918
   1   2.0000     -20.578324      -559.9647
   2   2.0000     -20.566310      -559.6378
   3   2.0000     -20.553491      -559.2889
   4   2.0000     -20.522428      -558.4436
   5   2.0000     -20.519863      -558.3739
   6   2.0000      -1.397926       -38.0395
   7   2.0000      -1.356673       -36.9170
   8   2.0000      -1.352752       -36.8102
   9   2.0000      -1.335051       -36.3286
  10   2.0000      -1.313429       -35.7402
  11   2.0000      -1.297423       -35.3047
  12   2.0000      -0.755071       -20.5465
  13   2.0000      -0.723842       -19.6967
  14   2.0000      -0.723010       -19.6741
  15   2.0000      -0.712274       -19.3820
  16   2.0000      -0.683451       -18.5976
  17   2.0000      -0.674324       -18.3493
  18   2.0000      -0.637661       -17.3516
  19   2.0000      -0.606756       -16.5107
  20   2.0000      -0.595178       -16.1956
  21   2.0000      -0.578732       -15.7481
  22   2.0000      -0.563755       -15.3405
  23   2.0000      -0.545068       -14.8321
  24   2.0000      -0.538151       -14.6438
  25   2.0000      -0.516069       -14.0430
  26   2.0000      -0.502819       -13.6824
  27   2.0000      -0.499992       -13.6055
  28   2.0000      -0.472672       -12.8621
  29   2.0000      -0.464888       -12.6502
  30   0.0000       0.085522         2.3272
  31   0.0000       0.121956         3.3186
  32   0.0000       0.141748         3.8572
  33   0.0000       0.154085         4.1929
  34   0.0000       0.185004         5.0342

MULLIKEN ATOMIC CHARGES
-----------------------
   0 O :   -0.693027
   1 H :    0.347330
   2 H :    0.359231
   3 O :   -0.676763
   4 H :    0.357569
   5 H :    0.365080
   6 O :   -0.704198
   7 H :    0.384378
   8 H :    0.331808
   9 O :   -0.721300
  10 H :    0.365113
  11 H :    0.308463
  12 O :   -0.731193
  13 H :    0.370146
  14 H :    0.361098
  15 O :   -0.732522
  16 H :    0.339985
  17 H :    0.368802
Sum of atomic charges:   -0.0000000

LOEWDIN ATOMIC CHARGES
----------------------
   0 O :   -0.309465
   1 H :    0.161258
   2 H :    0.187000
   3 O :   -0.266163
   4 H :    0.172543
   5 H :    0.178811
   6 O :   -0.300873
   7 H :    0.155122
   8 H :    0.164856
   9 O :   -0.365459
  10 H :    0.142998
  11 H :    0.147533
  12 O :   -0.318234
  13 H :    0.147647
  14 H :    0.140340
  15 O :   -0.336927
  16 H :    0.155599
  17 H :    0.143415

  Mayer bond orders larger than 0.100000
B(  0-O ,  1-H ) :   0.8445 B(  0-O ,  2-H ) :   0.8312 B(  3-O ,  4-H ) :   0.8357
B(  3-O ,  5-H ) :   0.8305 B(  6-O ,  7-H ) :   0.7899 B(  6-O ,  8-H ) :   0.8471
B(  9-O , 10-H ) :   0.7709 B(  9-O , 11-H ) :   0.8676 B( 10-H , 12-O ) :   0.1124
B( 12-O , 13-H ) :   0.8132 B( 12-O , 14-H ) :   0.7856 B( 15-O , 16-H ) :   0.8490
B( 15-O , 17-H ) :   0.7693

MP2 TOTAL ENERGY:     -457.923132620 Eh
FINAL SINGLE POINT ENERGY      -457.923132619548

DIPOLE MOMENT
-------------
                                X             Y             Z
Electronic contribution:     -0.01754       0.07111      -0.02001
Nuclear contribution   :     -0.98755       0.25846      -0.08817
                        -----------------------------------------
Total Dipole Moment    :     -1.00510       0.32957      -0.10818
                        -----------------------------------------
Magnitude (a.u.)       :      1.06327
Magnitude (Debye)      :      2.70261

Rotational constants in cm-1:     0.070514     0.027252     0.022386
Rotational constants in MHz :  2113.950875   817.005568   671.100665

                             ****ORCA TERMINATED NORMALLY****
TOTAL RUN TIME: 0 days 0 hours 1 minutes 25 seconds 158 msec
