                         Program Version 3.0.3 - RELEASE   -
|  1> ! B3LYP Def2-SVP def2-SVP/J RIJCOSX TightSCF Grid4 D3BJ COSMO OPT
|  2>
|  3> %pal nprocs 12 end
|  4>
|  5> %scf
|  6>         maxiter 800
|  7> end
|  8>
|  9> %cosmo
| 10>         SMD true
| 11>         solvent "WATER"
| 12> end
| 13>
| 14> * xyz  0  1
| 15>   O      1.867911   -0.281618   -0.361414
| 16>   H      2.613905   -0.185777   -0.953478
| 17>   H      1.111748   -0.373568   -0.941065
| 18>   O     -0.417740   -0.452165   -1.836270
| 19>   H     -0.929509   -1.104664   -2.314359
| 20>   H     -1.000721   -0.154626   -1.137817
| 21>   O     -1.867923    0.281029    0.361768
| 22>   H     -1.111683    0.373431    0.941247
| 23>   H     -2.613590    0.183669    0.953996
| 24>   O      0.417806    0.452767    1.836284
| 25>   H      1.000769    0.154691    1.138046
| 26>   H      0.928997    1.106824    2.312860
| 27> **                         ****END OF INPUT****
 Total Charge           Charge          ....    0
 Multiplicity           Mult            ....    1
 Number of Electrons    NEL             ....   40
Dispersion correction           -0.007528471
FINAL SINGLE POINT ENERGY      -305.372623936306
Dispersion correction            ...
Dispersion correction           -0.007435402
FINAL SINGLE POINT ENERGY      -305.375565663333
Dispersion correction            ...
Dispersion correction           -0.007526801
FINAL SINGLE POINT ENERGY      -305.375947942693
Dispersion correction            ...
FINAL SINGLE POINT ENERGY      -305.376450771756
FINAL SINGLE POINT ENERGY      -305.376694474126
FINAL SINGLE POINT ENERGY      -305.377559405308
FINAL SINGLE POINT ENERGY      -305.384083956740
FINAL SINGLE POINT ENERGY      -305.378390911698
FINAL SINGLE POINT ENERGY      -305.378629245124
FINAL SINGLE POINT ENERGY      -305.378869621198
FINAL SINGLE POINT ENERGY      -305.387358931043
FINAL SINGLE POINT ENERGY      -305.387246700803
FINAL SINGLE POINT ENERGY      -305.386739127334
FINAL SINGLE POINT ENERGY      -305.392925361456
FINAL SINGLE POINT ENERGY      -305.387194053242
FINAL SINGLE POINT ENERGY      -305.387238293907
FINAL SINGLE POINT ENERGY      -305.387239316380
Dispersion correction            ...
Dispersion correction           -0.008187724
FINAL SINGLE POINT ENERGY      -305.387236933863
Dispersion correction            ...
Dispersion correction           -0.008186030
FINAL SINGLE POINT ENERGY      -305.387298249325
Dispersion correction            ...
                    ***********************HURRAY********************

CARTESIAN COORDINATES (ANGSTROEM)
---------------------------------
  O      1.792488   -0.596432   -0.398032
  H      2.389463    0.119658   -0.664998
  H      1.002959   -0.482795   -0.992114
  O     -0.485978   -0.269787   -1.800694
  H     -0.787003   -1.184950   -1.917909
  H     -1.036017    0.058708   -1.039704
  O     -1.793210    0.593528    0.398943
  H     -1.002725    0.481762    0.991918
  H     -2.389668   -0.121336    0.670223
  O      0.487172    0.271899    1.799331
  H      1.037079   -0.058558    1.038892
  H      0.785410    1.188297    1.913943

 Multiplicity           Mult            ....    1
 Number of Electrons    NEL             ....   40
 Basis Dimension        Dim             ....   96

ORBITAL ENERGIES
----------------

  NO   OCC          E(Eh)            E(eV)
   0   2.0000     -19.121691      -520.3277
   1   2.0000     -19.121603      -520.3253
   2   2.0000     -19.120958      -520.3077
   3   2.0000     -19.120909      -520.3064
   4   2.0000      -0.994584       -27.0640
   5   2.0000      -0.976946       -26.5841
   6   2.0000      -0.976296       -26.5664
   7   2.0000      -0.958968       -26.0948
   8   2.0000      -0.517040       -14.0694
   9   2.0000      -0.511902       -13.9296
  10   2.0000      -0.505692       -13.7606
  11   2.0000      -0.503866       -13.7109
  12   2.0000      -0.408552       -11.1173
  13   2.0000      -0.389350       -10.5948
  14   2.0000      -0.380076       -10.3424
  15   2.0000      -0.365237        -9.9386
  16   2.0000      -0.304700        -8.2913
  17   2.0000      -0.304334        -8.2814
  18   2.0000      -0.302410        -8.2290
  19   2.0000      -0.296854        -8.0778
  20   0.0000       0.051391         1.3984
  21   0.0000       0.091155         2.4805
  22   0.0000       0.101827         2.7709
  23   0.0000       0.129573         3.5259
  24   0.0000       0.212810         5.7909

MULLIKEN ATOMIC CHARGES
-----------------------
   0 O :   -0.356221
   1 H :    0.205140
   2 H :    0.149877
   3 O :   -0.354205
   4 H :    0.204251
   5 H :    0.151460
   6 O :   -0.356163
   7 H :    0.149214
   8 H :    0.205250
   9 O :   -0.354777
  10 H :    0.151842
  11 H :    0.204332
Sum of atomic charges:   -0.0000000

LOEWDIN ATOMIC CHARGES
----------------------
   0 O :   -0.140613
   1 H :    0.101946
   2 H :    0.038405
   3 O :   -0.139437
   4 H :    0.101959
   5 H :    0.038100
   6 O :   -0.140784
   7 H :    0.038012
   8 H :    0.102052
   9 O :   -0.139617
  10 H :    0.038114
  11 H :    0.101864

  Mayer bond orders larger than 0.1
B(  0-O ,  1-H ) :   0.9747 B(  0-O ,  2-H ) :   0.8797 B(  0-O , 10-H ) :   0.2198
B(  2-H ,  3-O ) :   0.2214 B(  3-O ,  4-H ) :   0.9749 B(  3-O ,  5-H ) :   0.8826
B(  5-H ,  6-O ) :   0.2193 B(  6-O ,  7-H ) :   0.8799 B(  6-O ,  8-H ) :   0.9747
B(  7-H ,  9-O ) :   0.2217 B(  9-O , 10-H ) :   0.8820 B(  9-O , 11-H ) :   0.9748

Dispersion correction           -0.008187271
FINAL SINGLE POINT ENERGY      -305.387307584657

DIPOLE MOMENT
-------------
                                X             Y             Z
Electronic contribution:      0.00018      -0.00118      -0.00136
Nuclear contribution   :     -0.00120       0.00197       0.00096
                        -----------------------------------------
Total Dipole Moment    :     -0.00102       0.00079      -0.00040
                        -----------------------------------------
Magnitude (a.u.)       :      0.00135
Magnitude (Debye)      :      0.00343

                             ****ORCA TERMINATED NORMALLY****
TOTAL RUN TIME: 0 days 0 hours 43 minutes 25 seconds 356 msec
