                         Program Version 4.2.0 -  RELEASE  -
|  1> # 12h2o.su.etal.mol0,10,11
|  2> ! MP2 def2-TZVP EnGrad TightSCF
|  3>
|  4> %pal
|  5>     nprocs 6
|  6> end
|  7>
|  8> %maxcore 8000
|  9>
| 10> %scf
| 11>     ConvForced true
| 12> end
| 13>
| 14> *xyz 0 1
| 15> O   1.794470000   0.923410000   2.768350000
| 16> H   2.338250000   1.359750000   3.430940000
| 17> H   0.879480000   1.303000000   2.865760000
| 18> O  -0.923410000   1.794470000  -2.768350000
| 19> H  -1.359750000   2.338250000  -3.430940000
| 20> H  -1.303000000   0.879480000  -2.865760000
| 21> O  -0.741530000   1.752130000   2.896280000
| 22> H  -0.920500000   2.036450000   1.984040000
| 23> H  -1.242140000   0.921210000   2.984230000
| 24> *
| 25>
| 26>                          ****END OF INPUT****

CARTESIAN COORDINATES (ANGSTROEM)
---------------------------------
  O      1.794470    0.923410    2.768350
  H      2.338250    1.359750    3.430940
  H      0.879480    1.303000    2.865760
  O     -0.923410    1.794470   -2.768350
  H     -1.359750    2.338250   -3.430940
  H     -1.303000    0.879480   -2.865760
  O     -0.741530    1.752130    2.896280
  H     -0.920500    2.036450    1.984040
  H     -1.242140    0.921210    2.984230

 Total Charge           Charge          ....    0
 Multiplicity           Mult            ....    1
 Number of Electrons    NEL             ....   30
 Basis Dimension        Dim             ....  129

ORBITAL ENERGIES
----------------

  NO   OCC          E(Eh)            E(eV)
   0   2.0000     -20.594016      -560.3917
   1   2.0000     -20.567536      -559.6711
   2   2.0000     -20.512260      -558.1670
   3   2.0000      -1.379308       -37.5329
   4   2.0000      -1.342845       -36.5407
   5   2.0000      -1.294710       -35.2308
   6   2.0000      -0.736810       -20.0496
   7   2.0000      -0.711237       -19.3538
   8   2.0000      -0.686177       -18.6718
   9   2.0000      -0.613824       -16.7030
  10   2.0000      -0.578707       -15.7474
  11   2.0000      -0.553581       -15.0637
  12   2.0000      -0.510734       -13.8978
  13   2.0000      -0.509766       -13.8714
  14   2.0000      -0.462530       -12.5861
  15   0.0000       0.112039         3.0487
  16   0.0000       0.124038         3.3753
  17   0.0000       0.180450         4.9103
  18   0.0000       0.188189         5.1209
  19   0.0000       0.192701         5.2437

MULLIKEN ATOMIC CHARGES
-----------------------
   0 O :   -0.729187
   1 H :    0.323639
   2 H :    0.363140
   3 O :   -0.682238
   4 H :    0.339729
   5 H :    0.342676
   6 O :   -0.678973
   7 H :    0.363165
   8 H :    0.358049
Sum of atomic charges:    0.0000000

LOEWDIN ATOMIC CHARGES
----------------------
   0 O :   -0.371232
   1 H :    0.147811
   2 H :    0.141360
   3 O :   -0.338948
   4 H :    0.158212
   5 H :    0.180832
   6 O :   -0.271304
   7 H :    0.177009
   8 H :    0.176261

  Mayer bond orders larger than 0.100000
B(  0-O ,  1-H ) :   0.8616 B(  0-O ,  2-H ) :   0.7910 B(  3-O ,  4-H ) :   0.8526
B(  3-O ,  5-H ) :   0.8458 B(  6-O ,  7-H ) :   0.8340 B(  6-O ,  8-H ) :   0.8370

MP2 TOTAL ENERGY:     -228.944884784 Eh
FINAL SINGLE POINT ENERGY      -228.944884783806

DIPOLE MOMENT
-------------
                                X             Y             Z
Electronic contribution:     -0.05702       0.10598       0.08268
Nuclear contribution   :     -1.55378      -0.08480      -0.68611
                        -----------------------------------------
Total Dipole Moment    :     -1.61080       0.02118      -0.60343
                        -----------------------------------------
Magnitude (a.u.)       :      1.72025
Magnitude (Debye)      :      4.37253

Rotational constants in cm-1:     0.268665     0.040213     0.035321
Rotational constants in MHz :  8054.372977  1205.559104  1058.897553

                             ****ORCA TERMINATED NORMALLY****
TOTAL RUN TIME: 0 days 0 hours 0 minutes 8 seconds 649 msec
