                         Program Version 4.2.0 -  RELEASE  -
|  1> # 12meoh.boyd.etal.mol7,10
|  2> ! MP2 def2-TZVP EnGrad TightSCF
|  3>
|  4> %pal
|  5>     nprocs 6
|  6> end
|  7>
|  8> %maxcore 8000
|  9>
| 10> %scf
| 11>     ConvForced true
| 12> end
| 13>
| 14> *xyz 0 1
| 15> O   4.310535586  -1.588322800   0.656128299
| 16> H   3.804372199  -1.630404735  -0.196849819
| 17> C   4.312298137  -2.894980854   1.222112691
| 18> H   4.713177833  -2.819907076   2.237066773
| 19> H   4.957796734  -3.574699304   0.648211180
| 20> H   3.302735989  -3.324433205   1.269756773
| 21> O  -5.201143618   0.064582726  -0.172223772
| 22> H  -4.686891530   0.869258890   0.107806143
| 23> C  -6.513192168   0.171391798   0.359883449
| 24> H  -7.049381312  -0.749234190   0.111361174
| 25> H  -7.057741163   1.017801101  -0.081819420
| 26> H  -6.514770575   0.292264928   1.453058834
| 27> *
| 28>
| 29>                          ****END OF INPUT****

CARTESIAN COORDINATES (ANGSTROEM)
---------------------------------
  O      4.310536   -1.588323    0.656128
  H      3.804372   -1.630405   -0.196850
  C      4.312298   -2.894981    1.222113
  H      4.713178   -2.819907    2.237067
  H      4.957797   -3.574699    0.648211
  H      3.302736   -3.324433    1.269757
  O     -5.201144    0.064583   -0.172224
  H     -4.686892    0.869259    0.107806
  C     -6.513192    0.171392    0.359883
  H     -7.049381   -0.749234    0.111361
  H     -7.057741    1.017801   -0.081819
  H     -6.514771    0.292265    1.453059

 Total Charge           Charge          ....    0
 Multiplicity           Mult            ....    1
 Number of Electrons    NEL             ....   36
 Basis Dimension        Dim             ....  172

ORBITAL ENERGIES
----------------

  NO   OCC          E(Eh)            E(eV)
   0   2.0000     -20.558356      -559.4213
   1   2.0000     -20.556450      -559.3694
   2   2.0000     -11.272027      -306.7275
   3   2.0000     -11.270826      -306.6948
   4   2.0000      -1.348430       -36.6927
   5   2.0000      -1.346148       -36.6306
   6   2.0000      -0.919866       -25.0308
   7   2.0000      -0.918723       -24.9997
   8   2.0000      -0.683011       -18.5857
   9   2.0000      -0.680970       -18.5301
  10   2.0000      -0.617492       -16.8028
  11   2.0000      -0.616120       -16.7655
  12   2.0000      -0.592230       -16.1154
  13   2.0000      -0.589958       -16.0536
  14   2.0000      -0.500569       -13.6212
  15   2.0000      -0.500077       -13.6078
  16   2.0000      -0.449310       -12.2264
  17   2.0000      -0.448204       -12.1963
  18   0.0000       0.134451         3.6586
  19   0.0000       0.135969         3.6999
  20   0.0000       0.175296         4.7701
  21   0.0000       0.176940         4.8148
  22   0.0000       0.228635         6.2215

MULLIKEN ATOMIC CHARGES
-----------------------
   0 O :   -0.496388
   1 H :    0.321700
   2 C :   -0.174363
   3 H :    0.128901
   4 H :    0.109181
   5 H :    0.110969
   6 O :   -0.496635
   7 H :    0.321958
   8 C :   -0.172445
   9 H :    0.129114
  10 H :    0.108809
  11 H :    0.109200
Sum of atomic charges:    0.0000000

LOEWDIN ATOMIC CHARGES
----------------------
   0 O :   -0.109347
   1 H :    0.189604
   2 C :   -0.381393
   3 H :    0.109938
   4 H :    0.095346
   5 H :    0.095853
   6 O :   -0.107116
   7 H :    0.191116
   8 C :   -0.384952
   9 H :    0.110400
  10 H :    0.095158
  11 H :    0.095395

  Mayer bond orders larger than 0.100000
B(  0-O ,  1-H ) :   0.8429 B(  0-O ,  2-C ) :   0.9267 B(  2-C ,  3-H ) :   0.9378
B(  2-C ,  4-H ) :   0.9382 B(  2-C ,  5-H ) :   0.9401 B(  6-O ,  7-H ) :   0.8418
B(  6-O ,  8-C ) :   0.9272 B(  8-C ,  9-H ) :   0.9376 B(  8-C , 10-H ) :   0.9390
B(  8-C , 11-H ) :   0.9386

MP2 TOTAL ENERGY:     -231.013276112 Eh
FINAL SINGLE POINT ENERGY      -231.013276111837

DIPOLE MOMENT
-------------
                                X             Y             Z
Electronic contribution:      1.68831       1.42059      -1.31224
Nuclear contribution   :     -2.22182      -1.44020       1.41061
                        -----------------------------------------
Total Dipole Moment    :     -0.53351      -0.01961       0.09837
                        -----------------------------------------
Magnitude (a.u.)       :      0.54285
Magnitude (Debye)      :      1.37982

Rotational constants in cm-1:     0.612551     0.009527     0.009441
Rotational constants in MHz : 18363.821357   285.617651   283.038145

                             ****ORCA TERMINATED NORMALLY****
TOTAL RUN TIME: 0 days 0 hours 0 minutes 15 seconds 42 msec
