                         Program Version 4.2.0 -  RELEASE  -
|  1> # 12h2o.su.etal.mol1,2,5,9,10
|  2> ! MP2 def2-TZVP EnGrad TightSCF
|  3>
|  4> %pal
|  5>     nprocs 6
|  6> end
|  7>
|  8> %maxcore 8000
|  9>
| 10> %scf
| 11>     ConvForced true
| 12> end
| 13>
| 14> *xyz 0 1
| 15> O  -1.794470000  -0.923410000   2.768350000
| 16> H  -2.338250000  -1.359750000   3.430940000
| 17> H  -0.879480000  -1.303000000   2.865760000
| 18> O   0.923410000  -1.794470000  -2.768350000
| 19> H   1.359750000  -2.338250000  -3.430940000
| 20> H   1.303000000  -0.879480000  -2.865760000
| 21> O   0.885520000  -1.737840000   0.052730000
| 22> H   1.284090000  -0.839590000   0.017130000
| 23> H   1.032320000  -2.090180000  -0.841890000
| 24> O   0.741530000  -1.752130000   2.896280000
| 25> H   0.920500000  -2.036450000   1.984040000
| 26> H   1.242140000  -0.921210000   2.984230000
| 27> O  -0.923410000   1.794470000  -2.768350000
| 28> H  -1.359750000   2.338250000  -3.430940000
| 29> H  -1.303000000   0.879480000  -2.865760000
| 30> *
| 31>
| 32>                          ****END OF INPUT****

CARTESIAN COORDINATES (ANGSTROEM)
---------------------------------
  O     -1.794470   -0.923410    2.768350
  H     -2.338250   -1.359750    3.430940
  H     -0.879480   -1.303000    2.865760
  O      0.923410   -1.794470   -2.768350
  H      1.359750   -2.338250   -3.430940
  H      1.303000   -0.879480   -2.865760
  O      0.885520   -1.737840    0.052730
  H      1.284090   -0.839590    0.017130
  H      1.032320   -2.090180   -0.841890
  O      0.741530   -1.752130    2.896280
  H      0.920500   -2.036450    1.984040
  H      1.242140   -0.921210    2.984230
  O     -0.923410    1.794470   -2.768350
  H     -1.359750    2.338250   -3.430940
  H     -1.303000    0.879480   -2.865760

 Total Charge           Charge          ....    0
 Multiplicity           Mult            ....    1
 Number of Electrons    NEL             ....   50
 Basis Dimension        Dim             ....  215

ORBITAL ENERGIES
----------------

  NO   OCC          E(Eh)            E(eV)
   0   2.0000     -20.601121      -560.5850
   1   2.0000     -20.567036      -559.6575
   2   2.0000     -20.561181      -559.4982
   3   2.0000     -20.556701      -559.3763
   4   2.0000     -20.494696      -557.6890
   5   2.0000      -1.379143       -37.5284
   6   2.0000      -1.349054       -36.7096
   7   2.0000      -1.342350       -36.5272
   8   2.0000      -1.337763       -36.4024
   9   2.0000      -1.276889       -34.7459
  10   2.0000      -0.745875       -20.2963
  11   2.0000      -0.716359       -19.4931
  12   2.0000      -0.710563       -19.3354
  13   2.0000      -0.700485       -19.0612
  14   2.0000      -0.665495       -18.1091
  15   2.0000      -0.619978       -16.8705
  16   2.0000      -0.597170       -16.2498
  17   2.0000      -0.578888       -15.7523
  18   2.0000      -0.571700       -15.5567
  19   2.0000      -0.539844       -14.6899
  20   2.0000      -0.526404       -14.3242
  21   2.0000      -0.510325       -13.8866
  22   2.0000      -0.507644       -13.8137
  23   2.0000      -0.483776       -13.1642
  24   2.0000      -0.445137       -12.1128
  25   0.0000       0.089962         2.4480
  26   0.0000       0.132083         3.5942
  27   0.0000       0.134519         3.6605
  28   0.0000       0.171723         4.6728
  29   0.0000       0.191531         5.2118

MULLIKEN ATOMIC CHARGES
-----------------------
   0 O :   -0.732245
   1 H :    0.316715
   2 H :    0.368456
   3 O :   -0.697757
   4 H :    0.353850
   5 H :    0.358360
   6 O :   -0.704429
   7 H :    0.329028
   8 H :    0.376644
   9 O :   -0.694332
  10 H :    0.386314
  11 H :    0.338504
  12 O :   -0.690531
  13 H :    0.340764
  14 H :    0.350659
Sum of atomic charges:   -0.0000000

LOEWDIN ATOMIC CHARGES
----------------------
   0 O :   -0.373466
   1 H :    0.144365
   2 H :    0.142548
   3 O :   -0.310421
   4 H :    0.164543
   5 H :    0.186295
   6 O :   -0.323214
   7 H :    0.167331
   8 H :    0.154815
   9 O :   -0.278973
  10 H :    0.158911
  11 H :    0.166785
  12 O :   -0.341567
  13 H :    0.159024
  14 H :    0.183023

  Mayer bond orders larger than 0.100000
B(  0-O ,  1-H ) :   0.8651 B(  0-O ,  2-H ) :   0.7819 B(  3-O ,  4-H ) :   0.8407
B(  3-O ,  5-H ) :   0.8296 B(  6-O ,  7-H ) :   0.8510 B(  6-O ,  8-H ) :   0.8069
B(  9-O , 10-H ) :   0.7971 B(  9-O , 11-H ) :   0.8487 B( 12-O , 13-H ) :   0.8519
B( 12-O , 14-H ) :   0.8388

MP2 TOTAL ENERGY:     -381.586938965 Eh
FINAL SINGLE POINT ENERGY      -381.586938965400

DIPOLE MOMENT
-------------
                                X             Y             Z
Electronic contribution:      0.05894      -0.17330      -0.12274
Nuclear contribution   :      1.32858       0.23021      -2.09298
                        -----------------------------------------
Total Dipole Moment    :      1.38752       0.05692      -2.21572
                        -----------------------------------------
Magnitude (a.u.)       :      2.61493
Magnitude (Debye)      :      6.64663

Rotational constants in cm-1:     0.068352     0.026039     0.020136
Rotational constants in MHz :  2049.129343   780.634286   603.648358

                             ****ORCA TERMINATED NORMALLY****
TOTAL RUN TIME: 0 days 0 hours 0 minutes 26 seconds 190 msec
