                         Program Version 4.2.0 -  RELEASE  -
|  1> # 12mecn.remya.etal.2.mol1,8
|  2> ! MP2 def2-TZVP EnGrad TightSCF
|  3>
|  4> %pal
|  5>     nprocs 6
|  6> end
|  7>
|  8> %maxcore 8000
|  9>
| 10> %scf
| 11>     ConvForced true
| 12> end
| 13>
| 14> *xyz 0 1
| 15> C  -4.697980000  -0.249690000   1.746215000
| 16> H  -4.927570000   0.755530000   2.111799000
| 17> H  -3.709180000  -0.561560000   2.093253000
| 18> H  -5.432280000  -0.961520000   2.128066000
| 19> C  -4.714100000  -0.247110000   0.301670000
| 20> N  -4.729750000  -0.234960000  -0.865260000
| 21> C   1.912641000  -2.468050000  -1.750510000
| 22> H   2.876947000  -2.793500000  -2.151200000
| 23> H   1.688016000  -1.463720000  -2.122170000
| 24> H   1.123460000  -3.154780000  -2.069590000
| 25> C   1.977850000  -2.444240000  -0.306900000
| 26> N   2.036566000  -2.426130000   0.858249000
| 27> *
| 28>
| 29>                          ****END OF INPUT****

CARTESIAN COORDINATES (ANGSTROEM)
---------------------------------
  C     -4.697980   -0.249690    1.746215
  H     -4.927570    0.755530    2.111799
  H     -3.709180   -0.561560    2.093253
  H     -5.432280   -0.961520    2.128066
  C     -4.714100   -0.247110    0.301670
  N     -4.729750   -0.234960   -0.865260
  C      1.912641   -2.468050   -1.750510
  H      2.876947   -2.793500   -2.151200
  H      1.688016   -1.463720   -2.122170
  H      1.123460   -3.154780   -2.069590
  C      1.977850   -2.444240   -0.306900
  N      2.036566   -2.426130    0.858249

 Total Charge           Charge          ....    0
 Multiplicity           Mult            ....    1
 Number of Electrons    NEL             ....   44
 Basis Dimension        Dim             ....  222

ORBITAL ENERGIES
----------------

  NO   OCC          E(Eh)            E(eV)
   0   2.0000     -15.573185      -423.7679
   1   2.0000     -15.572961      -423.7618
   2   2.0000     -11.283988      -307.0529
   3   2.0000     -11.283748      -307.0464
   4   2.0000     -11.280503      -306.9581
   5   2.0000     -11.280305      -306.9527
   6   2.0000      -1.214567       -33.0500
   7   2.0000      -1.214548       -33.0495
   8   2.0000      -1.043426       -28.3931
   9   2.0000      -1.042940       -28.3798
  10   2.0000      -0.699412       -19.0320
  11   2.0000      -0.698751       -19.0140
  12   2.0000      -0.633194       -17.2301
  13   2.0000      -0.631749       -17.1908
  14   2.0000      -0.629848       -17.1390
  15   2.0000      -0.628968       -17.1151
  16   2.0000      -0.556241       -15.1361
  17   2.0000      -0.556089       -15.1319
  18   2.0000      -0.457878       -12.4595
  19   2.0000      -0.457738       -12.4557
  20   2.0000      -0.457457       -12.4480
  21   2.0000      -0.457335       -12.4447
  22   0.0000       0.118951         3.2368
  23   0.0000       0.122269         3.3271
  24   0.0000       0.171778         4.6743
  25   0.0000       0.172224         4.6865
  26   0.0000       0.172781         4.7016

MULLIKEN ATOMIC CHARGES
-----------------------
   0 C :   -0.279371
   1 H :    0.172005
   2 H :    0.176508
   3 H :    0.171795
   4 C :   -0.145340
   5 N :   -0.095602
   6 C :   -0.277686
   7 H :    0.171543
   8 H :    0.173844
   9 H :    0.173689
  10 C :   -0.146127
  11 N :   -0.095259
Sum of atomic charges:   -0.0000000

LOEWDIN ATOMIC CHARGES
----------------------
   0 C :   -0.283091
   1 H :    0.153109
   2 H :    0.154289
   3 H :    0.151715
   4 C :   -0.219241
   5 N :    0.043217
   6 C :   -0.283067
   7 H :    0.152639
   8 H :    0.153489
   9 H :    0.153249
  10 C :   -0.219481
  11 N :    0.043172

  Mayer bond orders larger than 0.100000
B(  0-C ,  1-H ) :   0.9157 B(  0-C ,  2-H ) :   0.9154 B(  0-C ,  3-H ) :   0.9168
B(  0-C ,  4-C ) :   0.9015 B(  4-C ,  5-N ) :   2.8390 B(  6-C ,  7-H ) :   0.9165
B(  6-C ,  8-H ) :   0.9159 B(  6-C ,  9-H ) :   0.9156 B(  6-C , 10-C ) :   0.9016
B( 10-C , 11-N ) :   2.8393

MP2 TOTAL ENERGY:     -264.967161805 Eh
FINAL SINGLE POINT ENERGY      -264.967161805201

DIPOLE MOMENT
-------------
                                X             Y             Z
Electronic contribution:      0.09752       0.06313      -0.00432
Nuclear contribution   :     -0.15003      -0.09885       0.00601
                        -----------------------------------------
Total Dipole Moment    :     -0.05251      -0.03572       0.00169
                        -----------------------------------------
Magnitude (a.u.)       :      0.06353
Magnitude (Debye)      :      0.16147

Rotational constants in cm-1:     0.156039     0.016173     0.014737
Rotational constants in MHz :  4677.928564   484.859274   441.814684

                             ****ORCA TERMINATED NORMALLY****
TOTAL RUN TIME: 0 days 0 hours 0 minutes 51 seconds 253 msec
