                         Program Version 4.2.0 -  RELEASE  -
|  1> # 12h2o.su.etal.mol0,5,6,7,8,9
|  2> ! MP2 def2-TZVP EnGrad TightSCF
|  3>
|  4> %pal
|  5>     nprocs 6
|  6> end
|  7>
|  8> %maxcore 8000
|  9>
| 10> %scf
| 11>     ConvForced true
| 12> end
| 13>
| 14> *xyz 0 1
| 15> O   1.794470000   0.923410000   2.768350000
| 16> H   2.338250000   1.359750000   3.430940000
| 17> H   0.879480000   1.303000000   2.865760000
| 18> O   0.885520000  -1.737840000   0.052730000
| 19> H   1.284090000  -0.839590000   0.017130000
| 20> H   1.032320000  -2.090180000  -0.841890000
| 21> O   1.737840000   0.885520000  -0.052730000
| 22> H   2.090180000   1.032320000   0.841890000
| 23> H   0.839590000   1.284090000  -0.017130000
| 24> O  -1.737840000  -0.885520000  -0.052730000
| 25> H  -2.090180000  -1.032320000   0.841890000
| 26> H  -0.839590000  -1.284090000  -0.017130000
| 27> O   1.752130000   0.741530000  -2.896280000
| 28> H   2.036450000   0.920500000  -1.984040000
| 29> H   0.921210000   1.242140000  -2.984230000
| 30> O   0.741530000  -1.752130000   2.896280000
| 31> H   0.920500000  -2.036450000   1.984040000
| 32> H   1.242140000  -0.921210000   2.984230000
| 33> *
| 34>
| 35>                          ****END OF INPUT****

CARTESIAN COORDINATES (ANGSTROEM)
---------------------------------
  O      1.794470    0.923410    2.768350
  H      2.338250    1.359750    3.430940
  H      0.879480    1.303000    2.865760
  O      0.885520   -1.737840    0.052730
  H      1.284090   -0.839590    0.017130
  H      1.032320   -2.090180   -0.841890
  O      1.737840    0.885520   -0.052730
  H      2.090180    1.032320    0.841890
  H      0.839590    1.284090   -0.017130
  O     -1.737840   -0.885520   -0.052730
  H     -2.090180   -1.032320    0.841890
  H     -0.839590   -1.284090   -0.017130
  O      1.752130    0.741530   -2.896280
  H      2.036450    0.920500   -1.984040
  H      0.921210    1.242140   -2.984230
  O      0.741530   -1.752130    2.896280
  H      0.920500   -2.036450    1.984040
  H      1.242140   -0.921210    2.984230

 Total Charge           Charge          ....    0
 Multiplicity           Mult            ....    1
 Number of Electrons    NEL             ....   60
 Basis Dimension        Dim             ....  258

ORBITAL ENERGIES
----------------

  NO   OCC          E(Eh)            E(eV)
   0   2.0000     -20.634237      -561.4861
   1   2.0000     -20.609443      -560.8115
   2   2.0000     -20.574785      -559.8684
   3   2.0000     -20.545207      -559.0635
   4   2.0000     -20.528004      -558.5954
   5   2.0000     -20.523049      -558.4606
   6   2.0000      -1.415485       -38.5173
   7   2.0000      -1.395200       -37.9653
   8   2.0000      -1.362234       -37.0683
   9   2.0000      -1.327149       -36.1135
  10   2.0000      -1.309106       -35.6226
  11   2.0000      -1.307896       -35.5897
  12   2.0000      -0.780461       -21.2374
  13   2.0000      -0.758350       -20.6358
  14   2.0000      -0.731657       -19.9094
  15   2.0000      -0.699193       -19.0260
  16   2.0000      -0.690362       -18.7857
  17   2.0000      -0.683435       -18.5972
  18   2.0000      -0.659165       -17.9368
  19   2.0000      -0.627488       -17.0748
  20   2.0000      -0.615660       -16.7530
  21   2.0000      -0.579769       -15.7763
  22   2.0000      -0.566351       -15.4112
  23   2.0000      -0.557696       -15.1757
  24   2.0000      -0.546664       -14.8755
  25   2.0000      -0.534924       -14.5560
  26   2.0000      -0.510819       -13.9001
  27   2.0000      -0.491510       -13.3747
  28   2.0000      -0.476749       -12.9730
  29   2.0000      -0.472250       -12.8506
  30   0.0000       0.073807         2.0084
  31   0.0000       0.118782         3.2322
  32   0.0000       0.148656         4.0451
  33   0.0000       0.157522         4.2864
  34   0.0000       0.184345         5.0163

MULLIKEN ATOMIC CHARGES
-----------------------
   0 O :   -0.718894
   1 H :    0.372445
   2 H :    0.372224
   3 O :   -0.734976
   4 H :    0.370015
   5 H :    0.365159
   6 O :   -0.725778
   7 H :    0.390846
   8 H :    0.356250
   9 O :   -0.726243
  10 H :    0.332150
  11 H :    0.357118
  12 O :   -0.694483
  13 H :    0.367598
  14 H :    0.327481
  15 O :   -0.719747
  16 H :    0.370331
  17 H :    0.338506
Sum of atomic charges:    0.0000000

LOEWDIN ATOMIC CHARGES
----------------------
   0 O :   -0.287576
   1 H :    0.171762
   2 H :    0.192904
   3 O :   -0.293947
   4 H :    0.145462
   5 H :    0.173749
   6 O :   -0.280711
   7 H :    0.157308
   8 H :    0.177017
   9 O :   -0.365818
  10 H :    0.159062
  11 H :    0.139687
  12 O :   -0.337957
  13 H :    0.149254
  14 H :    0.161847
  15 O :   -0.350561
  16 H :    0.150018
  17 H :    0.138500

  Mayer bond orders larger than 0.100000
B(  0-O ,  1-H ) :   0.8274 B(  0-O ,  2-H ) :   0.8194 B(  3-O ,  4-H ) :   0.7720
B(  3-O ,  5-H ) :   0.8299 B(  6-O ,  7-H ) :   0.7927 B(  6-O ,  8-H ) :   0.8276
B(  9-O , 10-H ) :   0.8548 B(  9-O , 11-H ) :   0.7957 B( 12-O , 13-H ) :   0.8249
B( 12-O , 14-H ) :   0.8581 B( 15-O , 16-H ) :   0.8218 B( 15-O , 17-H ) :   0.8405

MP2 TOTAL ENERGY:     -457.923256139 Eh
FINAL SINGLE POINT ENERGY      -457.923256138512

DIPOLE MOMENT
-------------
                                X             Y             Z
Electronic contribution:      0.38640      -0.06780      -0.02487
Nuclear contribution   :      0.25565       2.15417       1.40687
                        -----------------------------------------
Total Dipole Moment    :      0.64205       2.08637       1.38200
                        -----------------------------------------
Magnitude (a.u.)       :      2.58362
Magnitude (Debye)      :      6.56704

Rotational constants in cm-1:     0.055168     0.033529     0.025239
Rotational constants in MHz :  1653.899918  1005.161271   756.649480

                             ****ORCA TERMINATED NORMALLY****
TOTAL RUN TIME: 0 days 0 hours 1 minutes 11 seconds 263 msec
