                         Program Version 4.2.0 -  RELEASE  -
|  1> # 12meoh.boyd.etal.mol5
|  2> ! MP2 def2-TZVP EnGrad TightSCF
|  3>
|  4> %pal
|  5>     nprocs 6
|  6> end
|  7>
|  8> %maxcore 8000
|  9>
| 10> %scf
| 11>     ConvForced true
| 12> end
| 13>
| 14> *xyz 0 1
| 15> O  -0.662721750   1.449094618  -1.383082065
| 16> H   0.064188300   2.119867608  -1.465650660
| 17> C  -0.353319239   0.341218776  -2.229326771
| 18> H  -1.072358530  -0.454743281  -2.019906495
| 19> H   0.657636746  -0.044472139  -2.042736771
| 20> H  -0.434616607   0.624733901  -3.287793021
| 21> *
| 22>
| 23>                          ****END OF INPUT****

CARTESIAN COORDINATES (ANGSTROEM)
---------------------------------
  O     -0.662722    1.449095   -1.383082
  H      0.064188    2.119868   -1.465651
  C     -0.353319    0.341219   -2.229327
  H     -1.072359   -0.454743   -2.019906
  H      0.657637   -0.044472   -2.042737
  H     -0.434617    0.624734   -3.287793

 Total Charge           Charge          ....    0
 Multiplicity           Mult            ....    1
 Number of Electrons    NEL             ....   18
 Basis Dimension        Dim             ....   86

ORBITAL ENERGIES
----------------

  NO   OCC          E(Eh)            E(eV)
   0   2.0000     -20.556609      -559.3738
   1   2.0000     -11.272079      -306.7289
   2   2.0000      -1.344898       -36.5965
   3   2.0000      -0.920135       -25.0382
   4   2.0000      -0.680554       -18.5188
   5   2.0000      -0.616749       -16.7826
   6   2.0000      -0.590422       -16.0662
   7   2.0000      -0.500349       -13.6152
   8   2.0000      -0.449260       -12.2250
   9   0.0000       0.135055         3.6750
  10   0.0000       0.175781         4.7833
  11   0.0000       0.228365         6.2141
  12   0.0000       0.231198         6.2912
  13   0.0000       0.254295         6.9197

MULLIKEN ATOMIC CHARGES
-----------------------
   0 O :   -0.498804
   1 H :    0.321513
   2 C :   -0.173073
   3 H :    0.130099
   4 H :    0.110258
   5 H :    0.110007
Sum of atomic charges:    0.0000000

LOEWDIN ATOMIC CHARGES
----------------------
   0 O :   -0.112793
   1 H :    0.188630
   2 C :   -0.377235
   3 H :    0.110078
   4 H :    0.095649
   5 H :    0.095671

  Mayer bond orders larger than 0.100000
B(  0-O ,  1-H ) :   0.8427 B(  0-O ,  2-C ) :   0.9248 B(  2-C ,  3-H ) :   0.9374
B(  2-C ,  4-H ) :   0.9398 B(  2-C ,  5-H ) :   0.9389

MP2 TOTAL ENERGY:     -115.506539966 Eh
FINAL SINGLE POINT ENERGY      -115.506539965847

DIPOLE MOMENT
-------------
                                X             Y             Z
Electronic contribution:     -0.51279       1.30098       1.10328
Nuclear contribution   :      1.09231      -1.34599      -1.49644
                        -----------------------------------------
Total Dipole Moment    :      0.57952      -0.04502      -0.39316
                        -----------------------------------------
Magnitude (a.u.)       :      0.70175
Magnitude (Debye)      :      1.78370

Rotational constants in cm-1:     4.198320     0.818005     0.787569
Rotational constants in MHz : 125862.469710 24523.169539 23610.725456

                             ****ORCA TERMINATED NORMALLY****
TOTAL RUN TIME: 0 days 0 hours 0 minutes 9 seconds 147 msec
