                         Program Version 4.2.0 -  RELEASE  -
|  1> # 12h2o.su.etal.mol1,2,3,7,9,10
|  2> ! MP2 def2-TZVP EnGrad TightSCF
|  3>
|  4> %pal
|  5>     nprocs 6
|  6> end
|  7>
|  8> %maxcore 8000
|  9>
| 10> %scf
| 11>     ConvForced true
| 12> end
| 13>
| 14> *xyz 0 1
| 15> O  -1.794470000  -0.923410000   2.768350000
| 16> H  -2.338250000  -1.359750000   3.430940000
| 17> H  -0.879480000  -1.303000000   2.865760000
| 18> O   0.923410000  -1.794470000  -2.768350000
| 19> H   1.359750000  -2.338250000  -3.430940000
| 20> H   1.303000000  -0.879480000  -2.865760000
| 21> O  -1.752130000  -0.741530000  -2.896280000
| 22> H  -2.036450000  -0.920500000  -1.984040000
| 23> H  -0.921210000  -1.242140000  -2.984230000
| 24> O  -1.737840000  -0.885520000  -0.052730000
| 25> H  -2.090180000  -1.032320000   0.841890000
| 26> H  -0.839590000  -1.284090000  -0.017130000
| 27> O   0.741530000  -1.752130000   2.896280000
| 28> H   0.920500000  -2.036450000   1.984040000
| 29> H   1.242140000  -0.921210000   2.984230000
| 30> O  -0.923410000   1.794470000  -2.768350000
| 31> H  -1.359750000   2.338250000  -3.430940000
| 32> H  -1.303000000   0.879480000  -2.865760000
| 33> *
| 34>
| 35>                          ****END OF INPUT****

CARTESIAN COORDINATES (ANGSTROEM)
---------------------------------
  O     -1.794470   -0.923410    2.768350
  H     -2.338250   -1.359750    3.430940
  H     -0.879480   -1.303000    2.865760
  O      0.923410   -1.794470   -2.768350
  H      1.359750   -2.338250   -3.430940
  H      1.303000   -0.879480   -2.865760
  O     -1.752130   -0.741530   -2.896280
  H     -2.036450   -0.920500   -1.984040
  H     -0.921210   -1.242140   -2.984230
  O     -1.737840   -0.885520   -0.052730
  H     -2.090180   -1.032320    0.841890
  H     -0.839590   -1.284090   -0.017130
  O      0.741530   -1.752130    2.896280
  H      0.920500   -2.036450    1.984040
  H      1.242140   -0.921210    2.984230
  O     -0.923410    1.794470   -2.768350
  H     -1.359750    2.338250   -3.430940
  H     -1.303000    0.879480   -2.865760

 Total Charge           Charge          ....    0
 Multiplicity           Mult            ....    1
 Number of Electrons    NEL             ....   60
 Basis Dimension        Dim             ....  258

ORBITAL ENERGIES
----------------

  NO   OCC          E(Eh)            E(eV)
   0   2.0000     -20.616018      -560.9904
   1   2.0000     -20.595438      -560.4304
   2   2.0000     -20.550475      -559.2069
   3   2.0000     -20.548659      -559.1574
   4   2.0000     -20.530519      -558.6638
   5   2.0000     -20.496432      -557.7363
   6   2.0000      -1.401439       -38.1351
   7   2.0000      -1.373261       -37.3683
   8   2.0000      -1.338786       -36.4302
   9   2.0000      -1.328808       -36.1587
  10   2.0000      -1.319656       -35.9097
  11   2.0000      -1.277827       -34.7714
  12   2.0000      -0.758583       -20.6421
  13   2.0000      -0.740136       -20.1401
  14   2.0000      -0.721722       -19.6391
  15   2.0000      -0.701421       -19.0866
  16   2.0000      -0.685906       -18.6644
  17   2.0000      -0.664019       -18.0689
  18   2.0000      -0.638980       -17.3875
  19   2.0000      -0.614308       -16.7162
  20   2.0000      -0.592587       -16.1251
  21   2.0000      -0.578938       -15.7537
  22   2.0000      -0.557871       -15.1805
  23   2.0000      -0.538841       -14.6626
  24   2.0000      -0.537051       -14.6139
  25   2.0000      -0.517468       -14.0810
  26   2.0000      -0.498653       -13.5690
  27   2.0000      -0.494375       -13.4526
  28   2.0000      -0.469378       -12.7724
  29   2.0000      -0.447247       -12.1702
  30   0.0000       0.083869         2.2822
  31   0.0000       0.112638         3.0650
  32   0.0000       0.155867         4.2414
  33   0.0000       0.157309         4.2806
  34   0.0000       0.175977         4.7886

MULLIKEN ATOMIC CHARGES
-----------------------
   0 O :   -0.731327
   1 H :    0.338448
   2 H :    0.367517
   3 O :   -0.707680
   4 H :    0.355511
   5 H :    0.371433
   6 O :   -0.719442
   7 H :    0.385326
   8 H :    0.354707
   9 O :   -0.701910
  10 H :    0.378439
  11 H :    0.313978
  12 O :   -0.675381
  13 H :    0.355208
  14 H :    0.368861
  15 O :   -0.741699
  16 H :    0.317914
  17 H :    0.370097
Sum of atomic charges:   -0.0000000

LOEWDIN ATOMIC CHARGES
----------------------
   0 O :   -0.337271
   1 H :    0.154825
   2 H :    0.142826
   3 O :   -0.314389
   4 H :    0.164882
   5 H :    0.192247
   6 O :   -0.290695
   7 H :    0.156880
   8 H :    0.145316
   9 O :   -0.322790
  10 H :    0.154624
  11 H :    0.158568
  12 O :   -0.266520
  13 H :    0.172065
  14 H :    0.181446
  15 O :   -0.378549
  16 H :    0.144733
  17 H :    0.141800

  Mayer bond orders larger than 0.100000
B(  0-O ,  1-H ) :   0.8498 B(  0-O ,  2-H ) :   0.7734 B(  3-O ,  4-H ) :   0.8401
B(  3-O ,  5-H ) :   0.8215 B(  6-O ,  7-H ) :   0.8008 B(  6-O ,  8-H ) :   0.8170
B(  6-O , 17-H ) :   0.1034 B(  9-O , 10-H ) :   0.7980 B(  9-O , 11-H ) :   0.8571
B( 12-O , 13-H ) :   0.8383 B( 12-O , 14-H ) :   0.8301 B( 15-O , 16-H ) :   0.8643
B( 15-O , 17-H ) :   0.7687

MP2 TOTAL ENERGY:     -457.919572862 Eh
FINAL SINGLE POINT ENERGY      -457.919572862009

DIPOLE MOMENT
-------------
                                X             Y             Z
Electronic contribution:      0.04688      -0.23792       0.43507
Nuclear contribution   :      1.78400      -1.24378       0.14168
                        -----------------------------------------
Total Dipole Moment    :      1.83088      -1.48170       0.57676
                        -----------------------------------------
Magnitude (a.u.)       :      2.42491
Magnitude (Debye)      :      6.16364

Rotational constants in cm-1:     0.061040     0.020854     0.018113
Rotational constants in MHz :  1829.925102   625.182074   543.028694

                             ****ORCA TERMINATED NORMALLY****
TOTAL RUN TIME: 0 days 0 hours 0 minutes 52 seconds 741 msec
