                         Program Version 4.2.0 -  RELEASE  -
|  1> # 12h2o.su.etal.mol0,1,2,7,11
|  2> ! MP2 def2-TZVP EnGrad TightSCF
|  3>
|  4> %pal
|  5>     nprocs 6
|  6> end
|  7>
|  8> %maxcore 8000
|  9>
| 10> %scf
| 11>     ConvForced true
| 12> end
| 13>
| 14> *xyz 0 1
| 15> O   1.794470000   0.923410000   2.768350000
| 16> H   2.338250000   1.359750000   3.430940000
| 17> H   0.879480000   1.303000000   2.865760000
| 18> O  -1.794470000  -0.923410000   2.768350000
| 19> H  -2.338250000  -1.359750000   3.430940000
| 20> H  -0.879480000  -1.303000000   2.865760000
| 21> O   0.923410000  -1.794470000  -2.768350000
| 22> H   1.359750000  -2.338250000  -3.430940000
| 23> H   1.303000000  -0.879480000  -2.865760000
| 24> O  -1.737840000  -0.885520000  -0.052730000
| 25> H  -2.090180000  -1.032320000   0.841890000
| 26> H  -0.839590000  -1.284090000  -0.017130000
| 27> O  -0.741530000   1.752130000   2.896280000
| 28> H  -0.920500000   2.036450000   1.984040000
| 29> H  -1.242140000   0.921210000   2.984230000
| 30> *
| 31>
| 32>                          ****END OF INPUT****

CARTESIAN COORDINATES (ANGSTROEM)
---------------------------------
  O      1.794470    0.923410    2.768350
  H      2.338250    1.359750    3.430940
  H      0.879480    1.303000    2.865760
  O     -1.794470   -0.923410    2.768350
  H     -2.338250   -1.359750    3.430940
  H     -0.879480   -1.303000    2.865760
  O      0.923410   -1.794470   -2.768350
  H      1.359750   -2.338250   -3.430940
  H      1.303000   -0.879480   -2.865760
  O     -1.737840   -0.885520   -0.052730
  H     -2.090180   -1.032320    0.841890
  H     -0.839590   -1.284090   -0.017130
  O     -0.741530    1.752130    2.896280
  H     -0.920500    2.036450    1.984040
  H     -1.242140    0.921210    2.984230

 Total Charge           Charge          ....    0
 Multiplicity           Mult            ....    1
 Number of Electrons    NEL             ....   50
 Basis Dimension        Dim             ....  215

ORBITAL ENERGIES
----------------

  NO   OCC          E(Eh)            E(eV)
   0   2.0000     -20.617034      -561.0180
   1   2.0000     -20.569444      -559.7230
   2   2.0000     -20.558833      -559.4343
   3   2.0000     -20.532533      -558.7186
   4   2.0000     -20.517257      -558.3030
   5   2.0000      -1.397469       -38.0271
   6   2.0000      -1.358058       -36.9546
   7   2.0000      -1.334097       -36.3026
   8   2.0000      -1.311684       -35.6927
   9   2.0000      -1.299207       -35.3532
  10   2.0000      -0.763039       -20.7634
  11   2.0000      -0.720917       -19.6171
  12   2.0000      -0.702507       -19.1162
  13   2.0000      -0.687424       -18.7058
  14   2.0000      -0.684011       -18.6129
  15   2.0000      -0.633893       -17.2491
  16   2.0000      -0.599967       -16.3259
  17   2.0000      -0.570624       -15.5275
  18   2.0000      -0.569923       -15.5084
  19   2.0000      -0.546505       -14.8712
  20   2.0000      -0.536395       -14.5960
  21   2.0000      -0.501908       -13.6576
  22   2.0000      -0.501140       -13.6367
  23   2.0000      -0.478002       -13.0071
  24   2.0000      -0.468020       -12.7355
  25   0.0000       0.094187         2.5630
  26   0.0000       0.127116         3.4590
  27   0.0000       0.151072         4.1109
  28   0.0000       0.170904         4.6505
  29   0.0000       0.179892         4.8951

MULLIKEN ATOMIC CHARGES
-----------------------
   0 O :   -0.738778
   1 H :    0.324905
   2 H :    0.364352
   3 O :   -0.719828
   4 H :    0.365646
   5 H :    0.376409
   6 O :   -0.681376
   7 H :    0.337536
   8 H :    0.345796
   9 O :   -0.694883
  10 H :    0.355674
  11 H :    0.334269
  12 O :   -0.701323
  13 H :    0.359861
  14 H :    0.371739
Sum of atomic charges:   -0.0000000

LOEWDIN ATOMIC CHARGES
----------------------
   0 O :   -0.376621
   1 H :    0.148185
   2 H :    0.140639
   3 O :   -0.287508
   4 H :    0.168643
   5 H :    0.194089
   6 O :   -0.338024
   7 H :    0.157530
   8 H :    0.182340
   9 O :   -0.345200
  10 H :    0.143932
  11 H :    0.168367
  12 O :   -0.282305
  13 H :    0.173931
  14 H :    0.152002

  Mayer bond orders larger than 0.100000
B(  0-O ,  1-H ) :   0.8607 B(  0-O ,  2-H ) :   0.7773 B(  3-O ,  4-H ) :   0.8309
B(  3-O ,  5-H ) :   0.8147 B(  6-O ,  7-H ) :   0.8535 B(  6-O ,  8-H ) :   0.8436
B(  9-O , 10-H ) :   0.8310 B(  9-O , 11-H ) :   0.8501 B( 12-O , 13-H ) :   0.8354
B( 12-O , 14-H ) :   0.8065

MP2 TOTAL ENERGY:     -381.588627807 Eh
FINAL SINGLE POINT ENERGY      -381.588627806897

DIPOLE MOMENT
-------------
                                X             Y             Z
Electronic contribution:     -0.48848      -0.00127      -0.02048
Nuclear contribution   :      0.56789      -0.59993       0.72077
                        -----------------------------------------
Total Dipole Moment    :      0.07940      -0.60120       0.70028
                        -----------------------------------------
Magnitude (a.u.)       :      0.92636
Magnitude (Debye)      :      2.35463

Rotational constants in cm-1:     0.068666     0.027901     0.021986
Rotational constants in MHz :  2058.540131   836.460899   659.125422

                             ****ORCA TERMINATED NORMALLY****
TOTAL RUN TIME: 0 days 0 hours 0 minutes 31 seconds 75 msec
