                         Program Version 4.2.0 -  RELEASE  -
|  1> # 12mecn.remya.etal.2.mol5,8,11
|  2> ! MP2 def2-TZVP EnGrad TightSCF
|  3>
|  4> %pal
|  5>     nprocs 6
|  6> end
|  7>
|  8> %maxcore 8000
|  9>
| 10> %scf
| 11>     ConvForced true
| 12> end
| 13>
| 14> *xyz 0 1
| 15> C  -1.955700000   2.515080000   1.698463000
| 16> H  -2.923830000   2.883163000   2.049269000
| 17> H  -1.154850000   3.171830000   2.050990000
| 18> H  -1.790380000   1.506115000   2.087896000
| 19> C  -1.948230000   2.482156000   0.253672000
| 20> N  -1.937550000   2.462523000  -0.913150000
| 21> C   1.912641000  -2.468050000  -1.750510000
| 22> H   2.876947000  -2.793500000  -2.151200000
| 23> H   1.688016000  -1.463720000  -2.122170000
| 24> H   1.123460000  -3.154780000  -2.069590000
| 25> C   1.977850000  -2.444240000  -0.306900000
| 26> N   2.036566000  -2.426130000   0.858249000
| 27> C   4.214163000   3.378139000   1.593627000
| 28> H   3.242643000   3.657109000   2.012358000
| 29> H   4.969258000   4.086643000   1.941290000
| 30> H   4.482966000   2.372549000   1.931698000
| 31> C   4.130759000   3.388436000   0.150192000
| 32> N   4.050180000   3.381449000  -1.013420000
| 33> *
| 34>
| 35>                          ****END OF INPUT****

CARTESIAN COORDINATES (ANGSTROEM)
---------------------------------
  C     -1.955700    2.515080    1.698463
  H     -2.923830    2.883163    2.049269
  H     -1.154850    3.171830    2.050990
  H     -1.790380    1.506115    2.087896
  C     -1.948230    2.482156    0.253672
  N     -1.937550    2.462523   -0.913150
  C      1.912641   -2.468050   -1.750510
  H      2.876947   -2.793500   -2.151200
  H      1.688016   -1.463720   -2.122170
  H      1.123460   -3.154780   -2.069590
  C      1.977850   -2.444240   -0.306900
  N      2.036566   -2.426130    0.858249
  C      4.214163    3.378139    1.593627
  H      3.242643    3.657109    2.012358
  H      4.969258    4.086643    1.941290
  H      4.482966    2.372549    1.931698
  C      4.130759    3.388436    0.150192
  N      4.050180    3.381449   -1.013420

 Total Charge           Charge          ....    0
 Multiplicity           Mult            ....    1
 Number of Electrons    NEL             ....   66
 Basis Dimension        Dim             ....  333

ORBITAL ENERGIES
----------------

  NO   OCC          E(Eh)            E(eV)
   0   2.0000     -15.572686      -423.7543
   1   2.0000     -15.572517      -423.7497
   2   2.0000     -15.571709      -423.7278
   3   2.0000     -11.285141      -307.0843
   4   2.0000     -11.284759      -307.0739
   5   2.0000     -11.280703      -306.9635
   6   2.0000     -11.279674      -306.9355
   7   2.0000     -11.279629      -306.9343
   8   2.0000     -11.279483      -306.9303
   9   2.0000      -1.214020       -33.0352
  10   2.0000      -1.213808       -33.0294
  11   2.0000      -1.213745       -33.0277
  12   2.0000      -1.043696       -28.4004
  13   2.0000      -1.043154       -28.3857
  14   2.0000      -1.040140       -28.3037
  15   2.0000      -0.700067       -19.0498
  16   2.0000      -0.699461       -19.0333
  17   2.0000      -0.696145       -18.9431
  18   2.0000      -0.632979       -17.2242
  19   2.0000      -0.631484       -17.1836
  20   2.0000      -0.630649       -17.1608
  21   2.0000      -0.630435       -17.1550
  22   2.0000      -0.628803       -17.1106
  23   2.0000      -0.626319       -17.0430
  24   2.0000      -0.555693       -15.1212
  25   2.0000      -0.555310       -15.1108
  26   2.0000      -0.555273       -15.1098
  27   2.0000      -0.457242       -12.4422
  28   2.0000      -0.457077       -12.4377
  29   2.0000      -0.456937       -12.4339
  30   2.0000      -0.456872       -12.4321
  31   2.0000      -0.456826       -12.4309
  32   2.0000      -0.456504       -12.4221
  33   0.0000       0.101098         2.7510
  34   0.0000       0.123802         3.3688
  35   0.0000       0.129103         3.5131
  36   0.0000       0.160170         4.3584
  37   0.0000       0.171096         4.6558

MULLIKEN ATOMIC CHARGES
-----------------------
   0 C :   -0.279079
   1 H :    0.172032
   2 H :    0.166737
   3 H :    0.177070
   4 C :   -0.144518
   5 N :   -0.092235
   6 C :   -0.278330
   7 H :    0.171198
   8 H :    0.183323
   9 H :    0.170838
  10 C :   -0.144670
  11 N :   -0.102368
  12 C :   -0.279260
  13 H :    0.165831
  14 H :    0.171870
  15 H :    0.177802
  16 C :   -0.145007
  17 N :   -0.091234
Sum of atomic charges:    0.0000000

LOEWDIN ATOMIC CHARGES
----------------------
   0 C :   -0.284040
   1 H :    0.152456
   2 H :    0.151280
   3 H :    0.153907
   4 C :   -0.219771
   5 N :    0.046171
   6 C :   -0.281902
   7 H :    0.152995
   8 H :    0.156470
   9 H :    0.152613
  10 C :   -0.218126
  11 N :    0.037947
  12 C :   -0.284019
  13 H :    0.151266
  14 H :    0.150892
  15 H :    0.154606
  16 C :   -0.219281
  17 N :    0.046536

  Mayer bond orders larger than 0.100000
B(  0-C ,  1-H ) :   0.9163 B(  0-C ,  2-H ) :   0.9176 B(  0-C ,  3-H ) :   0.9155
B(  0-C ,  4-C ) :   0.9016 B(  4-C ,  5-N ) :   2.8358 B(  6-C ,  7-H ) :   0.9157
B(  6-C ,  8-H ) :   0.9130 B(  6-C ,  9-H ) :   0.9158 B(  6-C , 10-C ) :   0.9024
B( 10-C , 11-N ) :   2.8431 B( 12-C , 13-H ) :   0.9176 B( 12-C , 14-H ) :   0.9167
B( 12-C , 15-H ) :   0.9151 B( 12-C , 16-C ) :   0.9028 B( 16-C , 17-N ) :   2.8361

MP2 TOTAL ENERGY:     -397.450996603 Eh
FINAL SINGLE POINT ENERGY      -397.450996602948

DIPOLE MOMENT
-------------
                                X             Y             Z
Electronic contribution:     -0.01955       0.00496      -3.17799
Nuclear contribution   :      0.03061      -0.00274       4.64959
                        -----------------------------------------
Total Dipole Moment    :      0.01105       0.00222       1.47159
                        -----------------------------------------
Magnitude (a.u.)       :      1.47164
Magnitude (Debye)      :      3.74060

Rotational constants in cm-1:     0.018081     0.016868     0.010387
Rotational constants in MHz :   542.059239   505.699493   311.400931

                             ****ORCA TERMINATED NORMALLY****
TOTAL RUN TIME: 0 days 0 hours 2 minutes 16 seconds 523 msec
