                         Program Version 4.2.0 -  RELEASE  -
|  1> # 12h2o.su.etal.mol0,1,3,4,8,9,11
|  2> ! MP2 def2-TZVP EnGrad TightSCF
|  3>
|  4> %pal
|  5>     nprocs 6
|  6> end
|  7>
|  8> %maxcore 8000
|  9>
| 10> %scf
| 11>     ConvForced true
| 12> end
| 13>
| 14> *xyz 0 1
| 15> O   1.794470000   0.923410000   2.768350000
| 16> H   2.338250000   1.359750000   3.430940000
| 17> H   0.879480000   1.303000000   2.865760000
| 18> O  -1.794470000  -0.923410000   2.768350000
| 19> H  -2.338250000  -1.359750000   3.430940000
| 20> H  -0.879480000  -1.303000000   2.865760000
| 21> O  -1.752130000  -0.741530000  -2.896280000
| 22> H  -2.036450000  -0.920500000  -1.984040000
| 23> H  -0.921210000  -1.242140000  -2.984230000
| 24> O  -0.885520000   1.737840000   0.052730000
| 25> H  -1.032320000   2.090180000  -0.841890000
| 26> H  -1.284090000   0.839590000   0.017130000
| 27> O   1.752130000   0.741530000  -2.896280000
| 28> H   2.036450000   0.920500000  -1.984040000
| 29> H   0.921210000   1.242140000  -2.984230000
| 30> O   0.741530000  -1.752130000   2.896280000
| 31> H   0.920500000  -2.036450000   1.984040000
| 32> H   1.242140000  -0.921210000   2.984230000
| 33> O  -0.741530000   1.752130000   2.896280000
| 34> H  -0.920500000   2.036450000   1.984040000
| 35> H  -1.242140000   0.921210000   2.984230000
| 36> *
| 37>
| 38>                          ****END OF INPUT****

CARTESIAN COORDINATES (ANGSTROEM)
---------------------------------
  O      1.794470    0.923410    2.768350
  H      2.338250    1.359750    3.430940
  H      0.879480    1.303000    2.865760
  O     -1.794470   -0.923410    2.768350
  H     -2.338250   -1.359750    3.430940
  H     -0.879480   -1.303000    2.865760
  O     -1.752130   -0.741530   -2.896280
  H     -2.036450   -0.920500   -1.984040
  H     -0.921210   -1.242140   -2.984230
  O     -0.885520    1.737840    0.052730
  H     -1.032320    2.090180   -0.841890
  H     -1.284090    0.839590    0.017130
  O      1.752130    0.741530   -2.896280
  H      2.036450    0.920500   -1.984040
  H      0.921210    1.242140   -2.984230
  O      0.741530   -1.752130    2.896280
  H      0.920500   -2.036450    1.984040
  H      1.242140   -0.921210    2.984230
  O     -0.741530    1.752130    2.896280
  H     -0.920500    2.036450    1.984040
  H     -1.242140    0.921210    2.984230

 Total Charge           Charge          ....    0
 Multiplicity           Mult            ....    1
 Number of Electrons    NEL             ....   70
 Basis Dimension        Dim             ....  301

ORBITAL ENERGIES
----------------

  NO   OCC          E(Eh)            E(eV)
   0   2.0000     -20.597592      -560.4890
   1   2.0000     -20.580362      -560.0201
   2   2.0000     -20.573939      -559.8453
   3   2.0000     -20.568045      -559.6849
   4   2.0000     -20.554709      -559.3221
   5   2.0000     -20.547717      -559.1318
   6   2.0000     -20.543267      -559.0107
   7   2.0000      -1.376115       -37.4460
   8   2.0000      -1.366506       -37.1845
   9   2.0000      -1.359334       -36.9894
  10   2.0000      -1.347110       -36.6567
  11   2.0000      -1.344315       -36.5807
  12   2.0000      -1.335869       -36.3508
  13   2.0000      -1.320559       -35.9342
  14   2.0000      -0.738801       -20.1038
  15   2.0000      -0.725732       -19.7482
  16   2.0000      -0.722164       -19.6511
  17   2.0000      -0.721762       -19.6402
  18   2.0000      -0.709573       -19.3085
  19   2.0000      -0.706103       -19.2140
  20   2.0000      -0.703028       -19.1304
  21   2.0000      -0.628255       -17.0957
  22   2.0000      -0.613633       -16.6978
  23   2.0000      -0.596840       -16.2408
  24   2.0000      -0.585078       -15.9208
  25   2.0000      -0.584761       -15.9122
  26   2.0000      -0.581567       -15.8252
  27   2.0000      -0.552072       -15.0226
  28   2.0000      -0.539928       -14.6922
  29   2.0000      -0.524756       -14.2793
  30   2.0000      -0.514606       -14.0031
  31   2.0000      -0.511426       -13.9166
  32   2.0000      -0.504150       -13.7186
  33   2.0000      -0.494157       -13.4467
  34   2.0000      -0.492259       -13.3951
  35   0.0000       0.074309         2.0220
  36   0.0000       0.122321         3.3285
  37   0.0000       0.131927         3.5899
  38   0.0000       0.149473         4.0674
  39   0.0000       0.159613         4.3433

MULLIKEN ATOMIC CHARGES
-----------------------
   0 O :   -0.748323
   1 H :    0.339527
   2 H :    0.383884
   3 O :   -0.750247
   4 H :    0.344418
   5 H :    0.378756
   6 O :   -0.678505
   7 H :    0.330040
   8 H :    0.351103
   9 O :   -0.694641
  10 H :    0.350716
  11 H :    0.347087
  12 O :   -0.680077
  13 H :    0.344784
  14 H :    0.335016
  15 O :   -0.706836
  16 H :    0.348672
  17 H :    0.380165
  18 O :   -0.724191
  19 H :    0.382876
  20 H :    0.365774
Sum of atomic charges:    0.0000000

LOEWDIN ATOMIC CHARGES
----------------------
   0 O :   -0.343669
   1 H :    0.154746
   2 H :    0.145647
   3 O :   -0.345718
   4 H :    0.157036
   5 H :    0.144531
   6 O :   -0.328998
   7 H :    0.160276
   8 H :    0.170939
   9 O :   -0.314590
  10 H :    0.169343
  11 H :    0.173859
  12 O :   -0.330972
  13 H :    0.167721
  14 H :    0.162568
  15 O :   -0.283926
  16 H :    0.168905
  17 H :    0.155125
  18 O :   -0.288235
  19 H :    0.156622
  20 H :    0.148790

  Mayer bond orders larger than 0.100000
B(  0-O ,  1-H ) :   0.8492 B(  0-O ,  2-H ) :   0.7405 B(  2-H , 18-O ) :   0.1165
B(  3-O ,  4-H ) :   0.8469 B(  3-O ,  5-H ) :   0.7482 B(  5-H , 15-O ) :   0.1111
B(  6-O ,  7-H ) :   0.8554 B(  6-O ,  8-H ) :   0.8408 B(  9-O , 10-H ) :   0.8407
B(  9-O , 11-H ) :   0.8361 B( 12-O , 13-H ) :   0.8477 B( 12-O , 14-H ) :   0.8510
B( 15-O , 16-H ) :   0.8432 B( 15-O , 17-H ) :   0.7768 B( 18-O , 19-H ) :   0.8092
B( 18-O , 20-H ) :   0.7956

MP2 TOTAL ENERGY:     -534.249631997 Eh
FINAL SINGLE POINT ENERGY      -534.249631997499

DIPOLE MOMENT
-------------
                                X             Y             Z
Electronic contribution:      0.08046       0.11397      -0.22825
Nuclear contribution   :     -0.45394      -0.45439       0.49091
                        -----------------------------------------
Total Dipole Moment    :     -0.37349      -0.34042       0.26266
                        -----------------------------------------
Magnitude (a.u.)       :      0.56954
Magnitude (Debye)      :      1.44765

Rotational constants in cm-1:     0.035928     0.017134     0.015681
Rotational constants in MHz :  1077.079584   513.677353   470.090061

                             ****ORCA TERMINATED NORMALLY****
TOTAL RUN TIME: 0 days 0 hours 1 minutes 34 seconds 903 msec
