                         Program Version 4.2.0 -  RELEASE  -
|  1> # 12h2o.su.etal.mol2,4,5,7,9,11
|  2> ! MP2 def2-TZVP EnGrad TightSCF
|  3>
|  4> %pal
|  5>     nprocs 6
|  6> end
|  7>
|  8> %maxcore 8000
|  9>
| 10> %scf
| 11>     ConvForced true
| 12> end
| 13>
| 14> *xyz 0 1
| 15> O   0.923410000  -1.794470000  -2.768350000
| 16> H   1.359750000  -2.338250000  -3.430940000
| 17> H   1.303000000  -0.879480000  -2.865760000
| 18> O  -0.885520000   1.737840000   0.052730000
| 19> H  -1.032320000   2.090180000  -0.841890000
| 20> H  -1.284090000   0.839590000   0.017130000
| 21> O   0.885520000  -1.737840000   0.052730000
| 22> H   1.284090000  -0.839590000   0.017130000
| 23> H   1.032320000  -2.090180000  -0.841890000
| 24> O  -1.737840000  -0.885520000  -0.052730000
| 25> H  -2.090180000  -1.032320000   0.841890000
| 26> H  -0.839590000  -1.284090000  -0.017130000
| 27> O   0.741530000  -1.752130000   2.896280000
| 28> H   0.920500000  -2.036450000   1.984040000
| 29> H   1.242140000  -0.921210000   2.984230000
| 30> O  -0.741530000   1.752130000   2.896280000
| 31> H  -0.920500000   2.036450000   1.984040000
| 32> H  -1.242140000   0.921210000   2.984230000
| 33> *
| 34>
| 35>                          ****END OF INPUT****

CARTESIAN COORDINATES (ANGSTROEM)
---------------------------------
  O      0.923410   -1.794470   -2.768350
  H      1.359750   -2.338250   -3.430940
  H      1.303000   -0.879480   -2.865760
  O     -0.885520    1.737840    0.052730
  H     -1.032320    2.090180   -0.841890
  H     -1.284090    0.839590    0.017130
  O      0.885520   -1.737840    0.052730
  H      1.284090   -0.839590    0.017130
  H      1.032320   -2.090180   -0.841890
  O     -1.737840   -0.885520   -0.052730
  H     -2.090180   -1.032320    0.841890
  H     -0.839590   -1.284090   -0.017130
  O      0.741530   -1.752130    2.896280
  H      0.920500   -2.036450    1.984040
  H      1.242140   -0.921210    2.984230
  O     -0.741530    1.752130    2.896280
  H     -0.920500    2.036450    1.984040
  H     -1.242140    0.921210    2.984230

 Total Charge           Charge          ....    0
 Multiplicity           Mult            ....    1
 Number of Electrons    NEL             ....   60
 Basis Dimension        Dim             ....  258

ORBITAL ENERGIES
----------------

  NO   OCC          E(Eh)            E(eV)
   0   2.0000     -20.614620      -560.9523
   1   2.0000     -20.600124      -560.5579
   2   2.0000     -20.564609      -559.5915
   3   2.0000     -20.552394      -559.2591
   4   2.0000     -20.537932      -558.8655
   5   2.0000     -20.524658      -558.5043
   6   2.0000      -1.395542       -37.9746
   7   2.0000      -1.383536       -37.6479
   8   2.0000      -1.352251       -36.7966
   9   2.0000      -1.333235       -36.2792
  10   2.0000      -1.319846       -35.9148
  11   2.0000      -1.305897       -35.5353
  12   2.0000      -0.760473       -20.6935
  13   2.0000      -0.747804       -20.3488
  14   2.0000      -0.718940       -19.5634
  15   2.0000      -0.708163       -19.2701
  16   2.0000      -0.690984       -18.8026
  17   2.0000      -0.674682       -18.3590
  18   2.0000      -0.641918       -17.4675
  19   2.0000      -0.619292       -16.8518
  20   2.0000      -0.602812       -16.4034
  21   2.0000      -0.581402       -15.8208
  22   2.0000      -0.561988       -15.2925
  23   2.0000      -0.550406       -14.9773
  24   2.0000      -0.541817       -14.7436
  25   2.0000      -0.535197       -14.5635
  26   2.0000      -0.508730       -13.8433
  27   2.0000      -0.499768       -13.5994
  28   2.0000      -0.485055       -13.1990
  29   2.0000      -0.470389       -12.7999
  30   0.0000       0.078056         2.1240
  31   0.0000       0.118299         3.2191
  32   0.0000       0.145731         3.9655
  33   0.0000       0.151894         4.1332
  34   0.0000       0.175765         4.7828

MULLIKEN ATOMIC CHARGES
-----------------------
   0 O :   -0.696063
   1 H :    0.360528
   2 H :    0.355835
   3 O :   -0.731876
   4 H :    0.335710
   5 H :    0.353320
   6 O :   -0.728623
   7 H :    0.352592
   8 H :    0.391607
   9 O :   -0.711157
  10 H :    0.348913
  11 H :    0.379503
  12 O :   -0.702610
  13 H :    0.366663
  14 H :    0.334550
  15 O :   -0.700771
  16 H :    0.372279
  17 H :    0.319599
Sum of atomic charges:    0.0000000

LOEWDIN ATOMIC CHARGES
----------------------
   0 O :   -0.308575
   1 H :    0.167680
   2 H :    0.186560
   3 O :   -0.345822
   4 H :    0.161618
   5 H :    0.141506
   6 O :   -0.282026
   7 H :    0.175370
   8 H :    0.158499
   9 O :   -0.306184
  10 H :    0.165896
  11 H :    0.146701
  12 O :   -0.339520
  13 H :    0.148774
  14 H :    0.162646
  15 O :   -0.341371
  16 H :    0.153117
  17 H :    0.155132

  Mayer bond orders larger than 0.100000
B(  0-O ,  1-H ) :   0.8373 B(  0-O ,  2-H ) :   0.8336 B(  3-O ,  4-H ) :   0.8508
B(  3-O ,  5-H ) :   0.7683 B(  5-H ,  9-O ) :   0.1069 B(  6-O ,  7-H ) :   0.8303
B(  6-O ,  8-H ) :   0.7887 B(  9-O , 10-H ) :   0.8414 B(  9-O , 11-H ) :   0.7783
B( 12-O , 13-H ) :   0.8245 B( 12-O , 14-H ) :   0.8504 B( 15-O , 16-H ) :   0.8157
B( 15-O , 17-H ) :   0.8595

MP2 TOTAL ENERGY:     -457.921981587 Eh
FINAL SINGLE POINT ENERGY      -457.921981586807

DIPOLE MOMENT
-------------
                                X             Y             Z
Electronic contribution:      0.00320      -0.38531      -0.13315
Nuclear contribution   :      1.13354      -0.14496      -2.77909
                        -----------------------------------------
Total Dipole Moment    :      1.13674      -0.53028      -2.91224
                        -----------------------------------------
Magnitude (a.u.)       :      3.17088
Magnitude (Debye)      :      8.05975

Rotational constants in cm-1:     0.055529     0.030158     0.022688
Rotational constants in MHz :  1664.719113   904.123839   680.169484

                             ****ORCA TERMINATED NORMALLY****
TOTAL RUN TIME: 0 days 0 hours 1 minutes 6 seconds 714 msec
