                         Program Version 4.2.0 -  RELEASE  -
|  1> # 12h2o.su.etal.mol0,3,4,5,6,7,8,10,11
|  2> ! MP2 def2-TZVP EnGrad TightSCF
|  3>
|  4> %pal
|  5>     nprocs 6
|  6> end
|  7>
|  8> %maxcore 8000
|  9>
| 10> %scf
| 11>     ConvForced true
| 12> end
| 13>
| 14> *xyz 0 1
| 15> O   1.794470000   0.923410000   2.768350000
| 16> H   2.338250000   1.359750000   3.430940000
| 17> H   0.879480000   1.303000000   2.865760000
| 18> O  -1.752130000  -0.741530000  -2.896280000
| 19> H  -2.036450000  -0.920500000  -1.984040000
| 20> H  -0.921210000  -1.242140000  -2.984230000
| 21> O  -0.885520000   1.737840000   0.052730000
| 22> H  -1.032320000   2.090180000  -0.841890000
| 23> H  -1.284090000   0.839590000   0.017130000
| 24> O   0.885520000  -1.737840000   0.052730000
| 25> H   1.284090000  -0.839590000   0.017130000
| 26> H   1.032320000  -2.090180000  -0.841890000
| 27> O   1.737840000   0.885520000  -0.052730000
| 28> H   2.090180000   1.032320000   0.841890000
| 29> H   0.839590000   1.284090000  -0.017130000
| 30> O  -1.737840000  -0.885520000  -0.052730000
| 31> H  -2.090180000  -1.032320000   0.841890000
| 32> H  -0.839590000  -1.284090000  -0.017130000
| 33> O   1.752130000   0.741530000  -2.896280000
| 34> H   2.036450000   0.920500000  -1.984040000
| 35> H   0.921210000   1.242140000  -2.984230000
| 36> O  -0.923410000   1.794470000  -2.768350000
| 37> H  -1.359750000   2.338250000  -3.430940000
| 38> H  -1.303000000   0.879480000  -2.865760000
| 39> O  -0.741530000   1.752130000   2.896280000
| 40> H  -0.920500000   2.036450000   1.984040000
| 41> H  -1.242140000   0.921210000   2.984230000
| 42> *
| 43>
| 44>                          ****END OF INPUT****

CARTESIAN COORDINATES (ANGSTROEM)
---------------------------------
  O      1.794470    0.923410    2.768350
  H      2.338250    1.359750    3.430940
  H      0.879480    1.303000    2.865760
  O     -1.752130   -0.741530   -2.896280
  H     -2.036450   -0.920500   -1.984040
  H     -0.921210   -1.242140   -2.984230
  O     -0.885520    1.737840    0.052730
  H     -1.032320    2.090180   -0.841890
  H     -1.284090    0.839590    0.017130
  O      0.885520   -1.737840    0.052730
  H      1.284090   -0.839590    0.017130
  H      1.032320   -2.090180   -0.841890
  O      1.737840    0.885520   -0.052730
  H      2.090180    1.032320    0.841890
  H      0.839590    1.284090   -0.017130
  O     -1.737840   -0.885520   -0.052730
  H     -2.090180   -1.032320    0.841890
  H     -0.839590   -1.284090   -0.017130
  O      1.752130    0.741530   -2.896280
  H      2.036450    0.920500   -1.984040
  H      0.921210    1.242140   -2.984230
  O     -0.923410    1.794470   -2.768350
  H     -1.359750    2.338250   -3.430940
  H     -1.303000    0.879480   -2.865760
  O     -0.741530    1.752130    2.896280
  H     -0.920500    2.036450    1.984040
  H     -1.242140    0.921210    2.984230

 Total Charge           Charge          ....    0
 Multiplicity           Mult            ....    1
 Number of Electrons    NEL             ....   90
 Basis Dimension        Dim             ....  387

ORBITAL ENERGIES
----------------

  NO   OCC          E(Eh)            E(eV)
   0   2.0000     -20.603778      -560.6573
   1   2.0000     -20.590725      -560.3021
   2   2.0000     -20.586155      -560.1777
   3   2.0000     -20.572475      -559.8055
   4   2.0000     -20.571025      -559.7661
   5   2.0000     -20.568139      -559.6875
   6   2.0000     -20.547838      -559.1351
   7   2.0000     -20.545016      -559.0583
   8   2.0000     -20.509706      -558.0975
   9   2.0000      -1.397489       -38.0276
  10   2.0000      -1.380095       -37.5543
  11   2.0000      -1.377617       -37.4869
  12   2.0000      -1.364542       -37.1311
  13   2.0000      -1.355137       -36.8752
  14   2.0000      -1.351697       -36.7816
  15   2.0000      -1.336554       -36.3695
  16   2.0000      -1.324898       -36.0523
  17   2.0000      -1.294607       -35.2281
  18   2.0000      -0.758999       -20.6534
  19   2.0000      -0.743577       -20.2338
  20   2.0000      -0.739176       -20.1140
  21   2.0000      -0.736493       -20.0410
  22   2.0000      -0.730008       -19.8645
  23   2.0000      -0.718287       -19.5456
  24   2.0000      -0.714161       -19.4333
  25   2.0000      -0.710222       -19.3261
  26   2.0000      -0.672532       -18.3005
  27   2.0000      -0.658557       -17.9202
  28   2.0000      -0.631146       -17.1743
  29   2.0000      -0.621072       -16.9002
  30   2.0000      -0.606785       -16.5115
  31   2.0000      -0.606344       -16.4995
  32   2.0000      -0.588805       -16.0222
  33   2.0000      -0.583046       -15.8655
  34   2.0000      -0.567114       -15.4320
  35   2.0000      -0.547247       -14.8913
  36   2.0000      -0.536978       -14.6119
  37   2.0000      -0.528739       -14.3877
  38   2.0000      -0.522185       -14.2094
  39   2.0000      -0.516919       -14.0661
  40   2.0000      -0.515200       -14.0193
  41   2.0000      -0.512089       -13.9346
  42   2.0000      -0.496507       -13.5106
  43   2.0000      -0.493197       -13.4206
  44   2.0000      -0.459771       -12.5110
  45   0.0000       0.082616         2.2481
  46   0.0000       0.115253         3.1362
  47   0.0000       0.140925         3.8348
  48   0.0000       0.148947         4.0530
  49   0.0000       0.185836         5.0569

MULLIKEN ATOMIC CHARGES
-----------------------
   0 O :   -0.739757
   1 H :    0.338248
   2 H :    0.373907
   3 O :   -0.698472
   4 H :    0.389704
   5 H :    0.355034
   6 O :   -0.758099
   7 H :    0.390396
   8 H :    0.353643
   9 O :   -0.717399
  10 H :    0.387786
  11 H :    0.344950
  12 O :   -0.759758
  13 H :    0.385587
  14 H :    0.361029
  15 O :   -0.742402
  16 H :    0.357595
  17 H :    0.371810
  18 O :   -0.736734
  19 H :    0.370813
  20 H :    0.347748
  21 O :   -0.754407
  22 H :    0.351840
  23 H :    0.386495
  24 O :   -0.691010
  25 H :    0.393016
  26 H :    0.338438
Sum of atomic charges:   -0.0000000

LOEWDIN ATOMIC CHARGES
----------------------
   0 O :   -0.341172
   1 H :    0.154696
   2 H :    0.144445
   3 O :   -0.271909
   4 H :    0.158829
   5 H :    0.172511
   6 O :   -0.302960
   7 H :    0.155294
   8 H :    0.138613
   9 O :   -0.305392
  10 H :    0.148795
  11 H :    0.163583
  12 O :   -0.301458
  13 H :    0.153559
  14 H :    0.140195
  15 O :   -0.297961
  16 H :    0.169759
  17 H :    0.146438
  18 O :   -0.358638
  19 H :    0.148150
  20 H :    0.140109
  21 O :   -0.313808
  22 H :    0.160059
  23 H :    0.147063
  24 O :   -0.274062
  25 H :    0.158923
  26 H :    0.166339

  Mayer bond orders larger than 0.100000
B(  0-O ,  1-H ) :   0.8501 B(  0-O ,  2-H ) :   0.7610 B(  3-O ,  4-H ) :   0.8011
B(  3-O ,  5-H ) :   0.8340 B(  6-O ,  7-H ) :   0.7877 B(  6-O ,  8-H ) :   0.7724
B(  9-O , 10-H ) :   0.7508 B(  9-O , 11-H ) :   0.8430 B(  9-O , 17-H ) :   0.1355
B( 10-H , 12-O ) :   0.1046 B( 12-O , 13-H ) :   0.7880 B( 12-O , 14-H ) :   0.7688
B( 15-O , 16-H ) :   0.8361 B( 15-O , 17-H ) :   0.7354 B( 18-O , 19-H ) :   0.8189
B( 18-O , 20-H ) :   0.8252 B( 21-O , 22-H ) :   0.8398 B( 21-O , 23-H ) :   0.7405
B( 24-O , 25-H ) :   0.7928 B( 24-O , 26-H ) :   0.8478

MP2 TOTAL ENERGY:     -686.933558645 Eh
FINAL SINGLE POINT ENERGY      -686.933558645269

DIPOLE MOMENT
-------------
                                X             Y             Z
Electronic contribution:     -0.16696      -0.08426       0.02739
Nuclear contribution   :     -1.55378      -0.08480       0.68611
                        -----------------------------------------
Total Dipole Moment    :     -1.72075      -0.16907       0.71350
                        -----------------------------------------
Magnitude (a.u.)       :      1.87046
Magnitude (Debye)      :      4.75434

Rotational constants in cm-1:     0.030931     0.017081     0.015937
Rotational constants in MHz :   927.284128   512.089476   477.779921

                             ****ORCA TERMINATED NORMALLY****
TOTAL RUN TIME: 0 days 0 hours 5 minutes 17 seconds 378 msec
