                         Program Version 4.2.0 -  RELEASE  -
|  1> # 12meoh.boyd.etal.mol4,9
|  2> ! MP2 def2-TZVP EnGrad TightSCF
|  3>
|  4> %pal
|  5>     nprocs 6
|  6> end
|  7>
|  8> %maxcore 8000
|  9>
| 10> %scf
| 11>     ConvForced true
| 12> end
| 13>
| 14> *xyz 0 1
| 15> O  -1.358578914   1.232360421   1.189721000
| 16> H  -1.058250183   1.216459361   0.238591307
| 17> C  -0.389763452   1.957872567   1.943072362
| 18> H  -0.747220771   2.012806578   2.975200343
| 19> H  -0.260410585   2.982763209   1.565366540
| 20> H   0.585220638   1.453754179   1.934070793
| 21> O   1.390610024   3.194080770  -1.536658882
| 22> H   2.162932299   2.881562730  -0.993525056
| 23> C   1.202977189   4.580367182  -1.302880219
| 24> H   0.374773115   4.915764831  -1.934164643
| 25> H   2.098649340   5.157710875  -1.570472348
| 26> H   0.950320401   4.800436015  -0.254328827
| 27> *
| 28>
| 29>                          ****END OF INPUT****

CARTESIAN COORDINATES (ANGSTROEM)
---------------------------------
  O     -1.358579    1.232360    1.189721
  H     -1.058250    1.216459    0.238591
  C     -0.389763    1.957873    1.943072
  H     -0.747221    2.012807    2.975200
  H     -0.260411    2.982763    1.565367
  H      0.585221    1.453754    1.934071
  O      1.390610    3.194081   -1.536659
  H      2.162932    2.881563   -0.993525
  C      1.202977    4.580367   -1.302880
  H      0.374773    4.915765   -1.934165
  H      2.098649    5.157711   -1.570472
  H      0.950320    4.800436   -0.254329

 Total Charge           Charge          ....    0
 Multiplicity           Mult            ....    1
 Number of Electrons    NEL             ....   36
 Basis Dimension        Dim             ....  172

ORBITAL ENERGIES
----------------

  NO   OCC          E(Eh)            E(eV)
   0   2.0000     -20.567766      -559.6774
   1   2.0000     -20.552761      -559.2690
   2   2.0000     -11.279003      -306.9173
   3   2.0000     -11.269762      -306.6658
   4   2.0000      -1.358032       -36.9539
   5   2.0000      -1.340463       -36.4759
   6   2.0000      -0.927486       -25.2382
   7   2.0000      -0.916720       -24.9452
   8   2.0000      -0.691992       -18.8300
   9   2.0000      -0.676477       -18.4079
  10   2.0000      -0.625850       -17.0302
  11   2.0000      -0.613476       -16.6935
  12   2.0000      -0.601118       -16.3573
  13   2.0000      -0.586407       -15.9569
  14   2.0000      -0.507968       -13.8225
  15   2.0000      -0.497006       -13.5242
  16   2.0000      -0.457816       -12.4578
  17   2.0000      -0.445492       -12.1225
  18   0.0000       0.113131         3.0784
  19   0.0000       0.159061         4.3283
  20   0.0000       0.166915         4.5420
  21   0.0000       0.179749         4.8912
  22   0.0000       0.216095         5.8802

MULLIKEN ATOMIC CHARGES
-----------------------
   0 O :   -0.502508
   1 H :    0.329106
   2 C :   -0.167318
   3 H :    0.129898
   4 H :    0.104028
   5 H :    0.102884
   6 O :   -0.502239
   7 H :    0.324554
   8 C :   -0.173497
   9 H :    0.133062
  10 H :    0.116443
  11 H :    0.105587
Sum of atomic charges:   -0.0000000

LOEWDIN ATOMIC CHARGES
----------------------
   0 O :   -0.112149
   1 H :    0.194353
   2 C :   -0.382049
   3 H :    0.109603
   4 H :    0.094093
   5 H :    0.093516
   6 O :   -0.106237
   7 H :    0.191328
   8 C :   -0.384984
   9 H :    0.111933
  10 H :    0.097243
  11 H :    0.093350

  Mayer bond orders larger than 0.100000
B(  0-O ,  1-H ) :   0.8367 B(  0-O ,  2-C ) :   0.9304 B(  2-C ,  3-H ) :   0.9372
B(  2-C ,  4-H ) :   0.9392 B(  2-C ,  5-H ) :   0.9406 B(  6-O ,  7-H ) :   0.8396
B(  6-O ,  8-C ) :   0.9195 B(  8-C ,  9-H ) :   0.9377 B(  8-C , 10-H ) :   0.9416
B(  8-C , 11-H ) :   0.9352

MP2 TOTAL ENERGY:     -231.015511649 Eh
FINAL SINGLE POINT ENERGY      -231.015511648789

DIPOLE MOMENT
-------------
                                X             Y             Z
Electronic contribution:     -1.17191      -2.66285      -1.25382
Nuclear contribution   :      2.15727       3.34166       1.35053
                        -----------------------------------------
Total Dipole Moment    :      0.98537       0.67880       0.09671
                        -----------------------------------------
Magnitude (a.u.)       :      1.20045
Magnitude (Debye)      :      3.05130

Rotational constants in cm-1:     0.431951     0.052929     0.050878
Rotational constants in MHz : 12949.571590  1586.769166  1525.295483

                             ****ORCA TERMINATED NORMALLY****
TOTAL RUN TIME: 0 days 0 hours 0 minutes 24 seconds 324 msec
