                         Program Version 4.2.0 -  RELEASE  -
|  1> # 12mecn.remya.etal.2.mol6,7,8
|  2> ! MP2 def2-TZVP EnGrad TightSCF
|  3>
|  4> %pal
|  5>     nprocs 6
|  6> end
|  7>
|  8> %maxcore 8000
|  9>
| 10> %scf
| 11>     ConvForced true
| 12> end
| 13>
| 14> *xyz 0 1
| 15> C   5.300864000  -2.920090000   1.401103000
| 16> H   5.986071000  -2.139770000   1.737487000
| 17> H   5.636642000  -3.888750000   1.778233000
| 18> H   4.307359000  -2.697240000   1.799307000
| 19> C   5.234791000  -2.933140000  -0.043290000
| 20> N   5.170868000  -2.941760000  -1.207750000
| 21> C   1.502241000   0.651296000   1.710523000
| 22> H   1.309219000   1.637164000   2.143202000
| 23> H   2.493408000   0.297996000   2.009069000
| 24> H   0.746597000  -0.059850000   2.055508000
| 25> C   1.447974000   0.738517000   0.269805000
| 26> N   1.405612000   0.808047000  -0.894380000
| 27> C   1.912641000  -2.468050000  -1.750510000
| 28> H   2.876947000  -2.793500000  -2.151200000
| 29> H   1.688016000  -1.463720000  -2.122170000
| 30> H   1.123460000  -3.154780000  -2.069590000
| 31> C   1.977850000  -2.444240000  -0.306900000
| 32> N   2.036566000  -2.426130000   0.858249000
| 33> *
| 34>
| 35>                          ****END OF INPUT****

CARTESIAN COORDINATES (ANGSTROEM)
---------------------------------
  C      5.300864   -2.920090    1.401103
  H      5.986071   -2.139770    1.737487
  H      5.636642   -3.888750    1.778233
  H      4.307359   -2.697240    1.799307
  C      5.234791   -2.933140   -0.043290
  N      5.170868   -2.941760   -1.207750
  C      1.502241    0.651296    1.710523
  H      1.309219    1.637164    2.143202
  H      2.493408    0.297996    2.009069
  H      0.746597   -0.059850    2.055508
  C      1.447974    0.738517    0.269805
  N      1.405612    0.808047   -0.894380
  C      1.912641   -2.468050   -1.750510
  H      2.876947   -2.793500   -2.151200
  H      1.688016   -1.463720   -2.122170
  H      1.123460   -3.154780   -2.069590
  C      1.977850   -2.444240   -0.306900
  N      2.036566   -2.426130    0.858249

 Total Charge           Charge          ....    0
 Multiplicity           Mult            ....    1
 Number of Electrons    NEL             ....   66
 Basis Dimension        Dim             ....  333

ORBITAL ENERGIES
----------------

  NO   OCC          E(Eh)            E(eV)
   0   2.0000     -15.571718      -423.7280
   1   2.0000     -15.569617      -423.6708
   2   2.0000     -15.569039      -423.6551
   3   2.0000     -11.285304      -307.0887
   4   2.0000     -11.282854      -307.0221
   5   2.0000     -11.280882      -306.9684
   6   2.0000     -11.275560      -306.8236
   7   2.0000     -11.274317      -306.7898
   8   2.0000     -11.260200      -306.4056
   9   2.0000      -1.219539       -33.1853
  10   2.0000      -1.215496       -33.0753
  11   2.0000      -1.212535       -32.9948
  12   2.0000      -1.037537       -28.2328
  13   2.0000      -1.036974       -28.2175
  14   2.0000      -1.026625       -27.9359
  15   2.0000      -0.696608       -18.9557
  16   2.0000      -0.693072       -18.8595
  17   2.0000      -0.684878       -18.6365
  18   2.0000      -0.629993       -17.1430
  19   2.0000      -0.629271       -17.1233
  20   2.0000      -0.625166       -17.0116
  21   2.0000      -0.622960       -16.9516
  22   2.0000      -0.611947       -16.6519
  23   2.0000      -0.608477       -16.5575
  24   2.0000      -0.560485       -15.2516
  25   2.0000      -0.556187       -15.1346
  26   2.0000      -0.554782       -15.0964
  27   2.0000      -0.463417       -12.6102
  28   2.0000      -0.459516       -12.5041
  29   2.0000      -0.458595       -12.4790
  30   2.0000      -0.456799       -12.4301
  31   2.0000      -0.455828       -12.4037
  32   2.0000      -0.451364       -12.2822
  33   0.0000       0.115656         3.1472
  34   0.0000       0.143062         3.8929
  35   0.0000       0.155402         4.2287
  36   0.0000       0.165303         4.4981
  37   0.0000       0.172788         4.7018

MULLIKEN ATOMIC CHARGES
-----------------------
   0 C :   -0.292713
   1 H :    0.166269
   2 H :    0.169454
   3 H :    0.199957
   4 C :   -0.100429
   5 N :   -0.143068
   6 C :   -0.253718
   7 H :    0.172838
   8 H :    0.165048
   9 H :    0.178463
  10 C :   -0.124746
  11 N :   -0.137909
  12 C :   -0.293459
  13 H :    0.201107
  14 H :    0.199688
  15 H :    0.160711
  16 C :   -0.063847
  17 N :   -0.203645
Sum of atomic charges:    0.0000000

LOEWDIN ATOMIC CHARGES
----------------------
   0 C :   -0.284365
   1 H :    0.149959
   2 H :    0.151376
   3 H :    0.154719
   4 C :   -0.207844
   5 N :    0.035630
   6 C :   -0.285537
   7 H :    0.149913
   8 H :    0.153455
   9 H :    0.156510
  10 C :   -0.213073
  11 N :    0.033998
  12 C :   -0.280102
  13 H :    0.156748
  14 H :    0.157571
  15 H :    0.150240
  16 C :   -0.198724
  17 N :    0.019525

  Mayer bond orders larger than 0.100000
B(  0-C ,  1-H ) :   0.9173 B(  0-C ,  2-H ) :   0.9146 B(  0-C ,  3-H ) :   0.9040
B(  0-C ,  4-C ) :   0.9011 B(  4-C ,  5-N ) :   2.7691 B(  6-C ,  7-H ) :   0.9107
B(  6-C ,  8-H ) :   0.9158 B(  6-C ,  9-H ) :   0.9130 B(  6-C , 10-C ) :   0.9100
B( 10-C , 11-N ) :   2.7816 B( 12-C , 13-H ) :   0.9012 B( 12-C , 14-H ) :   0.9038
B( 12-C , 15-H ) :   0.9136 B( 12-C , 16-C ) :   0.8971 B( 16-C , 17-N ) :   2.7181

MP2 TOTAL ENERGY:     -397.467317574 Eh
FINAL SINGLE POINT ENERGY      -397.467317574249

DIPOLE MOMENT
-------------
                                X             Y             Z
Electronic contribution:     -0.11445       0.19268      -3.17796
Nuclear contribution   :      0.16153      -0.29529       4.63424
                        -----------------------------------------
Total Dipole Moment    :      0.04709      -0.10260       1.45628
                        -----------------------------------------
Magnitude (a.u.)       :      1.46065
Magnitude (Debye)      :      3.71269

Rotational constants in cm-1:     0.060250     0.025489     0.021906
Rotational constants in MHz :  1806.243225   764.152633   656.711635

                             ****ORCA TERMINATED NORMALLY****
TOTAL RUN TIME: 0 days 0 hours 4 minutes 27 seconds 539 msec
