                         Program Version 4.2.0 -  RELEASE  -
|  1> # 12h2o.su.etal.mol3,4,5,8,10
|  2> ! MP2 def2-TZVP EnGrad TightSCF
|  3>
|  4> %pal
|  5>     nprocs 6
|  6> end
|  7>
|  8> %maxcore 8000
|  9>
| 10> %scf
| 11>     ConvForced true
| 12> end
| 13>
| 14> *xyz 0 1
| 15> O  -1.752130000  -0.741530000  -2.896280000
| 16> H  -2.036450000  -0.920500000  -1.984040000
| 17> H  -0.921210000  -1.242140000  -2.984230000
| 18> O  -0.885520000   1.737840000   0.052730000
| 19> H  -1.032320000   2.090180000  -0.841890000
| 20> H  -1.284090000   0.839590000   0.017130000
| 21> O   0.885520000  -1.737840000   0.052730000
| 22> H   1.284090000  -0.839590000   0.017130000
| 23> H   1.032320000  -2.090180000  -0.841890000
| 24> O   1.752130000   0.741530000  -2.896280000
| 25> H   2.036450000   0.920500000  -1.984040000
| 26> H   0.921210000   1.242140000  -2.984230000
| 27> O  -0.923410000   1.794470000  -2.768350000
| 28> H  -1.359750000   2.338250000  -3.430940000
| 29> H  -1.303000000   0.879480000  -2.865760000
| 30> *
| 31>
| 32>                          ****END OF INPUT****

CARTESIAN COORDINATES (ANGSTROEM)
---------------------------------
  O     -1.752130   -0.741530   -2.896280
  H     -2.036450   -0.920500   -1.984040
  H     -0.921210   -1.242140   -2.984230
  O     -0.885520    1.737840    0.052730
  H     -1.032320    2.090180   -0.841890
  H     -1.284090    0.839590    0.017130
  O      0.885520   -1.737840    0.052730
  H      1.284090   -0.839590    0.017130
  H      1.032320   -2.090180   -0.841890
  O      1.752130    0.741530   -2.896280
  H      2.036450    0.920500   -1.984040
  H      0.921210    1.242140   -2.984230
  O     -0.923410    1.794470   -2.768350
  H     -1.359750    2.338250   -3.430940
  H     -1.303000    0.879480   -2.865760

 Total Charge           Charge          ....    0
 Multiplicity           Mult            ....    1
 Number of Electrons    NEL             ....   50
 Basis Dimension        Dim             ....  215

ORBITAL ENERGIES
----------------

  NO   OCC          E(Eh)            E(eV)
   0   2.0000     -20.620673      -561.1170
   1   2.0000     -20.578859      -559.9792
   2   2.0000     -20.576147      -559.9054
   3   2.0000     -20.548504      -559.1532
   4   2.0000     -20.545926      -559.0831
   5   2.0000      -1.406895       -38.2836
   6   2.0000      -1.365346       -37.1530
   7   2.0000      -1.351835       -36.7853
   8   2.0000      -1.330357       -36.2008
   9   2.0000      -1.324400       -36.0388
  10   2.0000      -0.762888       -20.7592
  11   2.0000      -0.747409       -20.3380
  12   2.0000      -0.713905       -19.4263
  13   2.0000      -0.699909       -19.0455
  14   2.0000      -0.693915       -18.8824
  15   2.0000      -0.648291       -17.6409
  16   2.0000      -0.609926       -16.5969
  17   2.0000      -0.591219       -16.0879
  18   2.0000      -0.578726       -15.7479
  19   2.0000      -0.566195       -15.4070
  20   2.0000      -0.548866       -14.9354
  21   2.0000      -0.521602       -14.1935
  22   2.0000      -0.519055       -14.1242
  23   2.0000      -0.495935       -13.4951
  24   2.0000      -0.490875       -13.3574
  25   0.0000       0.074407         2.0247
  26   0.0000       0.127911         3.4806
  27   0.0000       0.136327         3.7096
  28   0.0000       0.148173         4.0320
  29   0.0000       0.192246         5.2313

MULLIKEN ATOMIC CHARGES
-----------------------
   0 O :   -0.680153
   1 H :    0.360189
   2 H :    0.367727
   3 O :   -0.691443
   4 H :    0.366826
   5 H :    0.313096
   6 O :   -0.678773
   7 H :    0.344929
   8 H :    0.332709
   9 O :   -0.711399
  10 H :    0.328293
  11 H :    0.364736
  12 O :   -0.749860
  13 H :    0.353362
  14 H :    0.379760
Sum of atomic charges:   -0.0000000

LOEWDIN ATOMIC CHARGES
----------------------
   0 O :   -0.264337
   1 H :    0.173732
   2 H :    0.178398
   3 O :   -0.343792
   4 H :    0.147863
   5 H :    0.156932
   6 O :   -0.334002
   7 H :    0.172052
   8 H :    0.161082
   9 O :   -0.346876
  10 H :    0.157532
  11 H :    0.147596
  12 O :   -0.312210
  13 H :    0.160674
  14 H :    0.145355

  Mayer bond orders larger than 0.100000
B(  0-O ,  1-H ) :   0.8341 B(  0-O ,  2-H ) :   0.8266 B(  3-O ,  4-H ) :   0.8153
B(  3-O ,  5-H ) :   0.8612 B(  6-O ,  7-H ) :   0.8412 B(  6-O ,  8-H ) :   0.8535
B(  9-O , 10-H ) :   0.8559 B(  9-O , 11-H ) :   0.8096 B( 12-O , 13-H ) :   0.8385
B( 12-O , 14-H ) :   0.7516

MP2 TOTAL ENERGY:     -381.595515869 Eh
FINAL SINGLE POINT ENERGY      -381.595515868747

DIPOLE MOMENT
-------------
                                X             Y             Z
Electronic contribution:     -0.13504      -0.13088      -0.06546
Nuclear contribution   :     -0.67915      -0.30898      -0.80894
                        -----------------------------------------
Total Dipole Moment    :     -0.81419      -0.43986      -0.87440
                        -----------------------------------------
Magnitude (a.u.)       :      1.27317
Magnitude (Debye)      :      3.23613

Rotational constants in cm-1:     0.061117     0.046966     0.044660
Rotational constants in MHz :  1832.230223  1408.002469  1338.877219

                             ****ORCA TERMINATED NORMALLY****
TOTAL RUN TIME: 0 days 0 hours 0 minutes 34 seconds 327 msec
