                         Program Version 4.2.0 -  RELEASE  -
|  1> # 12h2o.su.etal.mol0,1,2,5,6,7,10,11
|  2> ! MP2 def2-TZVP EnGrad TightSCF
|  3>
|  4> %pal
|  5>     nprocs 6
|  6> end
|  7>
|  8> %maxcore 8000
|  9>
| 10> %scf
| 11>     ConvForced true
| 12> end
| 13>
| 14> *xyz 0 1
| 15> O   1.794470000   0.923410000   2.768350000
| 16> H   2.338250000   1.359750000   3.430940000
| 17> H   0.879480000   1.303000000   2.865760000
| 18> O  -1.794470000  -0.923410000   2.768350000
| 19> H  -2.338250000  -1.359750000   3.430940000
| 20> H  -0.879480000  -1.303000000   2.865760000
| 21> O   0.923410000  -1.794470000  -2.768350000
| 22> H   1.359750000  -2.338250000  -3.430940000
| 23> H   1.303000000  -0.879480000  -2.865760000
| 24> O   0.885520000  -1.737840000   0.052730000
| 25> H   1.284090000  -0.839590000   0.017130000
| 26> H   1.032320000  -2.090180000  -0.841890000
| 27> O   1.737840000   0.885520000  -0.052730000
| 28> H   2.090180000   1.032320000   0.841890000
| 29> H   0.839590000   1.284090000  -0.017130000
| 30> O  -1.737840000  -0.885520000  -0.052730000
| 31> H  -2.090180000  -1.032320000   0.841890000
| 32> H  -0.839590000  -1.284090000  -0.017130000
| 33> O  -0.923410000   1.794470000  -2.768350000
| 34> H  -1.359750000   2.338250000  -3.430940000
| 35> H  -1.303000000   0.879480000  -2.865760000
| 36> O  -0.741530000   1.752130000   2.896280000
| 37> H  -0.920500000   2.036450000   1.984040000
| 38> H  -1.242140000   0.921210000   2.984230000
| 39> *
| 40>
| 41>                          ****END OF INPUT****

CARTESIAN COORDINATES (ANGSTROEM)
---------------------------------
  O      1.794470    0.923410    2.768350
  H      2.338250    1.359750    3.430940
  H      0.879480    1.303000    2.865760
  O     -1.794470   -0.923410    2.768350
  H     -2.338250   -1.359750    3.430940
  H     -0.879480   -1.303000    2.865760
  O      0.923410   -1.794470   -2.768350
  H      1.359750   -2.338250   -3.430940
  H      1.303000   -0.879480   -2.865760
  O      0.885520   -1.737840    0.052730
  H      1.284090   -0.839590    0.017130
  H      1.032320   -2.090180   -0.841890
  O      1.737840    0.885520   -0.052730
  H      2.090180    1.032320    0.841890
  H      0.839590    1.284090   -0.017130
  O     -1.737840   -0.885520   -0.052730
  H     -2.090180   -1.032320    0.841890
  H     -0.839590   -1.284090   -0.017130
  O     -0.923410    1.794470   -2.768350
  H     -1.359750    2.338250   -3.430940
  H     -1.303000    0.879480   -2.865760
  O     -0.741530    1.752130    2.896280
  H     -0.920500    2.036450    1.984040
  H     -1.242140    0.921210    2.984230

 Total Charge           Charge          ....    0
 Multiplicity           Mult            ....    1
 Number of Electrons    NEL             ....   80
 Basis Dimension        Dim             ....  344

ORBITAL ENERGIES
----------------

  NO   OCC          E(Eh)            E(eV)
   0   2.0000     -20.604737      -560.6834
   1   2.0000     -20.577824      -559.9511
   2   2.0000     -20.575303      -559.8825
   3   2.0000     -20.553159      -559.2799
   4   2.0000     -20.550238      -559.2004
   5   2.0000     -20.545813      -559.0800
   6   2.0000     -20.514982      -558.2410
   7   2.0000     -20.493287      -557.6507
   8   2.0000      -1.385936       -37.7132
   9   2.0000      -1.366529       -37.1852
  10   2.0000      -1.353426       -36.8286
  11   2.0000      -1.338410       -36.4200
  12   2.0000      -1.328510       -36.1506
  13   2.0000      -1.325549       -36.0700
  14   2.0000      -1.303863       -35.4799
  15   2.0000      -1.276204       -34.7273
  16   2.0000      -0.751568       -20.4512
  17   2.0000      -0.727156       -19.7869
  18   2.0000      -0.719940       -19.5906
  19   2.0000      -0.713246       -19.4084
  20   2.0000      -0.697243       -18.9729
  21   2.0000      -0.695419       -18.9233
  22   2.0000      -0.678176       -18.4541
  23   2.0000      -0.662628       -18.0310
  24   2.0000      -0.627769       -17.0825
  25   2.0000      -0.606588       -16.5061
  26   2.0000      -0.599082       -16.3019
  27   2.0000      -0.584600       -15.9078
  28   2.0000      -0.565789       -15.3959
  29   2.0000      -0.564879       -15.3711
  30   2.0000      -0.560287       -15.2462
  31   2.0000      -0.545142       -14.8341
  32   2.0000      -0.518701       -14.1146
  33   2.0000      -0.515456       -14.0263
  34   2.0000      -0.509576       -13.8663
  35   2.0000      -0.496595       -13.5130
  36   2.0000      -0.494862       -13.4659
  37   2.0000      -0.487276       -13.2595
  38   2.0000      -0.459710       -12.5094
  39   2.0000      -0.444153       -12.0860
  40   0.0000       0.101219         2.7543
  41   0.0000       0.119142         3.2420
  42   0.0000       0.136672         3.7190
  43   0.0000       0.147914         4.0249
  44   0.0000       0.164288         4.4705

MULLIKEN ATOMIC CHARGES
-----------------------
   0 O :   -0.739997
   1 H :    0.337950
   2 H :    0.368378
   3 O :   -0.721179
   4 H :    0.360867
   5 H :    0.384452
   6 O :   -0.699639
   7 H :    0.345774
   8 H :    0.366662
   9 O :   -0.737826
  10 H :    0.362067
  11 H :    0.369148
  12 O :   -0.707984
  13 H :    0.379383
  14 H :    0.344840
  15 O :   -0.743108
  16 H :    0.346503
  17 H :    0.349636
  18 O :   -0.696163
  19 H :    0.334776
  20 H :    0.361658
  21 O :   -0.702220
  22 H :    0.356373
  23 H :    0.379648
Sum of atomic charges:   -0.0000000

LOEWDIN ATOMIC CHARGES
----------------------
   0 O :   -0.341915
   1 H :    0.154226
   2 H :    0.142471
   3 O :   -0.287779
   4 H :    0.166527
   5 H :    0.196769
   6 O :   -0.311206
   7 H :    0.160566
   8 H :    0.189009
   9 O :   -0.323588
  10 H :    0.140552
  11 H :    0.147329
  12 O :   -0.300963
  13 H :    0.152984
  14 H :    0.169447
  15 O :   -0.374863
  16 H :    0.137644
  17 H :    0.136431
  18 O :   -0.343126
  19 H :    0.156406
  20 H :    0.186716
  21 O :   -0.279629
  22 H :    0.170762
  23 H :    0.155229

  Mayer bond orders larger than 0.100000
B(  0-O ,  1-H ) :   0.8500 B(  0-O ,  2-H ) :   0.7570 B(  2-H , 21-O ) :   0.1023
B(  3-O ,  4-H ) :   0.8334 B(  3-O ,  5-H ) :   0.8092 B(  6-O ,  7-H ) :   0.8451
B(  6-O ,  8-H ) :   0.8240 B(  9-O , 10-H ) :   0.7799 B(  9-O , 11-H ) :   0.8146
B(  9-O , 17-H ) :   0.1061 B( 12-O , 13-H ) :   0.7947 B( 12-O , 14-H ) :   0.8369
B( 15-O , 16-H ) :   0.8410 B( 15-O , 17-H ) :   0.7847 B( 18-O , 19-H ) :   0.8546
B( 18-O , 20-H ) :   0.8295 B( 21-O , 22-H ) :   0.8367 B( 21-O , 23-H ) :   0.7955

MP2 TOTAL ENERGY:     -610.571020337 Eh
FINAL SINGLE POINT ENERGY      -610.571020336988

DIPOLE MOMENT
-------------
                                X             Y             Z
Electronic contribution:     -0.03490       0.02609       0.14451
Nuclear contribution   :     -0.11171      -0.00057       0.08817
                        -----------------------------------------
Total Dipole Moment    :     -0.14661       0.02551       0.23268
                        -----------------------------------------
Magnitude (a.u.)       :      0.27619
Magnitude (Debye)      :      0.70203

Rotational constants in cm-1:     0.030648     0.017103     0.016662
Rotational constants in MHz :   918.808438   512.722320   499.506194

                             ****ORCA TERMINATED NORMALLY****
TOTAL RUN TIME: 0 days 0 hours 2 minutes 57 seconds 753 msec
