                         Program Version 4.2.0 -  RELEASE  -
|  1> # 12meoh.boyd.etal.mol7,8
|  2> ! MP2 def2-TZVP EnGrad TightSCF
|  3>
|  4> %pal
|  5>     nprocs 6
|  6> end
|  7>
|  8> %maxcore 8000
|  9>
| 10> %scf
| 11>     ConvForced true
| 12> end
| 13>
| 14> *xyz 0 1
| 15> O   4.310535586  -1.588322800   0.656128299
| 16> H   3.804372199  -1.630404735  -0.196849819
| 17> C   4.312298137  -2.894980854   1.222112691
| 18> H   4.713177833  -2.819907076   2.237066773
| 19> H   4.957796734  -3.574699304   0.648211180
| 20> H   3.302735989  -3.324433205   1.269756773
| 21> O   3.570084754   2.361662577  -0.202416728
| 22> H   3.393280933   1.755669977   0.560634073
| 23> C   4.368082883   1.644741793  -1.143112807
| 24> H   4.552851717   2.311801738  -1.989632421
| 25> H   3.862427494   0.740851663  -1.508095690
| 26> H   5.333949674   1.357289092  -0.706288100
| 27> *
| 28>
| 29>                          ****END OF INPUT****

CARTESIAN COORDINATES (ANGSTROEM)
---------------------------------
  O      4.310536   -1.588323    0.656128
  H      3.804372   -1.630405   -0.196850
  C      4.312298   -2.894981    1.222113
  H      4.713178   -2.819907    2.237067
  H      4.957797   -3.574699    0.648211
  H      3.302736   -3.324433    1.269757
  O      3.570085    2.361663   -0.202417
  H      3.393281    1.755670    0.560634
  C      4.368083    1.644742   -1.143113
  H      4.552852    2.311802   -1.989632
  H      3.862427    0.740852   -1.508096
  H      5.333950    1.357289   -0.706288

 Total Charge           Charge          ....    0
 Multiplicity           Mult            ....    1
 Number of Electrons    NEL             ....   36
 Basis Dimension        Dim             ....  172

ORBITAL ENERGIES
----------------

  NO   OCC          E(Eh)            E(eV)
   0   2.0000     -20.567655      -559.6743
   1   2.0000     -20.549540      -559.1814
   2   2.0000     -11.279122      -306.9205
   3   2.0000     -11.265803      -306.5581
   4   2.0000      -1.357104       -36.9287
   5   2.0000      -1.339108       -36.4390
   6   2.0000      -0.927656       -25.2428
   7   2.0000      -0.913410       -24.8552
   8   2.0000      -0.691339       -18.8123
   9   2.0000      -0.674501       -18.3541
  10   2.0000      -0.625239       -17.0136
  11   2.0000      -0.610508       -16.6128
  12   2.0000      -0.599965       -16.3259
  13   2.0000      -0.582828       -15.8595
  14   2.0000      -0.509847       -13.8736
  15   2.0000      -0.494890       -13.4666
  16   2.0000      -0.458330       -12.4718
  17   2.0000      -0.442812       -12.0495
  18   0.0000       0.116892         3.1808
  19   0.0000       0.152631         4.1533
  20   0.0000       0.175280         4.7696
  21   0.0000       0.194737         5.2991
  22   0.0000       0.220143         5.9904

MULLIKEN ATOMIC CHARGES
-----------------------
   0 O :   -0.498187
   1 H :    0.323850
   2 C :   -0.180068
   3 H :    0.132069
   4 H :    0.113027
   5 H :    0.113762
   6 O :   -0.503413
   7 H :    0.326440
   8 C :   -0.159277
   9 H :    0.129337
  10 H :    0.081830
  11 H :    0.120630
Sum of atomic charges:   -0.0000000

LOEWDIN ATOMIC CHARGES
----------------------
   0 O :   -0.110854
   1 H :    0.188881
   2 C :   -0.378608
   3 H :    0.110989
   4 H :    0.096936
   5 H :    0.096992
   6 O :   -0.111048
   7 H :    0.189321
   8 C :   -0.379147
   9 H :    0.108987
  10 H :    0.088293
  11 H :    0.099258

  Mayer bond orders larger than 0.100000
B(  0-O ,  1-H ) :   0.8395 B(  0-O ,  2-C ) :   0.9189 B(  2-C ,  3-H ) :   0.9385
B(  2-C ,  4-H ) :   0.9381 B(  2-C ,  5-H ) :   0.9398 B(  6-O ,  7-H ) :   0.8399
B(  6-O ,  8-C ) :   0.9287 B(  8-C ,  9-H ) :   0.9365 B(  8-C , 10-H ) :   0.9399
B(  8-C , 11-H ) :   0.9407

MP2 TOTAL ENERGY:     -231.015835523 Eh
FINAL SINGLE POINT ENERGY      -231.015835522799

DIPOLE MOMENT
-------------
                                X             Y             Z
Electronic contribution:     -0.90643       2.66171       0.54887
Nuclear contribution   :      0.83616      -3.92664      -0.70033
                        -----------------------------------------
Total Dipole Moment    :     -0.07026      -1.26494      -0.15146
                        -----------------------------------------
Magnitude (a.u.)       :      1.27591
Magnitude (Debye)      :      3.24310

Rotational constants in cm-1:     0.705687     0.047835     0.045749
Rotational constants in MHz : 21155.956755  1434.069007  1371.515288

                             ****ORCA TERMINATED NORMALLY****
TOTAL RUN TIME: 0 days 0 hours 0 minutes 22 seconds 318 msec
