                         Program Version 4.2.0 -  RELEASE  -
|  1> # 12h2o.su.etal.mol3,6,7,8,9,11
|  2> ! MP2 def2-TZVP EnGrad TightSCF
|  3>
|  4> %pal
|  5>     nprocs 6
|  6> end
|  7>
|  8> %maxcore 8000
|  9>
| 10> %scf
| 11>     ConvForced true
| 12> end
| 13>
| 14> *xyz 0 1
| 15> O  -1.752130000  -0.741530000  -2.896280000
| 16> H  -2.036450000  -0.920500000  -1.984040000
| 17> H  -0.921210000  -1.242140000  -2.984230000
| 18> O   1.737840000   0.885520000  -0.052730000
| 19> H   2.090180000   1.032320000   0.841890000
| 20> H   0.839590000   1.284090000  -0.017130000
| 21> O  -1.737840000  -0.885520000  -0.052730000
| 22> H  -2.090180000  -1.032320000   0.841890000
| 23> H  -0.839590000  -1.284090000  -0.017130000
| 24> O   1.752130000   0.741530000  -2.896280000
| 25> H   2.036450000   0.920500000  -1.984040000
| 26> H   0.921210000   1.242140000  -2.984230000
| 27> O   0.741530000  -1.752130000   2.896280000
| 28> H   0.920500000  -2.036450000   1.984040000
| 29> H   1.242140000  -0.921210000   2.984230000
| 30> O  -0.741530000   1.752130000   2.896280000
| 31> H  -0.920500000   2.036450000   1.984040000
| 32> H  -1.242140000   0.921210000   2.984230000
| 33> *
| 34>
| 35>                          ****END OF INPUT****

CARTESIAN COORDINATES (ANGSTROEM)
---------------------------------
  O     -1.752130   -0.741530   -2.896280
  H     -2.036450   -0.920500   -1.984040
  H     -0.921210   -1.242140   -2.984230
  O      1.737840    0.885520   -0.052730
  H      2.090180    1.032320    0.841890
  H      0.839590    1.284090   -0.017130
  O     -1.737840   -0.885520   -0.052730
  H     -2.090180   -1.032320    0.841890
  H     -0.839590   -1.284090   -0.017130
  O      1.752130    0.741530   -2.896280
  H      2.036450    0.920500   -1.984040
  H      0.921210    1.242140   -2.984230
  O      0.741530   -1.752130    2.896280
  H      0.920500   -2.036450    1.984040
  H      1.242140   -0.921210    2.984230
  O     -0.741530    1.752130    2.896280
  H     -0.920500    2.036450    1.984040
  H     -1.242140    0.921210    2.984230

 Total Charge           Charge          ....    0
 Multiplicity           Mult            ....    1
 Number of Electrons    NEL             ....   60
 Basis Dimension        Dim             ....  258

ORBITAL ENERGIES
----------------

  NO   OCC          E(Eh)            E(eV)
   0   2.0000     -20.609589      -560.8154
   1   2.0000     -20.609589      -560.8154
   2   2.0000     -20.591664      -560.3277
   3   2.0000     -20.591664      -560.3277
   4   2.0000     -20.537891      -558.8644
   5   2.0000     -20.537890      -558.8644
   6   2.0000      -1.387999       -37.7694
   7   2.0000      -1.387354       -37.7518
   8   2.0000      -1.370876       -37.3034
   9   2.0000      -1.370136       -37.2833
  10   2.0000      -1.320108       -35.9220
  11   2.0000      -1.319341       -35.9011
  12   2.0000      -0.751163       -20.4402
  13   2.0000      -0.748681       -20.3726
  14   2.0000      -0.734239       -19.9797
  15   2.0000      -0.731934       -19.9169
  16   2.0000      -0.691982       -18.8298
  17   2.0000      -0.689712       -18.7680
  18   2.0000      -0.626561       -17.0496
  19   2.0000      -0.625781       -17.0284
  20   2.0000      -0.608189       -16.5497
  21   2.0000      -0.607493       -16.5307
  22   2.0000      -0.562962       -15.3190
  23   2.0000      -0.562067       -15.2946
  24   2.0000      -0.547980       -14.9113
  25   2.0000      -0.544805       -14.8249
  26   2.0000      -0.537848       -14.6356
  27   2.0000      -0.532118       -14.4797
  28   2.0000      -0.487304       -13.2602
  29   2.0000      -0.481156       -13.0929
  30   0.0000       0.053137         1.4459
  31   0.0000       0.107029         2.9124
  32   0.0000       0.110163         2.9977
  33   0.0000       0.128115         3.4862
  34   0.0000       0.158368         4.3094

MULLIKEN ATOMIC CHARGES
-----------------------
   0 O :   -0.698582
   1 H :    0.366629
   2 H :    0.329666
   3 O :   -0.694513
   4 H :    0.351156
   5 H :    0.343289
   6 O :   -0.694513
   7 H :    0.351156
   8 H :    0.343289
   9 O :   -0.698582
  10 H :    0.366629
  11 H :    0.329666
  12 O :   -0.673294
  13 H :    0.333123
  14 H :    0.342526
  15 O :   -0.673294
  16 H :    0.333123
  17 H :    0.342526
Sum of atomic charges:   -0.0000000

LOEWDIN ATOMIC CHARGES
----------------------
   0 O :   -0.338693
   1 H :    0.151233
   2 H :    0.160465
   3 O :   -0.314899
   4 H :    0.169012
   5 H :    0.171428
   6 O :   -0.314899
   7 H :    0.169012
   8 H :    0.171428
   9 O :   -0.338693
  10 H :    0.151233
  11 H :    0.160465
  12 O :   -0.325948
  13 H :    0.161076
  14 H :    0.166326
  15 O :   -0.325948
  16 H :    0.161076
  17 H :    0.166326

  Mayer bond orders larger than 0.100000
B(  0-O ,  1-H ) :   0.8259 B(  0-O ,  2-H ) :   0.8537 B(  3-O ,  4-H ) :   0.8396
B(  3-O ,  5-H ) :   0.8371 B(  6-O ,  7-H ) :   0.8396 B(  6-O ,  8-H ) :   0.8371
B(  9-O , 10-H ) :   0.8259 B(  9-O , 11-H ) :   0.8537 B( 12-O , 13-H ) :   0.8534
B( 12-O , 14-H ) :   0.8459 B( 15-O , 16-H ) :   0.8534 B( 15-O , 17-H ) :   0.8459

MP2 TOTAL ENERGY:     -457.897390892 Eh
FINAL SINGLE POINT ENERGY      -457.897390892031

DIPOLE MOMENT
-------------
                                X             Y             Z
Electronic contribution:     -0.00000      -0.00000       0.09418
Nuclear contribution   :     -0.00000      -0.00000       1.54856
                        -----------------------------------------
Total Dipole Moment    :     -0.00000      -0.00000       1.64274
                        -----------------------------------------
Magnitude (a.u.)       :      1.64274
Magnitude (Debye)      :      4.17551

Rotational constants in cm-1:     0.042264     0.023349     0.019668
Rotational constants in MHz :  1267.047567   699.981696   589.623484

                             ****ORCA TERMINATED NORMALLY****
TOTAL RUN TIME: 0 days 0 hours 0 minutes 51 seconds 565 msec
