                         Program Version 4.2.0 -  RELEASE  -
|  1> # 12meoh.boyd.etal.mol3,8,10
|  2> ! MP2 def2-TZVP EnGrad TightSCF
|  3>
|  4> %pal
|  5>     nprocs 6
|  6> end
|  7>
|  8> %maxcore 8000
|  9>
| 10> %scf
| 11>     ConvForced true
| 12> end
| 13>
| 14> *xyz 0 1
| 15> O  -3.821405976  -2.118091637   0.596795346
| 16> H  -4.342989117  -1.344303030   0.251966383
| 17> C  -3.443883586  -1.809641231   1.934889393
| 18> H  -2.831494349  -2.637429600   2.305201764
| 19> H  -4.325601146  -1.719364371   2.585074667
| 20> H  -2.858527126  -0.882644791   1.996110694
| 21> O   3.570084754   2.361662577  -0.202416728
| 22> H   3.393280933   1.755669977   0.560634073
| 23> C   4.368082883   1.644741793  -1.143112807
| 24> H   4.552851717   2.311801738  -1.989632421
| 25> H   3.862427494   0.740851663  -1.508095690
| 26> H   5.333949674   1.357289092  -0.706288100
| 27> O  -5.201143618   0.064582726  -0.172223772
| 28> H  -4.686891530   0.869258890   0.107806143
| 29> C  -6.513192168   0.171391798   0.359883449
| 30> H  -7.049381312  -0.749234190   0.111361174
| 31> H  -7.057741163   1.017801101  -0.081819420
| 32> H  -6.514770575   0.292264928   1.453058834
| 33> *
| 34>
| 35>                          ****END OF INPUT****

CARTESIAN COORDINATES (ANGSTROEM)
---------------------------------
  O     -3.821406   -2.118092    0.596795
  H     -4.342989   -1.344303    0.251966
  C     -3.443884   -1.809641    1.934889
  H     -2.831494   -2.637430    2.305202
  H     -4.325601   -1.719364    2.585075
  H     -2.858527   -0.882645    1.996111
  O      3.570085    2.361663   -0.202417
  H      3.393281    1.755670    0.560634
  C      4.368083    1.644742   -1.143113
  H      4.552852    2.311802   -1.989632
  H      3.862427    0.740852   -1.508096
  H      5.333950    1.357289   -0.706288
  O     -5.201144    0.064583   -0.172224
  H     -4.686892    0.869259    0.107806
  C     -6.513192    0.171392    0.359883
  H     -7.049381   -0.749234    0.111361
  H     -7.057741    1.017801   -0.081819
  H     -6.514771    0.292265    1.453059

 Total Charge           Charge          ....    0
 Multiplicity           Mult            ....    1
 Number of Electrons    NEL             ....   54
 Basis Dimension        Dim             ....  258

ORBITAL ENERGIES
----------------

  NO   OCC          E(Eh)            E(eV)
   0   2.0000     -20.591997      -560.3367
   1   2.0000     -20.556646      -559.3748
   2   2.0000     -20.516478      -558.2818
   3   2.0000     -11.291806      -307.2657
   4   2.0000     -11.271047      -306.7008
   5   2.0000     -11.254675      -306.2553
   6   2.0000      -1.386023       -37.7156
   7   2.0000      -1.346132       -36.6301
   8   2.0000      -1.313343       -35.7379
   9   2.0000      -0.943653       -25.6781
  10   2.0000      -0.919180       -25.0122
  11   2.0000      -0.900066       -24.4920
  12   2.0000      -0.717160       -19.5149
  13   2.0000      -0.681226       -18.5371
  14   2.0000      -0.677979       -18.4487
  15   2.0000      -0.634946       -17.2778
  16   2.0000      -0.616332       -16.7713
  17   2.0000      -0.613260       -16.6877
  18   2.0000      -0.595992       -16.2178
  19   2.0000      -0.589053       -16.0289
  20   2.0000      -0.564156       -15.3515
  21   2.0000      -0.529002       -14.3949
  22   2.0000      -0.500989       -13.6326
  23   2.0000      -0.491065       -13.3626
  24   2.0000      -0.459026       -12.4907
  25   2.0000      -0.449156       -12.2221
  26   2.0000      -0.420392       -11.4395
  27   0.0000       0.112913         3.0725
  28   0.0000       0.135943         3.6992
  29   0.0000       0.157554         4.2873
  30   0.0000       0.174941         4.7604
  31   0.0000       0.177104         4.8192

MULLIKEN ATOMIC CHARGES
-----------------------
   0 O :   -0.525548
   1 H :    0.359030
   2 C :   -0.183226
   3 H :    0.126236
   4 H :    0.096624
   5 H :    0.091233
   6 O :   -0.497142
   7 H :    0.320696
   8 C :   -0.174590
   9 H :    0.129270
  10 H :    0.112068
  11 H :    0.109698
  12 O :   -0.513630
  13 H :    0.341458
  14 C :   -0.192511
  15 H :    0.148512
  16 H :    0.127434
  17 H :    0.124388
Sum of atomic charges:   -0.0000000

LOEWDIN ATOMIC CHARGES
----------------------
   0 O :   -0.121578
   1 H :    0.159108
   2 C :   -0.399069
   3 H :    0.107256
   4 H :    0.089789
   5 H :    0.088103
   6 O :   -0.110582
   7 H :    0.187580
   8 C :   -0.378790
   9 H :    0.110351
  10 H :    0.095956
  11 H :    0.095485
  12 O :   -0.069860
  13 H :    0.200146
  14 C :   -0.376731
  15 H :    0.117571
  16 H :    0.104397
  17 H :    0.100868

  Mayer bond orders larger than 0.100000
B(  0-O ,  1-H ) :   0.7923 B(  0-O ,  2-C ) :   0.9458 B(  2-C ,  3-H ) :   0.9431
B(  2-C ,  4-H ) :   0.9372 B(  2-C ,  5-H ) :   0.9388 B(  6-O ,  7-H ) :   0.8440
B(  6-O ,  8-C ) :   0.9243 B(  8-C ,  9-H ) :   0.9378 B(  8-C , 10-H ) :   0.9382
B(  8-C , 11-H ) :   0.9394 B( 12-O , 13-H ) :   0.8281 B( 12-O , 14-C ) :   0.8720
B( 14-C , 15-H ) :   0.9388 B( 14-C , 16-H ) :   0.9352 B( 14-C , 17-H ) :   0.9367

MP2 TOTAL ENERGY:     -346.529052077 Eh
FINAL SINGLE POINT ENERGY      -346.529052076576

DIPOLE MOMENT
-------------
                                X             Y             Z
Electronic contribution:     -0.04438       0.45893      -1.50540
Nuclear contribution   :     -0.39326       0.24516       2.12720
                        -----------------------------------------
Total Dipole Moment    :     -0.43765       0.70409       0.62181
                        -----------------------------------------
Magnitude (a.u.)       :      1.03630
Magnitude (Debye)      :      2.63407

Rotational constants in cm-1:     0.091352     0.008788     0.008283
Rotational constants in MHz :  2738.659209   263.468376   248.304343

                             ****ORCA TERMINATED NORMALLY****
TOTAL RUN TIME: 0 days 0 hours 0 minutes 57 seconds 499 msec
