                         Program Version 4.2.0 -  RELEASE  -
|  1> # 12h2o.su.etal.mol0,1,2
|  2> ! MP2 def2-TZVP EnGrad TightSCF
|  3>
|  4> %pal
|  5>     nprocs 6
|  6> end
|  7>
|  8> %maxcore 8000
|  9>
| 10> %scf
| 11>     ConvForced true
| 12> end
| 13>
| 14> *xyz 0 1
| 15> O   1.794470000   0.923410000   2.768350000
| 16> H   2.338250000   1.359750000   3.430940000
| 17> H   0.879480000   1.303000000   2.865760000
| 18> O  -1.794470000  -0.923410000   2.768350000
| 19> H  -2.338250000  -1.359750000   3.430940000
| 20> H  -0.879480000  -1.303000000   2.865760000
| 21> O   0.923410000  -1.794470000  -2.768350000
| 22> H   1.359750000  -2.338250000  -3.430940000
| 23> H   1.303000000  -0.879480000  -2.865760000
| 24> *
| 25>
| 26>                          ****END OF INPUT****

CARTESIAN COORDINATES (ANGSTROEM)
---------------------------------
  O      1.794470    0.923410    2.768350
  H      2.338250    1.359750    3.430940
  H      0.879480    1.303000    2.865760
  O     -1.794470   -0.923410    2.768350
  H     -2.338250   -1.359750    3.430940
  H     -0.879480   -1.303000    2.865760
  O      0.923410   -1.794470   -2.768350
  H      1.359750   -2.338250   -3.430940
  H      1.303000   -0.879480   -2.865760

 Total Charge           Charge          ....    0
 Multiplicity           Mult            ....    1
 Number of Electrons    NEL             ....   30
 Basis Dimension        Dim             ....  129

ORBITAL ENERGIES
----------------

  NO   OCC          E(Eh)            E(eV)
   0   2.0000     -20.561030      -559.4941
   1   2.0000     -20.558117      -559.4148
   2   2.0000     -20.556009      -559.3574
   3   2.0000      -1.336385       -36.3649
   4   2.0000      -1.333442       -36.2848
   5   2.0000      -1.331344       -36.2277
   6   2.0000      -0.705204       -19.1896
   7   2.0000      -0.701011       -19.0755
   8   2.0000      -0.699728       -19.0406
   9   2.0000      -0.572500       -15.5785
  10   2.0000      -0.569567       -15.4987
  11   2.0000      -0.567034       -15.4298
  12   2.0000      -0.504683       -13.7331
  13   2.0000      -0.501089       -13.6353
  14   2.0000      -0.499099       -13.5812
  15   0.0000       0.117358         3.1935
  16   0.0000       0.131906         3.5894
  17   0.0000       0.147064         4.0018
  18   0.0000       0.201056         5.4710
  19   0.0000       0.204635         5.5684

MULLIKEN ATOMIC CHARGES
-----------------------
   0 O :   -0.687348
   1 H :    0.337271
   2 H :    0.349989
   3 O :   -0.687306
   4 H :    0.337007
   5 H :    0.350386
   6 O :   -0.679367
   7 H :    0.336232
   8 H :    0.343135
Sum of atomic charges:   -0.0000000

LOEWDIN ATOMIC CHARGES
----------------------
   0 O :   -0.340236
   1 H :    0.157330
   2 H :    0.182853
   3 O :   -0.340249
   4 H :    0.157243
   5 H :    0.183059
   6 O :   -0.337814
   7 H :    0.156647
   8 H :    0.181167

  Mayer bond orders larger than 0.100000
B(  0-O ,  1-H ) :   0.8536 B(  0-O ,  2-H ) :   0.8389 B(  3-O ,  4-H ) :   0.8538
B(  3-O ,  5-H ) :   0.8387 B(  6-O ,  7-H ) :   0.8545 B(  6-O ,  8-H ) :   0.8456

MP2 TOTAL ENERGY:     -228.938261424 Eh
FINAL SINGLE POINT ENERGY      -228.938261424288

DIPOLE MOMENT
-------------
                                X             Y             Z
Electronic contribution:     -0.10766      -0.05661      -0.10085
Nuclear contribution   :      0.67915       0.30898       0.63259
                        -----------------------------------------
Total Dipole Moment    :      0.57149       0.25237       0.53175
                        -----------------------------------------
Magnitude (a.u.)       :      0.82040
Magnitude (Debye)      :      2.08528

Rotational constants in cm-1:     0.111529     0.039032     0.029080
Rotational constants in MHz :  3343.566312  1170.160420   871.784890

                             ****ORCA TERMINATED NORMALLY****
TOTAL RUN TIME: 0 days 0 hours 0 minutes 37 seconds 25 msec
