                         Program Version 3.0.3 - RELEASE   -
|  1> ! wB97X-D3 Def2-TZVP def2-TZVP/J RIJCOSX TightSCF Grid4
|  2>
|  3> %pal nprocs 12 end
|  4>
|  5> %scf
|  6>         maxiter 400
|  7> end
|  8>
|  9> * xyz  0  1
| 10> O  1.916305	1.393465	0.445749
| 11> H  1.241190	1.198416	1.178690
| 12> H  2.589590	1.958961	0.846374
| 13> O  0.080334	0.773453	2.169258
| 14> H  -0.740471	1.034663	1.693845
| 15> H  0.046334	-0.208181	2.138032
| 16> O  0.018508	-1.859705	1.420534
| 17> H  0.786119	-1.701615	0.776213
| 18> H  0.225397	-2.675153	1.895696
| 19> O  -1.950243	1.138168	0.387910
| 20> H  -2.044177	0.176476	0.079054
| 21> H  -2.848884	1.483827	0.469692
| 22> O  1.868375	-1.254411	-0.304684
| 23> H  1.336279	-1.160367	-1.126678
| 24> H  2.112291	-0.330490	-0.073673
| 25> O  -0.015451	1.809748	-1.470107
| 26> H  0.758179	1.854349	-0.863849
| 27> H  -0.781961	1.773374	-0.855298
| 28> O  0.010261	-0.666807	-2.249896
| 29> H  0.003153	0.323812	-2.034072
| 30> H  0.071736	-0.731084	-3.211889
| 31> O  -1.955640	-1.350237	-0.407338
| 32> H  -1.366386	-1.265905	-1.189875
| 33> H  -1.360841	-1.714758	0.286311
| 34> **                         ****END OF INPUT****

CARTESIAN COORDINATES (ANGSTROEM)
---------------------------------
  O      1.916305    1.393465    0.445749
  H      1.241190    1.198416    1.178690
  H      2.589590    1.958961    0.846374
  O      0.080334    0.773453    2.169258
  H     -0.740471    1.034663    1.693845
  H      0.046334   -0.208181    2.138032
  O      0.018508   -1.859705    1.420534
  H      0.786119   -1.701615    0.776213
  H      0.225397   -2.675153    1.895696
  O     -1.950243    1.138168    0.387910
  H     -2.044177    0.176476    0.079054
  H     -2.848884    1.483827    0.469692
  O      1.868375   -1.254411   -0.304684
  H      1.336279   -1.160367   -1.126678
  H      2.112291   -0.330490   -0.073673
  O     -0.015451    1.809748   -1.470107
  H      0.758179    1.854349   -0.863849
  H     -0.781961    1.773374   -0.855298
  O      0.010261   -0.666807   -2.249896
  H      0.003153    0.323812   -2.034072
  H      0.071736   -0.731084   -3.211889
  O     -1.955640   -1.350237   -0.407338
  H     -1.366386   -1.265905   -1.189875
  H     -1.360841   -1.714758    0.286311

 Total Charge           Charge          ....    0
 Multiplicity           Mult            ....    1
 Number of Electrons    NEL             ....   80
 Basis Dimension        Dim             ....  344

ORBITAL ENERGIES
----------------

  NO   OCC          E(Eh)            E(eV)
   0   2.0000     -19.245450      -523.6953
   1   2.0000     -19.244891      -523.6801
   2   2.0000     -19.242833      -523.6241
   3   2.0000     -19.242628      -523.6185
   4   2.0000     -19.225534      -523.1534
   5   2.0000     -19.224920      -523.1367
   6   2.0000     -19.224325      -523.1205
   7   2.0000     -19.223985      -523.1112
   8   2.0000      -1.151094       -31.3229
   9   2.0000      -1.138185       -30.9716
  10   2.0000      -1.136002       -30.9122
  11   2.0000      -1.135210       -30.8906
  12   2.0000      -1.113945       -30.3120
  13   2.0000      -1.113364       -30.2962
  14   2.0000      -1.111551       -30.2468
  15   2.0000      -1.099580       -29.9211
  16   2.0000      -0.652780       -17.7631
  17   2.0000      -0.651451       -17.7269
  18   2.0000      -0.648736       -17.6530
  19   2.0000      -0.647260       -17.6128
  20   2.0000      -0.627701       -17.0806
  21   2.0000      -0.626498       -17.0479
  22   2.0000      -0.622253       -16.9324
  23   2.0000      -0.619179       -16.8487
  24   2.0000      -0.563717       -15.3395
  25   2.0000      -0.525039       -14.2870
  26   2.0000      -0.523441       -14.2435
  27   2.0000      -0.521464       -14.1897
  28   2.0000      -0.492264       -13.3952
  29   2.0000      -0.491421       -13.3722
  30   2.0000      -0.491051       -13.3622
  31   2.0000      -0.454540       -12.3687
  32   2.0000      -0.430118       -11.7041
  33   2.0000      -0.429113       -11.6768
  34   2.0000      -0.427809       -11.6413
  35   2.0000      -0.426358       -11.6018
  36   2.0000      -0.415238       -11.2992
  37   2.0000      -0.411171       -11.1885
  38   2.0000      -0.410611       -11.1733
  39   2.0000      -0.409792       -11.1510
  40   0.0000       0.086947         2.3660
  41   0.0000       0.123548         3.3619
  42   0.0000       0.123789         3.3685
  43   0.0000       0.124358         3.3840
  44   0.0000       0.199526         5.4294

MULLIKEN ATOMIC CHARGES
-----------------------
   0 O :   -0.754453
   1 H :    0.369024
   2 H :    0.350458
   3 O :   -0.695361
   4 H :    0.367619
   5 H :    0.362716
   6 O :   -0.752765
   7 H :    0.369579
   8 H :    0.351580
   9 O :   -0.754030
  10 H :    0.365865
  11 H :    0.352779
  12 O :   -0.697718
  13 H :    0.364403
  14 H :    0.364339
  15 O :   -0.691825
  16 H :    0.367505
  17 H :    0.358827
  18 O :   -0.754701
  19 H :    0.366927
  20 H :    0.351452
  21 O :   -0.689408
  22 H :    0.362608
  23 H :    0.364581
Sum of atomic charges:   -0.0000000

LOEWDIN ATOMIC CHARGES
----------------------
   0 O :   -0.308430
   1 H :    0.137322
   2 H :    0.159297
   3 O :   -0.276242
   4 H :    0.141649
   5 H :    0.141372
   6 O :   -0.302180
   7 H :    0.138845
   8 H :    0.159662
   9 O :   -0.302792
  10 H :    0.140832
  11 H :    0.160085
  12 O :   -0.277302
  13 H :    0.141904
  14 H :    0.142530
  15 O :   -0.276103
  16 H :    0.143219
  17 H :    0.141487
  18 O :   -0.308000
  19 H :    0.137328
  20 H :    0.159354
  21 O :   -0.278180
  22 H :    0.143581
  23 H :    0.140763

  Mayer bond orders larger than 0.1
B(  0-O ,  1-H ) :   0.7326 B(  0-O ,  2-H ) :   0.8825 B(  1-H ,  3-O ) :   0.1802
B(  3-O ,  4-H ) :   0.8255 B(  3-O ,  5-H ) :   0.8269 B(  6-O ,  7-H ) :   0.7341
B(  6-O ,  8-H ) :   0.8815 B(  7-H , 12-O ) :   0.1776 B(  9-O , 10-H ) :   0.7328
B(  9-O , 11-H ) :   0.8809 B( 10-H , 21-O ) :   0.1872 B( 12-O , 13-H ) :   0.8250
B( 12-O , 14-H ) :   0.8259 B( 15-O , 16-H ) :   0.8251 B( 15-O , 17-H ) :   0.8312
B( 15-O , 19-H ) :   0.1818 B( 18-O , 19-H ) :   0.7339 B( 18-O , 20-H ) :   0.8821
B( 21-O , 22-H ) :   0.8332 B( 21-O , 23-H ) :   0.8264

Dispersion correction           -0.012234178
FINAL SINGLE POINT ENERGY      -611.646247295807

DIPOLE MOMENT
-------------
                                X             Y             Z
Electronic contribution:     -0.02848      -0.00922       0.00892
Nuclear contribution   :      0.06879       0.04077       0.02141
                        -----------------------------------------
Total Dipole Moment    :      0.04031       0.03155       0.03033
                        -----------------------------------------
Magnitude (a.u.)       :      0.05950
Magnitude (Debye)      :      0.15123

                             ****ORCA TERMINATED NORMALLY****
TOTAL RUN TIME: 0 days 0 hours 1 minutes 5 seconds 336 msec
