                         Program Version 4.2.0 -  RELEASE  -
|  1> # 12h2o.su.etal.mol0,1
|  2> ! MP2 def2-TZVP EnGrad TightSCF
|  3>
|  4> %pal
|  5>     nprocs 6
|  6> end
|  7>
|  8> %maxcore 8000
|  9>
| 10> %scf
| 11>     ConvForced true
| 12> end
| 13>
| 14> *xyz 0 1
| 15> O   1.794470000   0.923410000   2.768350000
| 16> H   2.338250000   1.359750000   3.430940000
| 17> H   0.879480000   1.303000000   2.865760000
| 18> O  -1.794470000  -0.923410000   2.768350000
| 19> H  -2.338250000  -1.359750000   3.430940000
| 20> H  -0.879480000  -1.303000000   2.865760000
| 21> *
| 22>
| 23>                          ****END OF INPUT****

CARTESIAN COORDINATES (ANGSTROEM)
---------------------------------
  O      1.794470    0.923410    2.768350
  H      2.338250    1.359750    3.430940
  H      0.879480    1.303000    2.865760
  O     -1.794470   -0.923410    2.768350
  H     -2.338250   -1.359750    3.430940
  H     -0.879480   -1.303000    2.865760

 Total Charge           Charge          ....    0
 Multiplicity           Mult            ....    1
 Number of Electrons    NEL             ....   20
 Basis Dimension        Dim             ....   86

ORBITAL ENERGIES
----------------

  NO   OCC          E(Eh)            E(eV)
   0   2.0000     -20.562883      -559.5445
   1   2.0000     -20.562883      -559.5445
   2   2.0000      -1.338418       -36.4202
   3   2.0000      -1.338020       -36.4094
   4   2.0000      -0.707953       -19.2644
   5   2.0000      -0.704920       -19.1819
   6   2.0000      -0.574766       -15.6402
   7   2.0000      -0.574044       -15.6205
   8   2.0000      -0.507236       -13.8026
   9   2.0000      -0.505193       -13.7470
  10   0.0000       0.114338         3.1113
  11   0.0000       0.144285         3.9262
  12   0.0000       0.201580         5.4853
  13   0.0000       0.210307         5.7227
  14   0.0000       0.503892        13.7116

MULLIKEN ATOMIC CHARGES
-----------------------
   0 O :   -0.688017
   1 H :    0.338300
   2 H :    0.349718
   3 O :   -0.688017
   4 H :    0.338300
   5 H :    0.349718
Sum of atomic charges:    0.0000000

LOEWDIN ATOMIC CHARGES
----------------------
   0 O :   -0.340521
   1 H :    0.157812
   2 H :    0.182709
   3 O :   -0.340521
   4 H :    0.157812
   5 H :    0.182709

  Mayer bond orders larger than 0.100000
B(  0-O ,  1-H ) :   0.8531 B(  0-O ,  2-H ) :   0.8391 B(  3-O ,  4-H ) :   0.8531
B(  3-O ,  5-H ) :   0.8391

MP2 TOTAL ENERGY:     -152.626611167 Eh
FINAL SINGLE POINT ENERGY      -152.626611166911

DIPOLE MOMENT
-------------
                                X             Y             Z
Electronic contribution:      0.00000       0.00000      -0.19688
Nuclear contribution   :     -0.00000      -0.00000       1.26519
                        -----------------------------------------
Total Dipole Moment    :      0.00000       0.00000       1.06830
                        -----------------------------------------
Magnitude (a.u.)       :      1.06830
Magnitude (Debye)      :      2.71541

Rotational constants in cm-1:     8.533134     0.112567     0.112344
Rotational constants in MHz : 255816.927746  3374.682970  3367.993343

                             ****ORCA TERMINATED NORMALLY****
TOTAL RUN TIME: 0 days 0 hours 0 minutes 19 seconds 333 msec
