                         Program Version 4.2.0 -  RELEASE  -
|  1> # 12h2o.su.etal.mol0,2,3,4,5,6,8,10,11
|  2> ! MP2 def2-TZVP EnGrad TightSCF
|  3>
|  4> %pal
|  5>     nprocs 6
|  6> end
|  7>
|  8> %maxcore 8000
|  9>
| 10> %scf
| 11>     ConvForced true
| 12> end
| 13>
| 14> *xyz 0 1
| 15> O   1.794470000   0.923410000   2.768350000
| 16> H   2.338250000   1.359750000   3.430940000
| 17> H   0.879480000   1.303000000   2.865760000
| 18> O   0.923410000  -1.794470000  -2.768350000
| 19> H   1.359750000  -2.338250000  -3.430940000
| 20> H   1.303000000  -0.879480000  -2.865760000
| 21> O  -1.752130000  -0.741530000  -2.896280000
| 22> H  -2.036450000  -0.920500000  -1.984040000
| 23> H  -0.921210000  -1.242140000  -2.984230000
| 24> O  -0.885520000   1.737840000   0.052730000
| 25> H  -1.032320000   2.090180000  -0.841890000
| 26> H  -1.284090000   0.839590000   0.017130000
| 27> O   0.885520000  -1.737840000   0.052730000
| 28> H   1.284090000  -0.839590000   0.017130000
| 29> H   1.032320000  -2.090180000  -0.841890000
| 30> O   1.737840000   0.885520000  -0.052730000
| 31> H   2.090180000   1.032320000   0.841890000
| 32> H   0.839590000   1.284090000  -0.017130000
| 33> O   1.752130000   0.741530000  -2.896280000
| 34> H   2.036450000   0.920500000  -1.984040000
| 35> H   0.921210000   1.242140000  -2.984230000
| 36> O  -0.923410000   1.794470000  -2.768350000
| 37> H  -1.359750000   2.338250000  -3.430940000
| 38> H  -1.303000000   0.879480000  -2.865760000
| 39> O  -0.741530000   1.752130000   2.896280000
| 40> H  -0.920500000   2.036450000   1.984040000
| 41> H  -1.242140000   0.921210000   2.984230000
| 42> *
| 43>
| 44>                          ****END OF INPUT****

CARTESIAN COORDINATES (ANGSTROEM)
---------------------------------
  O      1.794470    0.923410    2.768350
  H      2.338250    1.359750    3.430940
  H      0.879480    1.303000    2.865760
  O      0.923410   -1.794470   -2.768350
  H      1.359750   -2.338250   -3.430940
  H      1.303000   -0.879480   -2.865760
  O     -1.752130   -0.741530   -2.896280
  H     -2.036450   -0.920500   -1.984040
  H     -0.921210   -1.242140   -2.984230
  O     -0.885520    1.737840    0.052730
  H     -1.032320    2.090180   -0.841890
  H     -1.284090    0.839590    0.017130
  O      0.885520   -1.737840    0.052730
  H      1.284090   -0.839590    0.017130
  H      1.032320   -2.090180   -0.841890
  O      1.737840    0.885520   -0.052730
  H      2.090180    1.032320    0.841890
  H      0.839590    1.284090   -0.017130
  O      1.752130    0.741530   -2.896280
  H      2.036450    0.920500   -1.984040
  H      0.921210    1.242140   -2.984230
  O     -0.923410    1.794470   -2.768350
  H     -1.359750    2.338250   -3.430940
  H     -1.303000    0.879480   -2.865760
  O     -0.741530    1.752130    2.896280
  H     -0.920500    2.036450    1.984040
  H     -1.242140    0.921210    2.984230

 Total Charge           Charge          ....    0
 Multiplicity           Mult            ....    1
 Number of Electrons    NEL             ....   90
 Basis Dimension        Dim             ....  387

ORBITAL ENERGIES
----------------

  NO   OCC          E(Eh)            E(eV)
   0   2.0000     -20.605661      -560.7085
   1   2.0000     -20.589594      -560.2713
   2   2.0000     -20.587779      -560.2220
   3   2.0000     -20.582617      -560.0815
   4   2.0000     -20.561173      -559.4980
   5   2.0000     -20.553083      -559.2778
   6   2.0000     -20.545818      -559.0801
   7   2.0000     -20.538319      -558.8761
   8   2.0000     -20.495480      -557.7104
   9   2.0000      -1.395852       -37.9831
  10   2.0000      -1.385198       -37.6932
  11   2.0000      -1.370682       -37.2982
  12   2.0000      -1.365970       -37.1699
  13   2.0000      -1.356409       -36.9098
  14   2.0000      -1.340501       -36.4769
  15   2.0000      -1.333017       -36.2732
  16   2.0000      -1.319490       -35.9052
  17   2.0000      -1.279421       -34.8148
  18   2.0000      -0.758345       -20.6356
  19   2.0000      -0.751291       -20.4437
  20   2.0000      -0.741447       -20.1758
  21   2.0000      -0.731014       -19.8919
  22   2.0000      -0.723109       -19.6768
  23   2.0000      -0.716975       -19.5099
  24   2.0000      -0.706451       -19.2235
  25   2.0000      -0.706125       -19.2146
  26   2.0000      -0.662628       -18.0310
  27   2.0000      -0.655448       -17.8356
  28   2.0000      -0.633149       -17.2289
  29   2.0000      -0.615009       -16.7352
  30   2.0000      -0.608267       -16.5518
  31   2.0000      -0.600754       -16.3473
  32   2.0000      -0.591080       -16.0841
  33   2.0000      -0.571653       -15.5555
  34   2.0000      -0.559201       -15.2166
  35   2.0000      -0.545545       -14.8450
  36   2.0000      -0.534944       -14.5566
  37   2.0000      -0.532493       -14.4899
  38   2.0000      -0.531145       -14.4532
  39   2.0000      -0.516125       -14.0445
  40   2.0000      -0.505158       -13.7460
  41   2.0000      -0.497955       -13.5501
  42   2.0000      -0.487768       -13.2728
  43   2.0000      -0.483421       -13.1546
  44   2.0000      -0.446599       -12.1526
  45   0.0000       0.087323         2.3762
  46   0.0000       0.127477         3.4688
  47   0.0000       0.139408         3.7935
  48   0.0000       0.147054         4.0016
  49   0.0000       0.167363         4.5542

MULLIKEN ATOMIC CHARGES
-----------------------
   0 O :   -0.732350
   1 H :    0.334700
   2 H :    0.372522
   3 O :   -0.757073
   4 H :    0.348612
   5 H :    0.383680
   6 O :   -0.705982
   7 H :    0.349396
   8 H :    0.387622
   9 O :   -0.729699
  10 H :    0.395057
  11 H :    0.348058
  12 O :   -0.746592
  13 H :    0.353006
  14 H :    0.354461
  15 O :   -0.755247
  16 H :    0.386460
  17 H :    0.355259
  18 O :   -0.724674
  19 H :    0.391854
  20 H :    0.365512
  21 O :   -0.761592
  22 H :    0.358253
  23 H :    0.383602
  24 O :   -0.694015
  25 H :    0.386700
  26 H :    0.352472
Sum of atomic charges:    0.0000000

LOEWDIN ATOMIC CHARGES
----------------------
   0 O :   -0.337621
   1 H :    0.153268
   2 H :    0.144563
   3 O :   -0.316013
   4 H :    0.158059
   5 H :    0.146150
   6 O :   -0.278662
   7 H :    0.167239
   8 H :    0.157634
   9 O :   -0.283722
  10 H :    0.158689
  11 H :    0.172393
  12 O :   -0.375149
  13 H :    0.135697
  14 H :    0.140127
  15 O :   -0.303856
  16 H :    0.154900
  17 H :    0.139317
  18 O :   -0.287103
  19 H :    0.157517
  20 H :    0.147598
  21 O :   -0.315674
  22 H :    0.162893
  23 H :    0.145767
  24 O :   -0.274702
  25 H :    0.157356
  26 H :    0.173335

  Mayer bond orders larger than 0.100000
B(  0-O ,  1-H ) :   0.8519 B(  0-O ,  2-H ) :   0.7632 B(  3-O ,  4-H ) :   0.8409
B(  3-O ,  5-H ) :   0.7263 B(  5-H , 18-O ) :   0.1219 B(  6-O ,  7-H ) :   0.8410
B(  6-O ,  8-H ) :   0.7748 B(  6-O , 23-H ) :   0.1176 B(  9-O , 10-H ) :   0.7817
B(  9-O , 11-H ) :   0.8303 B( 12-O , 13-H ) :   0.7992 B( 12-O , 14-H ) :   0.8286
B( 15-O , 16-H ) :   0.7867 B( 15-O , 17-H ) :   0.7838 B( 18-O , 19-H ) :   0.7935
B( 18-O , 20-H ) :   0.8062 B( 21-O , 22-H ) :   0.8365 B( 21-O , 23-H ) :   0.7304
B( 24-O , 25-H ) :   0.8030 B( 24-O , 26-H ) :   0.8403

MP2 TOTAL ENERGY:     -686.930514879 Eh
FINAL SINGLE POINT ENERGY      -686.930514879197

DIPOLE MOMENT
-------------
                                X             Y             Z
Electronic contribution:     -0.12344       0.26685      -0.00591
Nuclear contribution   :     -1.32903       0.67812      -0.72077
                        -----------------------------------------
Total Dipole Moment    :     -1.45247       0.94498      -0.72668
                        -----------------------------------------
Magnitude (a.u.)       :      1.87902
Magnitude (Debye)      :      4.77608

Rotational constants in cm-1:     0.032207     0.015970     0.013932
Rotational constants in MHz :   965.534775   478.760006   417.659881

                             ****ORCA TERMINATED NORMALLY****
TOTAL RUN TIME: 0 days 0 hours 4 minutes 59 seconds 562 msec
