                         Program Version 4.2.0 -  RELEASE  -
|  1> # 12meoh.boyd.etal.mol4,11
|  2> ! MP2 def2-TZVP EnGrad TightSCF
|  3>
|  4> %pal
|  5>     nprocs 6
|  6> end
|  7>
|  8> %maxcore 8000
|  9>
| 10> %scf
| 11>     ConvForced true
| 12> end
| 13>
| 14> *xyz 0 1
| 15> O  -1.358578914   1.232360421   1.189721000
| 16> H  -1.058250183   1.216459361   0.238591307
| 17> C  -0.389763452   1.957872567   1.943072362
| 18> H  -0.747220771   2.012806578   2.975200343
| 19> H  -0.260410585   2.982763209   1.565366540
| 20> H   0.585220638   1.453754179   1.934070793
| 21> O   3.252955559   0.588596242   1.858934315
| 22> H   3.621209177  -0.251605199   1.476063364
| 23> C   4.040824528   0.944288422   2.989639460
| 24> H   3.670521436   1.902573549   3.363847391
| 25> H   5.103749934   1.055868619   2.734277559
| 26> H   3.948540682   0.200279590   3.792908518
| 27> *
| 28>
| 29>                          ****END OF INPUT****

CARTESIAN COORDINATES (ANGSTROEM)
---------------------------------
  O     -1.358579    1.232360    1.189721
  H     -1.058250    1.216459    0.238591
  C     -0.389763    1.957873    1.943072
  H     -0.747221    2.012807    2.975200
  H     -0.260411    2.982763    1.565367
  H      0.585221    1.453754    1.934071
  O      3.252956    0.588596    1.858934
  H      3.621209   -0.251605    1.476063
  C      4.040825    0.944288    2.989639
  H      3.670521    1.902574    3.363847
  H      5.103750    1.055869    2.734278
  H      3.948541    0.200280    3.792909

 Total Charge           Charge          ....    0
 Multiplicity           Mult            ....    1
 Number of Electrons    NEL             ....   36
 Basis Dimension        Dim             ....  172

ORBITAL ENERGIES
----------------

  NO   OCC          E(Eh)            E(eV)
   0   2.0000     -20.564219      -559.5808
   1   2.0000     -20.546363      -559.0950
   2   2.0000     -11.276835      -306.8583
   3   2.0000     -11.257019      -306.3191
   4   2.0000      -1.353465       -36.8297
   5   2.0000      -1.333799       -36.2945
   6   2.0000      -0.925252       -25.1774
   7   2.0000      -0.905882       -24.6503
   8   2.0000      -0.688286       -18.7292
   9   2.0000      -0.668140       -18.1810
  10   2.0000      -0.622800       -16.9473
  11   2.0000      -0.604426       -16.4473
  12   2.0000      -0.596152       -16.2221
  13   2.0000      -0.578177       -15.7330
  14   2.0000      -0.506929       -13.7942
  15   2.0000      -0.487643       -13.2694
  16   2.0000      -0.455649       -12.3988
  17   2.0000      -0.436249       -11.8709
  18   0.0000       0.126616         3.4454
  19   0.0000       0.148879         4.0512
  20   0.0000       0.168291         4.5794
  21   0.0000       0.187359         5.0983
  22   0.0000       0.220276         5.9940

MULLIKEN ATOMIC CHARGES
-----------------------
   0 O :   -0.504719
   1 H :    0.319988
   2 C :   -0.185473
   3 H :    0.119752
   4 H :    0.103179
   5 H :    0.139894
   6 O :   -0.496220
   7 H :    0.322056
   8 C :   -0.173484
   9 H :    0.130005
  10 H :    0.112157
  11 H :    0.112863
Sum of atomic charges:   -0.0000000

LOEWDIN ATOMIC CHARGES
----------------------
   0 O :   -0.115614
   1 H :    0.190807
   2 C :   -0.383567
   3 H :    0.107596
   4 H :    0.094056
   5 H :    0.101118
   6 O :   -0.107835
   7 H :    0.190921
   8 C :   -0.381391
   9 H :    0.110354
  10 H :    0.096992
  11 H :    0.096564

  Mayer bond orders larger than 0.100000
B(  0-O ,  1-H ) :   0.8432 B(  0-O ,  2-C ) :   0.9130 B(  2-C ,  3-H ) :   0.9351
B(  2-C ,  4-H ) :   0.9391 B(  2-C ,  5-H ) :   0.9357 B(  6-O ,  7-H ) :   0.8399
B(  6-O ,  8-C ) :   0.9170 B(  8-C ,  9-H ) :   0.9391 B(  8-C , 10-H ) :   0.9353
B(  8-C , 11-H ) :   0.9385

MP2 TOTAL ENERGY:     -231.015129374 Eh
FINAL SINGLE POINT ENERGY      -231.015129373603

DIPOLE MOMENT
-------------
                                X             Y             Z
Electronic contribution:     -2.26511      -1.28711      -2.20708
Nuclear contribution   :      3.49101       1.16898       2.16349
                        -----------------------------------------
Total Dipole Moment    :      1.22590      -0.11814      -0.04359
                        -----------------------------------------
Magnitude (a.u.)       :      1.23235
Magnitude (Debye)      :      3.13240

Rotational constants in cm-1:     0.599903     0.045044     0.042908
Rotational constants in MHz : 17984.640178  1350.390516  1286.335020

                             ****ORCA TERMINATED NORMALLY****
TOTAL RUN TIME: 0 days 0 hours 0 minutes 21 seconds 100 msec
