                         Program Version 4.2.0 -  RELEASE  -
|  1> # 12h2o.su.etal.mol0,1,2,3,5,9
|  2> ! MP2 def2-TZVP EnGrad TightSCF
|  3>
|  4> %pal
|  5>     nprocs 6
|  6> end
|  7>
|  8> %maxcore 8000
|  9>
| 10> %scf
| 11>     ConvForced true
| 12> end
| 13>
| 14> *xyz 0 1
| 15> O   1.794470000   0.923410000   2.768350000
| 16> H   2.338250000   1.359750000   3.430940000
| 17> H   0.879480000   1.303000000   2.865760000
| 18> O  -1.794470000  -0.923410000   2.768350000
| 19> H  -2.338250000  -1.359750000   3.430940000
| 20> H  -0.879480000  -1.303000000   2.865760000
| 21> O   0.923410000  -1.794470000  -2.768350000
| 22> H   1.359750000  -2.338250000  -3.430940000
| 23> H   1.303000000  -0.879480000  -2.865760000
| 24> O  -1.752130000  -0.741530000  -2.896280000
| 25> H  -2.036450000  -0.920500000  -1.984040000
| 26> H  -0.921210000  -1.242140000  -2.984230000
| 27> O   0.885520000  -1.737840000   0.052730000
| 28> H   1.284090000  -0.839590000   0.017130000
| 29> H   1.032320000  -2.090180000  -0.841890000
| 30> O   0.741530000  -1.752130000   2.896280000
| 31> H   0.920500000  -2.036450000   1.984040000
| 32> H   1.242140000  -0.921210000   2.984230000
| 33> *
| 34>
| 35>                          ****END OF INPUT****

CARTESIAN COORDINATES (ANGSTROEM)
---------------------------------
  O      1.794470    0.923410    2.768350
  H      2.338250    1.359750    3.430940
  H      0.879480    1.303000    2.865760
  O     -1.794470   -0.923410    2.768350
  H     -2.338250   -1.359750    3.430940
  H     -0.879480   -1.303000    2.865760
  O      0.923410   -1.794470   -2.768350
  H      1.359750   -2.338250   -3.430940
  H      1.303000   -0.879480   -2.865760
  O     -1.752130   -0.741530   -2.896280
  H     -2.036450   -0.920500   -1.984040
  H     -0.921210   -1.242140   -2.984230
  O      0.885520   -1.737840    0.052730
  H      1.284090   -0.839590    0.017130
  H      1.032320   -2.090180   -0.841890
  O      0.741530   -1.752130    2.896280
  H      0.920500   -2.036450    1.984040
  H      1.242140   -0.921210    2.984230

 Total Charge           Charge          ....    0
 Multiplicity           Mult            ....    1
 Number of Electrons    NEL             ....   60
 Basis Dimension        Dim             ....  258

ORBITAL ENERGIES
----------------

  NO   OCC          E(Eh)            E(eV)
   0   2.0000     -20.621365      -561.1359
   1   2.0000     -20.593439      -560.3760
   2   2.0000     -20.563877      -559.5715
   3   2.0000     -20.534994      -558.7856
   4   2.0000     -20.531291      -558.6848
   5   2.0000     -20.500207      -557.8390
   6   2.0000      -1.401506       -38.1369
   7   2.0000      -1.371332       -37.3158
   8   2.0000      -1.345996       -36.6264
   9   2.0000      -1.326039       -36.0834
  10   2.0000      -1.313899       -35.7530
  11   2.0000      -1.281627       -34.8748
  12   2.0000      -0.767106       -20.8740
  13   2.0000      -0.738281       -20.0896
  14   2.0000      -0.716686       -19.5020
  15   2.0000      -0.692231       -18.8366
  16   2.0000      -0.686360       -18.6768
  17   2.0000      -0.667899       -18.1745
  18   2.0000      -0.637945       -17.3594
  19   2.0000      -0.614596       -16.7240
  20   2.0000      -0.596262       -16.2251
  21   2.0000      -0.574270       -15.6267
  22   2.0000      -0.557277       -15.1643
  23   2.0000      -0.540748       -14.7145
  24   2.0000      -0.536686       -14.6040
  25   2.0000      -0.520466       -14.1626
  26   2.0000      -0.509473       -13.8635
  27   2.0000      -0.478935       -13.0325
  28   2.0000      -0.473735       -12.8910
  29   2.0000      -0.451080       -12.2745
  30   0.0000       0.086679         2.3586
  31   0.0000       0.110720         3.0128
  32   0.0000       0.151834         4.1316
  33   0.0000       0.169680         4.6172
  34   0.0000       0.183245         4.9863

MULLIKEN ATOMIC CHARGES
-----------------------
   0 O :   -0.706618
   1 H :    0.355217
   2 H :    0.372222
   3 O :   -0.742030
   4 H :    0.319172
   5 H :    0.369338
   6 O :   -0.711681
   7 H :    0.366833
   8 H :    0.368472
   9 O :   -0.707974
  10 H :    0.343697
  11 H :    0.350851
  12 O :   -0.705969
  13 H :    0.335968
  14 H :    0.371352
  15 O :   -0.718247
  16 H :    0.382737
  17 H :    0.356661
Sum of atomic charges:   -0.0000000

LOEWDIN ATOMIC CHARGES
----------------------
   0 O :   -0.313636
   1 H :    0.164897
   2 H :    0.192741
   3 O :   -0.378651
   4 H :    0.145321
   5 H :    0.141575
   6 O :   -0.286015
   7 H :    0.169149
   8 H :    0.191214
   9 O :   -0.347597
  10 H :    0.166318
  11 H :    0.143674
  12 O :   -0.322027
  13 H :    0.169275
  14 H :    0.151536
  15 O :   -0.290069
  16 H :    0.156110
  17 H :    0.146185

  Mayer bond orders larger than 0.100000
B(  0-O ,  1-H ) :   0.8403 B(  0-O ,  2-H ) :   0.8211 B(  3-O ,  4-H ) :   0.8636
B(  3-O ,  5-H ) :   0.7692 B(  5-H , 15-O ) :   0.1033 B(  6-O ,  7-H ) :   0.8305
B(  6-O ,  8-H ) :   0.8224 B(  9-O , 10-H ) :   0.8488 B(  9-O , 11-H ) :   0.8312
B( 12-O , 13-H ) :   0.8459 B( 12-O , 14-H ) :   0.8132 B( 15-O , 16-H ) :   0.8050
B( 15-O , 17-H ) :   0.8140

MP2 TOTAL ENERGY:     -457.917627725 Eh
FINAL SINGLE POINT ENERGY      -457.917627724764

DIPOLE MOMENT
-------------
                                X             Y             Z
Electronic contribution:      0.19271      -0.11927      -0.32590
Nuclear contribution   :      2.15372       0.65269      -0.14168
                        -----------------------------------------
Total Dipole Moment    :      2.34643       0.53342      -0.46759
                        -----------------------------------------
Magnitude (a.u.)       :      2.45130
Magnitude (Debye)      :      6.23072

Rotational constants in cm-1:     0.058136     0.020741     0.018220
Rotational constants in MHz :  1742.868692   621.800034   546.210476

                             ****ORCA TERMINATED NORMALLY****
TOTAL RUN TIME: 0 days 0 hours 0 minutes 55 seconds 906 msec
