                         Program Version 4.2.0 -  RELEASE  -
|  1> # 12h2o.su.etal.mol0,1,2,6,7,9
|  2> ! MP2 def2-TZVP EnGrad TightSCF
|  3>
|  4> %pal
|  5>     nprocs 6
|  6> end
|  7>
|  8> %maxcore 8000
|  9>
| 10> %scf
| 11>     ConvForced true
| 12> end
| 13>
| 14> *xyz 0 1
| 15> O   1.794470000   0.923410000   2.768350000
| 16> H   2.338250000   1.359750000   3.430940000
| 17> H   0.879480000   1.303000000   2.865760000
| 18> O  -1.794470000  -0.923410000   2.768350000
| 19> H  -2.338250000  -1.359750000   3.430940000
| 20> H  -0.879480000  -1.303000000   2.865760000
| 21> O   0.923410000  -1.794470000  -2.768350000
| 22> H   1.359750000  -2.338250000  -3.430940000
| 23> H   1.303000000  -0.879480000  -2.865760000
| 24> O   1.737840000   0.885520000  -0.052730000
| 25> H   2.090180000   1.032320000   0.841890000
| 26> H   0.839590000   1.284090000  -0.017130000
| 27> O  -1.737840000  -0.885520000  -0.052730000
| 28> H  -2.090180000  -1.032320000   0.841890000
| 29> H  -0.839590000  -1.284090000  -0.017130000
| 30> O   0.741530000  -1.752130000   2.896280000
| 31> H   0.920500000  -2.036450000   1.984040000
| 32> H   1.242140000  -0.921210000   2.984230000
| 33> *
| 34>
| 35>                          ****END OF INPUT****

CARTESIAN COORDINATES (ANGSTROEM)
---------------------------------
  O      1.794470    0.923410    2.768350
  H      2.338250    1.359750    3.430940
  H      0.879480    1.303000    2.865760
  O     -1.794470   -0.923410    2.768350
  H     -2.338250   -1.359750    3.430940
  H     -0.879480   -1.303000    2.865760
  O      0.923410   -1.794470   -2.768350
  H      1.359750   -2.338250   -3.430940
  H      1.303000   -0.879480   -2.865760
  O      1.737840    0.885520   -0.052730
  H      2.090180    1.032320    0.841890
  H      0.839590    1.284090   -0.017130
  O     -1.737840   -0.885520   -0.052730
  H     -2.090180   -1.032320    0.841890
  H     -0.839590   -1.284090   -0.017130
  O      0.741530   -1.752130    2.896280
  H      0.920500   -2.036450    1.984040
  H      1.242140   -0.921210    2.984230

 Total Charge           Charge          ....    0
 Multiplicity           Mult            ....    1
 Number of Electrons    NEL             ....   60
 Basis Dimension        Dim             ....  258

ORBITAL ENERGIES
----------------

  NO   OCC          E(Eh)            E(eV)
   0   2.0000     -20.625885      -561.2589
   1   2.0000     -20.582794      -560.0863
   2   2.0000     -20.547733      -559.1322
   3   2.0000     -20.545938      -559.0834
   4   2.0000     -20.543320      -559.0122
   5   2.0000     -20.515168      -558.2461
   6   2.0000      -1.406390       -38.2698
   7   2.0000      -1.371774       -37.3279
   8   2.0000      -1.327632       -36.1267
   9   2.0000      -1.325062       -36.0568
  10   2.0000      -1.323037       -36.0017
  11   2.0000      -1.293638       -35.2017
  12   2.0000      -0.771977       -21.0066
  13   2.0000      -0.733688       -19.9647
  14   2.0000      -0.711784       -19.3686
  15   2.0000      -0.697325       -18.9752
  16   2.0000      -0.691058       -18.8046
  17   2.0000      -0.662828       -18.0365
  18   2.0000      -0.644580       -17.5399
  19   2.0000      -0.614303       -16.7160
  20   2.0000      -0.584370       -15.9015
  21   2.0000      -0.568969       -15.4824
  22   2.0000      -0.559343       -15.2205
  23   2.0000      -0.548916       -14.9368
  24   2.0000      -0.539311       -14.6754
  25   2.0000      -0.517449       -14.0805
  26   2.0000      -0.492205       -13.3936
  27   2.0000      -0.490280       -13.3412
  28   2.0000      -0.489089       -13.3088
  29   2.0000      -0.460661       -12.5352
  30   0.0000       0.085029         2.3137
  31   0.0000       0.127401         3.4668
  32   0.0000       0.144375         3.9286
  33   0.0000       0.158074         4.3014
  34   0.0000       0.167120         4.5476

MULLIKEN ATOMIC CHARGES
-----------------------
   0 O :   -0.721744
   1 H :    0.368072
   2 H :    0.377333
   3 O :   -0.741015
   4 H :    0.336375
   5 H :    0.365383
   6 O :   -0.684291
   7 H :    0.332617
   8 H :    0.352103
   9 O :   -0.700041
  10 H :    0.359689
  11 H :    0.335462
  12 O :   -0.699180
  13 H :    0.363268
  14 H :    0.320366
  15 O :   -0.699324
  16 H :    0.358931
  17 H :    0.375994
Sum of atomic charges:   -0.0000000

LOEWDIN ATOMIC CHARGES
----------------------
   0 O :   -0.287635
   1 H :    0.169870
   2 H :    0.194580
   3 O :   -0.344333
   4 H :    0.153121
   5 H :    0.141429
   6 O :   -0.339050
   7 H :    0.155203
   8 H :    0.183915
   9 O :   -0.345324
  10 H :    0.145626
  11 H :    0.168000
  12 O :   -0.348203
  13 H :    0.147009
  14 H :    0.158656
  15 O :   -0.278483
  16 H :    0.172042
  17 H :    0.153575

  Mayer bond orders larger than 0.100000
B(  0-O ,  1-H ) :   0.8295 B(  0-O ,  2-H ) :   0.8143 B(  3-O ,  4-H ) :   0.8507
B(  3-O ,  5-H ) :   0.7616 B(  6-O ,  7-H ) :   0.8560 B(  6-O ,  8-H ) :   0.8382
B(  9-O , 10-H ) :   0.8277 B(  9-O , 11-H ) :   0.8472 B( 12-O , 13-H ) :   0.8159
B( 12-O , 14-H ) :   0.8554 B( 15-O , 16-H ) :   0.8351 B( 15-O , 17-H ) :   0.8028

MP2 TOTAL ENERGY:     -457.912452790 Eh
FINAL SINGLE POINT ENERGY      -457.912452789817

DIPOLE MOMENT
-------------
                                X             Y             Z
Electronic contribution:      0.18885      -0.00843       0.09271
Nuclear contribution   :      1.24480       0.76395       1.49504
                        -----------------------------------------
Total Dipole Moment    :      1.43366       0.75552       1.58776
                        -----------------------------------------
Magnitude (a.u.)       :      2.26873
Magnitude (Debye)      :      5.76666

Rotational constants in cm-1:     0.045729     0.029259     0.021592
Rotational constants in MHz :  1370.906233   877.165653   647.305791

                             ****ORCA TERMINATED NORMALLY****
TOTAL RUN TIME: 0 days 0 hours 0 minutes 53 seconds 355 msec
