                         Program Version 4.2.0 -  RELEASE  -
|  1> # 12h2o.su.etal.mol0,1,2,3,4,6,7,9,10,11
|  2> ! MP2 def2-TZVP EnGrad TightSCF
|  3>
|  4> %pal
|  5>     nprocs 6
|  6> end
|  7>
|  8> %maxcore 8000
|  9>
| 10> %scf
| 11>     ConvForced true
| 12> end
| 13>
| 14> *xyz 0 1
| 15> O   1.794470000   0.923410000   2.768350000
| 16> H   2.338250000   1.359750000   3.430940000
| 17> H   0.879480000   1.303000000   2.865760000
| 18> O  -1.794470000  -0.923410000   2.768350000
| 19> H  -2.338250000  -1.359750000   3.430940000
| 20> H  -0.879480000  -1.303000000   2.865760000
| 21> O   0.923410000  -1.794470000  -2.768350000
| 22> H   1.359750000  -2.338250000  -3.430940000
| 23> H   1.303000000  -0.879480000  -2.865760000
| 24> O  -1.752130000  -0.741530000  -2.896280000
| 25> H  -2.036450000  -0.920500000  -1.984040000
| 26> H  -0.921210000  -1.242140000  -2.984230000
| 27> O  -0.885520000   1.737840000   0.052730000
| 28> H  -1.032320000   2.090180000  -0.841890000
| 29> H  -1.284090000   0.839590000   0.017130000
| 30> O   1.737840000   0.885520000  -0.052730000
| 31> H   2.090180000   1.032320000   0.841890000
| 32> H   0.839590000   1.284090000  -0.017130000
| 33> O  -1.737840000  -0.885520000  -0.052730000
| 34> H  -2.090180000  -1.032320000   0.841890000
| 35> H  -0.839590000  -1.284090000  -0.017130000
| 36> O   0.741530000  -1.752130000   2.896280000
| 37> H   0.920500000  -2.036450000   1.984040000
| 38> H   1.242140000  -0.921210000   2.984230000
| 39> O  -0.923410000   1.794470000  -2.768350000
| 40> H  -1.359750000   2.338250000  -3.430940000
| 41> H  -1.303000000   0.879480000  -2.865760000
| 42> O  -0.741530000   1.752130000   2.896280000
| 43> H  -0.920500000   2.036450000   1.984040000
| 44> H  -1.242140000   0.921210000   2.984230000
| 45> *
| 46>
| 47>                          ****END OF INPUT****

CARTESIAN COORDINATES (ANGSTROEM)
---------------------------------
  O      1.794470    0.923410    2.768350
  H      2.338250    1.359750    3.430940
  H      0.879480    1.303000    2.865760
  O     -1.794470   -0.923410    2.768350
  H     -2.338250   -1.359750    3.430940
  H     -0.879480   -1.303000    2.865760
  O      0.923410   -1.794470   -2.768350
  H      1.359750   -2.338250   -3.430940
  H      1.303000   -0.879480   -2.865760
  O     -1.752130   -0.741530   -2.896280
  H     -2.036450   -0.920500   -1.984040
  H     -0.921210   -1.242140   -2.984230
  O     -0.885520    1.737840    0.052730
  H     -1.032320    2.090180   -0.841890
  H     -1.284090    0.839590    0.017130
  O      1.737840    0.885520   -0.052730
  H      2.090180    1.032320    0.841890
  H      0.839590    1.284090   -0.017130
  O     -1.737840   -0.885520   -0.052730
  H     -2.090180   -1.032320    0.841890
  H     -0.839590   -1.284090   -0.017130
  O      0.741530   -1.752130    2.896280
  H      0.920500   -2.036450    1.984040
  H      1.242140   -0.921210    2.984230
  O     -0.923410    1.794470   -2.768350
  H     -1.359750    2.338250   -3.430940
  H     -1.303000    0.879480   -2.865760
  O     -0.741530    1.752130    2.896280
  H     -0.920500    2.036450    1.984040
  H     -1.242140    0.921210    2.984230

 Total Charge           Charge          ....    0
 Multiplicity           Mult            ....    1
 Number of Electrons    NEL             ....  100
 Basis Dimension        Dim             ....  430

ORBITAL ENERGIES
----------------

  NO   OCC          E(Eh)            E(eV)
   0   2.0000     -20.592828      -560.3593
   1   2.0000     -20.587557      -560.2159
   2   2.0000     -20.584734      -560.1391
   3   2.0000     -20.582397      -560.0755
   4   2.0000     -20.559543      -559.4536
   5   2.0000     -20.551810      -559.2432
   6   2.0000     -20.550221      -559.1999
   7   2.0000     -20.542005      -558.9764
   8   2.0000     -20.535498      -558.7993
   9   2.0000     -20.496600      -557.7409
  10   2.0000      -1.385635       -37.7050
  11   2.0000      -1.377747       -37.4904
  12   2.0000      -1.365962       -37.1697
  13   2.0000      -1.360944       -37.0332
  14   2.0000      -1.354108       -36.8472
  15   2.0000      -1.344557       -36.5872
  16   2.0000      -1.337010       -36.3819
  17   2.0000      -1.329819       -36.1862
  18   2.0000      -1.315090       -35.7854
  19   2.0000      -1.280389       -34.8412
  20   2.0000      -0.749088       -20.3837
  21   2.0000      -0.741648       -20.1813
  22   2.0000      -0.737062       -20.0565
  23   2.0000      -0.733076       -19.9480
  24   2.0000      -0.720990       -19.6191
  25   2.0000      -0.713426       -19.4133
  26   2.0000      -0.708883       -19.2897
  27   2.0000      -0.702164       -19.1069
  28   2.0000      -0.700597       -19.0642
  29   2.0000      -0.662980       -18.0406
  30   2.0000      -0.647491       -17.6191
  31   2.0000      -0.626353       -17.0439
  32   2.0000      -0.610963       -16.6252
  33   2.0000      -0.607258       -16.5243
  34   2.0000      -0.598966       -16.2987
  35   2.0000      -0.589405       -16.0385
  36   2.0000      -0.580342       -15.7919
  37   2.0000      -0.567993       -15.4559
  38   2.0000      -0.552073       -15.0227
  39   2.0000      -0.539375       -14.6771
  40   2.0000      -0.529298       -14.4029
  41   2.0000      -0.527898       -14.3648
  42   2.0000      -0.526681       -14.3317
  43   2.0000      -0.525218       -14.2919
  44   2.0000      -0.503496       -13.7008
  45   2.0000      -0.495825       -13.4921
  46   2.0000      -0.494795       -13.4641
  47   2.0000      -0.485244       -13.2042
  48   2.0000      -0.481543       -13.1034
  49   2.0000      -0.447791       -12.1850
  50   0.0000       0.096153         2.6164
  51   0.0000       0.121911         3.3174
  52   0.0000       0.143754         3.9117
  53   0.0000       0.149414         4.0657
  54   0.0000       0.155701         4.2368

MULLIKEN ATOMIC CHARGES
-----------------------
   0 O :   -0.756854
   1 H :    0.347877
   2 H :    0.384063
   3 O :   -0.760631
   4 H :    0.356868
   5 H :    0.383601
   6 O :   -0.711966
   7 H :    0.353201
   8 H :    0.382483
   9 O :   -0.718148
  10 H :    0.382762
  11 H :    0.366053
  12 O :   -0.756855
  13 H :    0.385407
  14 H :    0.357682
  15 O :   -0.749759
  16 H :    0.355314
  17 H :    0.353655
  18 O :   -0.731150
  19 H :    0.390897
  20 H :    0.356597
  21 O :   -0.707931
  22 H :    0.352924
  23 H :    0.386392
  24 O :   -0.740527
  25 H :    0.334102
  26 H :    0.371925
  27 O :   -0.725490
  28 H :    0.391496
  29 H :    0.366014
Sum of atomic charges:    0.0000000

LOEWDIN ATOMIC CHARGES
----------------------
   0 O :   -0.316044
   1 H :    0.157704
   2 H :    0.146280
   3 O :   -0.315630
   4 H :    0.162227
   5 H :    0.145807
   6 O :   -0.314405
   7 H :    0.164250
   8 H :    0.196213
   9 O :   -0.287191
  10 H :    0.154371
  11 H :    0.149670
  12 O :   -0.304694
  13 H :    0.154413
  14 H :    0.140172
  15 O :   -0.376353
  16 H :    0.140780
  17 H :    0.135983
  18 O :   -0.283117
  19 H :    0.156935
  20 H :    0.174773
  21 O :   -0.279354
  22 H :    0.168770
  23 H :    0.157163
  24 O :   -0.342450
  25 H :    0.152562
  26 H :    0.143503
  27 O :   -0.287575
  28 H :    0.157403
  29 H :    0.147835

  Mayer bond orders larger than 0.100000
B(  0-O ,  1-H ) :   0.8413 B(  0-O ,  2-H ) :   0.7256 B(  2-H , 27-O ) :   0.1228
B(  3-O ,  4-H ) :   0.8372 B(  3-O ,  5-H ) :   0.7309 B(  5-H , 21-O ) :   0.1168
B(  6-O ,  7-H ) :   0.8412 B(  6-O ,  8-H ) :   0.8125 B(  9-O , 10-H ) :   0.8092
B(  9-O , 11-H ) :   0.8026 B(  9-O , 26-H ) :   0.1118 B( 12-O , 13-H ) :   0.7876
B( 12-O , 14-H ) :   0.7789 B( 15-O , 16-H ) :   0.8274 B( 15-O , 17-H ) :   0.7956
B( 18-O , 19-H ) :   0.7857 B( 18-O , 20-H ) :   0.8252 B( 21-O , 22-H ) :   0.8388
B( 21-O , 23-H ) :   0.7765 B( 24-O , 25-H ) :   0.8521 B( 24-O , 26-H ) :   0.7500
B( 27-O , 28-H ) :   0.7934 B( 27-O , 29-H ) :   0.8051

MP2 TOTAL ENERGY:     -763.259568644 Eh
FINAL SINGLE POINT ENERGY      -763.259568643848

DIPOLE MOMENT
-------------
                                X             Y             Z
Electronic contribution:     -0.17045      -0.28293       0.08341
Nuclear contribution   :      0.00102      -1.02005       0.08817
                        -----------------------------------------
Total Dipole Moment    :     -0.16943      -1.30298       0.17158
                        -----------------------------------------
Magnitude (a.u.)       :      1.32511
Magnitude (Debye)      :      3.36815

Rotational constants in cm-1:     0.025119     0.012600     0.012325
Rotational constants in MHz :   753.062919   377.730382   369.507419

                             ****ORCA TERMINATED NORMALLY****
TOTAL RUN TIME: 0 days 0 hours 7 minutes 17 seconds 643 msec
