                         Program Version 4.2.0 -  RELEASE  -
|  1> ! MP2 def2-TZVP EnGrad TightSCF FrozenCore
|  2>
|  3> %pal
|  4>     nprocs 12
|  5> end
|  6>
|  7> %maxcore 8000
|  8>
|  9> %scf
| 10>     ConvForced true
| 11> end
| 12>
| 13> *xyz 0 1
| 14> C     4.965254    -1.339584    -0.044182
| 15> H     5.314737    -1.841863     0.861417
| 16> H     5.681198    -1.519605    -0.850122
| 17> H     3.989147    -1.742947    -0.329017
| 18> C     4.834832     0.095061     0.198140
| 19> N     4.719616     1.235344     0.387883
| 20> C     1.441127     1.882863    -0.329419
| 21> H     1.359621     2.357060    -1.310892
| 22> H     2.333451     2.260555     0.177544
| 23> H     0.543957     2.109134     0.253372
| 24> C     1.556674     0.436463    -0.488846
| 25> N     1.649881    -0.716148    -0.609375
| 26> C    -1.441125    -1.882860     0.329422
| 27> H    -1.359625    -2.357055     1.310897
| 28> H    -0.543950    -2.109132    -0.253362
| 29> H    -2.333445    -2.260554    -0.177546
| 30> C    -1.556674    -0.436460     0.488846
| 31> N    -1.649882     0.716151     0.609372
| 32> C    -4.965259     1.339581     0.044180
| 33> H    -5.314744     1.841858    -0.861419
| 34> H    -3.989153     1.742948     0.329016
| 35> H    -5.681203     1.519600     0.850120
| 36> C    -4.834832    -0.095064    -0.198140
| 37> N    -4.719611    -1.235346    -0.387883
| 38> *
| 39>
| 40>                          ****END OF INPUT****

CARTESIAN COORDINATES (ANGSTROEM)
---------------------------------
  C      4.965254   -1.339584   -0.044182
  H      5.314737   -1.841863    0.861417
  H      5.681198   -1.519605   -0.850122
  H      3.989147   -1.742947   -0.329017
  C      4.834832    0.095061    0.198140
  N      4.719616    1.235344    0.387883
  C      1.441127    1.882863   -0.329419
  H      1.359621    2.357060   -1.310892
  H      2.333451    2.260555    0.177544
  H      0.543957    2.109134    0.253372
  C      1.556674    0.436463   -0.488846
  N      1.649881   -0.716148   -0.609375
  C     -1.441125   -1.882860    0.329422
  H     -1.359625   -2.357055    1.310897
  H     -0.543950   -2.109132   -0.253362
  H     -2.333445   -2.260554   -0.177546
  C     -1.556674   -0.436460    0.488846
  N     -1.649882    0.716151    0.609372
  C     -4.965259    1.339581    0.044180
  H     -5.314744    1.841858   -0.861419
  H     -3.989153    1.742948    0.329016
  H     -5.681203    1.519600    0.850120
  C     -4.834832   -0.095064   -0.198140
  N     -4.719611   -1.235346   -0.387883

 Total Charge           Charge          ....    0
 Multiplicity           Mult            ....    1
 Number of Electrons    NEL             ....   88
 Basis Dimension        Dim             ....  444

ORBITAL ENERGIES
----------------

  NO   OCC          E(Eh)            E(eV)
   0   2.0000     -15.568655      -423.6446
   1   2.0000     -15.568655      -423.6446
   2   2.0000     -15.566505      -423.5861
   3   2.0000     -15.566504      -423.5861
   4   2.0000     -11.282367      -307.0088
   5   2.0000     -11.282366      -307.0088
   6   2.0000     -11.280251      -306.9512
   7   2.0000     -11.280251      -306.9512
   8   2.0000     -11.274156      -306.7854
   9   2.0000     -11.274156      -306.7854
  10   2.0000     -11.262869      -306.4782
  11   2.0000     -11.262869      -306.4782
  12   2.0000      -1.219225       -33.1768
  13   2.0000      -1.217376       -33.1265
  14   2.0000      -1.215040       -33.0629
  15   2.0000      -1.213434       -33.0192
  16   2.0000      -1.031427       -28.0666
  17   2.0000      -1.031397       -28.0658
  18   2.0000      -1.024480       -27.8775
  19   2.0000      -1.022373       -27.8202
  20   2.0000      -0.690910       -18.8006
  21   2.0000      -0.690783       -18.7972
  22   2.0000      -0.684434       -18.6244
  23   2.0000      -0.680985       -18.5305
  24   2.0000      -0.627344       -17.0709
  25   2.0000      -0.624731       -16.9998
  26   2.0000      -0.620741       -16.8912
  27   2.0000      -0.620695       -16.8900
  28   2.0000      -0.616724       -16.7819
  29   2.0000      -0.611137       -16.6299
  30   2.0000      -0.609207       -16.5774
  31   2.0000      -0.605037       -16.4639
  32   2.0000      -0.559834       -15.2339
  33   2.0000      -0.555925       -15.1275
  34   2.0000      -0.554432       -15.0869
  35   2.0000      -0.553634       -15.0651
  36   2.0000      -0.462319       -12.5803
  37   2.0000      -0.461366       -12.5544
  38   2.0000      -0.460721       -12.5369
  39   2.0000      -0.460022       -12.5178
  40   2.0000      -0.457665       -12.4537
  41   2.0000      -0.457490       -12.4489
  42   2.0000      -0.455610       -12.3978
  43   2.0000      -0.452122       -12.3029
  44   0.0000       0.128414         3.4943
  45   0.0000       0.133809         3.6411
  46   0.0000       0.148766         4.0481
  47   0.0000       0.157774         4.2932
  48   0.0000       0.174191         4.7400

MULLIKEN ATOMIC CHARGES
-----------------------
   0 C :   -0.289502
   1 H :    0.165962
   2 H :    0.166293
   3 H :    0.200971
   4 C :   -0.109026
   5 N :   -0.135316
   6 C :   -0.292126
   7 H :    0.160678
   8 H :    0.199746
   9 H :    0.193846
  10 C :   -0.057500
  11 N :   -0.204026
  12 C :   -0.292126
  13 H :    0.160678
  14 H :    0.193846
  15 H :    0.199746
  16 C :   -0.057501
  17 N :   -0.204026
  18 C :   -0.289502
  19 H :    0.165962
  20 H :    0.200971
  21 H :    0.166293
  22 C :   -0.109026
  23 N :   -0.135316
Sum of atomic charges:   -0.0000000

LOEWDIN ATOMIC CHARGES
----------------------
   0 C :   -0.281886
   1 H :    0.149433
   2 H :    0.149463
   3 H :    0.154605
   4 C :   -0.205928
   5 N :    0.033646
   6 C :   -0.279722
   7 H :    0.150842
   8 H :    0.154529
   9 H :    0.153096
  10 C :   -0.195984
  11 N :    0.017905
  12 C :   -0.279722
  13 H :    0.150843
  14 H :    0.153096
  15 H :    0.154529
  16 C :   -0.195984
  17 N :    0.017905
  18 C :   -0.281886
  19 H :    0.149432
  20 H :    0.154606
  21 H :    0.149463
  22 C :   -0.205928
  23 N :    0.033647

  Mayer bond orders larger than 0.100000
B(  0-C ,  1-H ) :   0.9168 B(  0-C ,  2-H ) :   0.9169 B(  0-C ,  3-H ) :   0.9042
B(  0-C ,  4-C ) :   0.9005 B(  4-C ,  5-N ) :   2.7855 B(  6-C ,  7-H ) :   0.9135
B(  6-C ,  8-H ) :   0.9042 B(  6-C ,  9-H ) :   0.9062 B(  6-C , 10-C ) :   0.8994
B( 10-C , 11-N ) :   2.7099 B( 12-C , 13-H ) :   0.9135 B( 12-C , 14-H ) :   0.9062
B( 12-C , 15-H ) :   0.9042 B( 12-C , 16-C ) :   0.8994 B( 16-C , 17-N ) :   2.7099
B( 18-C , 19-H ) :   0.9168 B( 18-C , 20-H ) :   0.9042 B( 18-C , 21-H ) :   0.9169
B( 18-C , 22-C ) :   0.9005 B( 22-C , 23-N ) :   2.7855

MP2 TOTAL ENERGY:     -529.960254552 Eh
FINAL SINGLE POINT ENERGY      -529.960254552474

DIPOLE MOMENT
-------------
                                X             Y             Z
Electronic contribution:      0.00000       0.00000      -0.00001
Nuclear contribution   :     -0.00001      -0.00000       0.00001
                        -----------------------------------------
Total Dipole Moment    :     -0.00000      -0.00000       0.00000
                        -----------------------------------------
Magnitude (a.u.)       :      0.00000
Magnitude (Debye)      :      0.00001

Rotational constants in cm-1:     0.062779     0.007795     0.007113
Rotational constants in MHz :  1882.069521   233.673956   213.252125

                             ****ORCA TERMINATED NORMALLY****
TOTAL RUN TIME: 0 days 0 hours 8 minutes 20 seconds 61 msec
