                         Program Version 3.0.3 - RELEASE   -
|  1> ! wB97X-D3 MA-Def2-TZVP def2-TZVP/J RIJCOSX TightSCF Grid4
|  2>
|  3> %pal nprocs 1 end
|  4>
|  5> %scf
|  6>         maxiter 400
|  7> end
|  8>
|  9> * xyz  0  1
| 10> O  3.557037	1.159517	-2.553959
| 11> H  4.168122	1.736255	-3.031333
| 12> H  2.963966	0.734875	-3.258050
| 13> O  -2.081329	0.844912	-0.564169
| 14> H  -1.454948	1.344691	0.024348
| 15> H  -2.959478	1.048992	-0.169139
| 16> O  -0.144251	0.348038	-2.407696
| 17> H  -1.032364	0.604327	-2.077402
| 18> H  0.468093	0.862451	-1.817761
| 19> O  1.938364	-0.073544	-4.196108
| 20> H  2.080456	-0.997327	-3.888872
| 21> H  1.052604	0.143665	-3.835204
| 22> O  2.385927	-2.436802	-2.817323
| 23> H  3.076684	-2.021909	-2.198117
| 24> H  2.808036	-3.221447	-3.192269
| 25> O  -4.074453	1.154015	1.239715
| 26> H  -3.977392	0.264661	1.716795
| 27> H  -5.021933	1.344381	1.218908
| 28> O  0.074616	-0.388331	2.358886
| 29> H  -0.392832	-0.292662	3.221176
| 30> H  -0.570741	-0.885864	1.789229
| 31> O  -3.605041	-1.075337	2.489431
| 32> H  -3.030378	-0.797442	3.236504
| 33> H  -2.997389	-1.535398	1.872392
| 34> O  -1.792969	0.140216	4.224976
| 35> H  -1.989034	1.055325	3.834527
| 36> H  -1.844993	0.229736	5.185612
| 37> O  1.612136	1.526034	-0.696436
| 38> H  2.385328	1.668408	-1.286566
| 39> H  1.831805	0.698413	-0.190244
| 40> O  -2.296939	2.366211	2.975247
| 41> H  -1.539356	2.523738	2.372923
| 42> H  -3.025783	2.104371	2.369603
| 43> O  -1.653984	-1.542588	0.623880
| 44> H  -1.867301	-0.713503	0.118059
| 45> H  -1.073354	-2.047560	0.014648
| 46> O  -0.312726	1.981080	1.142634
| 47> H  -0.075216	1.151696	1.635234
| 48> H  0.455254	2.164815	0.560211
| 49> O  4.037511	-1.213720	-1.249477
| 50> H  4.060058	-0.317307	-1.652772
| 51> H  3.545499	-1.095703	-0.408762
| 52> O  2.017549	-0.801537	0.536849
| 53> H  1.573404	-0.739982	1.411681
| 54> H  1.388904	-1.326899	-0.027577
| 55> O  0.304515	-2.014961	-1.183314
| 56> H  0.952630	-2.465411	-1.771997
| 57> H  0.075683	-1.195589	-1.698922
| 58> **                         ****END OF INPUT****

CARTESIAN COORDINATES (ANGSTROEM)
---------------------------------
  O      3.557037    1.159517   -2.553959
  H      4.168122    1.736255   -3.031333
  H      2.963966    0.734875   -3.258050
  O     -2.081329    0.844912   -0.564169
  H     -1.454948    1.344691    0.024348
  H     -2.959478    1.048992   -0.169139
  O     -0.144251    0.348038   -2.407696
  H     -1.032364    0.604327   -2.077402
  H      0.468093    0.862451   -1.817761
  O      1.938364   -0.073544   -4.196108
  H      2.080456   -0.997327   -3.888872
  H      1.052604    0.143665   -3.835204
  O      2.385927   -2.436802   -2.817323
  H      3.076684   -2.021909   -2.198117
  H      2.808036   -3.221447   -3.192269
  O     -4.074453    1.154015    1.239715
  H     -3.977392    0.264661    1.716795
  H     -5.021933    1.344381    1.218908
  O      0.074616   -0.388331    2.358886
  H     -0.392832   -0.292662    3.221176
  H     -0.570741   -0.885864    1.789229
  O     -3.605041   -1.075337    2.489431
  H     -3.030378   -0.797442    3.236504
  H     -2.997389   -1.535398    1.872392
  O     -1.792969    0.140216    4.224976
  H     -1.989034    1.055325    3.834527
  H     -1.844993    0.229736    5.185612
  O      1.612136    1.526034   -0.696436
  H      2.385328    1.668408   -1.286566
  H      1.831805    0.698413   -0.190244
  O     -2.296939    2.366211    2.975247
  H     -1.539356    2.523738    2.372923
  H     -3.025783    2.104371    2.369603
  O     -1.653984   -1.542588    0.623880
  H     -1.867301   -0.713503    0.118059
  H     -1.073354   -2.047560    0.014648
  O     -0.312726    1.981080    1.142634
  H     -0.075216    1.151696    1.635234
  H      0.455254    2.164815    0.560211
  O      4.037511   -1.213720   -1.249477
  H      4.060058   -0.317307   -1.652772
  H      3.545499   -1.095703   -0.408762
  O      2.017549   -0.801537    0.536849
  H      1.573404   -0.739982    1.411681
  H      1.388904   -1.326899   -0.027577
  O      0.304515   -2.014961   -1.183314
  H      0.952630   -2.465411   -1.771997
  H      0.075683   -1.195589   -1.698922

 Total Charge           Charge          ....    0
 Multiplicity           Mult            ....    1
 Number of Electrons    NEL             ....  160
 Basis Dimension        Dim             ....  752

ORBITAL ENERGIES
----------------

  NO   OCC          E(Eh)            E(eV)
   0   2.0000     -19.254718      -523.9475
   1   2.0000     -19.253230      -523.9070
   2   2.0000     -19.252733      -523.8935
   3   2.0000     -19.252134      -523.8772
   4   2.0000     -19.243772      -523.6497
   5   2.0000     -19.241645      -523.5918
   6   2.0000     -19.240410      -523.5582
   7   2.0000     -19.240283      -523.5547
   8   2.0000     -19.239629      -523.5369
   9   2.0000     -19.239023      -523.5204
  10   2.0000     -19.238683      -523.5112
  11   2.0000     -19.237864      -523.4889
  12   2.0000     -19.235444      -523.4230
  13   2.0000     -19.235422      -523.4224
  14   2.0000     -19.234151      -523.3878
  15   2.0000     -19.232662      -523.3473
  16   2.0000      -1.162051       -31.6210
  17   2.0000      -1.156356       -31.4661
  18   2.0000      -1.147549       -31.2264
  19   2.0000      -1.146135       -31.1879
  20   2.0000      -1.145904       -31.1816
  21   2.0000      -1.138602       -30.9829
  22   2.0000      -1.137434       -30.9511
  23   2.0000      -1.136997       -30.9393
  24   2.0000      -1.126602       -30.6564
  25   2.0000      -1.125496       -30.6263
  26   2.0000      -1.123923       -30.5835
  27   2.0000      -1.119267       -30.4568
  28   2.0000      -1.118241       -30.4289
  29   2.0000      -1.117361       -30.4049
  30   2.0000      -1.110431       -30.2164
  31   2.0000      -1.102478       -29.9999
  32   2.0000      -0.665586       -18.1115
  33   2.0000      -0.662090       -18.0164
  34   2.0000      -0.659585       -17.9482
  35   2.0000      -0.658392       -17.9158
  36   2.0000      -0.656106       -17.8535
  37   2.0000      -0.653076       -17.7711
  38   2.0000      -0.648906       -17.6576
  39   2.0000      -0.647419       -17.6172
  40   2.0000      -0.641460       -17.4550
  41   2.0000      -0.640070       -17.4172
  42   2.0000      -0.634250       -17.2588
  43   2.0000      -0.633376       -17.2350
  44   2.0000      -0.629596       -17.1322
  45   2.0000      -0.628184       -17.0937
  46   2.0000      -0.623450       -16.9649
  47   2.0000      -0.623177       -16.9575
  48   2.0000      -0.583872       -15.8880
  49   2.0000      -0.570775       -15.5316
  50   2.0000      -0.547888       -14.9088
  51   2.0000      -0.546482       -14.8705
  52   2.0000      -0.534727       -14.5507
  53   2.0000      -0.529833       -14.4175
  54   2.0000      -0.528995       -14.3947
  55   2.0000      -0.520630       -14.1671
  56   2.0000      -0.506530       -13.7834
  57   2.0000      -0.504582       -13.7304
  58   2.0000      -0.503001       -13.6873
  59   2.0000      -0.500836       -13.6284
  60   2.0000      -0.483971       -13.1695
  61   2.0000      -0.481877       -13.1126
  62   2.0000      -0.472311       -12.8522
  63   2.0000      -0.452981       -12.3262
  64   2.0000      -0.441524       -12.0145
  65   2.0000      -0.440828       -11.9955
  66   2.0000      -0.439791       -11.9673
  67   2.0000      -0.438315       -11.9272
  68   2.0000      -0.432796       -11.7770
  69   2.0000      -0.430588       -11.7169
  70   2.0000      -0.428950       -11.6723
  71   2.0000      -0.427156       -11.6235
  72   2.0000      -0.425696       -11.5838
  73   2.0000      -0.425025       -11.5655
  74   2.0000      -0.423860       -11.5338
  75   2.0000      -0.421660       -11.4739
  76   2.0000      -0.419889       -11.4258
  77   2.0000      -0.419726       -11.4213
  78   2.0000      -0.418588       -11.3904
  79   2.0000      -0.417993       -11.3742
  80   0.0000       0.051902         1.4123
  81   0.0000       0.060045         1.6339
  82   0.0000       0.074929         2.0389
  83   0.0000       0.075333         2.0499
  84   0.0000       0.090388         2.4596

MULLIKEN ATOMIC CHARGES
-----------------------
   0 O :   -0.832203
   1 H :    0.361071
   2 H :    0.418184
   3 O :   -0.810845
   4 H :    0.417071
   5 H :    0.410974
   6 O :   -0.842241
   7 H :    0.427427
   8 H :    0.407337
   9 O :   -0.744817
  10 H :    0.402921
  11 H :    0.410875
  12 O :   -0.832589
  13 H :    0.416050
  14 H :    0.358437
  15 O :   -0.829723
  16 H :    0.418856
  17 H :    0.359200
  18 O :   -0.826754
  19 H :    0.423395
  20 H :    0.403554
  21 O :   -0.756197
  22 H :    0.409440
  23 H :    0.409496
  24 O :   -0.822629
  25 H :    0.427558
  26 H :    0.360079
  27 O :   -0.823440
  28 H :    0.417519
  29 H :    0.405438
  30 O :   -0.772222
  31 H :    0.416527
  32 H :    0.403435
  33 O :   -0.864323
  34 H :    0.410160
  35 H :    0.433916
  36 O :   -0.870400
  37 H :    0.417641
  38 H :    0.429925
  39 O :   -0.752816
  40 H :    0.410187
  41 H :    0.413638
  42 O :   -0.873691
  43 H :    0.437323
  44 H :    0.413021
  45 O :   -0.829101
  46 H :    0.411483
  47 H :    0.421855
Sum of atomic charges:   -0.0000000

LOEWDIN ATOMIC CHARGES
----------------------
   0 O :   -0.396871
   1 H :    0.191568
   2 H :    0.191490
   3 O :   -0.400138
   4 H :    0.191883
   5 H :    0.196793
   6 O :   -0.396565
   7 H :    0.203362
   8 H :    0.192146
   9 O :   -0.358329
  10 H :    0.193091
  11 H :    0.200115
  12 O :   -0.396684
  13 H :    0.186481
  14 H :    0.191040
  15 O :   -0.396610
  16 H :    0.188733
  17 H :    0.191197
  18 O :   -0.399284
  19 H :    0.196902
  20 H :    0.191032
  21 O :   -0.355086
  22 H :    0.194426
  23 H :    0.197811
  24 O :   -0.398605
  25 H :    0.190697
  26 H :    0.190749
  27 O :   -0.402557
  28 H :    0.194982
  29 H :    0.185202
  30 O :   -0.360050
  31 H :    0.197718
  32 H :    0.191710
  33 O :   -0.397637
  34 H :    0.190960
  35 H :    0.201775
  36 O :   -0.395935
  37 H :    0.188993
  38 H :    0.200746
  39 O :   -0.352762
  40 H :    0.192378
  41 H :    0.197386
  42 O :   -0.392485
  43 H :    0.202095
  44 H :    0.192821
  45 O :   -0.402895
  46 H :    0.194582
  47 H :    0.191628

  Mayer bond orders larger than 0.1
B(  0-O ,  1-H ) :   0.8721 B(  0-O ,  2-H ) :   0.7523 B(  2-H ,  9-O ) :   0.1086
B(  3-O ,  4-H ) :   0.8181 B(  3-O ,  5-H ) :   0.8266 B(  6-O ,  7-H ) :   0.8274
B(  6-O ,  8-H ) :   0.8207 B(  9-O , 10-H ) :   0.8515 B(  9-O , 11-H ) :   0.8438
B( 12-O , 13-H ) :   0.7481 B( 12-O , 14-H ) :   0.8755 B( 13-H , 39-O ) :   0.1231
B( 15-O , 16-H ) :   0.7524 B( 15-O , 17-H ) :   0.8745 B( 16-H , 21-O ) :   0.1130
B( 18-O , 19-H ) :   0.8150 B( 18-O , 20-H ) :   0.8181 B( 21-O , 22-H ) :   0.8515
B( 21-O , 23-H ) :   0.8423 B( 24-O , 25-H ) :   0.7536 B( 24-O , 26-H ) :   0.8740
B( 27-O , 28-H ) :   0.8266 B( 27-O , 29-H ) :   0.8143 B( 30-O , 31-H ) :   0.8348
B( 30-O , 32-H ) :   0.8491 B( 33-O , 34-H ) :   0.8105 B( 33-O , 35-H ) :   0.8232
B( 36-O , 37-H ) :   0.8180 B( 36-O , 38-H ) :   0.8246 B( 39-O , 40-H ) :   0.8498
B( 39-O , 41-H ) :   0.8394 B( 42-O , 43-H ) :   0.8168 B( 42-O , 44-H ) :   0.8133
B( 45-O , 46-H ) :   0.8218 B( 45-O , 47-H ) :   0.8140

Dispersion correction           -0.031983429
FINAL SINGLE POINT ENERGY     -1223.329283244384

DIPOLE MOMENT
-------------
                                X             Y             Z
Electronic contribution:      0.00421      -0.02983      -0.04710
Nuclear contribution   :      0.08499       0.06691       0.19193
                        -----------------------------------------
Total Dipole Moment    :      0.08920       0.03709       0.14483
                        -----------------------------------------
Magnitude (a.u.)       :      0.17409
Magnitude (Debye)      :      0.44251

                             ****ORCA TERMINATED NORMALLY****
TOTAL RUN TIME: 0 days 0 hours 28 minutes 12 seconds 681 msec
