                         Program Version 3.0.3 - RELEASE   -
|  1> ! wB97X-D3 MA-Def2-TZVP def2-TZVP/J RIJCOSX TightSCF Grid4
|  2>
|  3> %pal nprocs 1 end
|  4>
|  5> %scf
|  6>         maxiter 400
|  7> end
|  8>
|  9> * xyz  0  1
| 10> O  3.481732	1.105224	-2.475533
| 11> H  4.111890	1.665694	-2.963956
| 12> H  2.849339	0.679647	-3.193209
| 13> O  -2.106394	0.819530	-0.501748
| 14> H  -1.459670	1.340932	0.085504
| 15> H  -2.993174	1.019836	-0.082312
| 16> O  -0.153823	0.393689	-2.274783
| 17> H  -1.053244	0.624757	-1.912297
| 18> H  0.487437	0.910981	-1.678149
| 19> O  1.842710	-0.059539	-4.055273
| 20> H  1.999137	-1.004259	-3.768595
| 21> H  0.960569	0.156834	-3.649125
| 22> O  2.357712	-2.429954	-2.809743
| 23> H  3.106453	-2.042308	-2.189055
| 24> H  2.728523	-3.232813	-3.218672
| 25> O  -4.062655	1.135349	1.267820
| 26> H  -3.950295	0.198768	1.720644
| 27> H  -5.022161	1.294644	1.203632
| 28> O  0.131437	-0.372690	2.267061
| 29> H  -0.379185	-0.264683	3.122191
| 30> H  -0.523264	-0.885714	1.679620
| 31> O  -3.568344	-1.101236	2.412828
| 32> H  -2.964559	-0.769405	3.136354
| 33> H  -2.938497	-1.533986	1.774689
| 34> O  -1.775502	0.166386	4.036619
| 35> H  -1.992285	1.122169	3.669744
| 36> H  -1.809274	0.231553	5.008561
| 37> O  1.600893	1.524164	-0.644079
| 38> H  2.372706	1.650095	-1.269556
| 39> H  1.850800	0.669785	-0.152793
| 40> O  -2.314611	2.409117	2.927925
| 41> H  -1.550355	2.536383	2.302563
| 42> H  -3.052544	2.106341	2.325525
| 43> O  -1.590319	-1.525563	0.625881
| 44> H  -1.838761	-0.671438	0.133897
| 45> H  -0.997531	-2.000030	-0.021174
| 46> O  -0.354069	1.967017	1.114302
| 47> H  -0.100420	1.109562	1.598767
| 48> H  0.431764	2.146995	0.528017
| 49> O  4.057115	-1.282888	-1.282250
| 50> H  4.029907	-0.367453	-1.683464
| 51> H  3.554067	-1.171274	-0.430395
| 52> O  2.093512	-0.807578	0.518661
| 53> H  1.620166	-0.732334	1.393665
| 54> H  1.433667	-1.316363	-0.064513
| 55> O  0.355832	-1.938579	-1.133455
| 56> H  0.980685	-2.391513	-1.771138
| 57> H  0.112881	-1.083851	-1.629203
| 58> **                         ****END OF INPUT****

CARTESIAN COORDINATES (ANGSTROEM)
---------------------------------
  O      3.481732    1.105224   -2.475533
  H      4.111890    1.665694   -2.963956
  H      2.849339    0.679647   -3.193209
  O     -2.106394    0.819530   -0.501748
  H     -1.459670    1.340932    0.085504
  H     -2.993174    1.019836   -0.082312
  O     -0.153823    0.393689   -2.274783
  H     -1.053244    0.624757   -1.912297
  H      0.487437    0.910981   -1.678149
  O      1.842710   -0.059539   -4.055273
  H      1.999137   -1.004259   -3.768595
  H      0.960569    0.156834   -3.649125
  O      2.357712   -2.429954   -2.809743
  H      3.106453   -2.042308   -2.189055
  H      2.728523   -3.232813   -3.218672
  O     -4.062655    1.135349    1.267820
  H     -3.950295    0.198768    1.720644
  H     -5.022161    1.294644    1.203632
  O      0.131437   -0.372690    2.267061
  H     -0.379185   -0.264683    3.122191
  H     -0.523264   -0.885714    1.679620
  O     -3.568344   -1.101236    2.412828
  H     -2.964559   -0.769405    3.136354
  H     -2.938497   -1.533986    1.774689
  O     -1.775502    0.166386    4.036619
  H     -1.992285    1.122169    3.669744
  H     -1.809274    0.231553    5.008561
  O      1.600893    1.524164   -0.644079
  H      2.372706    1.650095   -1.269556
  H      1.850800    0.669785   -0.152793
  O     -2.314611    2.409117    2.927925
  H     -1.550355    2.536383    2.302563
  H     -3.052544    2.106341    2.325525
  O     -1.590319   -1.525563    0.625881
  H     -1.838761   -0.671438    0.133897
  H     -0.997531   -2.000030   -0.021174
  O     -0.354069    1.967017    1.114302
  H     -0.100420    1.109562    1.598767
  H      0.431764    2.146995    0.528017
  O      4.057115   -1.282888   -1.282250
  H      4.029907   -0.367453   -1.683464
  H      3.554067   -1.171274   -0.430395
  O      2.093512   -0.807578    0.518661
  H      1.620166   -0.732334    1.393665
  H      1.433667   -1.316363   -0.064513
  O      0.355832   -1.938579   -1.133455
  H      0.980685   -2.391513   -1.771138
  H      0.112881   -1.083851   -1.629203

 Total Charge           Charge          ....    0
 Multiplicity           Mult            ....    1
 Number of Electrons    NEL             ....  160
 Basis Dimension        Dim             ....  752

ORBITAL ENERGIES
----------------

  NO   OCC          E(Eh)            E(eV)
   0   2.0000     -19.254150      -523.9321
   1   2.0000     -19.253971      -523.9272
   2   2.0000     -19.253827      -523.9233
   3   2.0000     -19.253767      -523.9216
   4   2.0000     -19.242099      -523.6041
   5   2.0000     -19.241685      -523.5929
   6   2.0000     -19.241594      -523.5904
   7   2.0000     -19.241334      -523.5833
   8   2.0000     -19.240774      -523.5681
   9   2.0000     -19.240644      -523.5646
  10   2.0000     -19.239958      -523.5459
  11   2.0000     -19.239931      -523.5451
  12   2.0000     -19.238019      -523.4931
  13   2.0000     -19.237975      -523.4919
  14   2.0000     -19.237609      -523.4819
  15   2.0000     -19.237482      -523.4785
  16   2.0000      -1.162331       -31.6286
  17   2.0000      -1.155544       -31.4440
  18   2.0000      -1.145137       -31.1608
  19   2.0000      -1.142947       -31.1012
  20   2.0000      -1.142590       -31.0915
  21   2.0000      -1.134478       -30.8707
  22   2.0000      -1.134421       -30.8692
  23   2.0000      -1.134060       -30.8593
  24   2.0000      -1.122203       -30.5367
  25   2.0000      -1.122079       -30.5333
  26   2.0000      -1.118694       -30.4412
  27   2.0000      -1.112962       -30.2852
  28   2.0000      -1.112813       -30.2812
  29   2.0000      -1.112521       -30.2732
  30   2.0000      -1.103421       -30.0256
  31   2.0000      -1.092938       -29.7404
  32   2.0000      -0.660836       -17.9823
  33   2.0000      -0.659103       -17.9351
  34   2.0000      -0.658368       -17.9151
  35   2.0000      -0.658046       -17.9063
  36   2.0000      -0.654879       -17.8202
  37   2.0000      -0.649714       -17.6796
  38   2.0000      -0.646778       -17.5997
  39   2.0000      -0.646580       -17.5943
  40   2.0000      -0.638769       -17.3818
  41   2.0000      -0.635806       -17.3012
  42   2.0000      -0.629921       -17.1410
  43   2.0000      -0.629465       -17.1286
  44   2.0000      -0.625216       -17.0130
  45   2.0000      -0.623880       -16.9766
  46   2.0000      -0.621072       -16.9002
  47   2.0000      -0.620310       -16.8795
  48   2.0000      -0.591345       -16.0913
  49   2.0000      -0.578088       -15.7306
  50   2.0000      -0.550160       -14.9706
  51   2.0000      -0.548915       -14.9367
  52   2.0000      -0.537653       -14.6303
  53   2.0000      -0.532314       -14.4850
  54   2.0000      -0.531720       -14.4689
  55   2.0000      -0.525259       -14.2930
  56   2.0000      -0.505531       -13.7562
  57   2.0000      -0.505187       -13.7468
  58   2.0000      -0.504945       -13.7402
  59   2.0000      -0.504204       -13.7201
  60   2.0000      -0.482589       -13.1319
  61   2.0000      -0.481837       -13.1115
  62   2.0000      -0.472010       -12.8441
  63   2.0000      -0.450382       -12.2555
  64   2.0000      -0.438937       -11.9441
  65   2.0000      -0.438702       -11.9377
  66   2.0000      -0.436474       -11.8771
  67   2.0000      -0.436270       -11.8715
  68   2.0000      -0.429167       -11.6782
  69   2.0000      -0.428785       -11.6678
  70   2.0000      -0.428511       -11.6604
  71   2.0000      -0.424550       -11.5526
  72   2.0000      -0.424187       -11.5427
  73   2.0000      -0.423652       -11.5282
  74   2.0000      -0.420373       -11.4389
  75   2.0000      -0.420215       -11.4346
  76   2.0000      -0.419997       -11.4287
  77   2.0000      -0.419624       -11.4185
  78   2.0000      -0.417754       -11.3677
  79   2.0000      -0.417533       -11.3617
  80   0.0000       0.052034         1.4159
  81   0.0000       0.059740         1.6256
  82   0.0000       0.074725         2.0334
  83   0.0000       0.074882         2.0377
  84   0.0000       0.091451         2.4885

MULLIKEN ATOMIC CHARGES
-----------------------
   0 O :   -0.855645
   1 H :    0.361753
   2 H :    0.425019
   3 O :   -0.849383
   4 H :    0.431463
   5 H :    0.425849
   6 O :   -0.883101
   7 H :    0.448429
   8 H :    0.427987
   9 O :   -0.753001
  10 H :    0.416937
  11 H :    0.430186
  12 O :   -0.856767
  13 H :    0.427233
  14 H :    0.361905
  15 O :   -0.859014
  16 H :    0.425020
  17 H :    0.362239
  18 O :   -0.849920
  19 H :    0.427883
  20 H :    0.425862
  21 O :   -0.750384
  22 H :    0.416547
  23 H :    0.430525
  24 O :   -0.857850
  25 H :    0.426947
  26 H :    0.362084
  27 O :   -0.871771
  28 H :    0.429169
  29 H :    0.427515
  30 O :   -0.753498
  31 H :    0.430632
  32 H :    0.416445
  33 O :   -0.901377
  34 H :    0.422980
  35 H :    0.448602
  36 O :   -0.903102
  37 H :    0.423278
  38 H :    0.446964
  39 O :   -0.755692
  40 H :    0.416339
  41 H :    0.430842
  42 O :   -0.878135
  43 H :    0.448894
  44 H :    0.422476
  45 O :   -0.874391
  46 H :    0.428167
  47 H :    0.426861
Sum of atomic charges:    0.0000000

LOEWDIN ATOMIC CHARGES
----------------------
   0 O :   -0.416970
   1 H :    0.195297
   2 H :    0.194841
   3 O :   -0.416370
   4 H :    0.195646
   5 H :    0.202050
   6 O :   -0.409840
   7 H :    0.209439
   8 H :    0.195953
   9 O :   -0.356324
  10 H :    0.199980
  11 H :    0.206107
  12 O :   -0.416206
  13 H :    0.194991
  14 H :    0.195246
  15 O :   -0.416085
  16 H :    0.195387
  17 H :    0.195673
  18 O :   -0.416783
  19 H :    0.202435
  20 H :    0.195324
  21 O :   -0.357586
  22 H :    0.200092
  23 H :    0.205135
  24 O :   -0.416681
  25 H :    0.195208
  26 H :    0.195517
  27 O :   -0.415381
  28 H :    0.202875
  29 H :    0.196014
  30 O :   -0.357866
  31 H :    0.205907
  32 H :    0.199926
  33 O :   -0.409148
  34 H :    0.195866
  35 H :    0.208544
  36 O :   -0.409890
  37 H :    0.196174
  38 H :    0.209322
  39 O :   -0.357342
  40 H :    0.200392
  41 H :    0.206093
  42 O :   -0.411368
  43 H :    0.209406
  44 H :    0.195825
  45 O :   -0.414753
  46 H :    0.202229
  47 H :    0.195701

  Mayer bond orders larger than 0.1
B(  0-O ,  1-H ) :   0.8693 B(  0-O ,  2-H ) :   0.7112 B(  2-H ,  9-O ) :   0.1576
B(  3-O ,  4-H ) :   0.7859 B(  3-O ,  5-H ) :   0.8019 B(  6-O ,  7-H ) :   0.8038
B(  6-O ,  8-H ) :   0.7833 B(  9-O , 10-H ) :   0.8359 B(  9-O , 11-H ) :   0.8228
B( 12-O , 13-H ) :   0.7116 B( 12-O , 14-H ) :   0.8693 B( 13-H , 39-O ) :   0.1548
B( 15-O , 16-H ) :   0.7118 B( 15-O , 17-H ) :   0.8691 B( 16-H , 21-O ) :   0.1577
B( 18-O , 19-H ) :   0.7997 B( 18-O , 20-H ) :   0.7831 B( 21-O , 22-H ) :   0.8372
B( 21-O , 23-H ) :   0.8211 B( 24-O , 25-H ) :   0.7120 B( 24-O , 26-H ) :   0.8691
B( 25-H , 30-O ) :   0.1540 B( 27-O , 28-H ) :   0.8019 B( 27-O , 29-H ) :   0.7866
B( 30-O , 31-H ) :   0.8205 B( 30-O , 32-H ) :   0.8362 B( 33-O , 34-H ) :   0.7847
B( 33-O , 35-H ) :   0.8027 B( 36-O , 37-H ) :   0.7842 B( 36-O , 38-H ) :   0.8037
B( 39-O , 40-H ) :   0.8358 B( 39-O , 41-H ) :   0.8210 B( 42-O , 43-H ) :   0.8019
B( 42-O , 44-H ) :   0.7841 B( 45-O , 46-H ) :   0.8016 B( 45-O , 47-H ) :   0.7838

Dispersion correction           -0.033116315
FINAL SINGLE POINT ENERGY     -1223.306736690651

DIPOLE MOMENT
-------------
                                X             Y             Z
Electronic contribution:      0.00327      -0.00162      -0.01502
Nuclear contribution   :      0.01192      -0.00611       0.01440
                        -----------------------------------------
Total Dipole Moment    :      0.01519      -0.00773      -0.00062
                        -----------------------------------------
Magnitude (a.u.)       :      0.01706
Magnitude (Debye)      :      0.04336

                             ****ORCA TERMINATED NORMALLY****
TOTAL RUN TIME: 0 days 0 hours 29 minutes 22 seconds 804 msec
