                         Program Version 3.0.3 - RELEASE   -
|  1> ! wB97X-D3 Def2-TZVP def2-TZVP/J RIJCOSX TightSCF Grid4 COSMO
|  2>
|  3> %pal nprocs 12 end
|  4>
|  5> %scf
|  6>         maxiter 400
|  7> end
|  8>
|  9> %cosmo
| 10>         SMD true
| 11>         solvent "WATER"
| 12> end
| 13>
| 14> * xyz  0  1
| 15> O  3.477378	1.075883	-2.483664
| 16> H  4.121695	1.646874	-2.946578
| 17> H  2.872092	0.680186	-3.214160
| 18> O  -2.121496	0.837051	-0.480122
| 19> H  -1.463747	1.348456	0.100194
| 20> H  -2.998581	1.013048	-0.017044
| 21> O  -0.162781	0.421939	-2.272704
| 22> H  -1.050020	0.635243	-1.872049
| 23> H  0.495028	0.921053	-1.677919
| 24> O  1.807513	-0.103142	-4.108020
| 25> H  1.996188	-1.027731	-3.765610
| 26> H  0.954551	0.129218	-3.654873
| 27> O  2.364954	-2.402864	-2.805589
| 28> H  3.125835	-2.050715	-2.211056
| 29> H  2.699331	-3.223339	-3.217907
| 30> O  -4.049147	1.127977	1.291489
| 31> H  -3.976654	0.205108	1.738511
| 32> H  -5.005120	1.306092	1.190852
| 33> O  0.111710	-0.376031	2.280052
| 34> H  -0.429651	-0.246760	3.119746
| 35> H  -0.534521	-0.882809	1.680816
| 36> O  -3.565868	-1.159955	2.458555
| 37> H  -2.954638	-0.769771	3.152313
| 38> H  -2.929173	-1.536068	1.794302
| 39> O  -1.794811	0.164993	4.015157
| 40> H  -2.008340	1.116586	3.689692
| 41> H  -1.823778	0.199443	4.991762
| 42> O  1.628449	1.514347	-0.654640
| 43> H  2.390556	1.603206	-1.307047
| 44> H  1.863938	0.660485	-0.158988
| 45> O  -2.344902	2.464788	2.908407
| 46> H  -1.574109	2.543840	2.285737
| 47> H  -3.072628	2.105633	2.318022
| 48> O  -1.597422	-1.527324	0.605039
| 49> H  -1.846953	-0.663998	0.129563
| 50> H  -0.974331	-1.970155	-0.036087
| 51> O  -0.329218	1.973544	1.120899
| 52> H  -0.094381	1.111920	1.607057
| 53> H  0.446871	2.115711	0.511479
| 54> O  4.119701	-1.248580	-1.254673
| 55> H  4.033232	-0.346639	-1.687592
| 56> H  3.568622	-1.150762	-0.433251
| 57> O  2.088955	-0.826484	0.530553
| 58> H  1.586714	-0.726437	1.386673
| 59> H  1.432896	-1.321354	-0.069599
| 60> O  0.368258	-1.932502	-1.153548
| 61> H  1.028916	-2.353815	-1.786600
| 62> H  0.118881	-1.075388	-1.637553
| 63> **                         ****END OF INPUT****

CARTESIAN COORDINATES (ANGSTROEM)
---------------------------------
  O      3.477378    1.075883   -2.483664
  H      4.121695    1.646874   -2.946578
  H      2.872092    0.680186   -3.214160
  O     -2.121496    0.837051   -0.480122
  H     -1.463747    1.348456    0.100194
  H     -2.998581    1.013048   -0.017044
  O     -0.162781    0.421939   -2.272704
  H     -1.050020    0.635243   -1.872049
  H      0.495028    0.921053   -1.677919
  O      1.807513   -0.103142   -4.108020
  H      1.996188   -1.027731   -3.765610
  H      0.954551    0.129218   -3.654873
  O      2.364954   -2.402864   -2.805589
  H      3.125835   -2.050715   -2.211056
  H      2.699331   -3.223339   -3.217907
  O     -4.049147    1.127977    1.291489
  H     -3.976654    0.205108    1.738511
  H     -5.005120    1.306092    1.190852
  O      0.111710   -0.376031    2.280052
  H     -0.429651   -0.246760    3.119746
  H     -0.534521   -0.882809    1.680816
  O     -3.565868   -1.159955    2.458555
  H     -2.954638   -0.769771    3.152313
  H     -2.929173   -1.536068    1.794302
  O     -1.794811    0.164993    4.015157
  H     -2.008340    1.116586    3.689692
  H     -1.823778    0.199443    4.991762
  O      1.628449    1.514347   -0.654640
  H      2.390556    1.603206   -1.307047
  H      1.863938    0.660485   -0.158988
  O     -2.344902    2.464788    2.908407
  H     -1.574109    2.543840    2.285737
  H     -3.072628    2.105633    2.318022
  O     -1.597422   -1.527324    0.605039
  H     -1.846953   -0.663998    0.129563
  H     -0.974331   -1.970155   -0.036087
  O     -0.329218    1.973544    1.120899
  H     -0.094381    1.111920    1.607057
  H      0.446871    2.115711    0.511479
  O      4.119701   -1.248580   -1.254673
  H      4.033232   -0.346639   -1.687592
  H      3.568622   -1.150762   -0.433251
  O      2.088955   -0.826484    0.530553
  H      1.586714   -0.726437    1.386673
  H      1.432896   -1.321354   -0.069599
  O      0.368258   -1.932502   -1.153548
  H      1.028916   -2.353815   -1.786600
  H      0.118881   -1.075388   -1.637553

 Total Charge           Charge          ....    0
 Multiplicity           Mult            ....    1
 Number of Electrons    NEL             ....  160
 Basis Dimension        Dim             ....  688

ORBITAL ENERGIES
----------------

  NO   OCC          E(Eh)            E(eV)
   0   2.0000     -19.241338      -523.5834
   1   2.0000     -19.241219      -523.5802
   2   2.0000     -19.241075      -523.5763
   3   2.0000     -19.241049      -523.5756
   4   2.0000     -19.237368      -523.4754
   5   2.0000     -19.236949      -523.4640
   6   2.0000     -19.236832      -523.4608
   7   2.0000     -19.236532      -523.4527
   8   2.0000     -19.234203      -523.3893
   9   2.0000     -19.234152      -523.3879
  10   2.0000     -19.233382      -523.3669
  11   2.0000     -19.233333      -523.3656
  12   2.0000     -19.233070      -523.3584
  13   2.0000     -19.232845      -523.3523
  14   2.0000     -19.232728      -523.3491
  15   2.0000     -19.232590      -523.3454
  16   2.0000      -1.155436       -31.4410
  17   2.0000      -1.146938       -31.2098
  18   2.0000      -1.136340       -30.9214
  19   2.0000      -1.134846       -30.8807
  20   2.0000      -1.134264       -30.8649
  21   2.0000      -1.127496       -30.6807
  22   2.0000      -1.126865       -30.6636
  23   2.0000      -1.126607       -30.6565
  24   2.0000      -1.115862       -30.3641
  25   2.0000      -1.115651       -30.3584
  26   2.0000      -1.112715       -30.2785
  27   2.0000      -1.106774       -30.1169
  28   2.0000      -1.106400       -30.1067
  29   2.0000      -1.106282       -30.1035
  30   2.0000      -1.096697       -29.8426
  31   2.0000      -1.086959       -29.5777
  32   2.0000      -0.651868       -17.7382
  33   2.0000      -0.650481       -17.7005
  34   2.0000      -0.649703       -17.6793
  35   2.0000      -0.649160       -17.6645
  36   2.0000      -0.643069       -17.4988
  37   2.0000      -0.640163       -17.4197
  38   2.0000      -0.634199       -17.2574
  39   2.0000      -0.634062       -17.2537
  40   2.0000      -0.631472       -17.1832
  41   2.0000      -0.627344       -17.0709
  42   2.0000      -0.622127       -16.9289
  43   2.0000      -0.621847       -16.9213
  44   2.0000      -0.618984       -16.8434
  45   2.0000      -0.617430       -16.8011
  46   2.0000      -0.616091       -16.7647
  47   2.0000      -0.615056       -16.7365
  48   2.0000      -0.584181       -15.8964
  49   2.0000      -0.569309       -15.4917
  50   2.0000      -0.545453       -14.8425
  51   2.0000      -0.544005       -14.8031
  52   2.0000      -0.528123       -14.3710
  53   2.0000      -0.527117       -14.3436
  54   2.0000      -0.526454       -14.3256
  55   2.0000      -0.522447       -14.2165
  56   2.0000      -0.502027       -13.6608
  57   2.0000      -0.498463       -13.5639
  58   2.0000      -0.498102       -13.5540
  59   2.0000      -0.496783       -13.5182
  60   2.0000      -0.476817       -12.9748
  61   2.0000      -0.476138       -12.9564
  62   2.0000      -0.469398       -12.7730
  63   2.0000      -0.449556       -12.2330
  64   2.0000      -0.430700       -11.7200
  65   2.0000      -0.430634       -11.7181
  66   2.0000      -0.429158       -11.6780
  67   2.0000      -0.425768       -11.5857
  68   2.0000      -0.423496       -11.5239
  69   2.0000      -0.423270       -11.5178
  70   2.0000      -0.421286       -11.4638
  71   2.0000      -0.420651       -11.4465
  72   2.0000      -0.420609       -11.4454
  73   2.0000      -0.420370       -11.4389
  74   2.0000      -0.417993       -11.3742
  75   2.0000      -0.417823       -11.3695
  76   2.0000      -0.417174       -11.3519
  77   2.0000      -0.416218       -11.3259
  78   2.0000      -0.415135       -11.2964
  79   2.0000      -0.413232       -11.2446
  80   0.0000       0.091385         2.4867
  81   0.0000       0.114545         3.1169
  82   0.0000       0.145221         3.9517
  83   0.0000       0.145415         3.9569
  84   0.0000       0.151456         4.1213

MULLIKEN ATOMIC CHARGES
-----------------------
   0 O :   -0.784311
   1 H :    0.409535
   2 H :    0.383784
   3 O :   -0.793599
   4 H :    0.368553
   5 H :    0.401634
   6 O :   -0.788940
   7 H :    0.414398
   8 H :    0.368380
   9 O :   -0.757967
  10 H :    0.382651
  11 H :    0.398109
  12 O :   -0.783604
  13 H :    0.383702
  14 H :    0.409629
  15 O :   -0.784362
  16 H :    0.382054
  17 H :    0.409910
  18 O :   -0.794128
  19 H :    0.402452
  20 H :    0.367166
  21 O :   -0.758367
  22 H :    0.382173
  23 H :    0.399354
  24 O :   -0.784446
  25 H :    0.382906
  26 H :    0.409655
  27 O :   -0.792833
  28 H :    0.402505
  29 H :    0.366341
  30 O :   -0.757897
  31 H :    0.399141
  32 H :    0.382881
  33 O :   -0.788515
  34 H :    0.364804
  35 H :    0.416041
  36 O :   -0.787894
  37 H :    0.364314
  38 H :    0.415104
  39 O :   -0.758210
  40 H :    0.381008
  41 H :    0.399153
  42 O :   -0.789154
  43 H :    0.415049
  44 H :    0.365858
  45 O :   -0.792198
  46 H :    0.402276
  47 H :    0.365902
Sum of atomic charges:   -0.0000000

LOEWDIN ATOMIC CHARGES
----------------------
   0 O :   -0.292182
   1 H :    0.191526
   2 H :    0.152111
   3 O :   -0.322314
   4 H :    0.140980
   5 H :    0.152131
   6 O :   -0.314140
   7 H :    0.159290
   8 H :    0.142120
   9 O :   -0.318612
  10 H :    0.149622
  11 H :    0.155913
  12 O :   -0.290030
  13 H :    0.152043
  14 H :    0.191609
  15 O :   -0.291123
  16 H :    0.151970
  17 H :    0.191764
  18 O :   -0.322063
  19 H :    0.152687
  20 H :    0.141005
  21 O :   -0.319620
  22 H :    0.149527
  23 H :    0.154922
  24 O :   -0.292057
  25 H :    0.151708
  26 H :    0.191528
  27 O :   -0.319415
  28 H :    0.153128
  29 H :    0.141438
  30 O :   -0.318140
  31 H :    0.156283
  32 H :    0.149928
  33 O :   -0.311560
  34 H :    0.141806
  35 H :    0.158547
  36 O :   -0.312533
  37 H :    0.142228
  38 H :    0.159884
  39 O :   -0.319366
  40 H :    0.149822
  41 H :    0.155929
  42 O :   -0.315390
  43 H :    0.159193
  44 H :    0.141566
  45 O :   -0.317431
  46 H :    0.152422
  47 H :    0.141347

  Mayer bond orders larger than 0.1
B(  0-O ,  1-H ) :   0.8355 B(  0-O ,  2-H ) :   0.7329 B(  0-O , 28-H ) :   0.1168
B(  0-O , 40-H ) :   0.1123 B(  2-H ,  9-O ) :   0.1646 B(  3-O ,  4-H ) :   0.7570
B(  3-O ,  5-H ) :   0.7677 B(  3-O , 34-H ) :   0.1559 B(  4-H , 36-O ) :   0.1484
B(  5-H , 15-O ) :   0.1185 B(  6-O ,  7-H ) :   0.7912 B(  6-O ,  8-H ) :   0.7514
B(  6-O , 47-H ) :   0.1516 B(  8-H , 27-O ) :   0.1540 B(  9-O , 10-H ) :   0.7890
B(  9-O , 11-H ) :   0.8122 B( 10-H , 12-O ) :   0.1116 B( 12-O , 13-H ) :   0.7328
B( 12-O , 14-H ) :   0.8354 B( 12-O , 46-H ) :   0.1189 B( 13-H , 39-O ) :   0.1650
B( 15-O , 16-H ) :   0.7327 B( 15-O , 17-H ) :   0.8352 B( 15-O , 32-H ) :   0.1103
B( 16-H , 21-O ) :   0.1667 B( 18-O , 19-H ) :   0.7672 B( 18-O , 20-H ) :   0.7549
B( 18-O , 37-H ) :   0.1556 B( 19-H , 24-O ) :   0.1179 B( 20-H , 33-O ) :   0.1519
B( 21-O , 22-H ) :   0.7898 B( 21-O , 23-H ) :   0.8097 B( 22-H , 24-O ) :   0.1115
B( 24-O , 25-H ) :   0.7328 B( 24-O , 26-H ) :   0.8354 B( 25-H , 30-O ) :   0.1655
B( 27-O , 28-H ) :   0.7681 B( 27-O , 29-H ) :   0.7570 B( 29-H , 42-O ) :   0.1507
B( 30-O , 31-H ) :   0.8103 B( 30-O , 32-H ) :   0.7899 B( 33-O , 34-H ) :   0.7524
B( 33-O , 35-H ) :   0.7873 B( 36-O , 37-H ) :   0.7531 B( 36-O , 38-H ) :   0.7900
B( 39-O , 40-H ) :   0.7900 B( 39-O , 41-H ) :   0.8102 B( 42-O , 43-H ) :   0.7892
B( 42-O , 44-H ) :   0.7520 B( 44-H , 45-O ) :   0.1552 B( 45-O , 46-H ) :   0.7666
B( 45-O , 47-H ) :   0.7560

Dispersion correction           -0.033072425
FINAL SINGLE POINT ENERGY     -1223.339960140496

DIPOLE MOMENT
-------------
                                X             Y             Z
Electronic contribution:      0.00860      -0.00805      -0.01361
Nuclear contribution   :     -0.00318      -0.00909       0.00701
                        -----------------------------------------
Total Dipole Moment    :      0.00541      -0.01714      -0.00659
                        -----------------------------------------
Magnitude (a.u.)       :      0.01914
Magnitude (Debye)      :      0.04866

                             ****ORCA TERMINATED NORMALLY****
TOTAL RUN TIME: 0 days 0 hours 2 minutes 18 seconds 118 msec
